 Gaussian 16, Revision B.01,
 Gaussian 16:  ES64L-G16RevB.01 20-Dec-2017

 -------------------------
 #P B3LYP/6-311+g(d) force
 -------------------------

 -----
 DPGEN
 -----
 Symbolic Z-matrix:
 Charge =  0 Multiplicity = 2

                         Standard orientation:
 ---------------------------------------------------------------------
 Center     Atomic      Atomic             Coordinates (Angstroms)
 Number     Number       Type             X           Y           Z
 ---------------------------------------------------------------------
      1         11           0        1.084539    2.195169    0.438472
      2         11           0        2.477704   -1.177651    1.584825
      3         11           0        0.146462   -1.057426   -1.441274
      4         11           0        3.073071    0.036094   -1.447463
      5         11           0       -2.418342    1.739826   -0.578251
      6         11           0       -2.952679   -1.517253   -0.580618
      7         11           0       -1.410756   -0.218757    2.024309
 ---------------------------------------------------------------------

 SCF Done:  E(UB3LYP) =  -1136.12566596     A.U. after   26 cycles

 The electronic state is 2-A.
 Alpha  occ. eigenvalues --  -38.45032 -38.44316 -38.44310 -38.44257 -38.43424
 Alpha  occ. eigenvalues --  -38.43230 -38.42797  -2.20853  -2.20171  -2.20169
 Alpha  occ. eigenvalues --   -2.20140  -2.19311  -2.19124  -2.18631  -1.14516
 Alpha  occ. eigenvalues --   -1.14491  -1.14483  -1.13868  -1.13849  -1.13838
 Alpha  occ. eigenvalues --   -1.13834  -1.13807  -1.13796  -1.13778  -1.13774
 Alpha  occ. eigenvalues --   -1.13768  -1.12991  -1.12977  -1.12954  -1.12808
 Alpha  occ. eigenvalues --   -1.12792  -1.12747  -1.12324  -1.12297  -1.12257
 Alpha  occ. eigenvalues --   -0.18432  -0.14338  -0.11466  -0.10861
 Alpha virt. eigenvalues --   -0.06150  -0.05754  -0.04960  -0.03286  -0.02690
 Alpha virt. eigenvalues --   -0.02398  -0.01977  -0.01094  -0.00596  -0.00218
 Alpha virt. eigenvalues --    0.00246   0.00267   0.00354   0.00441   0.00588

  Beta  occ. eigenvalues --  -38.44975 -38.44292 -38.44264 -38.44236 -38.43423
  Beta  occ. eigenvalues --  -38.43212 -38.42782  -2.20747  -2.20125  -2.20102
  Beta  occ. eigenvalues --   -2.20088  -2.19311  -2.19095  -2.18606  -1.14438
  Beta  occ. eigenvalues --   -1.14424  -1.14404  -1.13829  -1.13806  -1.13800
  Beta  occ. eigenvalues --   -1.13787  -1.13763  -1.13749  -1.13747  -1.13741
  Beta  occ. eigenvalues --   -1.13720  -1.12991  -1.12963  -1.12957  -1.12779
  Beta  occ. eigenvalues --   -1.12757  -1.12732  -1.12305  -1.12260  -1.12242
  Beta  occ. eigenvalues --   -0.17766  -0.14144  -0.10681
  Beta virt. eigenvalues --   -0.07666  -0.05932  -0.04989  -0.04857  -0.02959
  Beta virt. eigenvalues --   -0.02103  -0.01891  -0.01810  -0.00612  -0.00481
  Beta virt. eigenvalues --   -0.00020   0.00293   0.00418   0.00439   0.00533

 Mulliken charges and spin densities:
               1          2
     1  Na  -0.500007   0.282571
     2  Na  -0.096912   0.139059
     3  Na  -1.273471   0.446861
     4  Na   1.242586  -0.090305
     5  Na   0.089120  -0.038976
     6  Na   0.795795  -0.109763
     7  Na  -0.257110   0.370552
 Sum of Mulliken charges =  -0.00000   1.00000

 Dipole moment (field-independent basis, Debye):
    X=              0.2828    Y=             -0.0183    Z=              0.2828  Tot=              0.4003
 Quadrupole moment (field-independent basis, Debye-Ang):
   XX=            -50.6715   YY=            -75.2408   ZZ=            -69.5924
   XY=             -0.7657   XZ=              0.4588   YZ=             -7.5276

 Normal termination of Gaussian 16 at Wed Nov 29 16:47:59 2023.
