 Gaussian 16, Revision B.01,
 Gaussian 16:  ES64L-G16RevB.01 20-Dec-2017

 -------------------------
 #P B3LYP/6-311+g(d) force
 -------------------------

 -----
 DPGEN
 -----
 Symbolic Z-matrix:
 Charge =  0 Multiplicity = 2

                         Standard orientation:
 ---------------------------------------------------------------------
 Center     Atomic      Atomic             Coordinates (Angstroms)
 Number     Number       Type             X           Y           Z
 ---------------------------------------------------------------------
      1         11           0       -2.704028   -1.555062    0.110799
      2         11           0       -2.564081    1.731870    0.003643
      3         11           0        0.615582   -0.282342    1.911190
      4         11           0        3.014206    0.093166   -0.247793
      5         11           0        0.068570   -0.129877   -1.778571
      6         11           0        0.789243    3.044093    0.084060
      7         11           0        0.780508   -2.901847   -0.083328
 ---------------------------------------------------------------------

 SCF Done:  E(UB3LYP) =  -1136.13837383     A.U. after   19 cycles

 The electronic state is 2-A.
 Alpha  occ. eigenvalues --  -38.43983 -38.43773 -38.43738 -38.43703 -38.43670
 Alpha  occ. eigenvalues --  -38.43448 -38.43272  -2.19847  -2.19595  -2.19563
 Alpha  occ. eigenvalues --   -2.19539  -2.19489  -2.19361  -2.19211  -1.13539
 Alpha  occ. eigenvalues --   -1.13529  -1.13463  -1.13288  -1.13265  -1.13261
 Alpha  occ. eigenvalues --   -1.13245  -1.13235  -1.13214  -1.13207  -1.13182
 Alpha  occ. eigenvalues --   -1.13181  -1.13160  -1.13143  -1.13116  -1.13024
 Alpha  occ. eigenvalues --   -1.12991  -1.12974  -1.12886  -1.12837  -1.12833
 Alpha  occ. eigenvalues --   -0.18514  -0.12946  -0.12571  -0.10605
 Alpha virt. eigenvalues --   -0.05641  -0.05185  -0.05020  -0.03100  -0.02916
 Alpha virt. eigenvalues --   -0.02475  -0.01357  -0.01273  -0.00517  -0.00491
 Alpha virt. eigenvalues --   -0.00005   0.00367   0.00831   0.00859   0.00879

  Beta  occ. eigenvalues --  -38.43972 -38.43772 -38.43737 -38.43695 -38.43670
  Beta  occ. eigenvalues --  -38.43365 -38.43194  -2.19832  -2.19595  -2.19553
  Beta  occ. eigenvalues --   -2.19539  -2.19491  -2.19210  -2.19069  -1.13532
  Beta  occ. eigenvalues --   -1.13482  -1.13458  -1.13291  -1.13259  -1.13246
  Beta  occ. eigenvalues --   -1.13235  -1.13210  -1.13202  -1.13195  -1.13186
  Beta  occ. eigenvalues --   -1.13179  -1.13147  -1.13144  -1.13121  -1.12926
  Beta  occ. eigenvalues --   -1.12883  -1.12865  -1.12793  -1.12732  -1.12730
  Beta  occ. eigenvalues --   -0.17784  -0.12732  -0.12351
  Beta virt. eigenvalues --   -0.06691  -0.05632  -0.05205  -0.04898  -0.02343
  Beta virt. eigenvalues --   -0.02158  -0.01431  -0.01273  -0.01200  -0.00563
  Beta virt. eigenvalues --   -0.00555   0.00142   0.00405   0.00834   0.00877

 Mulliken charges and spin densities:
               1          2
     1  Na  -0.041608  -0.089270
     2  Na  -0.078957  -0.092459
     3  Na  -0.347274   0.798118
     4  Na   0.358810  -0.095348
     5  Na  -0.121777   0.678326
     6  Na  -0.086035  -0.109517
     7  Na   0.316841  -0.089849
 Sum of Mulliken charges =  -0.00000   1.00000

 Dipole moment (field-independent basis, Debye):
    X=              0.1793    Y=             -0.0758    Z=              0.0296  Tot=              0.1969
 Quadrupole moment (field-independent basis, Debye-Ang):
   XX=            -58.9107   YY=            -59.6975   ZZ=            -75.1194
   XY=              0.4307   XZ=             -1.1619   YZ=              0.3287

 Normal termination of Gaussian 16 at Fri Dec  8 06:16:03 2023.
