 Gaussian 16, Revision B.01,
 Gaussian 16:  ES64L-G16RevB.01 20-Dec-2017

 -------------------------
 #P B3LYP/6-311+g(d) force
 -------------------------

 -----
 DPGEN
 -----
 Symbolic Z-matrix:
 Charge =  0 Multiplicity = 2

                         Standard orientation:
 ---------------------------------------------------------------------
 Center     Atomic      Atomic             Coordinates (Angstroms)
 Number     Number       Type             X           Y           Z
 ---------------------------------------------------------------------
      1         11           0        0.139147    3.241439    0.368747
      2         11           0        5.341958   -0.624566   -1.418558
      3         11           0        2.956003    1.128367    0.354540
      4         11           0        2.267078   -2.326759    1.698966
      5         11           0       -0.468411   -0.224459   -0.160461
      6         11           0       -3.970743   -1.203361   -1.190433
      7         11           0       -6.265031    0.009340    0.347199
 ---------------------------------------------------------------------

 SCF Done:  E(UB3LYP) =  -1136.10809554     A.U. after   21 cycles

 The electronic state is 2-A.
 Alpha  occ. eigenvalues --  -38.45068 -38.44901 -38.44473 -38.44377 -38.43974
 Alpha  occ. eigenvalues --  -38.43730 -38.43463  -2.20858  -2.20669  -2.20262
 Alpha  occ. eigenvalues --   -2.20187  -2.19746  -2.19567  -2.19263  -1.14550
 Alpha  occ. eigenvalues --   -1.14507  -1.14504  -1.14337  -1.14311  -1.14277
 Alpha  occ. eigenvalues --   -1.13959  -1.13918  -1.13893  -1.13845  -1.13840
 Alpha  occ. eigenvalues --   -1.13830  -1.13410  -1.13402  -1.13363  -1.13277
 Alpha  occ. eigenvalues --   -1.13253  -1.13158  -1.12925  -1.12923  -1.12885
 Alpha  occ. eigenvalues --   -0.16043  -0.13890  -0.11665  -0.11125
 Alpha virt. eigenvalues --   -0.07319  -0.04908  -0.04728  -0.03346  -0.03124
 Alpha virt. eigenvalues --   -0.02379  -0.02039  -0.01662  -0.01425  -0.00948
 Alpha virt. eigenvalues --   -0.00675  -0.00271   0.00238   0.00410   0.00508

  Beta  occ. eigenvalues --  -38.45061 -38.44827 -38.44456 -38.44378 -38.43923
  Beta  occ. eigenvalues --  -38.43710 -38.43437  -2.20845  -2.20531  -2.20231
  Beta  occ. eigenvalues --   -2.20191  -2.19651  -2.19533  -2.19215  -1.14541
  Beta  occ. eigenvalues --   -1.14498  -1.14495  -1.14244  -1.14211  -1.14181
  Beta  occ. eigenvalues --   -1.13941  -1.13901  -1.13852  -1.13845  -1.13841
  Beta  occ. eigenvalues --   -1.13831  -1.13343  -1.13334  -1.13305  -1.13254
  Beta  occ. eigenvalues --   -1.13213  -1.13130  -1.12891  -1.12885  -1.12857
  Beta  occ. eigenvalues --   -0.15461  -0.13713  -0.11209
  Beta virt. eigenvalues --   -0.07744  -0.06724  -0.04622  -0.04460  -0.03196
  Beta virt. eigenvalues --   -0.02887  -0.02027  -0.01699  -0.01404  -0.01253
  Beta virt. eigenvalues --   -0.00656  -0.00402  -0.00065   0.00313   0.00515

 Mulliken charges and spin densities:
               1          2
     1  Na   0.352747   0.119041
     2  Na   0.329510   0.201150
     3  Na   0.170772   0.340806
     4  Na   0.424135   0.250023
     5  Na  -0.927285   0.116359
     6  Na  -0.494241  -0.053793
     7  Na   0.144362   0.026414
 Sum of Mulliken charges =  -0.00000   1.00000

 Dipole moment (field-independent basis, Debye):
    X=             -1.7561    Y=             -0.1417    Z=              0.3636  Tot=              1.7990
 Quadrupole moment (field-independent basis, Debye-Ang):
   XX=            -60.5318   YY=            -66.6577   ZZ=            -67.1882
   XY=             -6.1440   XZ=             -4.2438   YZ=              2.7527

 Normal termination of Gaussian 16 at Wed Nov 29 01:44:05 2023.
