 Gaussian 16, Revision B.01,
 Gaussian 16:  ES64L-G16RevB.01 20-Dec-2017

 -------------------------
 #P B3LYP/6-311+g(d) force
 -------------------------

 -----
 DPGEN
 -----
 Symbolic Z-matrix:
 Charge =  0 Multiplicity = 2

                         Standard orientation:
 ---------------------------------------------------------------------
 Center     Atomic      Atomic             Coordinates (Angstroms)
 Number     Number       Type             X           Y           Z
 ---------------------------------------------------------------------
      1         11           0        0.014738    0.112339    1.805642
      2         11           0        0.105245    0.111962   -1.756447
      3         11           0        2.663003   -0.720180    0.042836
      4         11           0        1.283469    1.927269   -0.054500
      5         11           0       -1.663871    1.752265    0.031561
      6         11           0        0.116573   -2.152639   -0.002815
      7         11           0       -2.519158   -1.031016   -0.066278
 ---------------------------------------------------------------------

 SCF Done:  E(UB3LYP) =  -1136.09758849     A.U. after   18 cycles

 The electronic state is 2-A.
 Alpha  occ. eigenvalues --  -38.43972 -38.43920 -38.43730 -38.43728 -38.43330
 Alpha  occ. eigenvalues --  -38.43315 -38.43160  -2.20187  -2.20105  -2.19751
 Alpha  occ. eigenvalues --   -2.19748  -2.19470  -2.19412  -2.19296  -1.14021
 Alpha  occ. eigenvalues --   -1.13925  -1.13842  -1.13808  -1.13804  -1.13737
 Alpha  occ. eigenvalues --   -1.13530  -1.13486  -1.13455  -1.13448  -1.13371
 Alpha  occ. eigenvalues --   -1.13358  -1.13209  -1.13089  -1.13069  -1.13039
 Alpha  occ. eigenvalues --   -1.13028  -1.12946  -1.12921  -1.12919  -1.12850
 Alpha  occ. eigenvalues --   -0.21286  -0.13854  -0.12853  -0.12005
 Alpha virt. eigenvalues --   -0.05259  -0.04428  -0.04044  -0.03596  -0.03126
 Alpha virt. eigenvalues --   -0.02783  -0.01243  -0.00532  -0.00066   0.00355
 Alpha virt. eigenvalues --    0.00664   0.00682   0.00997   0.01122   0.01134

  Beta  occ. eigenvalues --  -38.43879 -38.43826 -38.43723 -38.43721 -38.43314
  Beta  occ. eigenvalues --  -38.43302 -38.43144  -2.20021  -2.19934  -2.19744
  Beta  occ. eigenvalues --   -2.19741  -2.19449  -2.19395  -2.19275  -1.13927
  Beta  occ. eigenvalues --   -1.13813  -1.13734  -1.13699  -1.13687  -1.13619
  Beta  occ. eigenvalues --   -1.13529  -1.13481  -1.13445  -1.13436  -1.13325
  Beta  occ. eigenvalues --   -1.13313  -1.13193  -1.13059  -1.13023  -1.13009
  Beta  occ. eigenvalues --   -1.12971  -1.12934  -1.12916  -1.12846  -1.12842
  Beta  occ. eigenvalues --   -0.20468  -0.13503  -0.12487
  Beta virt. eigenvalues --   -0.07847  -0.05285  -0.04417  -0.04030  -0.02652
  Beta virt. eigenvalues --   -0.02193  -0.01692  -0.01169  -0.00493   0.00076
  Beta virt. eigenvalues --    0.00381   0.00637   0.00651   0.01027   0.01121

 Mulliken charges and spin densities:
               1          2
     1  Na  -0.352249   0.493216
     2  Na  -0.331092   0.454124
     3  Na   0.034789  -0.056861
     4  Na   0.264551   0.036520
     5  Na   0.242001   0.032847
     6  Na   0.240979   0.096807
     7  Na  -0.098978  -0.056652
 Sum of Mulliken charges =  -0.00000   1.00000

 Dipole moment (field-independent basis, Debye):
    X=              0.0229    Y=             -0.0862    Z=              0.0707  Tot=              0.1138
 Quadrupole moment (field-independent basis, Debye-Ang):
   XX=            -57.9341   YY=            -69.4476   ZZ=            -69.4395
   XY=             -0.1520   XZ=              0.2626   YZ=              0.0261

 Normal termination of Gaussian 16 at Fri Dec  8 19:21:06 2023.
