 Gaussian 16, Revision B.01,
 Gaussian 16:  ES64L-G16RevB.01 20-Dec-2017

 -------------------------
 #P B3LYP/6-311+g(d) force
 -------------------------

 -----
 DPGEN
 -----
 Symbolic Z-matrix:
 Charge =  0 Multiplicity = 2

                         Standard orientation:
 ---------------------------------------------------------------------
 Center     Atomic      Atomic             Coordinates (Angstroms)
 Number     Number       Type             X           Y           Z
 ---------------------------------------------------------------------
      1         11           0        2.901381   -1.767577   -0.284336
      2         11           0       -0.154534    0.421741   -1.674806
      3         11           0        0.549037    0.011173    1.871354
      4         11           0       -0.835409   -2.465809    0.108140
      5         11           0        2.400351    1.859946   -0.177797
      6         11           0       -3.517073   -0.584619   -0.123036
      7         11           0       -1.343754    2.525144    0.280482
 ---------------------------------------------------------------------

 SCF Done:  E(UB3LYP) =  -1136.13368511     A.U. after   20 cycles

 The electronic state is 2-A.
 Alpha  occ. eigenvalues --  -38.44577 -38.44167 -38.44033 -38.43477 -38.43363
 Alpha  occ. eigenvalues --  -38.43174 -38.43162  -2.20370  -2.19957  -2.19890
 Alpha  occ. eigenvalues --   -2.19334  -2.19318  -2.19111  -2.19030  -1.14041
 Alpha  occ. eigenvalues --   -1.14037  -1.14006  -1.13629  -1.13616  -1.13602
 Alpha  occ. eigenvalues --   -1.13577  -1.13571  -1.13499  -1.13114  -1.13010
 Alpha  occ. eigenvalues --   -1.12986  -1.12951  -1.12926  -1.12908  -1.12806
 Alpha  occ. eigenvalues --   -1.12759  -1.12720  -1.12708  -1.12689  -1.12641
 Alpha  occ. eigenvalues --   -0.18564  -0.13198  -0.12211  -0.10459
 Alpha virt. eigenvalues --   -0.06144  -0.05566  -0.04194  -0.03145  -0.02737
 Alpha virt. eigenvalues --   -0.02267  -0.01987  -0.01393  -0.00491  -0.00133
 Alpha virt. eigenvalues --   -0.00042   0.00294   0.00707   0.00791   0.00881

  Beta  occ. eigenvalues --  -38.44580 -38.44163 -38.44023 -38.43469 -38.43301
  Beta  occ. eigenvalues --  -38.43153 -38.43086  -2.20376  -2.19951  -2.19875
  Beta  occ. eigenvalues --   -2.19321  -2.19206  -2.19018  -2.18949  -1.14048
  Beta  occ. eigenvalues --   -1.14029  -1.14011  -1.13620  -1.13605  -1.13598
  Beta  occ. eigenvalues --   -1.13568  -1.13533  -1.13490  -1.13082  -1.12971
  Beta  occ. eigenvalues --   -1.12938  -1.12918  -1.12859  -1.12835  -1.12740
  Beta  occ. eigenvalues --   -1.12678  -1.12662  -1.12643  -1.12624  -1.12587
  Beta  occ. eigenvalues --   -0.17843  -0.12997  -0.11969
  Beta virt. eigenvalues --   -0.06577  -0.06051  -0.05558  -0.04167  -0.02450
  Beta virt. eigenvalues --   -0.01970  -0.01884  -0.01352  -0.01237  -0.00525
  Beta virt. eigenvalues --   -0.00157   0.00112   0.00327   0.00765   0.00795

 Mulliken charges and spin densities:
               1          2
     1  Na  -0.032686  -0.055920
     2  Na  -0.322286   0.671598
     3  Na  -0.211178   0.702080
     4  Na   0.062605  -0.121413
     5  Na   0.330248  -0.023059
     6  Na   0.008531  -0.061295
     7  Na   0.164765  -0.111991
 Sum of Mulliken charges =  -0.00000   1.00000

 Dipole moment (field-independent basis, Debye):
    X=             -0.0371    Y=              0.1245    Z=             -0.0209  Tot=              0.1316
 Quadrupole moment (field-independent basis, Debye-Ang):
   XX=            -50.4207   YY=            -65.6673   ZZ=            -75.7033
   XY=             -0.7788   XZ=             -1.2517   YZ=              1.1815

 Normal termination of Gaussian 16 at Tue Dec  5 12:33:59 2023.
