 Gaussian 16, Revision B.01,
 Gaussian 16:  ES64L-G16RevB.01 20-Dec-2017

 -------------------------
 #P B3LYP/6-311+g(d) force
 -------------------------

 -----
 DPGEN
 -----
 Symbolic Z-matrix:
 Charge =  0 Multiplicity = 2

                         Standard orientation:
 ---------------------------------------------------------------------
 Center     Atomic      Atomic             Coordinates (Angstroms)
 Number     Number       Type             X           Y           Z
 ---------------------------------------------------------------------
      1         11           0        0.330171    3.049429   -0.018391
      2         11           0        0.446943   -0.069478    1.910959
      3         11           0        2.062679   -2.514301   -0.077874
      4         11           0       -0.341116   -0.057157   -1.653164
      5         11           0        2.556275    0.843388   -0.316048
      6         11           0       -2.189866   -2.298154   -0.001030
      7         11           0       -2.865087    1.046273    0.155548
 ---------------------------------------------------------------------

 SCF Done:  E(UB3LYP) =  -1136.13702806     A.U. after   19 cycles

 The electronic state is 2-A.
 Alpha  occ. eigenvalues --  -38.44062 -38.43963 -38.43772 -38.43426 -38.43366
 Alpha  occ. eigenvalues --  -38.43349 -38.43106  -2.19878  -2.19800  -2.19585
 Alpha  occ. eigenvalues --   -2.19372  -2.19268  -2.19226  -2.19077  -1.13565
 Alpha  occ. eigenvalues --   -1.13547  -1.13518  -1.13486  -1.13459  -1.13417
 Alpha  occ. eigenvalues --   -1.13256  -1.13253  -1.13232  -1.13115  -1.13051
 Alpha  occ. eigenvalues --   -1.13024  -1.12932  -1.12889  -1.12885  -1.12878
 Alpha  occ. eigenvalues --   -1.12860  -1.12858  -1.12758  -1.12710  -1.12694
 Alpha  occ. eigenvalues --   -0.18716  -0.13140  -0.12469  -0.10522
 Alpha virt. eigenvalues --   -0.05621  -0.05163  -0.04908  -0.03195  -0.02784
 Alpha virt. eigenvalues --   -0.02336  -0.01419  -0.01336  -0.00492  -0.00275
 Alpha virt. eigenvalues --    0.00009   0.00361   0.00800   0.00860   0.00893

  Beta  occ. eigenvalues --  -38.44060 -38.43958 -38.43770 -38.43413 -38.43362
  Beta  occ. eigenvalues --  -38.43264 -38.43039  -2.19877  -2.19795  -2.19585
  Beta  occ. eigenvalues --   -2.19352  -2.19223  -2.19110  -2.18955  -1.13561
  Beta  occ. eigenvalues --   -1.13534  -1.13517  -1.13477  -1.13441  -1.13418
  Beta  occ. eigenvalues --   -1.13258  -1.13237  -1.13229  -1.13098  -1.13017
  Beta  occ. eigenvalues --   -1.12993  -1.12875  -1.12860  -1.12851  -1.12831
  Beta  occ. eigenvalues --   -1.12781  -1.12754  -1.12674  -1.12619  -1.12606
  Beta  occ. eigenvalues --   -0.17980  -0.12911  -0.12248
  Beta virt. eigenvalues --   -0.06613  -0.05631  -0.05062  -0.04914  -0.02396
  Beta virt. eigenvalues --   -0.02049  -0.01363  -0.01299  -0.01240  -0.00542
  Beta virt. eigenvalues --   -0.00312   0.00151   0.00385   0.00806   0.00878

 Mulliken charges and spin densities:
               1          2
     1  Na   0.091418  -0.037470
     2  Na  -0.503296   0.765529
     3  Na   0.090319  -0.123359
     4  Na  -0.164491   0.514807
     5  Na   0.384644   0.067779
     6  Na   0.017935  -0.144598
     7  Na   0.083471  -0.042687
 Sum of Mulliken charges =  -0.00000   1.00000

 Dipole moment (field-independent basis, Debye):
    X=             -0.3763    Y=             -0.3160    Z=              0.1055  Tot=              0.5026
 Quadrupole moment (field-independent basis, Debye-Ang):
   XX=            -59.2280   YY=            -58.1463   ZZ=            -75.4555
   XY=             -0.7699   XZ=             -1.6742   YZ=              0.1522

 Normal termination of Gaussian 16 at Tue Dec  5 22:50:31 2023.
