 Gaussian 16, Revision B.01,
 Gaussian 16:  ES64L-G16RevB.01 20-Dec-2017

 -------------------------
 #P B3LYP/6-311+g(d) force
 -------------------------

 -----
 DPGEN
 -----
 Symbolic Z-matrix:
 Charge =  0 Multiplicity = 2

                         Standard orientation:
 ---------------------------------------------------------------------
 Center     Atomic      Atomic             Coordinates (Angstroms)
 Number     Number       Type             X           Y           Z
 ---------------------------------------------------------------------
      1         11           0       -2.307341    1.823210   -0.219271
      2         11           0       -2.792774   -1.235830    0.022302
      3         11           0        3.064118   -0.463495   -0.020393
      4         11           0        1.477183    2.391609   -0.123396
      5         11           0        0.086707   -0.243434   -1.688367
      6         11           0       -0.049471    0.264609    1.945260
      7         11           0        0.521577   -2.536669    0.083865
 ---------------------------------------------------------------------

 SCF Done:  E(UB3LYP) =  -1136.13547034     A.U. after   19 cycles

 The electronic state is 2-A.
 Alpha  occ. eigenvalues --  -38.44165 -38.43933 -38.43667 -38.43425 -38.43278
 Alpha  occ. eigenvalues --  -38.43149 -38.42858  -2.20047  -2.19810  -2.19542
 Alpha  occ. eigenvalues --   -2.19369  -2.19306  -2.19034  -2.18801  -1.13720
 Alpha  occ. eigenvalues --   -1.13707  -1.13698  -1.13523  -1.13467  -1.13454
 Alpha  occ. eigenvalues --   -1.13210  -1.13204  -1.13171  -1.13068  -1.13036
 Alpha  occ. eigenvalues --   -1.13003  -1.12982  -1.12955  -1.12907  -1.12707
 Alpha  occ. eigenvalues --   -1.12697  -1.12662  -1.12488  -1.12450  -1.12406
 Alpha  occ. eigenvalues --   -0.19281  -0.13550  -0.12270  -0.10917
 Alpha virt. eigenvalues --   -0.05820  -0.05125  -0.04141  -0.03402  -0.02804
 Alpha virt. eigenvalues --   -0.02509  -0.01685  -0.00943  -0.00133  -0.00040
 Alpha virt. eigenvalues --   -0.00014   0.00366   0.00797   0.00934   0.00949

  Beta  occ. eigenvalues --  -38.44162 -38.43929 -38.43661 -38.43334 -38.43207
  Beta  occ. eigenvalues --  -38.43143 -38.42849  -2.20043  -2.19807  -2.19535
  Beta  occ. eigenvalues --   -2.19202  -2.19177  -2.19026  -2.18788  -1.13717
  Beta  occ. eigenvalues --   -1.13706  -1.13674  -1.13524  -1.13455  -1.13438
  Beta  occ. eigenvalues --   -1.13205  -1.13174  -1.13168  -1.12979  -1.12935
  Beta  occ. eigenvalues --   -1.12884  -1.12866  -1.12864  -1.12813  -1.12700
  Beta  occ. eigenvalues --   -1.12662  -1.12658  -1.12473  -1.12408  -1.12398
  Beta  occ. eigenvalues --   -0.18523  -0.13300  -0.12004
  Beta virt. eigenvalues --   -0.06956  -0.05777  -0.05138  -0.04138  -0.02569
  Beta virt. eigenvalues --   -0.01987  -0.01594  -0.01438  -0.00888  -0.00188
  Beta virt. eigenvalues --   -0.00087   0.00126   0.00385   0.00855   0.00920

 Mulliken charges and spin densities:
               1          2
     1  Na   0.167203  -0.075211
     2  Na   0.194029  -0.032680
     3  Na   0.219798  -0.028471
     4  Na   0.198900  -0.096717
     5  Na  -0.547619   0.548694
     6  Na  -0.613485   0.714347
     7  Na   0.381173  -0.029962
 Sum of Mulliken charges =  -0.00000   1.00000

 Dipole moment (field-independent basis, Debye):
    X=             -0.0176    Y=              0.0686    Z=              0.1320  Tot=              0.1498
 Quadrupole moment (field-independent basis, Debye-Ang):
   XX=            -53.9188   YY=            -66.3006   ZZ=            -73.5079
   XY=              0.0932   XZ=              0.2375   YZ=             -1.2361

 Normal termination of Gaussian 16 at Thu Dec  7 08:42:19 2023.
