 Gaussian 16, Revision B.01,
 Gaussian 16:  ES64L-G16RevB.01 20-Dec-2017

 -------------------------
 #P B3LYP/6-311+g(d) force
 -------------------------

 -----
 DPGEN
 -----
 Symbolic Z-matrix:
 Charge =  0 Multiplicity = 2

                         Standard orientation:
 ---------------------------------------------------------------------
 Center     Atomic      Atomic             Coordinates (Angstroms)
 Number     Number       Type             X           Y           Z
 ---------------------------------------------------------------------
      1         11           0        0.084675   -0.141528    2.051059
      2         11           0       -2.420627    2.106880   -0.522526
      3         11           0        1.512192    2.853504    0.161009
      4         11           0        0.120942   -0.143836   -1.649674
      5         11           0       -2.841076   -1.170166    0.399808
      6         11           0        3.201018   -0.457813   -0.068519
      7         11           0        0.342876   -3.047042   -0.371157
 ---------------------------------------------------------------------

 SCF Done:  E(UB3LYP) =  -1136.13672379     A.U. after   18 cycles

 The electronic state is 2-A.
 Alpha  occ. eigenvalues --  -38.44292 -38.43886 -38.43819 -38.43737 -38.43734
 Alpha  occ. eigenvalues --  -38.43507 -38.43295  -2.20092  -2.19663  -2.19648
 Alpha  occ. eigenvalues --   -2.19600  -2.19534  -2.19343  -2.19233  -1.13777
 Alpha  occ. eigenvalues --   -1.13756  -1.13720  -1.13344  -1.13337  -1.13325
 Alpha  occ. eigenvalues --   -1.13314  -1.13301  -1.13292  -1.13264  -1.13229
 Alpha  occ. eigenvalues --   -1.13211  -1.13210  -1.13183  -1.13170  -1.13076
 Alpha  occ. eigenvalues --   -1.12996  -1.12967  -1.12911  -1.12857  -1.12846
 Alpha  occ. eigenvalues --   -0.18167  -0.12850  -0.12283  -0.10667
 Alpha virt. eigenvalues --   -0.05710  -0.05270  -0.04937  -0.03170  -0.02859
 Alpha virt. eigenvalues --   -0.02545  -0.01559  -0.01285  -0.00636  -0.00502
 Alpha virt. eigenvalues --   -0.00018   0.00353   0.00787   0.00809   0.00854

  Beta  occ. eigenvalues --  -38.44290 -38.43886 -38.43810 -38.43724 -38.43644
  Beta  occ. eigenvalues --  -38.43499 -38.43233  -2.20091  -2.19665  -2.19635
  Beta  occ. eigenvalues --   -2.19517  -2.19429  -2.19331  -2.19121  -1.13764
  Beta  occ. eigenvalues --   -1.13753  -1.13717  -1.13332  -1.13327  -1.13320
  Beta  occ. eigenvalues --   -1.13302  -1.13288  -1.13285  -1.13186  -1.13171
  Beta  occ. eigenvalues --   -1.13161  -1.13154  -1.13113  -1.13086  -1.13052
  Beta  occ. eigenvalues --   -1.12978  -1.12956  -1.12835  -1.12782  -1.12764
  Beta  occ. eigenvalues --   -0.17456  -0.12634  -0.12037
  Beta virt. eigenvalues --   -0.06812  -0.05714  -0.05177  -0.04851  -0.02429
  Beta virt. eigenvalues --   -0.02157  -0.01525  -0.01468  -0.01193  -0.00657
  Beta virt. eigenvalues --   -0.00543   0.00118   0.00381   0.00792   0.00851

 Mulliken charges and spin densities:
               1          2
     1  Na  -0.221301   0.694233
     2  Na  -0.058928  -0.022023
     3  Na  -0.093543  -0.060844
     4  Na   0.035658   0.493515
     5  Na   0.140409   0.057830
     6  Na   0.058273  -0.102236
     7  Na   0.139432  -0.060475
 Sum of Mulliken charges =  -0.00000   1.00000

 Dipole moment (field-independent basis, Debye):
    X=              0.3011    Y=             -0.0313    Z=              0.1327  Tot=              0.3305
 Quadrupole moment (field-independent basis, Debye-Ang):
   XX=            -57.1610   YY=            -60.9032   ZZ=            -75.0210
   XY=              0.0418   XZ=              0.0769   YZ=             -0.2646

 Normal termination of Gaussian 16 at Thu Dec  7 10:25:56 2023.
