 Gaussian 16, Revision B.01,
 Gaussian 16:  ES64L-G16RevB.01 20-Dec-2017

 -------------------------
 #P B3LYP/6-311+g(d) force
 -------------------------

 -----
 DPGEN
 -----
 Symbolic Z-matrix:
 Charge =  0 Multiplicity = 2

                         Standard orientation:
 ---------------------------------------------------------------------
 Center     Atomic      Atomic             Coordinates (Angstroms)
 Number     Number       Type             X           Y           Z
 ---------------------------------------------------------------------
      1         11           0        1.443921    2.508992   -0.144766
      2         11           0       -2.353855    2.383651    0.042493
      3         11           0        3.311680   -0.134886   -0.106737
      4         11           0        0.583786   -2.808192    0.088004
      5         11           0       -0.069691   -0.132113    1.778825
      6         11           0       -0.220216   -0.337039   -1.508330
      7         11           0       -2.695625   -1.480412   -0.149489
 ---------------------------------------------------------------------

 SCF Done:  E(UB3LYP) =  -1136.13375144     A.U. after   22 cycles

 The electronic state is 2-A.
 Alpha  occ. eigenvalues --  -38.44169 -38.44080 -38.43937 -38.43606 -38.43514
 Alpha  occ. eigenvalues --  -38.43034 -38.42990  -2.20041  -2.19899  -2.19716
 Alpha  occ. eigenvalues --   -2.19452  -2.19420  -2.19062  -2.18949  -1.13767
 Alpha  occ. eigenvalues --   -1.13697  -1.13650  -1.13581  -1.13562  -1.13538
 Alpha  occ. eigenvalues --   -1.13392  -1.13369  -1.13364  -1.13166  -1.13131
 Alpha  occ. eigenvalues --   -1.13124  -1.13096  -1.13077  -1.13022  -1.12770
 Alpha  occ. eigenvalues --   -1.12686  -1.12669  -1.12624  -1.12567  -1.12552
 Alpha  occ. eigenvalues --   -0.18781  -0.13142  -0.12527  -0.10222
 Alpha virt. eigenvalues --   -0.05719  -0.05503  -0.04807  -0.02959  -0.02662
 Alpha virt. eigenvalues --   -0.02027  -0.01697  -0.01394  -0.00528  -0.00425
 Alpha virt. eigenvalues --    0.00031   0.00325   0.00773   0.00812   0.00873

  Beta  occ. eigenvalues --  -38.44158 -38.44078 -38.43938 -38.43601 -38.43502
  Beta  occ. eigenvalues --  -38.42972 -38.42902  -2.20026  -2.19898  -2.19720
  Beta  occ. eigenvalues --   -2.19446  -2.19404  -2.18950  -2.18788  -1.13750
  Beta  occ. eigenvalues --   -1.13661  -1.13645  -1.13583  -1.13546  -1.13536
  Beta  occ. eigenvalues --   -1.13381  -1.13371  -1.13368  -1.13154  -1.13128
  Beta  occ. eigenvalues --   -1.13100  -1.13074  -1.13044  -1.13016  -1.12687
  Beta  occ. eigenvalues --   -1.12602  -1.12591  -1.12518  -1.12451  -1.12435
  Beta  occ. eigenvalues --   -0.18069  -0.12884  -0.12299
  Beta virt. eigenvalues --   -0.06331  -0.05664  -0.05505  -0.04780  -0.02191
  Beta virt. eigenvalues --   -0.01931  -0.01614  -0.01364  -0.00988  -0.00584
  Beta virt. eigenvalues --   -0.00452   0.00171   0.00369   0.00803   0.00833

 Mulliken charges and spin densities:
               1          2
     1  Na  -0.014818  -0.085840
     2  Na  -0.071698  -0.108143
     3  Na   0.065522  -0.048937
     4  Na   0.408725  -0.054175
     5  Na  -0.343517   0.777744
     6  Na  -0.434837   0.589374
     7  Na   0.390623  -0.070023
 Sum of Mulliken charges =  -0.00000   1.00000

 Dipole moment (field-independent basis, Debye):
    X=             -0.1137    Y=             -0.0498    Z=              0.1032  Tot=              0.1614
 Quadrupole moment (field-independent basis, Debye-Ang):
   XX=            -53.7841   YY=            -60.1658   ZZ=            -77.3964
   XY=             -0.7781   XZ=             -0.3762   YZ=             -0.3960

 Normal termination of Gaussian 16 at Mon Dec  4 05:08:51 2023.
