 Gaussian 16, Revision B.01,
 Gaussian 16:  ES64L-G16RevB.01 20-Dec-2017

 -------------------------
 #P B3LYP/6-311+g(d) force
 -------------------------

 -----
 DPGEN
 -----
 Symbolic Z-matrix:
 Charge =  0 Multiplicity = 2

                         Standard orientation:
 ---------------------------------------------------------------------
 Center     Atomic      Atomic             Coordinates (Angstroms)
 Number     Number       Type             X           Y           Z
 ---------------------------------------------------------------------
      1         11           0       -3.555198   -1.065235    0.522373
      2         11           0       -1.062982   -0.352574   -1.652094
      3         11           0        3.934856    0.388535    0.850910
      4         11           0       -0.147797   -0.835188    1.869567
      5         11           0        1.229705    1.793441   -0.606613
      6         11           0        1.841133   -1.926192   -1.085349
      7         11           0       -2.239719    1.997213    0.101206
 ---------------------------------------------------------------------

 SCF Done:  E(UB3LYP) =  -1136.12171489     A.U. after   27 cycles

 The electronic state is 2-A.
 Alpha  occ. eigenvalues --  -38.45102 -38.44954 -38.44445 -38.43809 -38.43572
 Alpha  occ. eigenvalues --  -38.43289 -38.42567  -2.20901  -2.20756  -2.20268
 Alpha  occ. eigenvalues --   -2.19654  -2.19561  -2.19175  -2.18446  -1.14559
 Alpha  occ. eigenvalues --   -1.14556  -1.14516  -1.14446  -1.14417  -1.14357
 Alpha  occ. eigenvalues --   -1.13952  -1.13933  -1.13905  -1.13360  -1.13301
 Alpha  occ. eigenvalues --   -1.13278  -1.13249  -1.13218  -1.13164  -1.12853
 Alpha  occ. eigenvalues --   -1.12841  -1.12785  -1.12153  -1.12136  -1.12052
 Alpha  occ. eigenvalues --   -0.18480  -0.14192  -0.11321  -0.10840
 Alpha virt. eigenvalues --   -0.07190  -0.05150  -0.04500  -0.03076  -0.02891
 Alpha virt. eigenvalues --   -0.02461  -0.02269  -0.01093  -0.01032  -0.00218
 Alpha virt. eigenvalues --    0.00041   0.00217   0.00286   0.00633   0.00724

  Beta  occ. eigenvalues --  -38.45056 -38.44911 -38.44452 -38.43763 -38.43502
  Beta  occ. eigenvalues --  -38.43286 -38.42565  -2.20814  -2.20677  -2.20285
  Beta  occ. eigenvalues --   -2.19575  -2.19436  -2.19168  -2.18446  -1.14499
  Beta  occ. eigenvalues --   -1.14493  -1.14461  -1.14393  -1.14355  -1.14301
  Beta  occ. eigenvalues --   -1.13962  -1.13939  -1.13911  -1.13283  -1.13244
  Beta  occ. eigenvalues --   -1.13217  -1.13177  -1.13112  -1.13078  -1.12841
  Beta  occ. eigenvalues --   -1.12836  -1.12779  -1.12156  -1.12108  -1.12056
  Beta  occ. eigenvalues --   -0.17829  -0.13849  -0.10681
  Beta virt. eigenvalues --   -0.07485  -0.06894  -0.05041  -0.04023  -0.02844
  Beta virt. eigenvalues --   -0.02591  -0.01860  -0.01594  -0.01011  -0.00645
  Beta virt. eigenvalues --   -0.00154   0.00104   0.00238   0.00397   0.00692

 Mulliken charges and spin densities:
               1          2
     1  Na   0.421787   0.041110
     2  Na   0.176012   0.288818
     3  Na   0.407030   0.211690
     4  Na  -0.476506   0.342067
     5  Na  -0.598782  -0.014881
     6  Na  -0.009235   0.033456
     7  Na   0.079695   0.097740
 Sum of Mulliken charges =  -0.00000   1.00000

 Dipole moment (field-independent basis, Debye):
    X=              0.1654    Y=             -0.4030    Z=              0.5068  Tot=              0.6682
 Quadrupole moment (field-independent basis, Debye-Ang):
   XX=            -47.8791   YY=            -77.0484   ZZ=            -69.4590
   XY=             -0.9811   XZ=              1.1215   YZ=              4.3420

 Normal termination of Gaussian 16 at Thu Dec  7 23:46:15 2023.
