 Gaussian 16, Revision B.01,
 Gaussian 16:  ES64L-G16RevB.01 20-Dec-2017

 -------------------------
 #P B3LYP/6-311+g(d) force
 -------------------------

 -----
 DPGEN
 -----
 Symbolic Z-matrix:
 Charge =  0 Multiplicity = 2

                         Standard orientation:
 ---------------------------------------------------------------------
 Center     Atomic      Atomic             Coordinates (Angstroms)
 Number     Number       Type             X           Y           Z
 ---------------------------------------------------------------------
      1         11           0        3.403206    1.964641   -0.775940
      2         11           0       -1.418528   -0.757462    2.179159
      3         11           0        3.106325   -1.207275    0.964722
      4         11           0       -2.582232   -0.840367   -1.884208
      5         11           0        0.073455    0.876885   -0.436369
      6         11           0        0.180207   -2.156368   -0.757519
      7         11           0       -2.762434    2.119946    0.710155
 ---------------------------------------------------------------------

 SCF Done:  E(UB3LYP) =  -1136.12191002     A.U. after   24 cycles

 The electronic state is 2-A.
 Alpha  occ. eigenvalues --  -38.44916 -38.44750 -38.44387 -38.43937 -38.43436
 Alpha  occ. eigenvalues --  -38.43410 -38.42515  -2.20695  -2.20595  -2.20238
 Alpha  occ. eigenvalues --   -2.19720  -2.19409  -2.19229  -2.18432  -1.14379
 Alpha  occ. eigenvalues --   -1.14350  -1.14319  -1.14275  -1.14229  -1.14191
 Alpha  occ. eigenvalues --   -1.13908  -1.13875  -1.13851  -1.13389  -1.13378
 Alpha  occ. eigenvalues --   -1.13346  -1.13131  -1.13116  -1.13023  -1.12894
 Alpha  occ. eigenvalues --   -1.12888  -1.12870  -1.12157  -1.12077  -1.12054
 Alpha  occ. eigenvalues --   -0.18115  -0.13519  -0.11487  -0.11197
 Alpha virt. eigenvalues --   -0.06196  -0.05891  -0.04127  -0.03146  -0.02829
 Alpha virt. eigenvalues --   -0.02563  -0.02106  -0.01158  -0.00935  -0.00252
 Alpha virt. eigenvalues --    0.00062   0.00209   0.00327   0.00444   0.00699

  Beta  occ. eigenvalues --  -38.44907 -38.44665 -38.44324 -38.43916 -38.43418
  Beta  occ. eigenvalues --  -38.43415 -38.42511  -2.20679  -2.20437  -2.20122
  Beta  occ. eigenvalues --   -2.19682  -2.19380  -2.19241  -2.18430  -1.14369
  Beta  occ. eigenvalues --   -1.14338  -1.14302  -1.14167  -1.14126  -1.14074
  Beta  occ. eigenvalues --   -1.13820  -1.13801  -1.13772  -1.13359  -1.13352
  Beta  occ. eigenvalues --   -1.13323  -1.13119  -1.13061  -1.13007  -1.12902
  Beta  occ. eigenvalues --   -1.12880  -1.12876  -1.12159  -1.12075  -1.12018
  Beta  occ. eigenvalues --   -0.17435  -0.13279  -0.11057
  Beta virt. eigenvalues --   -0.07641  -0.05917  -0.05487  -0.03899  -0.02809
  Beta virt. eigenvalues --   -0.02277  -0.02060  -0.01827  -0.00915  -0.00551
  Beta virt. eigenvalues --   -0.00131   0.00123   0.00250   0.00445   0.00572

 Mulliken charges and spin densities:
               1          2
     1  Na   0.200518  -0.092216
     2  Na  -0.196245   0.383751
     3  Na   0.282624   0.073905
     4  Na   0.177001   0.155797
     5  Na  -1.520803   0.439129
     6  Na   0.491068   0.019478
     7  Na   0.565837   0.020157
 Sum of Mulliken charges =  -0.00000   1.00000

 Dipole moment (field-independent basis, Debye):
    X=             -0.0877    Y=             -0.5320    Z=              0.4298  Tot=              0.6896
 Quadrupole moment (field-independent basis, Debye-Ang):
   XX=            -53.1384   YY=            -71.6246   ZZ=            -68.0200
   XY=             -1.5456   XZ=              3.0690   YZ=             -3.9992

 Normal termination of Gaussian 16 at Tue Dec  5 23:56:19 2023.
