 Gaussian 16, Revision B.01,
 Gaussian 16:  ES64L-G16RevB.01 20-Dec-2017

 -------------------------
 #P B3LYP/6-311+g(d) force
 -------------------------

 -----
 DPGEN
 -----
 Symbolic Z-matrix:
 Charge =  0 Multiplicity = 2

                         Standard orientation:
 ---------------------------------------------------------------------
 Center     Atomic      Atomic             Coordinates (Angstroms)
 Number     Number       Type             X           Y           Z
 ---------------------------------------------------------------------
      1         11           0        0.943394   -2.551011    0.177922
      2         11           0       -2.493011    1.641588    0.157721
      3         11           0       -0.324154   -0.206576    1.978291
      4         11           0        1.292999    2.658198    0.247802
      5         11           0        3.203501   -0.225999   -0.350364
      6         11           0       -2.189966   -1.792327   -0.404964
      7         11           0       -0.432763    0.476127   -1.806408
 ---------------------------------------------------------------------

 SCF Done:  E(UB3LYP) =  -1136.13596948     A.U. after   19 cycles

 The electronic state is 2-A.
 Alpha  occ. eigenvalues --  -38.43972 -38.43841 -38.43635 -38.43606 -38.43540
 Alpha  occ. eigenvalues --  -38.43518 -38.43052  -2.19785  -2.19728  -2.19545
 Alpha  occ. eigenvalues --   -2.19504  -2.19455  -2.19434  -2.18950  -1.13468
 Alpha  occ. eigenvalues --   -1.13460  -1.13448  -1.13430  -1.13405  -1.13345
 Alpha  occ. eigenvalues --   -1.13233  -1.13208  -1.13180  -1.13173  -1.13164
 Alpha  occ. eigenvalues --   -1.13126  -1.13120  -1.13110  -1.13083  -1.13077
 Alpha  occ. eigenvalues --   -1.13073  -1.13047  -1.12633  -1.12603  -1.12585
 Alpha  occ. eigenvalues --   -0.18914  -0.13064  -0.12531  -0.11064
 Alpha virt. eigenvalues --   -0.05604  -0.05126  -0.04489  -0.03276  -0.03094
 Alpha virt. eigenvalues --   -0.02729  -0.01352  -0.01034  -0.00287  -0.00116
 Alpha virt. eigenvalues --    0.00016   0.00369   0.00860   0.00893   0.00933

  Beta  occ. eigenvalues --  -38.43971 -38.43833 -38.43631 -38.43515 -38.43504
  Beta  occ. eigenvalues --  -38.43470 -38.43046  -2.19784  -2.19716  -2.19451
  Beta  occ. eigenvalues --   -2.19413  -2.19380  -2.19374  -2.18943  -1.13460
  Beta  occ. eigenvalues --   -1.13450  -1.13438  -1.13430  -1.13370  -1.13335
  Beta  occ. eigenvalues --   -1.13171  -1.13140  -1.13115  -1.13109  -1.13081
  Beta  occ. eigenvalues --   -1.13069  -1.13067  -1.13053  -1.13049  -1.13031
  Beta  occ. eigenvalues --   -1.13018  -1.12985  -1.12624  -1.12587  -1.12575
  Beta  occ. eigenvalues --   -0.18158  -0.12833  -0.12292
  Beta virt. eigenvalues --   -0.07111  -0.05561  -0.05085  -0.04443  -0.02513
  Beta virt. eigenvalues --   -0.02309  -0.01664  -0.01283  -0.00963  -0.00316
  Beta virt. eigenvalues --   -0.00120   0.00121   0.00406   0.00880   0.00930

 Mulliken charges and spin densities:
               1          2
     1  Na   0.088600  -0.000441
     2  Na   0.310259  -0.080045
     3  Na  -0.285737   0.660313
     4  Na  -0.030315  -0.058046
     5  Na  -0.122074  -0.070269
     6  Na   0.324459  -0.010908
     7  Na  -0.285193   0.559394
 Sum of Mulliken charges =  -0.00000   1.00000

 Dipole moment (field-independent basis, Debye):
    X=             -0.0729    Y=              0.2950    Z=              0.0280  Tot=              0.3052
 Quadrupole moment (field-independent basis, Debye-Ang):
   XX=            -58.0667   YY=            -64.3710   ZZ=            -72.4484
   XY=             -0.0530   XZ=             -0.5373   YZ=              1.6171

 Normal termination of Gaussian 16 at Tue Dec  5 22:00:34 2023.
