 Gaussian 16, Revision B.01,
 Gaussian 16:  ES64L-G16RevB.01 20-Dec-2017

 -------------------------
 #P B3LYP/6-311+g(d) force
 -------------------------

 -----
 DPGEN
 -----
 Symbolic Z-matrix:
 Charge =  0 Multiplicity = 2

                         Standard orientation:
 ---------------------------------------------------------------------
 Center     Atomic      Atomic             Coordinates (Angstroms)
 Number     Number       Type             X           Y           Z
 ---------------------------------------------------------------------
      1         11           0        0.462964   -0.307673    1.879381
      2         11           0        0.077602   -0.076945   -1.769530
      3         11           0       -0.286787    2.523806    0.445977
      4         11           0        2.948119    1.130202   -0.183208
      5         11           0       -3.044084    0.818064   -0.450400
      6         11           0        1.944320   -2.115897   -0.314423
      7         11           0       -2.102135   -1.971556    0.392203
 ---------------------------------------------------------------------

 SCF Done:  E(UB3LYP) =  -1136.13396828     A.U. after   19 cycles

 The electronic state is 2-A.
 Alpha  occ. eigenvalues --  -38.44280 -38.44037 -38.43601 -38.43572 -38.43450
 Alpha  occ. eigenvalues --  -38.43442 -38.42732  -2.20133  -2.19912  -2.19547
 Alpha  occ. eigenvalues --   -2.19471  -2.19421  -2.19345  -2.18624  -1.13808
 Alpha  occ. eigenvalues --   -1.13797  -1.13770  -1.13617  -1.13570  -1.13554
 Alpha  occ. eigenvalues --   -1.13263  -1.13208  -1.13168  -1.13154  -1.13123
 Alpha  occ. eigenvalues --   -1.13117  -1.13098  -1.13085  -1.13021  -1.13003
 Alpha  occ. eigenvalues --   -1.12971  -1.12949  -1.12320  -1.12287  -1.12244
 Alpha  occ. eigenvalues --   -0.19107  -0.13640  -0.12005  -0.11103
 Alpha virt. eigenvalues --   -0.05938  -0.05192  -0.03974  -0.03495  -0.02805
 Alpha virt. eigenvalues --   -0.02671  -0.01764  -0.00978  -0.00217   0.00003
 Alpha virt. eigenvalues --    0.00081   0.00363   0.00776   0.00883   0.00936

  Beta  occ. eigenvalues --  -38.44275 -38.44031 -38.43593 -38.43501 -38.43432
  Beta  occ. eigenvalues --  -38.43362 -38.42721  -2.20127  -2.19904  -2.19460
  Beta  occ. eigenvalues --   -2.19417  -2.19330  -2.19260  -2.18608  -1.13797
  Beta  occ. eigenvalues --   -1.13788  -1.13758  -1.13616  -1.13555  -1.13542
  Beta  occ. eigenvalues --   -1.13189  -1.13139  -1.13115  -1.13102  -1.13101
  Beta  occ. eigenvalues --   -1.13060  -1.13046  -1.12981  -1.12963  -1.12944
  Beta  occ. eigenvalues --   -1.12909  -1.12896  -1.12308  -1.12252  -1.12234
  Beta  occ. eigenvalues --   -0.18364  -0.13390  -0.11731
  Beta virt. eigenvalues --   -0.07158  -0.05874  -0.05178  -0.03896  -0.02775
  Beta virt. eigenvalues --   -0.02024  -0.01672  -0.01592  -0.00925  -0.00190
  Beta virt. eigenvalues --    0.00021   0.00122   0.00388   0.00851   0.00886

 Mulliken charges and spin densities:
               1          2
     1  Na  -0.150852   0.649079
     2  Na  -0.246275   0.547133
     3  Na  -0.035404  -0.029626
     4  Na   0.134383  -0.041268
     5  Na   0.070311   0.025307
     6  Na   0.153674  -0.079915
     7  Na   0.074164  -0.070710
 Sum of Mulliken charges =  -0.00000   1.00000

 Dipole moment (field-independent basis, Debye):
    X=              0.2620    Y=             -0.0219    Z=             -0.0999  Tot=              0.2812
 Quadrupole moment (field-independent basis, Debye-Ang):
   XX=            -53.3558   YY=            -68.1881   ZZ=            -72.5177
   XY=              0.3551   XZ=             -0.2611   YZ=             -0.2129

 Normal termination of Gaussian 16 at Thu Dec  7 17:47:04 2023.
