 Gaussian 16, Revision B.01,
 Gaussian 16:  ES64L-G16RevB.01 20-Dec-2017

 -------------------------
 #P B3LYP/6-311+g(d) force
 -------------------------

 -----
 DPGEN
 -----
 Symbolic Z-matrix:
 Charge =  0 Multiplicity = 2

                         Standard orientation:
 ---------------------------------------------------------------------
 Center     Atomic      Atomic             Coordinates (Angstroms)
 Number     Number       Type             X           Y           Z
 ---------------------------------------------------------------------
      1         11           0        3.536492    1.827780   -0.257339
      2         11           0        2.167644   -1.578831   -0.741142
      3         11           0       -2.966591    2.033558   -0.829628
      4         11           0        1.122802   -0.894148    1.733854
      5         11           0       -2.643278   -1.099540    1.280035
      6         11           0       -0.913831   -1.639601   -1.854886
      7         11           0       -0.303238    1.350782    0.669105
 ---------------------------------------------------------------------

 SCF Done:  E(UB3LYP) =  -1136.11236355     A.U. after   24 cycles

 The electronic state is 2-A.
 Alpha  occ. eigenvalues --  -38.44993 -38.44500 -38.44477 -38.43964 -38.43919
 Alpha  occ. eigenvalues --  -38.43619 -38.43479  -2.20807  -2.20481  -2.20226
 Alpha  occ. eigenvalues --   -2.19839  -2.19783  -2.19455  -2.19434  -1.14484
 Alpha  occ. eigenvalues --   -1.14464  -1.14430  -1.14293  -1.14247  -1.13998
 Alpha  occ. eigenvalues --   -1.13906  -1.13893  -1.13849  -1.13525  -1.13494
 Alpha  occ. eigenvalues --   -1.13486  -1.13429  -1.13405  -1.13402  -1.13163
 Alpha  occ. eigenvalues --   -1.13134  -1.13095  -1.13084  -1.13071  -1.13005
 Alpha  occ. eigenvalues --   -0.18368  -0.13640  -0.11460  -0.11147
 Alpha virt. eigenvalues --   -0.06489  -0.05695  -0.04188  -0.03406  -0.02796
 Alpha virt. eigenvalues --   -0.02301  -0.02167  -0.01336  -0.00502  -0.00210
 Alpha virt. eigenvalues --    0.00118   0.00223   0.00277   0.00516   0.00666

  Beta  occ. eigenvalues --  -38.44968 -38.44476 -38.44441 -38.43938 -38.43906
  Beta  occ. eigenvalues --  -38.43567 -38.43456  -2.20764  -2.20375  -2.20224
  Beta  occ. eigenvalues --   -2.19816  -2.19734  -2.19400  -2.19358  -1.14443
  Beta  occ. eigenvalues --   -1.14433  -1.14393  -1.14213  -1.14177  -1.13923
  Beta  occ. eigenvalues --   -1.13901  -1.13893  -1.13848  -1.13489  -1.13474
  Beta  occ. eigenvalues --   -1.13454  -1.13391  -1.13385  -1.13373  -1.13108
  Beta  occ. eigenvalues --   -1.13066  -1.13053  -1.13023  -1.13004  -1.12988
  Beta  occ. eigenvalues --   -0.17650  -0.13452  -0.11089
  Beta virt. eigenvalues --   -0.07405  -0.06344  -0.05520  -0.03579  -0.03082
  Beta virt. eigenvalues --   -0.02386  -0.02061  -0.01556  -0.01143  -0.00260
  Beta virt. eigenvalues --   -0.00122   0.00191   0.00253   0.00373   0.00591

 Mulliken charges and spin densities:
               1          2
     1  Na   0.125115  -0.109232
     2  Na   0.217488   0.493857
     3  Na   0.331071   0.073770
     4  Na   0.726543  -0.062592
     5  Na   0.373252   0.166442
     6  Na  -0.352444   0.130104
     7  Na  -1.421026   0.307650
 Sum of Mulliken charges =  -0.00000   1.00000

 Dipole moment (field-independent basis, Debye):
    X=             -0.4293    Y=             -0.2882    Z=             -0.0192  Tot=              0.5174
 Quadrupole moment (field-independent basis, Debye-Ang):
   XX=            -52.2634   YY=            -72.7190   ZZ=            -68.9094
   XY=              2.5247   XZ=             -1.3323   YZ=             -4.1982

 Normal termination of Gaussian 16 at Tue Dec  5 13:31:04 2023.
