 Gaussian 16, Revision B.01,
 Gaussian 16:  ES64L-G16RevB.01 20-Dec-2017

 -------------------------
 #P B3LYP/6-311+g(d) force
 -------------------------

 -----
 DPGEN
 -----
 Symbolic Z-matrix:
 Charge =  0 Multiplicity = 2

                         Standard orientation:
 ---------------------------------------------------------------------
 Center     Atomic      Atomic             Coordinates (Angstroms)
 Number     Number       Type             X           Y           Z
 ---------------------------------------------------------------------
      1         11           0       -0.844615    2.572521   -0.646540
      2         11           0        1.023938   -0.401145   -1.328168
      3         11           0        2.355784    2.166116    0.296183
      4         11           0        2.855935   -1.986151    0.015666
      5         11           0       -3.511450    0.218330    0.125825
      6         11           0       -0.167185   -0.311097    2.035471
      7         11           0       -1.712407   -2.258574   -0.498437
 ---------------------------------------------------------------------

 SCF Done:  E(UB3LYP) =  -1136.12466421     A.U. after   20 cycles

 The electronic state is 2-A.
 Alpha  occ. eigenvalues --  -38.44600 -38.44591 -38.44152 -38.44080 -38.43548
 Alpha  occ. eigenvalues --  -38.43291 -38.43176  -2.20435  -2.20417  -2.19977
 Alpha  occ. eigenvalues --   -2.19933  -2.19413  -2.19193  -2.19121  -1.14242
 Alpha  occ. eigenvalues --   -1.14114  -1.14070  -1.14061  -1.14054  -1.14043
 Alpha  occ. eigenvalues --   -1.13658  -1.13636  -1.13614  -1.13613  -1.13590
 Alpha  occ. eigenvalues --   -1.13562  -1.13088  -1.13040  -1.13022  -1.12877
 Alpha  occ. eigenvalues --   -1.12844  -1.12810  -1.12784  -1.12779  -1.12751
 Alpha  occ. eigenvalues --   -0.18338  -0.13482  -0.12213  -0.10349
 Alpha virt. eigenvalues --   -0.06265  -0.05800  -0.04258  -0.03377  -0.02649
 Alpha virt. eigenvalues --   -0.02298  -0.01919  -0.01472  -0.00650  -0.00212
 Alpha virt. eigenvalues --   -0.00021   0.00251   0.00705   0.00719   0.00821

  Beta  occ. eigenvalues --  -38.44600 -38.44590 -38.44149 -38.44069 -38.43447
  Beta  occ. eigenvalues --  -38.43279 -38.43134  -2.20435  -2.20419  -2.19974
  Beta  occ. eigenvalues --   -2.19915  -2.19226  -2.19119  -2.19100  -1.14237
  Beta  occ. eigenvalues --   -1.14117  -1.14064  -1.14055  -1.14047  -1.14037
  Beta  occ. eigenvalues --   -1.13654  -1.13625  -1.13608  -1.13602  -1.13554
  Beta  occ. eigenvalues --   -1.13553  -1.12963  -1.12909  -1.12888  -1.12827
  Beta  occ. eigenvalues --   -1.12787  -1.12777  -1.12756  -1.12742  -1.12729
  Beta  occ. eigenvalues --   -0.17654  -0.13309  -0.11990
  Beta virt. eigenvalues --   -0.06494  -0.06171  -0.05732  -0.04206  -0.02647
  Beta virt. eigenvalues --   -0.02021  -0.01866  -0.01384  -0.01232  -0.00646
  Beta virt. eigenvalues --   -0.00199   0.00139   0.00310   0.00735   0.00779

 Mulliken charges and spin densities:
               1          2
     1  Na  -0.069623   0.093711
     2  Na  -0.105105   0.004616
     3  Na   0.118295   0.074034
     4  Na   0.278446   0.036407
     5  Na   0.092179  -0.003671
     6  Na  -0.466603   0.673026
     7  Na   0.152410   0.121877
 Sum of Mulliken charges =  -0.00000   1.00000

 Dipole moment (field-independent basis, Debye):
    X=              0.0267    Y=             -0.0915    Z=              0.3568  Tot=              0.3693
 Quadrupole moment (field-independent basis, Debye-Ang):
   XX=            -51.0799   YY=            -65.6276   ZZ=            -76.4325
   XY=             -0.6159   XZ=              2.2363   YZ=              0.2865

 Normal termination of Gaussian 16 at Tue Dec  5 23:31:22 2023.
