 Gaussian 16, Revision B.01,
 Gaussian 16:  ES64L-G16RevB.01 20-Dec-2017

 -------------------------
 #P B3LYP/6-311+g(d) force
 -------------------------

 -----
 DPGEN
 -----
 Symbolic Z-matrix:
 Charge =  0 Multiplicity = 2

                         Standard orientation:
 ---------------------------------------------------------------------
 Center     Atomic      Atomic             Coordinates (Angstroms)
 Number     Number       Type             X           Y           Z
 ---------------------------------------------------------------------
      1         11           0       -3.812716    1.897321    0.563415
      2         11           0       -0.965006   -3.321790   -0.221173
      3         11           0       -4.047168   -1.470331   -0.381047
      4         11           0        3.018171    2.481014   -0.059725
      5         11           0        2.005604   -2.733119    0.500061
      6         11           0       -0.855439    3.371300   -0.261182
      7         11           0        4.656554   -0.224395   -0.140349
 ---------------------------------------------------------------------

 SCF Done:  E(UB3LYP) =  -1136.10876115     A.U. after   23 cycles

 The electronic state is 2-A.
 Alpha  occ. eigenvalues --  -38.45310 -38.44993 -38.44570 -38.44508 -38.44374
 Alpha  occ. eigenvalues --  -38.44110 -38.43998  -2.21082  -2.20758  -2.20381
 Alpha  occ. eigenvalues --   -2.20323  -2.20170  -2.19913  -2.19784  -1.14757
 Alpha  occ. eigenvalues --   -1.14750  -1.14734  -1.14441  -1.14430  -1.14411
 Alpha  occ. eigenvalues --   -1.14071  -1.14038  -1.14013  -1.13977  -1.13973
 Alpha  occ. eigenvalues --   -1.13956  -1.13825  -1.13812  -1.13799  -1.13584
 Alpha  occ. eigenvalues --   -1.13578  -1.13553  -1.13439  -1.13432  -1.13410
 Alpha  occ. eigenvalues --   -0.15626  -0.14167  -0.13422  -0.10903
 Alpha virt. eigenvalues --   -0.07841  -0.04660  -0.04529  -0.03607  -0.03547
 Alpha virt. eigenvalues --   -0.02575  -0.02257  -0.01846  -0.01194  -0.00651
 Alpha virt. eigenvalues --   -0.00534  -0.00265   0.00078   0.00374   0.00533

  Beta  occ. eigenvalues --  -38.45296 -38.45000 -38.44525 -38.44473 -38.44305
  Beta  occ. eigenvalues --  -38.44102 -38.43933  -2.21062  -2.20776  -2.20302
  Beta  occ. eigenvalues --   -2.20259  -2.20043  -2.19904  -2.19664  -1.14748
  Beta  occ. eigenvalues --   -1.14740  -1.14688  -1.14459  -1.14448  -1.14384
  Beta  occ. eigenvalues --   -1.14009  -1.13986  -1.13956  -1.13931  -1.13928
  Beta  occ. eigenvalues --   -1.13909  -1.13738  -1.13729  -1.13714  -1.13577
  Beta  occ. eigenvalues --   -1.13575  -1.13516  -1.13356  -1.13351  -1.13333
  Beta  occ. eigenvalues --   -0.15083  -0.13513  -0.12636
  Beta virt. eigenvalues --   -0.07982  -0.07754  -0.04200  -0.03982  -0.03375
  Beta virt. eigenvalues --   -0.03245  -0.02373  -0.02100  -0.01692  -0.01055
  Beta virt. eigenvalues --   -0.00307  -0.00230  -0.00082   0.00240   0.00445

 Mulliken charges and spin densities:
               1          2
     1  Na   0.101220  -0.043687
     2  Na   0.248002  -0.010802
     3  Na   0.039677   0.359390
     4  Na  -0.030595   0.085621
     5  Na  -0.310472   0.148920
     6  Na  -0.304324   0.311253
     7  Na   0.256492   0.149306
 Sum of Mulliken charges =  -0.00000   1.00000

 Dipole moment (field-independent basis, Debye):
    X=              0.5948    Y=              0.1185    Z=              0.0634  Tot=              0.6098
 Quadrupole moment (field-independent basis, Debye-Ang):
   XX=            -58.2866   YY=            -68.4247   ZZ=            -73.0297
   XY=             -1.6259   XZ=             -0.5129   YZ=              0.9888

 Normal termination of Gaussian 16 at Sun Dec  3 15:40:18 2023.
