 Gaussian 16, Revision B.01,
 Gaussian 16:  ES64L-G16RevB.01 20-Dec-2017

 -------------------------
 #P B3LYP/6-311+g(d) force
 -------------------------

 -----
 DPGEN
 -----
 Symbolic Z-matrix:
 Charge =  0 Multiplicity = 2

                         Standard orientation:
 ---------------------------------------------------------------------
 Center     Atomic      Atomic             Coordinates (Angstroms)
 Number     Number       Type             X           Y           Z
 ---------------------------------------------------------------------
      1         11           0       -1.099422   -0.103585    1.656176
      2         11           0        1.867073   -1.702235    0.408738
      3         11           0       -4.012399   -0.586276   -0.163878
      4         11           0        1.503318    1.578543   -0.498426
      5         11           0       -1.688184    2.637020   -0.195396
      6         11           0       -1.250082   -1.909673   -1.090930
      7         11           0        4.679697    0.086206   -0.116285
 ---------------------------------------------------------------------

 SCF Done:  E(UB3LYP) =  -1136.12590853     A.U. after   22 cycles

 The electronic state is 2-A.
 Alpha  occ. eigenvalues --  -38.44846 -38.43991 -38.43954 -38.43905 -38.43610
 Alpha  occ. eigenvalues --  -38.43361 -38.42952  -2.20756  -2.19826  -2.19824
 Alpha  occ. eigenvalues --   -2.19770  -2.19460  -2.19248  -2.18783  -1.14443
 Alpha  occ. eigenvalues --   -1.14427  -1.14370  -1.13534  -1.13495  -1.13482
 Alpha  occ. eigenvalues --   -1.13475  -1.13466  -1.13445  -1.13423  -1.13382
 Alpha  occ. eigenvalues --   -1.13368  -1.13168  -1.13154  -1.13070  -1.12937
 Alpha  occ. eigenvalues --   -1.12929  -1.12859  -1.12463  -1.12449  -1.12417
 Alpha  occ. eigenvalues --   -0.18107  -0.14364  -0.11727  -0.10757
 Alpha virt. eigenvalues --   -0.06907  -0.05126  -0.04236  -0.03519  -0.03120
 Alpha virt. eigenvalues --   -0.02132  -0.01687  -0.01325  -0.01043  -0.00576
 Alpha virt. eigenvalues --   -0.00353   0.00044   0.00419   0.00651   0.00774

  Beta  occ. eigenvalues --  -38.44817 -38.43946 -38.43912 -38.43831 -38.43607
  Beta  occ. eigenvalues --  -38.43340 -38.42952  -2.20709  -2.19816  -2.19678
  Beta  occ. eigenvalues --   -2.19632  -2.19460  -2.19216  -2.18786  -1.14417
  Beta  occ. eigenvalues --   -1.14362  -1.14338  -1.13514  -1.13490  -1.13442
  Beta  occ. eigenvalues --   -1.13374  -1.13365  -1.13352  -1.13330  -1.13299
  Beta  occ. eigenvalues --   -1.13281  -1.13169  -1.13147  -1.13054  -1.12922
  Beta  occ. eigenvalues --   -1.12901  -1.12801  -1.12467  -1.12450  -1.12409
  Beta  occ. eigenvalues --   -0.17497  -0.13621  -0.11501
  Beta virt. eigenvalues --   -0.07247  -0.06727  -0.04978  -0.03461  -0.03355
  Beta virt. eigenvalues --   -0.02819  -0.02031  -0.01237  -0.01082  -0.00537
  Beta virt. eigenvalues --   -0.00304  -0.00104   0.00110   0.00531   0.00716

 Mulliken charges and spin densities:
               1          2
     1  Na  -0.264572   0.094759
     2  Na  -0.119654   0.097769
     3  Na   0.344145   0.413200
     4  Na  -0.674522  -0.042765
     5  Na   0.111678   0.084199
     6  Na  -0.065892  -0.007307
     7  Na   0.668817   0.360146
 Sum of Mulliken charges =  -0.00000   1.00000

 Dipole moment (field-independent basis, Debye):
    X=             -0.1952    Y=             -0.3094    Z=              0.3440  Tot=              0.5022
 Quadrupole moment (field-independent basis, Debye-Ang):
   XX=            -63.8032   YY=            -75.1499   ZZ=            -63.2388
   XY=             -2.7517   XZ=             -0.5473   YZ=             -1.0749

 Normal termination of Gaussian 16 at Tue Nov 28 22:51:12 2023.
