 Gaussian 16, Revision B.01,
 Gaussian 16:  ES64L-G16RevB.01 20-Dec-2017

 -------------------------
 #P B3LYP/6-311+g(d) force
 -------------------------

 -----
 DPGEN
 -----
 Symbolic Z-matrix:
 Charge =  0 Multiplicity = 2

                         Standard orientation:
 ---------------------------------------------------------------------
 Center     Atomic      Atomic             Coordinates (Angstroms)
 Number     Number       Type             X           Y           Z
 ---------------------------------------------------------------------
      1         11           0       -1.105317   -2.677026   -0.278577
      2         11           0       -0.859116    3.086536    0.036777
      3         11           0       -3.232285    0.027220    0.018382
      4         11           0       -0.025751    0.028003    1.758109
      5         11           0        0.030863    0.143306   -1.534705
      6         11           0        2.945445    1.634195   -0.177751
      7         11           0        2.246161   -2.242234    0.177766
 ---------------------------------------------------------------------

 SCF Done:  E(UB3LYP) =  -1136.13674826     A.U. after   20 cycles

 The electronic state is 2-A.
 Alpha  occ. eigenvalues --  -38.44347 -38.44136 -38.44001 -38.43848 -38.43341
 Alpha  occ. eigenvalues --  -38.42993 -38.42888  -2.20120  -2.19933  -2.19818
 Alpha  occ. eigenvalues --   -2.19669  -2.19225  -2.18925  -2.18862  -1.13800
 Alpha  occ. eigenvalues --   -1.13773  -1.13759  -1.13615  -1.13601  -1.13561
 Alpha  occ. eigenvalues --   -1.13490  -1.13483  -1.13459  -1.13339  -1.13336
 Alpha  occ. eigenvalues --   -1.13310  -1.12924  -1.12885  -1.12853  -1.12660
 Alpha  occ. eigenvalues --   -1.12546  -1.12539  -1.12532  -1.12490  -1.12471
 Alpha  occ. eigenvalues --   -0.18465  -0.12718  -0.12691  -0.10049
 Alpha virt. eigenvalues --   -0.05946  -0.05358  -0.04976  -0.02782  -0.02762
 Alpha virt. eigenvalues --   -0.01964  -0.01707  -0.01505  -0.00741  -0.00547
 Alpha virt. eigenvalues --    0.00030   0.00334   0.00735   0.00818   0.00838

  Beta  occ. eigenvalues --  -38.44344 -38.44133 -38.43997 -38.43843 -38.43330
  Beta  occ. eigenvalues --  -38.42911 -38.42825  -2.20115  -2.19930  -2.19815
  Beta  occ. eigenvalues --   -2.19662  -2.19210  -2.18774  -2.18749  -1.13782
  Beta  occ. eigenvalues --   -1.13769  -1.13758  -1.13605  -1.13588  -1.13560
  Beta  occ. eigenvalues --   -1.13485  -1.13469  -1.13452  -1.13335  -1.13313
  Beta  occ. eigenvalues --   -1.13307  -1.12910  -1.12856  -1.12838  -1.12564
  Beta  occ. eigenvalues --   -1.12452  -1.12438  -1.12422  -1.12406  -1.12386
  Beta  occ. eigenvalues --   -0.17764  -0.12490  -0.12437
  Beta virt. eigenvalues --   -0.06230  -0.05930  -0.05302  -0.04959  -0.02055
  Beta virt. eigenvalues --   -0.02025  -0.01625  -0.01419  -0.00968  -0.00795
  Beta virt. eigenvalues --   -0.00587   0.00168   0.00372   0.00740   0.00849

 Mulliken charges and spin densities:
               1          2
     1  Na   0.250729   0.022929
     2  Na   0.007783  -0.150641
     3  Na   0.150812  -0.062251
     4  Na  -0.269673   0.767147
     5  Na  -0.232454   0.578583
     6  Na  -0.027277  -0.121980
     7  Na   0.120080  -0.033787
 Sum of Mulliken charges =  -0.00000   1.00000

 Dipole moment (field-independent basis, Debye):
    X=              0.1320    Y=              0.3794    Z=              0.0724  Tot=              0.4082
 Quadrupole moment (field-independent basis, Debye-Ang):
   XX=            -54.2764   YY=            -57.7931   ZZ=            -78.1489
   XY=             -0.4929   XZ=              0.1597   YZ=              0.2135

 Normal termination of Gaussian 16 at Sat Dec  9 05:44:16 2023.
