 Gaussian 16, Revision B.01,
 Gaussian 16:  ES64L-G16RevB.01 20-Dec-2017

 -------------------------
 #P B3LYP/6-311+g(d) force
 -------------------------

 -----
 DPGEN
 -----
 Symbolic Z-matrix:
 Charge =  0 Multiplicity = 2

                         Standard orientation:
 ---------------------------------------------------------------------
 Center     Atomic      Atomic             Coordinates (Angstroms)
 Number     Number       Type             X           Y           Z
 ---------------------------------------------------------------------
      1         11           0       -2.788021    0.928340    0.187386
      2         11           0       -0.027746    2.817636   -0.406214
      3         11           0       -0.339816   -0.496605   -1.450734
      4         11           0        2.167921   -2.197456    0.088116
      5         11           0       -2.421948   -2.176200    0.145882
      6         11           0        0.348283    0.534778    1.553330
      7         11           0        3.061328    0.589505   -0.117767
 ---------------------------------------------------------------------

 SCF Done:  E(UB3LYP) =  -1136.12675620     A.U. after   20 cycles

 The electronic state is 2-A.
 Alpha  occ. eigenvalues --  -38.44533 -38.44092 -38.44024 -38.43889 -38.43037
 Alpha  occ. eigenvalues --  -38.42921 -38.42773  -2.20437  -2.20016  -2.19903
 Alpha  occ. eigenvalues --   -2.19753  -2.19060  -2.18828  -2.18803  -1.14177
 Alpha  occ. eigenvalues --   -1.14101  -1.14065  -1.13722  -1.13681  -1.13663
 Alpha  occ. eigenvalues --   -1.13566  -1.13546  -1.13541  -1.13440  -1.13393
 Alpha  occ. eigenvalues --   -1.13385  -1.12805  -1.12725  -1.12680  -1.12499
 Alpha  occ. eigenvalues --   -1.12485  -1.12467  -1.12457  -1.12425  -1.12412
 Alpha  occ. eigenvalues --   -0.19165  -0.13997  -0.12355  -0.10059
 Alpha virt. eigenvalues --   -0.06001  -0.05589  -0.04465  -0.03346  -0.02509
 Alpha virt. eigenvalues --   -0.01865  -0.01655  -0.01181  -0.00565  -0.00259
 Alpha virt. eigenvalues --    0.00064   0.00345   0.00743   0.00840   0.00883

  Beta  occ. eigenvalues --  -38.44527 -38.44081 -38.44019 -38.43886 -38.42975
  Beta  occ. eigenvalues --  -38.42907 -38.42708  -2.20430  -2.20000  -2.19898
  Beta  occ. eigenvalues --   -2.19750  -2.18947  -2.18807  -2.18684  -1.14176
  Beta  occ. eigenvalues --   -1.14092  -1.14037  -1.13716  -1.13661  -1.13631
  Beta  occ. eigenvalues --   -1.13564  -1.13546  -1.13511  -1.13432  -1.13390
  Beta  occ. eigenvalues --   -1.13370  -1.12731  -1.12652  -1.12595  -1.12461
  Beta  occ. eigenvalues --   -1.12445  -1.12421  -1.12405  -1.12343  -1.12325
  Beta  occ. eigenvalues --   -0.18463  -0.13723  -0.12129
  Beta virt. eigenvalues --   -0.06220  -0.05909  -0.05572  -0.04438  -0.02526
  Beta virt. eigenvalues --   -0.01834  -0.01737  -0.01159  -0.00737  -0.00597
  Beta virt. eigenvalues --   -0.00270   0.00217   0.00384   0.00781   0.00844

 Mulliken charges and spin densities:
               1          2
     1  Na   0.278914   0.122837
     2  Na  -0.021997   0.045080
     3  Na  -0.346767   0.402178
     4  Na   0.040296  -0.067561
     5  Na   0.091806  -0.048243
     6  Na  -0.361033   0.474386
     7  Na   0.318781   0.071323
 Sum of Mulliken charges =  -0.00000   1.00000

 Dipole moment (field-independent basis, Debye):
    X=              0.1811    Y=             -0.1793    Z=             -0.0068  Tot=              0.2550
 Quadrupole moment (field-independent basis, Debye-Ang):
   XX=            -52.8428   YY=            -61.5671   ZZ=            -77.6979
   XY=              0.2756   XZ=             -1.5162   YZ=             -2.3592

 Normal termination of Gaussian 16 at Tue Nov 28 20:34:26 2023.
