 Gaussian 16, Revision B.01,
 Gaussian 16:  ES64L-G16RevB.01 20-Dec-2017

 -------------------------
 #P B3LYP/6-311+g(d) force
 -------------------------

 -----
 DPGEN
 -----
 Symbolic Z-matrix:
 Charge =  0 Multiplicity = 2

                         Standard orientation:
 ---------------------------------------------------------------------
 Center     Atomic      Atomic             Coordinates (Angstroms)
 Number     Number       Type             X           Y           Z
 ---------------------------------------------------------------------
      1         11           0        2.563274    1.901179   -0.145178
      2         11           0       -2.120532   -2.644881   -1.139929
      3         11           0       -3.664111    0.937634    0.649324
      4         11           0       -0.480347   -0.452147    0.366220
      5         11           0        1.840739   -1.738628    2.241140
      6         11           0       -0.471377    3.110276   -0.350621
      7         11           0        2.332353   -1.113433   -1.620956
 ---------------------------------------------------------------------

 SCF Done:  E(UB3LYP) =  -1136.12031199     A.U. after   22 cycles

 The electronic state is 2-A.
 Alpha  occ. eigenvalues --  -38.44896 -38.44525 -38.44509 -38.44012 -38.43876
 Alpha  occ. eigenvalues --  -38.43574 -38.42753  -2.20645  -2.20332  -2.20299
 Alpha  occ. eigenvalues --   -2.19842  -2.19706  -2.19368  -2.18729  -1.14330
 Alpha  occ. eigenvalues --   -1.14295  -1.14278  -1.14010  -1.13983  -1.13979
 Alpha  occ. eigenvalues --   -1.13963  -1.13949  -1.13908  -1.13511  -1.13465
 Alpha  occ. eigenvalues --   -1.13440  -1.13381  -1.13376  -1.13344  -1.13049
 Alpha  occ. eigenvalues --   -1.13044  -1.12992  -1.12458  -1.12395  -1.12355
 Alpha  occ. eigenvalues --   -0.17328  -0.13048  -0.12246  -0.10596
 Alpha virt. eigenvalues --   -0.06555  -0.05470  -0.04777  -0.02995  -0.02811
 Alpha virt. eigenvalues --   -0.02184  -0.01840  -0.01407  -0.00878  -0.00778
 Alpha virt. eigenvalues --   -0.00265   0.00274   0.00363   0.00631   0.00653

  Beta  occ. eigenvalues --  -38.44896 -38.44495 -38.44468 -38.43905 -38.43871
  Beta  occ. eigenvalues --  -38.43582 -38.42738  -2.20645  -2.20276  -2.20222
  Beta  occ. eigenvalues --   -2.19698  -2.19644  -2.19383  -2.18708  -1.14329
  Beta  occ. eigenvalues --   -1.14296  -1.14277  -1.13971  -1.13938  -1.13933
  Beta  occ. eigenvalues --   -1.13920  -1.13894  -1.13855  -1.13380  -1.13372
  Beta  occ. eigenvalues --   -1.13355  -1.13344  -1.13330  -1.13308  -1.13058
  Beta  occ. eigenvalues --   -1.13053  -1.12999  -1.12395  -1.12384  -1.12350
  Beta  occ. eigenvalues --   -0.16830  -0.12784  -0.11938
  Beta virt. eigenvalues --   -0.06969  -0.06222  -0.05311  -0.04450  -0.02689
  Beta virt. eigenvalues --   -0.02330  -0.01884  -0.01468  -0.01157  -0.00760
  Beta virt. eigenvalues --   -0.00511  -0.00020   0.00345   0.00484   0.00670

 Mulliken charges and spin densities:
               1          2
     1  Na   0.314665   0.168408
     2  Na   0.169329   0.244376
     3  Na   0.293953  -0.036232
     4  Na  -1.465145   0.186466
     5  Na   0.293659   0.349294
     6  Na   0.110684  -0.127361
     7  Na   0.282854   0.215049
 Sum of Mulliken charges =  -0.00000   1.00000

 Dipole moment (field-independent basis, Debye):
    X=             -0.4412    Y=             -0.2271    Z=             -0.3498  Tot=              0.6071
 Quadrupole moment (field-independent basis, Debye-Ang):
   XX=            -54.0601   YY=            -66.1511   ZZ=            -71.7107
   XY=             -0.6473   XZ=             -1.0106   YZ=              2.5282

 Normal termination of Gaussian 16 at Tue Dec  5 11:14:12 2023.
