 Gaussian 16, Revision B.01,
 Gaussian 16:  ES64L-G16RevB.01 20-Dec-2017

 -------------------------
 #P B3LYP/6-311+g(d) force
 -------------------------

 -----
 DPGEN
 -----
 Symbolic Z-matrix:
 Charge =  0 Multiplicity = 2

                         Standard orientation:
 ---------------------------------------------------------------------
 Center     Atomic      Atomic             Coordinates (Angstroms)
 Number     Number       Type             X           Y           Z
 ---------------------------------------------------------------------
      1         11           0       -1.881026   -1.696066   -1.109877
      2         11           0       -2.175620    2.116469   -0.815621
      3         11           0       -3.381604   -0.042028    1.556928
      4         11           0        0.443654   -0.556556    1.435742
      5         11           0        4.132927    0.491877    0.848460
      6         11           0        1.413888    1.759798   -0.960290
      7         11           0        1.447781   -2.073494   -0.955342
 ---------------------------------------------------------------------

 SCF Done:  E(UB3LYP) =  -1136.12426958     A.U. after   22 cycles

 The electronic state is 2-A.
 Alpha  occ. eigenvalues --  -38.44857 -38.44769 -38.44101 -38.43827 -38.43638
 Alpha  occ. eigenvalues --  -38.43491 -38.43153  -2.20740  -2.20553  -2.19938
 Alpha  occ. eigenvalues --   -2.19675  -2.19476  -2.19305  -2.19040  -1.14469
 Alpha  occ. eigenvalues --   -1.14419  -1.14332  -1.14222  -1.14207  -1.14169
 Alpha  occ. eigenvalues --   -1.13600  -1.13580  -1.13566  -1.13358  -1.13339
 Alpha  occ. eigenvalues --   -1.13301  -1.13178  -1.13142  -1.13085  -1.12980
 Alpha  occ. eigenvalues --   -1.12966  -1.12938  -1.12748  -1.12699  -1.12636
 Alpha  occ. eigenvalues --   -0.17993  -0.14015  -0.11501  -0.10765
 Alpha virt. eigenvalues --   -0.06744  -0.05116  -0.04979  -0.03371  -0.02754
 Alpha virt. eigenvalues --   -0.02511  -0.02047  -0.01060  -0.00977  -0.00315
 Alpha virt. eigenvalues --    0.00062   0.00225   0.00274   0.00473   0.00689

  Beta  occ. eigenvalues --  -38.44843 -38.44740 -38.44045 -38.43815 -38.43606
  Beta  occ. eigenvalues --  -38.43468 -38.43140  -2.20713  -2.20499  -2.19834
  Beta  occ. eigenvalues --   -2.19655  -2.19420  -2.19267  -2.19019  -1.14435
  Beta  occ. eigenvalues --   -1.14405  -1.14311  -1.14183  -1.14172  -1.14135
  Beta  occ. eigenvalues --   -1.13528  -1.13508  -1.13500  -1.13333  -1.13318
  Beta  occ. eigenvalues --   -1.13285  -1.13144  -1.13101  -1.13025  -1.12954
  Beta  occ. eigenvalues --   -1.12940  -1.12893  -1.12738  -1.12671  -1.12618
  Beta  occ. eigenvalues --   -0.17432  -0.13708  -0.11101
  Beta virt. eigenvalues --   -0.07307  -0.06433  -0.05119  -0.04300  -0.03125
  Beta virt. eigenvalues --   -0.02502  -0.02045  -0.01440  -0.00884  -0.00619
  Beta virt. eigenvalues --   -0.00247   0.00155   0.00295   0.00395   0.00619

 Mulliken charges and spin densities:
               1          2
     1  Na  -0.061214   0.305118
     2  Na  -0.190559  -0.050548
     3  Na   0.503599   0.380206
     4  Na  -0.811995   0.031789
     5  Na   0.591492   0.121648
     6  Na  -0.384947   0.252476
     7  Na   0.353624  -0.040690
 Sum of Mulliken charges =  -0.00000   1.00000

 Dipole moment (field-independent basis, Debye):
    X=              0.5895    Y=             -0.4450    Z=              0.1344  Tot=              0.7507
 Quadrupole moment (field-independent basis, Debye-Ang):
   XX=            -51.7665   YY=            -76.8481   ZZ=            -67.6262
   XY=             -0.2159   XZ=              1.0226   YZ=              0.5398

 Normal termination of Gaussian 16 at Sun Dec  3 16:54:29 2023.
