 Gaussian 16, Revision B.01,
 Gaussian 16:  ES64L-G16RevB.01 20-Dec-2017

 -------------------------
 #P B3LYP/6-311+g(d) force
 -------------------------

 -----
 DPGEN
 -----
 Symbolic Z-matrix:
 Charge =  0 Multiplicity = 2

                         Standard orientation:
 ---------------------------------------------------------------------
 Center     Atomic      Atomic             Coordinates (Angstroms)
 Number     Number       Type             X           Y           Z
 ---------------------------------------------------------------------
      1         11           0        2.979390   -0.969686    0.091653
      2         11           0       -1.737871    2.582530    0.308345
      3         11           0       -0.484643   -0.046454    2.440770
      4         11           0        0.175064   -0.027467   -1.987793
      5         11           0        1.947585    2.180392   -0.321177
      6         11           0       -0.033516   -2.656800    0.322028
      7         11           0       -2.846009   -1.062514   -0.853826
 ---------------------------------------------------------------------

 SCF Done:  E(UB3LYP) =  -1136.13515063     A.U. after   19 cycles

 The electronic state is 2-A.
 Alpha  occ. eigenvalues --  -38.44745 -38.44116 -38.43936 -38.43578 -38.43531
 Alpha  occ. eigenvalues --  -38.43437 -38.43046  -2.20573  -2.20024  -2.19759
 Alpha  occ. eigenvalues --   -2.19411  -2.19316  -2.19277  -2.18923  -1.14223
 Alpha  occ. eigenvalues --   -1.14204  -1.14192  -1.13700  -1.13675  -1.13650
 Alpha  occ. eigenvalues --   -1.13436  -1.13405  -1.13389  -1.13090  -1.13077
 Alpha  occ. eigenvalues --   -1.13063  -1.12996  -1.12975  -1.12967  -1.12961
 Alpha  occ. eigenvalues --   -1.12935  -1.12885  -1.12611  -1.12593  -1.12549
 Alpha  occ. eigenvalues --   -0.18222  -0.12700  -0.12180  -0.11738
 Alpha virt. eigenvalues --   -0.05239  -0.05156  -0.04533  -0.03539  -0.03324
 Alpha virt. eigenvalues --   -0.03309  -0.01291  -0.00947  -0.00280  -0.00098
 Alpha virt. eigenvalues --   -0.00012   0.00384   0.00735   0.00790   0.00909

  Beta  occ. eigenvalues --  -38.44643 -38.44050 -38.43914 -38.43579 -38.43528
  Beta  occ. eigenvalues --  -38.43435 -38.43038  -2.20385  -2.19902  -2.19721
  Beta  occ. eigenvalues --   -2.19414  -2.19314  -2.19274  -2.18912  -1.14098
  Beta  occ. eigenvalues --   -1.14076  -1.14054  -1.13623  -1.13583  -1.13564
  Beta  occ. eigenvalues --   -1.13394  -1.13380  -1.13363  -1.13094  -1.13079
  Beta  occ. eigenvalues --   -1.13054  -1.12983  -1.12969  -1.12965  -1.12954
  Beta  occ. eigenvalues --   -1.12931  -1.12885  -1.12603  -1.12565  -1.12536
  Beta  occ. eigenvalues --   -0.17466  -0.12462  -0.11973
  Beta virt. eigenvalues --   -0.07778  -0.05160  -0.05067  -0.04341  -0.02843
  Beta virt. eigenvalues --   -0.02541  -0.02432  -0.01177  -0.00864  -0.00227
  Beta virt. eigenvalues --   -0.00071   0.00033   0.00423   0.00869   0.00914

 Mulliken charges and spin densities:
               1          2
     1  Na   0.070304  -0.050158
     2  Na  -0.071803  -0.011341
     3  Na  -0.413116   0.523053
     4  Na  -0.190453   0.379545
     5  Na   0.179471  -0.019943
     6  Na   0.136642   0.134274
     7  Na   0.288955   0.044570
 Sum of Mulliken charges =  -0.00000   1.00000

 Dipole moment (field-independent basis, Debye):
    X=             -0.1570    Y=              0.0182    Z=              0.1640  Tot=              0.2278
 Quadrupole moment (field-independent basis, Debye-Ang):
   XX=            -61.0120   YY=            -67.4091   ZZ=            -68.2299
   XY=             -0.1262   XZ=              1.6326   YZ=              0.1380

 Normal termination of Gaussian 16 at Tue Dec  5 10:44:50 2023.
