 Gaussian 16, Revision B.01,
 Gaussian 16:  ES64L-G16RevB.01 20-Dec-2017

 -------------------------
 #P B3LYP/6-311+g(d) force
 -------------------------

 -----
 DPGEN
 -----
 Symbolic Z-matrix:
 Charge =  0 Multiplicity = 2

                         Standard orientation:
 ---------------------------------------------------------------------
 Center     Atomic      Atomic             Coordinates (Angstroms)
 Number     Number       Type             X           Y           Z
 ---------------------------------------------------------------------
      1         11           0        1.066608   -1.436777   -1.304343
      2         11           0       -4.143372    0.044376    1.135365
      3         11           0        4.226078   -0.646272    0.854969
      4         11           0       -1.514210    2.158816   -1.017550
      5         11           0       -1.993525   -1.571625   -0.988321
      6         11           0        2.662851    1.693552   -0.211277
      7         11           0       -0.304430   -0.242071    1.531157
 ---------------------------------------------------------------------

 SCF Done:  E(UB3LYP) =  -1136.11453588     A.U. after   30 cycles

 The electronic state is 2-A.
 Alpha  occ. eigenvalues --  -38.45920 -38.44599 -38.44487 -38.44298 -38.43797
 Alpha  occ. eigenvalues --  -38.43273 -38.42389  -2.21754  -2.20440  -2.20289
 Alpha  occ. eigenvalues --   -2.20143  -2.19617  -2.19192  -2.18289  -1.15452
 Alpha  occ. eigenvalues --   -1.15416  -1.15371  -1.14159  -1.14080  -1.14059
 Alpha  occ. eigenvalues --   -1.13952  -1.13940  -1.13895  -1.13810  -1.13793
 Alpha  occ. eigenvalues --   -1.13767  -1.13287  -1.13268  -1.13225  -1.12895
 Alpha  occ. eigenvalues --   -1.12876  -1.12815  -1.11982  -1.11960  -1.11915
 Alpha  occ. eigenvalues --   -0.18080  -0.14531  -0.11219  -0.10706
 Alpha virt. eigenvalues --   -0.07071  -0.05546  -0.04738  -0.03194  -0.03143
 Alpha virt. eigenvalues --   -0.02247  -0.01961  -0.01557  -0.01110  -0.00449
 Alpha virt. eigenvalues --   -0.00211   0.00181   0.00288   0.00419   0.00668

  Beta  occ. eigenvalues --  -38.45910 -38.44550 -38.44408 -38.44285 -38.43736
  Beta  occ. eigenvalues --  -38.43281 -38.42397  -2.21741  -2.20347  -2.20144
  Beta  occ. eigenvalues --   -2.20124  -2.19503  -2.19212  -2.18307  -1.15428
  Beta  occ. eigenvalues --   -1.15401  -1.15368  -1.14101  -1.14018  -1.13992
  Beta  occ. eigenvalues --   -1.13861  -1.13838  -1.13808  -1.13784  -1.13780
  Beta  occ. eigenvalues --   -1.13713  -1.13209  -1.13183  -1.13155  -1.12894
  Beta  occ. eigenvalues --   -1.12875  -1.12834  -1.11981  -1.11956  -1.11945
  Beta  occ. eigenvalues --   -0.17496  -0.13978  -0.10680
  Beta virt. eigenvalues --   -0.07429  -0.06952  -0.04897  -0.04552  -0.02943
  Beta virt. eigenvalues --   -0.02851  -0.01956  -0.01456  -0.01075  -0.00935
  Beta virt. eigenvalues --   -0.00236  -0.00052   0.00302   0.00314   0.00535

 Mulliken charges and spin densities:
               1          2
     1  Na  -0.313293  -0.032231
     2  Na   0.696097   0.319245
     3  Na   0.915936   0.337227
     4  Na  -0.319139   0.459295
     5  Na  -0.051551   0.017557
     6  Na  -0.161943   0.213840
     7  Na  -0.766106  -0.314933
 Sum of Mulliken charges =  -0.00000   1.00000

 Dipole moment (field-independent basis, Debye):
    X=              0.4858    Y=             -0.1882    Z=              0.4284  Tot=              0.6745
 Quadrupole moment (field-independent basis, Debye-Ang):
   XX=            -61.6569   YY=            -75.0581   ZZ=            -66.1828
   XY=             -1.9925   XZ=              2.4091   YZ=             -4.8136

 Normal termination of Gaussian 16 at Thu Dec  7 13:08:13 2023.
