 Gaussian 16, Revision B.01,
 Gaussian 16:  ES64L-G16RevB.01 20-Dec-2017

 -------------------------
 #P B3LYP/6-311+g(d) force
 -------------------------

 -----
 DPGEN
 -----
 Symbolic Z-matrix:
 Charge =  0 Multiplicity = 2

                         Standard orientation:
 ---------------------------------------------------------------------
 Center     Atomic      Atomic             Coordinates (Angstroms)
 Number     Number       Type             X           Y           Z
 ---------------------------------------------------------------------
      1         11           0       -0.788924    2.959436   -0.174835
      2         11           0        0.184392    0.044984    2.116278
      3         11           0        2.425605    1.614721   -0.338762
      4         11           0       -2.865557    0.288335    0.120647
      5         11           0       -1.636367   -2.711611   -0.087200
      6         11           0        3.003067   -1.776899   -0.009206
      7         11           0       -0.322217   -0.418965   -1.626923
 ---------------------------------------------------------------------

 SCF Done:  E(UB3LYP) =  -1136.13406057     A.U. after   20 cycles

 The electronic state is 2-A.
 Alpha  occ. eigenvalues --  -38.44239 -38.43874 -38.43838 -38.43779 -38.43768
 Alpha  occ. eigenvalues --  -38.43417 -38.43084  -2.20010  -2.19781  -2.19676
 Alpha  occ. eigenvalues --   -2.19643  -2.19624  -2.19380  -2.18924  -1.13681
 Alpha  occ. eigenvalues --   -1.13670  -1.13656  -1.13508  -1.13449  -1.13427
 Alpha  occ. eigenvalues --   -1.13368  -1.13355  -1.13352  -1.13300  -1.13289
 Alpha  occ. eigenvalues --   -1.13278  -1.13263  -1.13250  -1.13237  -1.13053
 Alpha  occ. eigenvalues --   -1.13001  -1.12995  -1.12589  -1.12584  -1.12577
 Alpha  occ. eigenvalues --   -0.18468  -0.13219  -0.12230  -0.10688
 Alpha virt. eigenvalues --   -0.05823  -0.05268  -0.04716  -0.03340  -0.02746
 Alpha virt. eigenvalues --   -0.02579  -0.01568  -0.01246  -0.00560  -0.00311
 Alpha virt. eigenvalues --   -0.00025   0.00345   0.00782   0.00811   0.00849

  Beta  occ. eigenvalues --  -38.44241 -38.43865 -38.43830 -38.43776 -38.43669
  Beta  occ. eigenvalues --  -38.43359 -38.43080  -2.20016  -2.19770  -2.19663
  Beta  occ. eigenvalues --   -2.19640  -2.19441  -2.19274  -2.18921  -1.13678
  Beta  occ. eigenvalues --   -1.13671  -1.13661  -1.13499  -1.13434  -1.13399
  Beta  occ. eigenvalues --   -1.13354  -1.13345  -1.13324  -1.13295  -1.13265
  Beta  occ. eigenvalues --   -1.13258  -1.13166  -1.13123  -1.13105  -1.12982
  Beta  occ. eigenvalues --   -1.12925  -1.12919  -1.12589  -1.12580  -1.12558
  Beta  occ. eigenvalues --   -0.17735  -0.13012  -0.12033
  Beta virt. eigenvalues --   -0.06760  -0.05805  -0.05163  -0.04705  -0.02540
  Beta virt. eigenvalues --   -0.02044  -0.01584  -0.01434  -0.01157  -0.00605
  Beta virt. eigenvalues --   -0.00344   0.00133   0.00379   0.00799   0.00858

 Mulliken charges and spin densities:
               1          2
     1  Na  -0.052972  -0.008958
     2  Na  -0.457850   0.683185
     3  Na   0.077646   0.007278
     4  Na   0.308342   0.140108
     5  Na   0.279499  -0.064244
     6  Na   0.006788  -0.093280
     7  Na  -0.161453   0.335911
 Sum of Mulliken charges =  -0.00000   1.00000

 Dipole moment (field-independent basis, Debye):
    X=              0.1833    Y=             -0.3996    Z=              0.1408  Tot=              0.4616
 Quadrupole moment (field-independent basis, Debye-Ang):
   XX=            -58.1735   YY=            -61.0490   ZZ=            -74.8029
   XY=             -0.5930   XZ=             -1.0057   YZ=             -1.0494

 Normal termination of Gaussian 16 at Thu Dec  7 23:28:04 2023.
