 Gaussian 16, Revision B.01,
 Gaussian 16:  ES64L-G16RevB.01 20-Dec-2017

 -------------------------
 #P B3LYP/6-311+g(d) force
 -------------------------

 -----
 DPGEN
 -----
 Symbolic Z-matrix:
 Charge =  0 Multiplicity = 2

                         Standard orientation:
 ---------------------------------------------------------------------
 Center     Atomic      Atomic             Coordinates (Angstroms)
 Number     Number       Type             X           Y           Z
 ---------------------------------------------------------------------
      1         11           0        2.447454   -1.980778   -0.207322
      2         11           0        0.332658    0.367206   -1.688310
      3         11           0       -3.661481   -0.133404   -0.570993
      4         11           0        2.618763    1.305214   -0.273529
      5         11           0       -0.684037    2.828191    0.345689
      6         11           0       -1.140342   -2.412864    0.225816
      7         11           0        0.086984    0.026435    2.168650
 ---------------------------------------------------------------------

 SCF Done:  E(UB3LYP) =  -1136.13022317     A.U. after   20 cycles

 The electronic state is 2-A.
 Alpha  occ. eigenvalues --  -38.44567 -38.43978 -38.43929 -38.43881 -38.43511
 Alpha  occ. eigenvalues --  -38.43327 -38.43207  -2.20326  -2.19907  -2.19846
 Alpha  occ. eigenvalues --   -2.19816  -2.19358  -2.19161  -2.19053  -1.13996
 Alpha  occ. eigenvalues --   -1.13981  -1.13958  -1.13821  -1.13561  -1.13513
 Alpha  occ. eigenvalues --   -1.13490  -1.13474  -1.13446  -1.13443  -1.13433
 Alpha  occ. eigenvalues --   -1.13398  -1.13030  -1.13023  -1.12996  -1.12840
 Alpha  occ. eigenvalues --   -1.12834  -1.12783  -1.12750  -1.12731  -1.12665
 Alpha  occ. eigenvalues --   -0.18532  -0.12981  -0.12230  -0.11089
 Alpha virt. eigenvalues --   -0.06043  -0.05011  -0.04360  -0.03327  -0.03001
 Alpha virt. eigenvalues --   -0.02756  -0.01811  -0.01087  -0.00382  -0.00091
 Alpha virt. eigenvalues --   -0.00075   0.00297   0.00755   0.00790   0.00856

  Beta  occ. eigenvalues --  -38.44551 -38.43967 -38.43828 -38.43824 -38.43510
  Beta  occ. eigenvalues --  -38.43320 -38.43201  -2.20297  -2.19888  -2.19753
  Beta  occ. eigenvalues --   -2.19625  -2.19359  -2.19151  -2.19047  -1.13969
  Beta  occ. eigenvalues --   -1.13963  -1.13939  -1.13782  -1.13534  -1.13484
  Beta  occ. eigenvalues --   -1.13428  -1.13387  -1.13349  -1.13342  -1.13316
  Beta  occ. eigenvalues --   -1.13292  -1.13030  -1.13022  -1.12982  -1.12834
  Beta  occ. eigenvalues --   -1.12803  -1.12780  -1.12741  -1.12712  -1.12658
  Beta  occ. eigenvalues --   -0.17820  -0.12669  -0.12005
  Beta virt. eigenvalues --   -0.07257  -0.05859  -0.04996  -0.04291  -0.02620
  Beta virt. eigenvalues --   -0.02228  -0.01806  -0.01662  -0.01047  -0.00383
  Beta virt. eigenvalues --   -0.00095   0.00060   0.00340   0.00829   0.00829

 Mulliken charges and spin densities:
               1          2
     1  Na  -0.013982  -0.070589
     2  Na  -0.408304   0.417202
     3  Na  -0.095529   0.034845
     4  Na   0.684645   0.053533
     5  Na   0.043668   0.007806
     6  Na   0.069233   0.016999
     7  Na  -0.279731   0.540204
 Sum of Mulliken charges =  -0.00000   1.00000

 Dipole moment (field-independent basis, Debye):
    X=             -0.1102    Y=              0.1935    Z=              0.0898  Tot=              0.2401
 Quadrupole moment (field-independent basis, Debye-Ang):
   XX=            -56.0198   YY=            -66.3015   ZZ=            -72.2521
   XY=             -1.8010   XZ=              1.2510   YZ=              0.6505

 Normal termination of Gaussian 16 at Tue Dec  5 16:52:45 2023.
