 Gaussian 16, Revision B.01,
 Gaussian 16:  ES64L-G16RevB.01 20-Dec-2017

 -------------------------
 #P B3LYP/6-311+g(d) force
 -------------------------

 -----
 DPGEN
 -----
 Symbolic Z-matrix:
 Charge =  0 Multiplicity = 2

                         Standard orientation:
 ---------------------------------------------------------------------
 Center     Atomic      Atomic             Coordinates (Angstroms)
 Number     Number       Type             X           Y           Z
 ---------------------------------------------------------------------
      1         11           0       -3.659881   -1.587950    0.511779
      2         11           0        0.020074    3.558841   -0.378754
      3         11           0        3.104269    0.729745    0.344806
      4         11           0       -1.789354    1.209739   -1.289682
      5         11           0       -0.424092   -1.832089   -0.360133
      6         11           0        2.631754   -2.591806   -0.710885
      7         11           0        0.117229    0.513520    1.882869
 ---------------------------------------------------------------------

 SCF Done:  E(UB3LYP) =  -1136.12412832     A.U. after   20 cycles

 The electronic state is 2-A.
 Alpha  occ. eigenvalues --  -38.44838 -38.44725 -38.44181 -38.43689 -38.43507
 Alpha  occ. eigenvalues --  -38.43481 -38.43443  -2.20628  -2.20507  -2.20050
 Alpha  occ. eigenvalues --   -2.19566  -2.19399  -2.19329  -2.19279  -1.14315
 Alpha  occ. eigenvalues --   -1.14292  -1.14250  -1.14180  -1.14167  -1.14132
 Alpha  occ. eigenvalues --   -1.13749  -1.13671  -1.13659  -1.13258  -1.13253
 Alpha  occ. eigenvalues --   -1.13198  -1.13107  -1.13087  -1.13060  -1.12989
 Alpha  occ. eigenvalues --   -1.12978  -1.12949  -1.12924  -1.12909  -1.12885
 Alpha  occ. eigenvalues --   -0.17726  -0.13222  -0.12727  -0.10342
 Alpha virt. eigenvalues --   -0.06532  -0.05397  -0.04707  -0.03124  -0.03039
 Alpha virt. eigenvalues --   -0.02355  -0.01797  -0.01318  -0.00706  -0.00680
 Alpha virt. eigenvalues --   -0.00082   0.00165   0.00482   0.00587   0.00826

  Beta  occ. eigenvalues --  -38.44826 -38.44719 -38.44106 -38.43646 -38.43493
  Beta  occ. eigenvalues --  -38.43466 -38.43405  -2.20609  -2.20494  -2.19913
  Beta  occ. eigenvalues --   -2.19487  -2.19375  -2.19308  -2.19211  -1.14286
  Beta  occ. eigenvalues --   -1.14283  -1.14237  -1.14173  -1.14153  -1.14124
  Beta  occ. eigenvalues --   -1.13658  -1.13577  -1.13558  -1.13210  -1.13204
  Beta  occ. eigenvalues --   -1.13133  -1.13081  -1.13061  -1.13022  -1.12978
  Beta  occ. eigenvalues --   -1.12951  -1.12923  -1.12878  -1.12859  -1.12847
  Beta  occ. eigenvalues --   -0.17183  -0.12949  -0.12244
  Beta virt. eigenvalues --   -0.06894  -0.06352  -0.05089  -0.04542  -0.02645
  Beta virt. eigenvalues --   -0.02445  -0.02180  -0.01273  -0.01133  -0.00672
  Beta virt. eigenvalues --   -0.00437   0.00083   0.00239   0.00598   0.00728

 Mulliken charges and spin densities:
               1          2
     1  Na   0.619291   0.013513
     2  Na   0.089774  -0.011136
     3  Na   0.020630   0.086598
     4  Na  -0.156797   0.140383
     5  Na  -1.147745   0.380304
     6  Na   0.500922   0.050716
     7  Na   0.073926   0.339622
 Sum of Mulliken charges =  -0.00000   1.00000

 Dipole moment (field-independent basis, Debye):
    X=             -0.2839    Y=              0.1312    Z=              0.4850  Tot=              0.5771
 Quadrupole moment (field-independent basis, Debye-Ang):
   XX=            -53.0709   YY=            -67.0943   ZZ=            -73.8650
   XY=              6.0884   XZ=             -2.7009   YZ=             -0.1245

 Normal termination of Gaussian 16 at Sun Dec  3 20:49:08 2023.
