 Gaussian 16, Revision B.01,
 Gaussian 16:  ES64L-G16RevB.01 20-Dec-2017

 -------------------------
 #P B3LYP/6-311+g(d) force
 -------------------------

 -----
 DPGEN
 -----
 Symbolic Z-matrix:
 Charge =  0 Multiplicity = 2

                         Standard orientation:
 ---------------------------------------------------------------------
 Center     Atomic      Atomic             Coordinates (Angstroms)
 Number     Number       Type             X           Y           Z
 ---------------------------------------------------------------------
      1         11           0        2.490289    1.393897   -0.115499
      2         11           0       -3.123100    0.235425   -0.172776
      3         11           0       -0.160622   -0.045027   -1.525220
      4         11           0       -1.226096   -2.428335   -0.175793
      5         11           0       -0.287622    2.889247   -0.054700
      6         11           0       -0.259850   -0.127528    2.113713
      7         11           0        2.567002   -1.917678   -0.069724
 ---------------------------------------------------------------------

 SCF Done:  E(UB3LYP) =  -1136.13508934     A.U. after   19 cycles

 The electronic state is 2-A.
 Alpha  occ. eigenvalues --  -38.44106 -38.43645 -38.43644 -38.43553 -38.43542
 Alpha  occ. eigenvalues --  -38.43147 -38.43121  -2.19968  -2.19538  -2.19471
 Alpha  occ. eigenvalues --   -2.19464  -2.19449  -2.19178  -2.19024  -1.13658
 Alpha  occ. eigenvalues --   -1.13625  -1.13606  -1.13275  -1.13213  -1.13180
 Alpha  occ. eigenvalues --   -1.13174  -1.13151  -1.13149  -1.13130  -1.13108
 Alpha  occ. eigenvalues --   -1.13103  -1.13102  -1.13063  -1.13059  -1.12850
 Alpha  occ. eigenvalues --   -1.12818  -1.12780  -1.12686  -1.12676  -1.12653
 Alpha  occ. eigenvalues --   -0.19012  -0.13271  -0.12432  -0.10850
 Alpha virt. eigenvalues --   -0.05629  -0.05021  -0.04624  -0.03228  -0.02768
 Alpha virt. eigenvalues --   -0.02642  -0.01582  -0.01025  -0.00221  -0.00171
 Alpha virt. eigenvalues --   -0.00015   0.00347   0.00817   0.00894   0.00930

  Beta  occ. eigenvalues --  -38.44099 -38.43645 -38.43549 -38.43541 -38.43531
  Beta  occ. eigenvalues --  -38.43144 -38.43061  -2.19960  -2.19468  -2.19454
  Beta  occ. eigenvalues --   -2.19445  -2.19347  -2.19069  -2.19020  -1.13650
  Beta  occ. eigenvalues --   -1.13610  -1.13591  -1.13249  -1.13181  -1.13150
  Beta  occ. eigenvalues --   -1.13118  -1.13112  -1.13107  -1.13083  -1.13066
  Beta  occ. eigenvalues --   -1.13059  -1.13053  -1.13015  -1.13013  -1.12780
  Beta  occ. eigenvalues --   -1.12754  -1.12701  -1.12675  -1.12650  -1.12645
  Beta  occ. eigenvalues --   -0.18270  -0.13021  -0.12207
  Beta virt. eigenvalues --   -0.06862  -0.05596  -0.05017  -0.04611  -0.02405
  Beta virt. eigenvalues --   -0.02011  -0.01549  -0.01470  -0.00965  -0.00283
  Beta virt. eigenvalues --   -0.00212   0.00137   0.00374   0.00862   0.00908

 Mulliken charges and spin densities:
               1          2
     1  Na   0.138948  -0.007209
     2  Na   0.368061  -0.004002
     3  Na  -0.546050   0.288121
     4  Na   0.406228   0.014277
     5  Na   0.201367  -0.019396
     6  Na  -0.683065   0.763321
     7  Na   0.114511  -0.035113
 Sum of Mulliken charges =  -0.00000   1.00000

 Dipole moment (field-independent basis, Debye):
    X=             -0.2608    Y=             -0.0796    Z=              0.2489  Tot=              0.3692
 Quadrupole moment (field-independent basis, Debye-Ang):
   XX=            -56.2345   YY=            -63.2162   ZZ=            -74.1960
   XY=             -1.2430   XZ=              0.2779   YZ=              0.1556

 Normal termination of Gaussian 16 at Thu Dec  7 16:23:12 2023.
