 Gaussian 16, Revision B.01,
 Gaussian 16:  ES64L-G16RevB.01 20-Dec-2017

 -------------------------
 #P B3LYP/6-311+g(d) force
 -------------------------

 -----
 DPGEN
 -----
 Symbolic Z-matrix:
 Charge =  0 Multiplicity = 2

                         Standard orientation:
 ---------------------------------------------------------------------
 Center     Atomic      Atomic             Coordinates (Angstroms)
 Number     Number       Type             X           Y           Z
 ---------------------------------------------------------------------
      1         11           0       -3.342775   -0.295015   -0.134103
      2         11           0        2.817915   -1.547687    0.268482
      3         11           0       -0.843292   -2.399422   -0.726450
      4         11           0        0.407915    0.077768   -1.504945
      5         11           0       -1.157113    2.929542    0.019049
      6         11           0        2.549346    1.758669   -0.095206
      7         11           0       -0.431996   -0.523855    2.173174
 ---------------------------------------------------------------------

 SCF Done:  E(UB3LYP) =  -1136.12943736     A.U. after   20 cycles

 The electronic state is 2-A.
 Alpha  occ. eigenvalues --  -38.44647 -38.44020 -38.43968 -38.43950 -38.43452
 Alpha  occ. eigenvalues --  -38.43326 -38.43233  -2.20446  -2.19853  -2.19820
 Alpha  occ. eigenvalues --   -2.19797  -2.19352  -2.19228  -2.19162  -1.14119
 Alpha  occ. eigenvalues --   -1.14108  -1.14088  -1.13576  -1.13529  -1.13517
 Alpha  occ. eigenvalues --   -1.13499  -1.13467  -1.13458  -1.13431  -1.13416
 Alpha  occ. eigenvalues --   -1.13408  -1.13186  -1.13007  -1.12946  -1.12907
 Alpha  occ. eigenvalues --   -1.12889  -1.12864  -1.12795  -1.12791  -1.12752
 Alpha  occ. eigenvalues --   -0.18461  -0.13298  -0.12029  -0.10797
 Alpha virt. eigenvalues --   -0.06089  -0.05311  -0.04337  -0.03390  -0.02692
 Alpha virt. eigenvalues --   -0.02644  -0.01844  -0.01101  -0.00490  -0.00266
 Alpha virt. eigenvalues --   -0.00034   0.00328   0.00703   0.00838   0.00871

  Beta  occ. eigenvalues --  -38.44646 -38.44015 -38.43965 -38.43854 -38.43454
  Beta  occ. eigenvalues --  -38.43268 -38.43206  -2.20448  -2.19846  -2.19816
  Beta  occ. eigenvalues --   -2.19619  -2.19249  -2.19233  -2.19117  -1.14113
  Beta  occ. eigenvalues --   -1.14099  -1.14090  -1.13571  -1.13519  -1.13500
  Beta  occ. eigenvalues --   -1.13487  -1.13456  -1.13417  -1.13340  -1.13308
  Beta  occ. eigenvalues --   -1.13278  -1.13120  -1.12929  -1.12908  -1.12896
  Beta  occ. eigenvalues --   -1.12869  -1.12859  -1.12761  -1.12724  -1.12720
  Beta  occ. eigenvalues --   -0.17751  -0.13103  -0.11822
  Beta virt. eigenvalues --   -0.06833  -0.06000  -0.05296  -0.04272  -0.02647
  Beta virt. eigenvalues --   -0.02010  -0.01738  -0.01560  -0.01049  -0.00519
  Beta virt. eigenvalues --   -0.00267   0.00130   0.00366   0.00782   0.00842

 Mulliken charges and spin densities:
               1          2
     1  Na   0.066521  -0.030917
     2  Na   0.136477   0.072338
     3  Na   0.403467   0.075643
     4  Na   0.088129   0.190191
     5  Na  -0.137636  -0.075640
     6  Na   0.071720  -0.023327
     7  Na  -0.628678   0.791712
 Sum of Mulliken charges =  -0.00000   1.00000

 Dipole moment (field-independent basis, Debye):
    X=             -0.0960    Y=             -0.0703    Z=              0.3586  Tot=              0.3779
 Quadrupole moment (field-independent basis, Debye-Ang):
   XX=            -52.6179   YY=            -66.2776   ZZ=            -74.4500
   XY=             -0.6637   XZ=              1.4969   YZ=              0.7667

 Normal termination of Gaussian 16 at Thu Dec  7 10:30:38 2023.
