 Gaussian 16, Revision B.01,
 Gaussian 16:  ES64L-G16RevB.01 20-Dec-2017

 -------------------------
 #P B3LYP/6-311+g(d) force
 -------------------------

 -----
 DPGEN
 -----
 Symbolic Z-matrix:
 Charge =  0 Multiplicity = 2

                         Standard orientation:
 ---------------------------------------------------------------------
 Center     Atomic      Atomic             Coordinates (Angstroms)
 Number     Number       Type             X           Y           Z
 ---------------------------------------------------------------------
      1         11           0        0.045875    0.053822   -1.441198
      2         11           0       -1.048272   -2.572479   -0.330669
      3         11           0       -0.512757    2.929141   -0.042169
      4         11           0        3.254908    1.083309   -0.407381
      5         11           0       -3.338980    0.180943   -0.382850
      6         11           0        2.060916   -1.939386    0.375755
      7         11           0       -0.461690    0.264650    2.228512
 ---------------------------------------------------------------------

 SCF Done:  E(UB3LYP) =  -1136.13297381     A.U. after   19 cycles

 The electronic state is 2-A.
 Alpha  occ. eigenvalues --  -38.44600 -38.44217 -38.43788 -38.43596 -38.43357
 Alpha  occ. eigenvalues --  -38.43162 -38.43073  -2.20396  -2.20014  -2.19647
 Alpha  occ. eigenvalues --   -2.19416  -2.19241  -2.19176  -2.18973  -1.14073
 Alpha  occ. eigenvalues --   -1.14049  -1.14029  -1.13685  -1.13681  -1.13647
 Alpha  occ. eigenvalues --   -1.13305  -1.13273  -1.13264  -1.13127  -1.13084
 Alpha  occ. eigenvalues --   -1.13030  -1.12968  -1.12898  -1.12891  -1.12888
 Alpha  occ. eigenvalues --   -1.12844  -1.12778  -1.12638  -1.12613  -1.12586
 Alpha  occ. eigenvalues --   -0.18488  -0.13016  -0.12277  -0.10799
 Alpha virt. eigenvalues --   -0.06191  -0.04870  -0.04520  -0.03194  -0.02823
 Alpha virt. eigenvalues --   -0.02617  -0.01958  -0.01010  -0.00526  -0.00171
 Alpha virt. eigenvalues --   -0.00057   0.00300   0.00792   0.00803   0.00883

  Beta  occ. eigenvalues --  -38.44590 -38.44212 -38.43681 -38.43592 -38.43350
  Beta  occ. eigenvalues --  -38.43117 -38.43066  -2.20381  -2.20005  -2.19449
  Beta  occ. eigenvalues --   -2.19413  -2.19231  -2.19094  -2.18963  -1.14048
  Beta  occ. eigenvalues --   -1.14040  -1.14018  -1.13677  -1.13668  -1.13643
  Beta  occ. eigenvalues --   -1.13178  -1.13139  -1.13130  -1.13112  -1.13057
  Beta  occ. eigenvalues --   -1.13030  -1.12951  -1.12892  -1.12862  -1.12851
  Beta  occ. eigenvalues --   -1.12784  -1.12720  -1.12619  -1.12593  -1.12572
  Beta  occ. eigenvalues --   -0.17790  -0.12794  -0.12035
  Beta virt. eigenvalues --   -0.06880  -0.06126  -0.04790  -0.04491  -0.02480
  Beta virt. eigenvalues --   -0.02075  -0.01861  -0.01558  -0.00942  -0.00541
  Beta virt. eigenvalues --   -0.00187   0.00103   0.00347   0.00802   0.00879

 Mulliken charges and spin densities:
               1          2
     1  Na  -0.304182   0.114774
     2  Na   0.259778   0.092512
     3  Na   0.051628  -0.027960
     4  Na   0.114245   0.014602
     5  Na   0.183129   0.000186
     6  Na   0.187648   0.149857
     7  Na  -0.492245   0.656028
 Sum of Mulliken charges =  -0.00000   1.00000

 Dipole moment (field-independent basis, Debye):
    X=             -0.2795    Y=              0.3594    Z=              0.1819  Tot=              0.4903
 Quadrupole moment (field-independent basis, Debye-Ang):
   XX=            -53.7157   YY=            -64.9712   ZZ=            -74.1432
   XY=              0.3554   XZ=              0.8539   YZ=             -0.9011

 Normal termination of Gaussian 16 at Thu Dec  7 13:47:10 2023.
