 Gaussian 16, Revision B.01,
 Gaussian 16:  ES64L-G16RevB.01 20-Dec-2017

 -------------------------
 #P B3LYP/6-311+g(d) force
 -------------------------

 -----
 DPGEN
 -----
 Symbolic Z-matrix:
 Charge =  0 Multiplicity = 2

                         Standard orientation:
 ---------------------------------------------------------------------
 Center     Atomic      Atomic             Coordinates (Angstroms)
 Number     Number       Type             X           Y           Z
 ---------------------------------------------------------------------
      1         11           0        0.079248   -0.496810    1.780247
      2         11           0        0.937393   -2.426478   -1.022578
      3         11           0       -3.731619    0.624727   -0.087643
      4         11           0        3.753546   -0.153154    0.684467
      5         11           0        1.875852    1.789210   -1.260534
      6         11           0       -0.959185    3.171636    0.102515
      7         11           0       -1.955235   -2.509131   -0.196475
 ---------------------------------------------------------------------

 SCF Done:  E(UB3LYP) =  -1136.11921672     A.U. after   22 cycles

 The electronic state is 2-A.
 Alpha  occ. eigenvalues --  -38.45122 -38.44697 -38.44677 -38.43921 -38.43791
 Alpha  occ. eigenvalues --  -38.43785 -38.43640  -2.20869  -2.20498  -2.20493
 Alpha  occ. eigenvalues --   -2.19694  -2.19657  -2.19607  -2.19511  -1.14549
 Alpha  occ. eigenvalues --   -1.14520  -1.14506  -1.14182  -1.14164  -1.14155
 Alpha  occ. eigenvalues --   -1.14151  -1.14130  -1.14102  -1.13418  -1.13378
 Alpha  occ. eigenvalues --   -1.13372  -1.13331  -1.13305  -1.13288  -1.13273
 Alpha  occ. eigenvalues --   -1.13260  -1.13232  -1.13166  -1.13152  -1.13120
 Alpha  occ. eigenvalues --   -0.17333  -0.13415  -0.12698  -0.09968
 Alpha virt. eigenvalues --   -0.07207  -0.05697  -0.04721  -0.03278  -0.02888
 Alpha virt. eigenvalues --   -0.02569  -0.01907  -0.01447  -0.00876  -0.00778
 Alpha virt. eigenvalues --   -0.00218   0.00157   0.00349   0.00569   0.00667

  Beta  occ. eigenvalues --  -38.45116 -38.44672 -38.44625 -38.43914 -38.43749
  Beta  occ. eigenvalues --  -38.43749 -38.43628  -2.20859  -2.20449  -2.20400
  Beta  occ. eigenvalues --   -2.19685  -2.19582  -2.19540  -2.19492  -1.14539
  Beta  occ. eigenvalues --   -1.14515  -1.14500  -1.14135  -1.14114  -1.14111
  Beta  occ. eigenvalues --   -1.14097  -1.14090  -1.14028  -1.13373  -1.13371
  Beta  occ. eigenvalues --   -1.13359  -1.13314  -1.13252  -1.13227  -1.13224
  Beta  occ. eigenvalues --   -1.13216  -1.13182  -1.13152  -1.13139  -1.13077
  Beta  occ. eigenvalues --   -0.16836  -0.13177  -0.12284
  Beta virt. eigenvalues --   -0.07070  -0.06466  -0.05586  -0.04369  -0.02849
  Beta virt. eigenvalues --   -0.02446  -0.02257  -0.01367  -0.01331  -0.00740
  Beta virt. eigenvalues --   -0.00666   0.00033   0.00224   0.00524   0.00711

 Mulliken charges and spin densities:
               1          2
     1  Na   0.020021   0.406638
     2  Na  -0.271204   0.247823
     3  Na  -0.097692   0.027857
     4  Na   0.298517   0.127833
     5  Na  -0.173220   0.182902
     6  Na  -0.046705   0.005100
     7  Na   0.270283   0.001847
 Sum of Mulliken charges =  -0.00000   1.00000

 Dipole moment (field-independent basis, Debye):
    X=             -0.1387    Y=             -0.1418    Z=              0.0876  Tot=              0.2168
 Quadrupole moment (field-independent basis, Debye-Ang):
   XX=            -51.5442   YY=            -71.4433   ZZ=            -74.3847
   XY=             -0.7946   XZ=              0.3727   YZ=              1.0899

 Normal termination of Gaussian 16 at Sun Dec  3 14:51:56 2023.
