 Gaussian 16, Revision B.01,
 Gaussian 16:  ES64L-G16RevB.01 20-Dec-2017

 -------------------------
 #P B3LYP/6-311+g(d) force
 -------------------------

 -----
 DPGEN
 -----
 Symbolic Z-matrix:
 Charge =  0 Multiplicity = 2

                         Standard orientation:
 ---------------------------------------------------------------------
 Center     Atomic      Atomic             Coordinates (Angstroms)
 Number     Number       Type             X           Y           Z
 ---------------------------------------------------------------------
      1         11           0        0.627836   -2.609356   -0.078754
      2         11           0        2.964622   -0.518054   -0.118144
      3         11           0       -0.121069   -0.069955    2.038502
      4         11           0        1.183118    2.721915    0.087218
      5         11           0        0.042575    0.159042   -1.664284
      6         11           0       -2.138436    1.780220   -0.149210
      7         11           0       -2.558647   -1.463812   -0.115329
 ---------------------------------------------------------------------

 SCF Done:  E(UB3LYP) =  -1136.13905400     A.U. after   19 cycles

 The electronic state is 2-A.
 Alpha  occ. eigenvalues --  -38.43685 -38.43578 -38.43466 -38.43433 -38.43397
 Alpha  occ. eigenvalues --  -38.43163 -38.43133  -2.19555  -2.19504  -2.19383
 Alpha  occ. eigenvalues --   -2.19289  -2.19286  -2.19173  -2.19096  -1.13259
 Alpha  occ. eigenvalues --   -1.13218  -1.13197  -1.13182  -1.13145  -1.13124
 Alpha  occ. eigenvalues --   -1.13121  -1.13045  -1.13032  -1.12977  -1.12964
 Alpha  occ. eigenvalues --   -1.12948  -1.12939  -1.12924  -1.12906  -1.12865
 Alpha  occ. eigenvalues --   -1.12813  -1.12776  -1.12754  -1.12731  -1.12715
 Alpha  occ. eigenvalues --   -0.19270  -0.13064  -0.12717  -0.11027
 Alpha virt. eigenvalues --   -0.05234  -0.05003  -0.04675  -0.03181  -0.03017
 Alpha virt. eigenvalues --   -0.02687  -0.01267  -0.01055  -0.00107  -0.00011
 Alpha virt. eigenvalues --   -0.00010   0.00372   0.00869   0.00942   0.00968

  Beta  occ. eigenvalues --  -38.43682 -38.43482 -38.43457 -38.43430 -38.43391
  Beta  occ. eigenvalues --  -38.43155 -38.43064  -2.19552  -2.19372  -2.19327
  Beta  occ. eigenvalues --   -2.19285  -2.19281  -2.19086  -2.19047  -1.13257
  Beta  occ. eigenvalues --   -1.13203  -1.13185  -1.13124  -1.13061  -1.13043
  Beta  occ. eigenvalues --   -1.13027  -1.12999  -1.12983  -1.12965  -1.12955
  Beta  occ. eigenvalues --   -1.12926  -1.12924  -1.12907  -1.12905  -1.12814
  Beta  occ. eigenvalues --   -1.12741  -1.12725  -1.12712  -1.12687  -1.12671
  Beta  occ. eigenvalues --   -0.18508  -0.12796  -0.12465
  Beta virt. eigenvalues --   -0.07049  -0.05228  -0.04991  -0.04664  -0.02342
  Beta virt. eigenvalues --   -0.02203  -0.01587  -0.01192  -0.00991  -0.00160
  Beta virt. eigenvalues --   -0.00072   0.00122   0.00386   0.00917   0.00927

 Mulliken charges and spin densities:
               1          2
     1  Na   0.310728  -0.009223
     2  Na   0.122916  -0.073327
     3  Na  -0.679284   0.757861
     4  Na   0.123778  -0.075850
     5  Na  -0.476772   0.454337
     6  Na   0.341954  -0.029452
     7  Na   0.256680  -0.024344
 Sum of Mulliken charges =  -0.00000   1.00000

 Dipole moment (field-independent basis, Debye):
    X=              0.0915    Y=              0.1367    Z=              0.2031  Tot=              0.2614
 Quadrupole moment (field-independent basis, Debye-Ang):
   XX=            -58.6864   YY=            -62.4826   ZZ=            -72.9614
   XY=              0.8230   XZ=              0.3733   YZ=              0.5475

 Normal termination of Gaussian 16 at Thu Dec  7 19:30:42 2023.
