 Gaussian 16, Revision B.01,
 Gaussian 16:  ES64L-G16RevB.01 20-Dec-2017

 -------------------------
 #P B3LYP/6-311+g(d) force
 -------------------------

 -----
 DPGEN
 -----
 Symbolic Z-matrix:
 Charge =  0 Multiplicity = 2

                         Standard orientation:
 ---------------------------------------------------------------------
 Center     Atomic      Atomic             Coordinates (Angstroms)
 Number     Number       Type             X           Y           Z
 ---------------------------------------------------------------------
      1         11           0       -2.537178   -1.224663    0.025780
      2         11           0       -5.957118   -1.256303   -0.119959
      3         11           0       -3.815728    1.712843    0.178085
      4         11           0       -0.668236    1.979726   -0.208771
      5         11           0        1.259314   -0.962060    0.006582
      6         11           0        4.334322   -0.105512    0.324867
      7         11           0        7.384625   -0.144030   -0.206585
 ---------------------------------------------------------------------

 SCF Done:  E(UB3LYP) =  -1136.11813952     A.U. after   21 cycles

 The electronic state is 2-A.
 Alpha  occ. eigenvalues --  -38.44930 -38.44651 -38.44241 -38.44218 -38.44087
 Alpha  occ. eigenvalues --  -38.43787 -38.43453  -2.20787  -2.20542  -2.20098
 Alpha  occ. eigenvalues --   -2.20016  -2.19887  -2.19632  -2.19288  -1.14513
 Alpha  occ. eigenvalues --   -1.14486  -1.14365  -1.14231  -1.14205  -1.14139
 Alpha  occ. eigenvalues --   -1.13766  -1.13765  -1.13714  -1.13681  -1.13679
 Alpha  occ. eigenvalues --   -1.13636  -1.13558  -1.13530  -1.13529  -1.13313
 Alpha  occ. eigenvalues --   -1.13287  -1.13252  -1.12955  -1.12947  -1.12933
 Alpha  occ. eigenvalues --   -0.17149  -0.14250  -0.12288  -0.11332
 Alpha virt. eigenvalues --   -0.06926  -0.05183  -0.04206  -0.03737  -0.03164
 Alpha virt. eigenvalues --   -0.02603  -0.02118  -0.01489  -0.01335  -0.00668
 Alpha virt. eigenvalues --   -0.00602  -0.00093   0.00105   0.00424   0.00638

  Beta  occ. eigenvalues --  -38.44909 -38.44591 -38.44198 -38.44198 -38.44052
  Beta  occ. eigenvalues --  -38.43744 -38.43458  -2.20749  -2.20436  -2.20026
  Beta  occ. eigenvalues --   -2.19980  -2.19822  -2.19550  -2.19302  -1.14472
  Beta  occ. eigenvalues --   -1.14461  -1.14338  -1.14162  -1.14137  -1.14036
  Beta  occ. eigenvalues --   -1.13721  -1.13711  -1.13655  -1.13650  -1.13636
  Beta  occ. eigenvalues --   -1.13616  -1.13516  -1.13485  -1.13485  -1.13260
  Beta  occ. eigenvalues --   -1.13230  -1.13207  -1.12961  -1.12960  -1.12919
  Beta  occ. eigenvalues --   -0.16510  -0.13947  -0.11766
  Beta virt. eigenvalues --   -0.07886  -0.06472  -0.04891  -0.04003  -0.03430
  Beta virt. eigenvalues --   -0.02585  -0.02439  -0.01829  -0.01317  -0.01179
  Beta virt. eigenvalues --   -0.00323  -0.00209   0.00100   0.00213   0.00487

 Mulliken charges and spin densities:
               1          2
     1  Na  -0.811714   0.273303
     2  Na   0.416960   0.043330
     3  Na   0.871629  -0.014802
     4  Na  -0.879546   0.404080
     5  Na   0.042026   0.058374
     6  Na  -0.559987   0.169184
     7  Na   0.920631   0.066531
 Sum of Mulliken charges =  -0.00000   1.00000

 Dipole moment (field-independent basis, Debye):
    X=             -1.9215    Y=              0.2624    Z=             -0.1731  Tot=              1.9471
 Quadrupole moment (field-independent basis, Debye-Ang):
   XX=            -53.2240   YY=            -67.8599   ZZ=            -73.3367
   XY=              1.2088   XZ=             -1.5658   YZ=              0.1748

 Normal termination of Gaussian 16 at Wed Nov 29 02:32:58 2023.
