 Gaussian 16, Revision B.01,
 Gaussian 16:  ES64L-G16RevB.01 20-Dec-2017

 -------------------------
 #P B3LYP/6-311+g(d) force
 -------------------------

 -----
 DPGEN
 -----
 Symbolic Z-matrix:
 Charge =  0 Multiplicity = 2

                         Standard orientation:
 ---------------------------------------------------------------------
 Center     Atomic      Atomic             Coordinates (Angstroms)
 Number     Number       Type             X           Y           Z
 ---------------------------------------------------------------------
      1         11           0        0.249828   -0.099629   -1.549762
      2         11           0        3.189805   -0.741300   -0.101565
      3         11           0       -2.772307   -1.192092   -0.022738
      4         11           0       -2.704329    2.329332   -0.268799
      5         11           0        2.366272    2.276735    0.183773
      6         11           0       -0.017634   -2.739111    0.117445
      7         11           0       -0.311636    0.166064    1.641646
 ---------------------------------------------------------------------

 SCF Done:  E(UB3LYP) =  -1136.12840291     A.U. after   21 cycles

 The electronic state is 2-A.
 Alpha  occ. eigenvalues --  -38.44562 -38.44213 -38.44198 -38.43886 -38.43279
 Alpha  occ. eigenvalues --  -38.43114 -38.42717  -2.20418  -2.20114  -2.20027
 Alpha  occ. eigenvalues --   -2.19665  -2.19262  -2.19077  -2.18654  -1.14105
 Alpha  occ. eigenvalues --   -1.14082  -1.14061  -1.13809  -1.13781  -1.13742
 Alpha  occ. eigenvalues --   -1.13685  -1.13679  -1.13674  -1.13331  -1.13327
 Alpha  occ. eigenvalues --   -1.13304  -1.13004  -1.12904  -1.12869  -1.12773
 Alpha  occ. eigenvalues --   -1.12701  -1.12685  -1.12339  -1.12300  -1.12289
 Alpha  occ. eigenvalues --   -0.18785  -0.13788  -0.12005  -0.10101
 Alpha virt. eigenvalues --   -0.06065  -0.05910  -0.04361  -0.03275  -0.02410
 Alpha virt. eigenvalues --   -0.02007  -0.01864  -0.01381  -0.00783  -0.00285
 Alpha virt. eigenvalues --    0.00013   0.00293   0.00678   0.00751   0.00879

  Beta  occ. eigenvalues --  -38.44557 -38.44206 -38.44192 -38.43882 -38.43215
  Beta  occ. eigenvalues --  -38.43038 -38.42707  -2.20410  -2.20104  -2.20020
  Beta  occ. eigenvalues --   -2.19659  -2.19147  -2.18939  -2.18641  -1.14104
  Beta  occ. eigenvalues --   -1.14063  -1.14047  -1.13801  -1.13757  -1.13727
  Beta  occ. eigenvalues --   -1.13677  -1.13675  -1.13655  -1.13325  -1.13315
  Beta  occ. eigenvalues --   -1.13301  -1.12921  -1.12820  -1.12783  -1.12679
  Beta  occ. eigenvalues --   -1.12596  -1.12587  -1.12332  -1.12291  -1.12243
  Beta  occ. eigenvalues --   -0.18083  -0.13543  -0.11758
  Beta virt. eigenvalues --   -0.06322  -0.05958  -0.05840  -0.04338  -0.02524
  Beta virt. eigenvalues --   -0.01941  -0.01688  -0.01357  -0.00886  -0.00813
  Beta virt. eigenvalues --   -0.00306   0.00172   0.00330   0.00737   0.00751

 Mulliken charges and spin densities:
               1          2
     1  Na  -0.320157   0.538712
     2  Na   0.316213   0.024741
     3  Na   0.316209   0.078273
     4  Na  -0.114591  -0.022446
     5  Na   0.005120  -0.055984
     6  Na   0.105257  -0.006017
     7  Na  -0.308051   0.442721
 Sum of Mulliken charges =  -0.00000   1.00000

 Dipole moment (field-independent basis, Debye):
    X=              0.3846    Y=              0.1923    Z=              0.0399  Tot=              0.4318
 Quadrupole moment (field-independent basis, Debye-Ang):
   XX=            -52.0605   YY=            -61.9948   ZZ=            -77.7251
   XY=              0.3767   XZ=              0.9769   YZ=             -0.7428

 Normal termination of Gaussian 16 at Thu Dec  7 21:08:15 2023.
