 Gaussian 16, Revision B.01,
 Gaussian 16:  ES64L-G16RevB.01 20-Dec-2017

 -------------------------
 #P B3LYP/6-311+g(d) force
 -------------------------

 -----
 DPGEN
 -----
 Symbolic Z-matrix:
 Charge =  0 Multiplicity = 2

                         Standard orientation:
 ---------------------------------------------------------------------
 Center     Atomic      Atomic             Coordinates (Angstroms)
 Number     Number       Type             X           Y           Z
 ---------------------------------------------------------------------
      1         11           0        1.174639   -2.367776   -0.871674
      2         11           0        3.079424    0.373274    0.490107
      3         11           0        0.044035    0.426703   -1.817702
      4         11           0        0.611719    2.801638   -0.029307
      5         11           0       -2.474679   -1.916749   -0.054003
      6         11           0       -2.629687    1.762244    0.341715
      7         11           0        0.194548   -1.079333    1.940864
 ---------------------------------------------------------------------

 SCF Done:  E(UB3LYP) =  -1136.13558787     A.U. after   18 cycles

 The electronic state is 2-A.
 Alpha  occ. eigenvalues --  -38.43878 -38.43829 -38.43791 -38.43774 -38.43601
 Alpha  occ. eigenvalues --  -38.43534 -38.43382  -2.19680  -2.19657  -2.19638
 Alpha  occ. eigenvalues --   -2.19623  -2.19501  -2.19490  -2.19256  -1.13362
 Alpha  occ. eigenvalues --   -1.13359  -1.13345  -1.13335  -1.13323  -1.13311
 Alpha  occ. eigenvalues --   -1.13304  -1.13291  -1.13277  -1.13275  -1.13273
 Alpha  occ. eigenvalues --   -1.13265  -1.13243  -1.13209  -1.13139  -1.13114
 Alpha  occ. eigenvalues --   -1.13101  -1.13078  -1.12921  -1.12906  -1.12864
 Alpha  occ. eigenvalues --   -0.18479  -0.12764  -0.12676  -0.11006
 Alpha virt. eigenvalues --   -0.05445  -0.05315  -0.04608  -0.03324  -0.03181
 Alpha virt. eigenvalues --   -0.02674  -0.01370  -0.01056  -0.00337  -0.00255
 Alpha virt. eigenvalues --   -0.00015   0.00381   0.00806   0.00876   0.00883

  Beta  occ. eigenvalues --  -38.43876 -38.43828 -38.43778 -38.43709 -38.43570
  Beta  occ. eigenvalues --  -38.43458 -38.43379  -2.19676  -2.19638  -2.19602
  Beta  occ. eigenvalues --   -2.19536  -2.19448  -2.19355  -2.19252  -1.13352
  Beta  occ. eigenvalues --   -1.13342  -1.13325  -1.13316  -1.13295  -1.13289
  Beta  occ. eigenvalues --   -1.13274  -1.13269  -1.13250  -1.13248  -1.13221
  Beta  occ. eigenvalues --   -1.13195  -1.13168  -1.13137  -1.13084  -1.13068
  Beta  occ. eigenvalues --   -1.13032  -1.12989  -1.12897  -1.12885  -1.12862
  Beta  occ. eigenvalues --   -0.17760  -0.12554  -0.12459
  Beta virt. eigenvalues --   -0.07084  -0.05421  -0.05231  -0.04470  -0.02653
  Beta virt. eigenvalues --   -0.02480  -0.01644  -0.01260  -0.00991  -0.00331
  Beta virt. eigenvalues --   -0.00257   0.00122   0.00424   0.00847   0.00898

 Mulliken charges and spin densities:
               1          2
     1  Na   0.347837   0.033969
     2  Na   0.028500   0.063612
     3  Na   0.003793   0.393647
     4  Na   0.101693  -0.013020
     5  Na   0.074268  -0.029066
     6  Na  -0.149176  -0.056443
     7  Na  -0.406916   0.607301
 Sum of Mulliken charges =  -0.00000   1.00000

 Dipole moment (field-independent basis, Debye):
    X=             -0.1099    Y=             -0.1227    Z=              0.2370  Tot=              0.2886
 Quadrupole moment (field-independent basis, Debye-Ang):
   XX=            -58.8099   YY=            -63.9805   ZZ=            -72.1498
   XY=              0.4131   XZ=             -0.0125   YZ=              2.5315

 Normal termination of Gaussian 16 at Tue Dec  5 16:29:00 2023.
