 Gaussian 16, Revision B.01,
 Gaussian 16:  ES64L-G16RevB.01 20-Dec-2017

 -------------------------
 #P B3LYP/6-311+g(d) force
 -------------------------

 -----
 DPGEN
 -----
 Symbolic Z-matrix:
 Charge =  0 Multiplicity = 2

                         Standard orientation:
 ---------------------------------------------------------------------
 Center     Atomic      Atomic             Coordinates (Angstroms)
 Number     Number       Type             X           Y           Z
 ---------------------------------------------------------------------
      1         11           0       -0.530353   -0.114172   -1.800621
      2         11           0       -2.305471   -2.322247    0.466145
      3         11           0       -3.032886    1.063277    0.232482
      4         11           0        0.104530    3.426261   -0.382714
      5         11           0        1.525870   -2.554714   -0.608880
      6         11           0        3.768709    0.337921    0.245744
      7         11           0        0.469602    0.163676    1.847844
 ---------------------------------------------------------------------

 SCF Done:  E(UB3LYP) =  -1136.12897377     A.U. after   20 cycles

 The electronic state is 2-A.
 Alpha  occ. eigenvalues --  -38.44814 -38.44329 -38.44115 -38.43852 -38.43719
 Alpha  occ. eigenvalues --  -38.43705 -38.43505  -2.20559  -2.20140  -2.19936
 Alpha  occ. eigenvalues --   -2.19603  -2.19528  -2.19517  -2.19392  -1.14234
 Alpha  occ. eigenvalues --   -1.14214  -1.14198  -1.13830  -1.13808  -1.13761
 Alpha  occ. eigenvalues --   -1.13624  -1.13576  -1.13550  -1.13280  -1.13259
 Alpha  occ. eigenvalues --   -1.13242  -1.13216  -1.13198  -1.13187  -1.13183
 Alpha  occ. eigenvalues --   -1.13170  -1.13132  -1.13069  -1.13038  -1.12992
 Alpha  occ. eigenvalues --   -0.17668  -0.12900  -0.12000  -0.10427
 Alpha virt. eigenvalues --   -0.06346  -0.05273  -0.05020  -0.03149  -0.02835
 Alpha virt. eigenvalues --   -0.02322  -0.01992  -0.01364  -0.00890  -0.00614
 Alpha virt. eigenvalues --   -0.00095   0.00296   0.00602   0.00687   0.00726

  Beta  occ. eigenvalues --  -38.44812 -38.44321 -38.44056 -38.43846 -38.43708
  Beta  occ. eigenvalues --  -38.43684 -38.43433  -2.20557  -2.20128  -2.19826
  Beta  occ. eigenvalues --   -2.19594  -2.19510  -2.19481  -2.19260  -1.14223
  Beta  occ. eigenvalues --   -1.14213  -1.14197  -1.13819  -1.13794  -1.13745
  Beta  occ. eigenvalues --   -1.13548  -1.13503  -1.13467  -1.13267  -1.13253
  Beta  occ. eigenvalues --   -1.13235  -1.13184  -1.13182  -1.13172  -1.13151
  Beta  occ. eigenvalues --   -1.13143  -1.13108  -1.12982  -1.12946  -1.12892
  Beta  occ. eigenvalues --   -0.16993  -0.12666  -0.11747
  Beta virt. eigenvalues --   -0.06783  -0.06172  -0.05188  -0.04880  -0.02523
  Beta virt. eigenvalues --   -0.02181  -0.01898  -0.01427  -0.01239  -0.00892
  Beta virt. eigenvalues --   -0.00610   0.00064   0.00349   0.00685   0.00749

 Mulliken charges and spin densities:
               1          2
     1  Na   0.245792   0.473379
     2  Na  -0.044997   0.091273
     3  Na   0.105432   0.007544
     4  Na  -0.187111  -0.075476
     5  Na  -0.004013   0.033637
     6  Na  -0.031676  -0.074184
     7  Na  -0.083425   0.543827
 Sum of Mulliken charges =  -0.00000   1.00000

 Dipole moment (field-independent basis, Debye):
    X=              0.2861    Y=              0.1033    Z=              0.1078  Tot=              0.3227
 Quadrupole moment (field-independent basis, Debye-Ang):
   XX=            -54.6846   YY=            -62.9739   ZZ=            -75.4140
   XY=              0.9890   XZ=             -2.0109   YZ=             -0.6907

 Normal termination of Gaussian 16 at Thu Dec  7 06:03:18 2023.
