 Gaussian 16, Revision B.01,
 Gaussian 16:  ES64L-G16RevB.01 20-Dec-2017

 -------------------------
 #P B3LYP/6-311+g(d) force
 -------------------------

 -----
 DPGEN
 -----
 Symbolic Z-matrix:
 Charge =  0 Multiplicity = 2

                         Standard orientation:
 ---------------------------------------------------------------------
 Center     Atomic      Atomic             Coordinates (Angstroms)
 Number     Number       Type             X           Y           Z
 ---------------------------------------------------------------------
      1         11           0        0.181554    0.120033    2.083886
      2         11           0        2.706748   -1.983666   -0.203604
      3         11           0        2.691626    1.841788    0.048858
      4         11           0       -1.119057   -2.592955   -0.118501
      5         11           0       -1.123626    2.711185   -0.339167
      6         11           0       -3.312235   -0.161951    0.154916
      7         11           0       -0.025008    0.065566   -1.626389
 ---------------------------------------------------------------------

 SCF Done:  E(UB3LYP) =  -1136.13525606     A.U. after   19 cycles

 The electronic state is 2-A.
 Alpha  occ. eigenvalues --  -38.44322 -38.44252 -38.44123 -38.43702 -38.43392
 Alpha  occ. eigenvalues --  -38.43291 -38.43210  -2.20107  -2.20071  -2.19897
 Alpha  occ. eigenvalues --   -2.19558  -2.19236  -2.19172  -2.19152  -1.13788
 Alpha  occ. eigenvalues --   -1.13768  -1.13743  -1.13742  -1.13734  -1.13714
 Alpha  occ. eigenvalues --   -1.13575  -1.13547  -1.13542  -1.13228  -1.13186
 Alpha  occ. eigenvalues --   -1.13173  -1.12995  -1.12910  -1.12890  -1.12852
 Alpha  occ. eigenvalues --   -1.12829  -1.12811  -1.12780  -1.12770  -1.12762
 Alpha  occ. eigenvalues --   -0.18303  -0.12971  -0.12223  -0.10568
 Alpha virt. eigenvalues --   -0.05880  -0.05632  -0.04431  -0.03167  -0.02741
 Alpha virt. eigenvalues --   -0.02519  -0.01784  -0.01367  -0.00566  -0.00367
 Alpha virt. eigenvalues --   -0.00032   0.00327   0.00713   0.00802   0.00874

  Beta  occ. eigenvalues --  -38.44320 -38.44250 -38.44121 -38.43606 -38.43382
  Beta  occ. eigenvalues --  -38.43285 -38.43146  -2.20107  -2.20070  -2.19896
  Beta  occ. eigenvalues --   -2.19382  -2.19221  -2.19145  -2.19056  -1.13769
  Beta  occ. eigenvalues --   -1.13766  -1.13746  -1.13745  -1.13718  -1.13711
  Beta  occ. eigenvalues --   -1.13561  -1.13548  -1.13542  -1.13110  -1.13063
  Beta  occ. eigenvalues --   -1.13046  -1.12963  -1.12877  -1.12863  -1.12844
  Beta  occ. eigenvalues --   -1.12788  -1.12774  -1.12758  -1.12701  -1.12690
  Beta  occ. eigenvalues --   -0.17584  -0.12784  -0.11973
  Beta virt. eigenvalues --   -0.06678  -0.05799  -0.05638  -0.04404  -0.02420
  Beta virt. eigenvalues --   -0.01998  -0.01687  -0.01441  -0.01305  -0.00622
  Beta virt. eigenvalues --   -0.00403   0.00116   0.00355   0.00769   0.00805

 Mulliken charges and spin densities:
               1          2
     1  Na  -0.454501   0.796846
     2  Na   0.017181  -0.093852
     3  Na   0.093514  -0.092446
     4  Na   0.125992  -0.063206
     5  Na   0.199259  -0.056049
     6  Na   0.134546   0.020388
     7  Na  -0.115991   0.488319
 Sum of Mulliken charges =  -0.00000   1.00000

 Dipole moment (field-independent basis, Debye):
    X=              0.2311    Y=              0.1186    Z=              0.1646  Tot=              0.3075
 Quadrupole moment (field-independent basis, Debye-Ang):
   XX=            -53.0292   YY=            -63.7745   ZZ=            -75.6338
   XY=             -0.0568   XZ=             -0.7125   YZ=             -0.0085

 Normal termination of Gaussian 16 at Fri Dec  8 04:19:20 2023.
