 Gaussian 16, Revision B.01,
 Gaussian 16:  ES64L-G16RevB.01 20-Dec-2017

 -------------------------
 #P B3LYP/6-311+g(d) force
 -------------------------

 -----
 DPGEN
 -----
 Symbolic Z-matrix:
 Charge =  0 Multiplicity = 2

                         Standard orientation:
 ---------------------------------------------------------------------
 Center     Atomic      Atomic             Coordinates (Angstroms)
 Number     Number       Type             X           Y           Z
 ---------------------------------------------------------------------
      1         11           0        0.154310    0.435075    2.057388
      2         11           0        1.762178    2.663534   -0.630564
      3         11           0       -3.037838   -1.358114    0.211590
      4         11           0        3.185190   -0.673796    0.294229
      5         11           0       -0.452978   -0.224954   -1.588144
      6         11           0       -2.366462    1.987852   -0.012877
      7         11           0        0.755600   -2.829598   -0.331623
 ---------------------------------------------------------------------

 SCF Done:  E(UB3LYP) =  -1136.13288106     A.U. after   19 cycles

 The electronic state is 2-A.
 Alpha  occ. eigenvalues --  -38.44408 -38.44298 -38.44095 -38.43772 -38.43700
 Alpha  occ. eigenvalues --  -38.43220 -38.43196  -2.20221  -2.20109  -2.19929
 Alpha  occ. eigenvalues --   -2.19619  -2.19482  -2.19179  -2.19047  -1.13899
 Alpha  occ. eigenvalues --   -1.13880  -1.13864  -1.13783  -1.13772  -1.13750
 Alpha  occ. eigenvalues --   -1.13618  -1.13596  -1.13551  -1.13290  -1.13249
 Alpha  occ. eigenvalues --   -1.13236  -1.13156  -1.13130  -1.13125  -1.12905
 Alpha  occ. eigenvalues --   -1.12848  -1.12792  -1.12706  -1.12694  -1.12671
 Alpha  occ. eigenvalues --   -0.18189  -0.13243  -0.12071  -0.10525
 Alpha virt. eigenvalues --   -0.05907  -0.05667  -0.04535  -0.03312  -0.02797
 Alpha virt. eigenvalues --   -0.02363  -0.01764  -0.01309  -0.00622  -0.00412
 Alpha virt. eigenvalues --   -0.00028   0.00346   0.00703   0.00793   0.00835

  Beta  occ. eigenvalues --  -38.44406 -38.44295 -38.44090 -38.43687 -38.43685
  Beta  occ. eigenvalues --  -38.43190 -38.43161  -2.20218  -2.20105  -2.19924
  Beta  occ. eigenvalues --   -2.19462  -2.19453  -2.19071  -2.19040  -1.13893
  Beta  occ. eigenvalues --   -1.13872  -1.13857  -1.13775  -1.13759  -1.13751
  Beta  occ. eigenvalues --   -1.13611  -1.13574  -1.13547  -1.13185  -1.13141
  Beta  occ. eigenvalues --   -1.13127  -1.13123  -1.13107  -1.13105  -1.12846
  Beta  occ. eigenvalues --   -1.12774  -1.12716  -1.12685  -1.12677  -1.12654
  Beta  occ. eigenvalues --   -0.17501  -0.13054  -0.11815
  Beta virt. eigenvalues --   -0.06726  -0.05782  -0.05645  -0.04429  -0.02601
  Beta virt. eigenvalues --   -0.02101  -0.01654  -0.01390  -0.01216  -0.00661
  Beta virt. eigenvalues --   -0.00429   0.00125   0.00377   0.00779   0.00794

 Mulliken charges and spin densities:
               1          2
     1  Na  -0.326067   0.620147
     2  Na  -0.112421   0.014168
     3  Na   0.033052  -0.017746
     4  Na   0.092948   0.028808
     5  Na   0.094805   0.446449
     6  Na   0.182444  -0.013337
     7  Na   0.035240  -0.078489
 Sum of Mulliken charges =  -0.00000   1.00000

 Dipole moment (field-independent basis, Debye):
    X=             -0.3331    Y=              0.0653    Z=              0.2435  Tot=              0.4177
 Quadrupole moment (field-independent basis, Debye-Ang):
   XX=            -53.4636   YY=            -64.2126   ZZ=            -75.4162
   XY=              0.4400   XZ=             -0.9953   YZ=             -1.7492

 Normal termination of Gaussian 16 at Thu Dec  7 13:25:33 2023.
