 Gaussian 16, Revision B.01,
 Gaussian 16:  ES64L-G16RevB.01 20-Dec-2017

 -------------------------
 #P B3LYP/6-311+g(d) force
 -------------------------

 -----
 DPGEN
 -----
 Symbolic Z-matrix:
 Charge =  0 Multiplicity = 2

                         Standard orientation:
 ---------------------------------------------------------------------
 Center     Atomic      Atomic             Coordinates (Angstroms)
 Number     Number       Type             X           Y           Z
 ---------------------------------------------------------------------
      1         11           0        3.884312   -0.473782    0.547583
      2         11           0       -1.083625   -0.159737   -1.511034
      3         11           0       -2.218599    2.280798    0.098613
      4         11           0       -3.516894   -1.553765    0.375190
      5         11           0        1.960928    1.670468   -0.989396
      6         11           0        0.904224   -2.264432   -0.466088
      7         11           0        0.069655    0.500449    1.945132
 ---------------------------------------------------------------------

 SCF Done:  E(UB3LYP) =  -1136.11906333     A.U. after   25 cycles

 The electronic state is 2-A.
 Alpha  occ. eigenvalues --  -38.45038 -38.45028 -38.44444 -38.43966 -38.43588
 Alpha  occ. eigenvalues --  -38.43585 -38.42927  -2.20827  -2.20797  -2.20279
 Alpha  occ. eigenvalues --   -2.19803  -2.19425  -2.19420  -2.18923  -1.14509
 Alpha  occ. eigenvalues --   -1.14479  -1.14478  -1.14458  -1.14442  -1.14432
 Alpha  occ. eigenvalues --   -1.13968  -1.13917  -1.13894  -1.13478  -1.13467
 Alpha  occ. eigenvalues --   -1.13431  -1.13178  -1.13134  -1.13097  -1.13082
 Alpha  occ. eigenvalues --   -1.13038  -1.13014  -1.12623  -1.12564  -1.12511
 Alpha  occ. eigenvalues --   -0.18221  -0.13752  -0.11206  -0.10605
 Alpha virt. eigenvalues --   -0.07204  -0.05655  -0.04012  -0.03164  -0.02792
 Alpha virt. eigenvalues --   -0.02351  -0.02293  -0.01547  -0.00737  -0.00241
 Alpha virt. eigenvalues --    0.00025   0.00119   0.00428   0.00597   0.00659

  Beta  occ. eigenvalues --  -38.45031 -38.45019 -38.44384 -38.43939 -38.43585
  Beta  occ. eigenvalues --  -38.43573 -38.42867  -2.20810  -2.20783  -2.20167
  Beta  occ. eigenvalues --   -2.19756  -2.19423  -2.19401  -2.18816  -1.14497
  Beta  occ. eigenvalues --   -1.14466  -1.14461  -1.14445  -1.14430  -1.14424
  Beta  occ. eigenvalues --   -1.13891  -1.13839  -1.13811  -1.13444  -1.13412
  Beta  occ. eigenvalues --   -1.13403  -1.13153  -1.13131  -1.13074  -1.13060
  Beta  occ. eigenvalues --   -1.13035  -1.13003  -1.12553  -1.12486  -1.12422
  Beta  occ. eigenvalues --   -0.17503  -0.13593  -0.10977
  Beta virt. eigenvalues --   -0.07062  -0.06753  -0.05562  -0.03641  -0.02914
  Beta virt. eigenvalues --   -0.02524  -0.01806  -0.01472  -0.01344  -0.00569
  Beta virt. eigenvalues --   -0.00108   0.00031   0.00146   0.00572   0.00673

 Mulliken charges and spin densities:
               1          2
     1  Na   0.215036   0.119978
     2  Na   0.095069   0.127385
     3  Na   0.188112  -0.011362
     4  Na   0.038449   0.071876
     5  Na  -0.003039   0.043672
     6  Na  -0.140174   0.025730
     7  Na  -0.393454   0.622722
 Sum of Mulliken charges =  -0.00000   1.00000

 Dipole moment (field-independent basis, Debye):
    X=              0.2473    Y=              0.0236    Z=              0.4924  Tot=              0.5515
 Quadrupole moment (field-independent basis, Debye-Ang):
   XX=            -45.4269   YY=            -72.8168   ZZ=            -73.4665
   XY=             -0.2267   XZ=             -0.7996   YZ=             -3.0242

 Normal termination of Gaussian 16 at Thu Dec  7 16:23:56 2023.
