 Gaussian 16, Revision B.01,
 Gaussian 16:  ES64L-G16RevB.01 20-Dec-2017

 -------------------------
 #P B3LYP/6-311+g(d) force
 -------------------------

 -----
 DPGEN
 -----
 Symbolic Z-matrix:
 Charge =  0 Multiplicity = 2

                         Standard orientation:
 ---------------------------------------------------------------------
 Center     Atomic      Atomic             Coordinates (Angstroms)
 Number     Number       Type             X           Y           Z
 ---------------------------------------------------------------------
      1         11           0        0.843883   -1.078388    1.716444
      2         11           0        1.611207   -1.321057   -1.546893
      3         11           0       -1.505506    3.149569    0.015483
      4         11           0        0.688387    1.453510   -0.345529
      5         11           0        3.056006    0.177089    0.415825
      6         11           0       -1.091462   -0.931134   -0.352658
      7         11           0       -3.602515   -1.449589    0.097328
 ---------------------------------------------------------------------

 SCF Done:  E(UB3LYP) =  -1136.07831965     A.U. after   22 cycles

 The electronic state is 2-A.
 Alpha  occ. eigenvalues --  -38.45713 -38.45484 -38.44678 -38.44215 -38.43765
 Alpha  occ. eigenvalues --  -38.43584 -38.42930  -2.21550  -2.21545  -2.20724
 Alpha  occ. eigenvalues --   -2.20272  -2.19925  -2.19420  -2.19100  -1.15448
 Alpha  occ. eigenvalues --   -1.15315  -1.15223  -1.15192  -1.15153  -1.15141
 Alpha  occ. eigenvalues --   -1.14496  -1.14337  -1.14294  -1.14012  -1.13914
 Alpha  occ. eigenvalues --   -1.13846  -1.13636  -1.13528  -1.13452  -1.13274
 Alpha  occ. eigenvalues --   -1.13053  -1.13034  -1.12765  -1.12720  -1.12667
 Alpha  occ. eigenvalues --   -0.20252  -0.13797  -0.12025  -0.11392
 Alpha virt. eigenvalues --   -0.07101  -0.05428  -0.03482  -0.03407  -0.02608
 Alpha virt. eigenvalues --   -0.02299  -0.02170  -0.00970  -0.00338   0.00021
 Alpha virt. eigenvalues --    0.00130   0.00315   0.00367   0.00658   0.00949

  Beta  occ. eigenvalues --  -38.45729 -38.45451 -38.44595 -38.44135 -38.43739
  Beta  occ. eigenvalues --  -38.43593 -38.42905  -2.21581  -2.21494  -2.20575
  Beta  occ. eigenvalues --   -2.20128  -2.19884  -2.19438  -2.19063  -1.15467
  Beta  occ. eigenvalues --   -1.15289  -1.15170  -1.15166  -1.15162  -1.15111
  Beta  occ. eigenvalues --   -1.14397  -1.14229  -1.14185  -1.13915  -1.13820
  Beta  occ. eigenvalues --   -1.13729  -1.13617  -1.13442  -1.13420  -1.13281
  Beta  occ. eigenvalues --   -1.13061  -1.13046  -1.12740  -1.12699  -1.12594
  Beta  occ. eigenvalues --   -0.19357  -0.13660  -0.11935
  Beta virt. eigenvalues --   -0.07022  -0.06944  -0.05207  -0.03399  -0.02793
  Beta virt. eigenvalues --   -0.02458  -0.01622  -0.01453  -0.00806  -0.00050
  Beta virt. eigenvalues --    0.00116   0.00122   0.00416   0.00582   0.00698

 Mulliken charges and spin densities:
               1          2
     1  Na  -0.763455   0.351801
     2  Na   0.086647   0.051557
     3  Na  -0.020389  -0.112717
     4  Na  -0.829543   0.641477
     5  Na   1.656958   0.035401
     6  Na  -0.297973   0.102685
     7  Na   0.167755  -0.070204
 Sum of Mulliken charges =  -0.00000   1.00000

 Dipole moment (field-independent basis, Debye):
    X=             -0.1694    Y=             -0.5609    Z=              0.2604  Tot=              0.6412
 Quadrupole moment (field-independent basis, Debye-Ang):
   XX=            -48.1642   YY=            -71.4575   ZZ=            -72.6744
   XY=             -0.6946   XZ=             -1.3973   YZ=              1.0701

 Normal termination of Gaussian 16 at Thu Dec  7 05:27:46 2023.
