 Gaussian 16, Revision B.01,
 Gaussian 16:  ES64L-G16RevB.01 20-Dec-2017

 -------------------------
 #P B3LYP/6-311+g(d) force
 -------------------------

 -----
 DPGEN
 -----
 Symbolic Z-matrix:
 Charge =  0 Multiplicity = 2

                         Standard orientation:
 ---------------------------------------------------------------------
 Center     Atomic      Atomic             Coordinates (Angstroms)
 Number     Number       Type             X           Y           Z
 ---------------------------------------------------------------------
      1         11           0       -2.593354   -2.151331   -0.021669
      2         11           0       -2.998818    1.374330   -0.648177
      3         11           0        1.700948   -2.517656   -0.209875
      4         11           0       -0.645725    0.190955    2.216813
      5         11           0        0.983678    3.174511   -0.041441
      6         11           0        0.230280   -0.019564   -1.336910
      7         11           0        3.322991   -0.051245    0.041260
 ---------------------------------------------------------------------

 SCF Done:  E(UB3LYP) =  -1136.12652057     A.U. after   20 cycles

 The electronic state is 2-A.
 Alpha  occ. eigenvalues --  -38.44630 -38.44550 -38.44263 -38.43645 -38.43586
 Alpha  occ. eigenvalues --  -38.43529 -38.43383  -2.20419  -2.20405  -2.20043
 Alpha  occ. eigenvalues --   -2.19477  -2.19472  -2.19341  -2.19298  -1.14125
 Alpha  occ. eigenvalues --   -1.14095  -1.14069  -1.14064  -1.14048  -1.14029
 Alpha  occ. eigenvalues --   -1.13715  -1.13700  -1.13689  -1.13214  -1.13139
 Alpha  occ. eigenvalues --   -1.13130  -1.13107  -1.13089  -1.13082  -1.13033
 Alpha  occ. eigenvalues --   -1.12992  -1.12964  -1.12961  -1.12946  -1.12937
 Alpha  occ. eigenvalues --   -0.17957  -0.13457  -0.11867  -0.10328
 Alpha virt. eigenvalues --   -0.06145  -0.05692  -0.04666  -0.03313  -0.02509
 Alpha virt. eigenvalues --   -0.02368  -0.01955  -0.01459  -0.00809  -0.00600
 Alpha virt. eigenvalues --   -0.00053   0.00283   0.00658   0.00728   0.00813

  Beta  occ. eigenvalues --  -38.44605 -38.44550 -38.44261 -38.43583 -38.43538
  Beta  occ. eigenvalues --  -38.43532 -38.43348  -2.20407  -2.20375  -2.20042
  Beta  occ. eigenvalues --   -2.19470  -2.19305  -2.19280  -2.19275  -1.14129
  Beta  occ. eigenvalues --   -1.14056  -1.14052  -1.14038  -1.14029  -1.14019
  Beta  occ. eigenvalues --   -1.13705  -1.13694  -1.13684  -1.13201  -1.13129
  Beta  occ. eigenvalues --   -1.13075  -1.13013  -1.12985  -1.12974  -1.12967
  Beta  occ. eigenvalues --   -1.12956  -1.12952  -1.12938  -1.12915  -1.12913
  Beta  occ. eigenvalues --   -0.17329  -0.13205  -0.11725
  Beta virt. eigenvalues --   -0.06447  -0.06030  -0.05619  -0.04649  -0.02622
  Beta virt. eigenvalues --   -0.01871  -0.01821  -0.01373  -0.01369  -0.00779
  Beta virt. eigenvalues --   -0.00634   0.00140   0.00351   0.00726   0.00764

 Mulliken charges and spin densities:
               1          2
     1  Na   0.177590   0.043489
     2  Na   0.094149   0.080792
     3  Na   0.289655   0.022692
     4  Na  -0.526220   0.761160
     5  Na  -0.045009  -0.046074
     6  Na  -0.113537   0.121104
     7  Na   0.123372   0.016836
 Sum of Mulliken charges =  -0.00000   1.00000

 Dipole moment (field-independent basis, Debye):
    X=             -0.1365    Y=             -0.0682    Z=              0.0583  Tot=              0.1633
 Quadrupole moment (field-independent basis, Debye-Ang):
   XX=            -53.7671   YY=            -62.5364   ZZ=            -76.9595
   XY=              0.7180   XZ=              1.8437   YZ=             -0.1830

 Normal termination of Gaussian 16 at Thu Dec  7 13:15:52 2023.
