 Gaussian 16, Revision B.01,
 Gaussian 16:  ES64L-G16RevB.01 20-Dec-2017

 -------------------------
 #P B3LYP/6-311+g(d) force
 -------------------------

 -----
 DPGEN
 -----
 Symbolic Z-matrix:
 Charge =  0 Multiplicity = 2

                         Standard orientation:
 ---------------------------------------------------------------------
 Center     Atomic      Atomic             Coordinates (Angstroms)
 Number     Number       Type             X           Y           Z
 ---------------------------------------------------------------------
      1         11           0       -3.484246    0.073656   -1.129470
      2         11           0       -0.667390   -2.707336   -1.666444
      3         11           0        1.966508    2.521634   -1.145063
      4         11           0        3.910536    0.226488    0.065419
      5         11           0        1.675191   -2.444410    1.112362
      6         11           0       -1.513531    2.936654    0.801404
      7         11           0       -1.887069   -0.606686    1.961792
 ---------------------------------------------------------------------

 SCF Done:  E(UB3LYP) =  -1136.11297389     A.U. after   21 cycles

 The electronic state is 2-A.
 Alpha  occ. eigenvalues --  -38.45029 -38.44727 -38.44709 -38.44700 -38.44470
 Alpha  occ. eigenvalues --  -38.44033 -38.43785  -2.20799  -2.20510  -2.20453
 Alpha  occ. eigenvalues --   -2.20453  -2.20249  -2.19805  -2.19562  -1.14481
 Alpha  occ. eigenvalues --   -1.14454  -1.14417  -1.14190  -1.14163  -1.14137
 Alpha  occ. eigenvalues --   -1.14131  -1.14123  -1.14117  -1.14099  -1.14081
 Alpha  occ. eigenvalues --   -1.14077  -1.13926  -1.13918  -1.13894  -1.13472
 Alpha  occ. eigenvalues --   -1.13464  -1.13440  -1.13228  -1.13221  -1.13201
 Alpha  occ. eigenvalues --   -0.16259  -0.13317  -0.12330  -0.10578
 Alpha virt. eigenvalues --   -0.06907  -0.06147  -0.04573  -0.03565  -0.03369
 Alpha virt. eigenvalues --   -0.02361  -0.01733  -0.01369  -0.01175  -0.00704
 Alpha virt. eigenvalues --   -0.00432  -0.00263  -0.00082   0.00447   0.00570

  Beta  occ. eigenvalues --  -38.44993 -38.44698 -38.44679 -38.44659 -38.44470
  Beta  occ. eigenvalues --  -38.44018 -38.43760  -2.20732  -2.20434  -2.20421
  Beta  occ. eigenvalues --   -2.20379  -2.20250  -2.19775  -2.19517  -1.14437
  Beta  occ. eigenvalues --   -1.14411  -1.14353  -1.14127  -1.14114  -1.14106
  Beta  occ. eigenvalues --   -1.14099  -1.14082  -1.14072  -1.14053  -1.14050
  Beta  occ. eigenvalues --   -1.14016  -1.13923  -1.13920  -1.13889  -1.13452
  Beta  occ. eigenvalues --   -1.13445  -1.13419  -1.13194  -1.13190  -1.13172
  Beta  occ. eigenvalues --   -0.15718  -0.13039  -0.12059
  Beta virt. eigenvalues --   -0.07153  -0.06853  -0.05779  -0.03920  -0.03396
  Beta virt. eigenvalues --   -0.02956  -0.01816  -0.01601  -0.01215  -0.01100
  Beta virt. eigenvalues --   -0.00567  -0.00249  -0.00002   0.00141   0.00541

 Mulliken charges and spin densities:
               1          2
     1  Na   0.042489   0.225597
     2  Na  -0.047528   0.197807
     3  Na  -0.251823   0.120475
     4  Na   0.381186  -0.071401
     5  Na  -0.302697   0.229494
     6  Na  -0.155183  -0.001964
     7  Na   0.333556   0.299991
 Sum of Mulliken charges =  -0.00000   1.00000

 Dipole moment (field-independent basis, Debye):
    X=             -0.5213    Y=              0.2319    Z=             -0.0659  Tot=              0.5744
 Quadrupole moment (field-independent basis, Debye-Ang):
   XX=            -61.2956   YY=            -68.2497   ZZ=            -70.5371
   XY=             -4.4602   XZ=              0.9922   YZ=             -0.4761

 Normal termination of Gaussian 16 at Sun Dec  3 15:04:55 2023.
