 Gaussian 16, Revision B.01,
 Gaussian 16:  ES64L-G16RevB.01 20-Dec-2017

 -------------------------
 #P B3LYP/6-311+g(d) force
 -------------------------

 -----
 DPGEN
 -----
 Symbolic Z-matrix:
 Charge =  0 Multiplicity = 2

                         Standard orientation:
 ---------------------------------------------------------------------
 Center     Atomic      Atomic             Coordinates (Angstroms)
 Number     Number       Type             X           Y           Z
 ---------------------------------------------------------------------
      1         11           0       -0.165209   -0.280882   -0.380681
      2         11           0        0.057062    3.581834    0.312165
      3         11           0       -3.232122    1.667488    0.100802
      4         11           0       -3.190258   -1.748205    0.069898
      5         11           0        0.221200   -3.423642   -0.229978
      6         11           0        3.249671   -1.597413    0.673419
      7         11           0        3.059657    1.800819   -0.545626
 ---------------------------------------------------------------------

 SCF Done:  E(UB3LYP) =  -1136.12650416     A.U. after   24 cycles

 The electronic state is 2-A.
 Alpha  occ. eigenvalues --  -38.44604 -38.44479 -38.44055 -38.43871 -38.43832
 Alpha  occ. eigenvalues --  -38.43531 -38.43475  -2.20387  -2.20301  -2.19944
 Alpha  occ. eigenvalues --   -2.19691  -2.19643  -2.19334  -2.19328  -1.14080
 Alpha  occ. eigenvalues --   -1.14053  -1.14015  -1.13982  -1.13980  -1.13925
 Alpha  occ. eigenvalues --   -1.13675  -1.13602  -1.13574  -1.13363  -1.13342
 Alpha  occ. eigenvalues --   -1.13319  -1.13315  -1.13284  -1.13273  -1.12998
 Alpha  occ. eigenvalues --   -1.12996  -1.12978  -1.12975  -1.12966  -1.12944
 Alpha  occ. eigenvalues --   -0.17044  -0.13693  -0.13300  -0.09559
 Alpha virt. eigenvalues --   -0.06803  -0.05700  -0.04414  -0.03090  -0.02648
 Alpha virt. eigenvalues --   -0.02263  -0.01974  -0.01903  -0.01670  -0.00220
 Alpha virt. eigenvalues --    0.00154   0.00332   0.00474   0.00544   0.00644

  Beta  occ. eigenvalues --  -38.44593 -38.44462 -38.44062 -38.43834 -38.43783
  Beta  occ. eigenvalues --  -38.43483 -38.43433  -2.20372  -2.20275  -2.19954
  Beta  occ. eigenvalues --   -2.19625  -2.19555  -2.19252  -2.19244  -1.14076
  Beta  occ. eigenvalues --   -1.14049  -1.13971  -1.13970  -1.13961  -1.13859
  Beta  occ. eigenvalues --   -1.13680  -1.13606  -1.13592  -1.13321  -1.13304
  Beta  occ. eigenvalues --   -1.13257  -1.13249  -1.13227  -1.13198  -1.12944
  Beta  occ. eigenvalues --   -1.12937  -1.12927  -1.12916  -1.12907  -1.12890
  Beta  occ. eigenvalues --   -0.16766  -0.12881  -0.12770
  Beta virt. eigenvalues --   -0.06902  -0.06324  -0.05438  -0.04235  -0.02602
  Beta virt. eigenvalues --   -0.02138  -0.02065  -0.01758  -0.01599  -0.01458
  Beta virt. eigenvalues --   -0.00108   0.00347   0.00466   0.00541   0.00660

 Mulliken charges and spin densities:
               1          2
     1  Na  -3.236232  -0.175970
     2  Na   0.604288   0.239443
     3  Na  -0.060889   0.227103
     4  Na   1.451233   0.106120
     5  Na   0.422275   0.138147
     6  Na   0.417887   0.302744
     7  Na   0.401438   0.162412
 Sum of Mulliken charges =  -0.00000   1.00000

 Dipole moment (field-independent basis, Debye):
    X=             -0.2871    Y=             -0.3955    Z=              0.0910  Tot=              0.4971
 Quadrupole moment (field-independent basis, Debye-Ang):
   XX=            -66.7851   YY=            -59.3173   ZZ=            -71.3358
   XY=              1.7638   XZ=             -1.2535   YZ=             -1.1754

 Normal termination of Gaussian 16 at Fri Dec  8 17:18:48 2023.
