 Gaussian 16, Revision B.01,
 Gaussian 16:  ES64L-G16RevB.01 20-Dec-2017

 -------------------------
 #P B3LYP/6-311+g(d) force
 -------------------------

 -----
 DPGEN
 -----
 Symbolic Z-matrix:
 Charge =  0 Multiplicity = 2

                         Standard orientation:
 ---------------------------------------------------------------------
 Center     Atomic      Atomic             Coordinates (Angstroms)
 Number     Number       Type             X           Y           Z
 ---------------------------------------------------------------------
      1         11           0        0.207097    3.109320   -0.269979
      2         11           0       -5.592638   -0.718513    0.539623
      3         11           0       -2.741964    1.265557    0.297890
      4         11           0       -3.165717   -1.669927   -0.861251
      5         11           0        0.252553   -0.678446   -0.253829
      6         11           0        4.093014   -0.973888    0.902360
      7         11           0        6.947655   -0.334103   -0.354813
 ---------------------------------------------------------------------

 SCF Done:  E(UB3LYP) =  -1136.11533951     A.U. after   21 cycles

 The electronic state is 2-A.
 Alpha  occ. eigenvalues --  -38.44500 -38.44347 -38.44269 -38.44198 -38.44167
 Alpha  occ. eigenvalues --  -38.43890 -38.43748  -2.20416  -2.20229  -2.20130
 Alpha  occ. eigenvalues --   -2.19976  -2.19955  -2.19667  -2.19574  -1.14149
 Alpha  occ. eigenvalues --   -1.14112  -1.14062  -1.13931  -1.13915  -1.13820
 Alpha  occ. eigenvalues --   -1.13768  -1.13766  -1.13735  -1.13639  -1.13632
 Alpha  occ. eigenvalues --   -1.13631  -1.13616  -1.13606  -1.13568  -1.13337
 Alpha  occ. eigenvalues --   -1.13332  -1.13299  -1.13254  -1.13228  -1.13186
 Alpha  occ. eigenvalues --   -0.17082  -0.13652  -0.12372  -0.10919
 Alpha virt. eigenvalues --   -0.06678  -0.05720  -0.04164  -0.03793  -0.02958
 Alpha virt. eigenvalues --   -0.02243  -0.01972  -0.01850  -0.01439  -0.00817
 Alpha virt. eigenvalues --   -0.00408  -0.00068   0.00280   0.00388   0.00571

  Beta  occ. eigenvalues --  -38.44469 -38.44321 -38.44255 -38.44185 -38.44120
  Beta  occ. eigenvalues --  -38.43893 -38.43689  -2.20361  -2.20183  -2.20104
  Beta  occ. eigenvalues --   -2.19951  -2.19868  -2.19674  -2.19467  -1.14109
  Beta  occ. eigenvalues --   -1.14074  -1.14015  -1.13903  -1.13866  -1.13785
  Beta  occ. eigenvalues --   -1.13750  -1.13738  -1.13711  -1.13624  -1.13615
  Beta  occ. eigenvalues --   -1.13614  -1.13557  -1.13537  -1.13515  -1.13342
  Beta  occ. eigenvalues --   -1.13338  -1.13293  -1.13184  -1.13152  -1.13100
  Beta  occ. eigenvalues --   -0.16443  -0.13489  -0.12029
  Beta virt. eigenvalues --   -0.07361  -0.06242  -0.05318  -0.04008  -0.03502
  Beta virt. eigenvalues --   -0.02518  -0.02174  -0.01706  -0.01540  -0.01191
  Beta virt. eigenvalues --   -0.00471  -0.00127   0.00064   0.00459   0.00474

 Mulliken charges and spin densities:
               1          2
     1  Na   0.554658   0.150464
     2  Na   0.843107   0.048234
     3  Na  -0.938640   0.293157
     4  Na   0.033138  -0.054058
     5  Na  -0.434798   0.554233
     6  Na  -0.363477  -0.042709
     7  Na   0.306012   0.050679
 Sum of Mulliken charges =  -0.00000   1.00000

 Dipole moment (field-independent basis, Debye):
    X=             -1.1875    Y=              0.2026    Z=             -0.1947  Tot=              1.2203
 Quadrupole moment (field-independent basis, Debye-Ang):
   XX=            -52.9503   YY=            -69.3427   ZZ=            -70.3258
   XY=              7.6021   XZ=             -5.7168   YZ=             -0.5857

 Normal termination of Gaussian 16 at Tue Nov 28 19:55:23 2023.
