 Gaussian 16, Revision B.01,
 Gaussian 16:  ES64L-G16RevB.01 20-Dec-2017

 -------------------------
 #P B3LYP/6-311+g(d) force
 -------------------------

 -----
 DPGEN
 -----
 Symbolic Z-matrix:
 Charge =  0 Multiplicity = 2

                         Standard orientation:
 ---------------------------------------------------------------------
 Center     Atomic      Atomic             Coordinates (Angstroms)
 Number     Number       Type             X           Y           Z
 ---------------------------------------------------------------------
      1         11           0        1.662385    1.970665    1.047524
      2         11           0       -0.966569   -1.821021    1.920065
      3         11           0        4.318965    0.048712   -0.490415
      4         11           0        2.302853   -2.549961   -1.040140
      5         11           0       -3.223835   -2.318763   -0.122858
      6         11           0       -0.899775    3.516451    0.014943
      7         11           0       -3.194024    1.153917   -1.329118
 ---------------------------------------------------------------------

 SCF Done:  E(UB3LYP) =  -1136.11063977     A.U. after   21 cycles

 The electronic state is 2-A.
 Alpha  occ. eigenvalues --  -38.45428 -38.44653 -38.44462 -38.44379 -38.44202
 Alpha  occ. eigenvalues --  -38.43991 -38.43624  -2.21183  -2.20437  -2.20271
 Alpha  occ. eigenvalues --   -2.20181  -2.19994  -2.19804  -2.19420  -1.14853
 Alpha  occ. eigenvalues --   -1.14832  -1.14815  -1.14104  -1.14095  -1.14080
 Alpha  occ. eigenvalues --   -1.14003  -1.13912  -1.13906  -1.13842  -1.13828
 Alpha  occ. eigenvalues --   -1.13791  -1.13654  -1.13630  -1.13611  -1.13480
 Alpha  occ. eigenvalues --   -1.13465  -1.13437  -1.13090  -1.13086  -1.13071
 Alpha  occ. eigenvalues --   -0.15973  -0.13777  -0.12745  -0.10672
 Alpha virt. eigenvalues --   -0.07073  -0.05353  -0.04810  -0.03536  -0.03331
 Alpha virt. eigenvalues --   -0.02207  -0.01954  -0.01462  -0.01127  -0.01056
 Alpha virt. eigenvalues --   -0.00400  -0.00045   0.00005   0.00393   0.00544

  Beta  occ. eigenvalues --  -38.45399 -38.44647 -38.44404 -38.44385 -38.44117
  Beta  occ. eigenvalues --  -38.43949 -38.43635  -2.21130  -2.20428  -2.20197
  Beta  occ. eigenvalues --   -2.20161  -2.19835  -2.19726  -2.19445  -1.14818
  Beta  occ. eigenvalues --   -1.14798  -1.14769  -1.14100  -1.14087  -1.14064
  Beta  occ. eigenvalues --   -1.13962  -1.13863  -1.13839  -1.13830  -1.13818
  Beta  occ. eigenvalues --   -1.13755  -1.13546  -1.13525  -1.13505  -1.13434
  Beta  occ. eigenvalues --   -1.13409  -1.13386  -1.13110  -1.13103  -1.13059
  Beta  occ. eigenvalues --   -0.15450  -0.13269  -0.12337
  Beta virt. eigenvalues --   -0.07432  -0.06968  -0.04846  -0.04363  -0.03217
  Beta virt. eigenvalues --   -0.02968  -0.01937  -0.01855  -0.01172  -0.01007
  Beta virt. eigenvalues --   -0.00910  -0.00178   0.00217   0.00253   0.00447

 Mulliken charges and spin densities:
               1          2
     1  Na  -0.698397   0.274357
     2  Na  -0.169450   0.329156
     3  Na   0.552394  -0.019531
     4  Na  -0.138615   0.153219
     5  Na   0.255360  -0.058655
     6  Na   0.543539  -0.159056
     7  Na  -0.344830   0.480509
 Sum of Mulliken charges =  -0.00000   1.00000

 Dipole moment (field-independent basis, Debye):
    X=              0.7763    Y=             -1.0600    Z=             -0.3025  Tot=              1.3483
 Quadrupole moment (field-independent basis, Debye-Ang):
   XX=            -62.8514   YY=            -66.6578   ZZ=            -71.3024
   XY=              4.3915   XZ=              1.7805   YZ=              2.5856

 Normal termination of Gaussian 16 at Sun Dec  3 19:17:34 2023.
