 Gaussian 16, Revision B.01,
 Gaussian 16:  ES64L-G16RevB.01 20-Dec-2017

 -------------------------
 #P B3LYP/6-311+g(d) force
 -------------------------

 -----
 DPGEN
 -----
 Symbolic Z-matrix:
 Charge =  0 Multiplicity = 2

                         Standard orientation:
 ---------------------------------------------------------------------
 Center     Atomic      Atomic             Coordinates (Angstroms)
 Number     Number       Type             X           Y           Z
 ---------------------------------------------------------------------
      1         11           0       -4.108128   -0.116473   -0.659886
      2         11           0        2.401221   -1.961421    0.298419
      3         11           0       -1.521340    1.803975   -0.288645
      4         11           0        3.473604    0.886546   -1.095215
      5         11           0       -1.177685   -1.140407    2.027694
      6         11           0        1.270016    1.698976    1.387312
      7         11           0       -0.337688   -1.171197   -1.669678
 ---------------------------------------------------------------------

 SCF Done:  E(UB3LYP) =  -1136.12051739     A.U. after   25 cycles

 The electronic state is 2-A.
 Alpha  occ. eigenvalues --  -38.45345 -38.44781 -38.44708 -38.44410 -38.43510
 Alpha  occ. eigenvalues --  -38.43353 -38.42380  -2.21137  -2.20593  -2.20528
 Alpha  occ. eigenvalues --   -2.20211  -2.19332  -2.19239  -2.18237  -1.14809
 Alpha  occ. eigenvalues --   -1.14794  -1.14755  -1.14265  -1.14233  -1.14219
 Alpha  occ. eigenvalues --   -1.14186  -1.14157  -1.14144  -1.13920  -1.13887
 Alpha  occ. eigenvalues --   -1.13812  -1.12999  -1.12997  -1.12983  -1.12946
 Alpha  occ. eigenvalues --   -1.12905  -1.12861  -1.11926  -1.11894  -1.11878
 Alpha  occ. eigenvalues --   -0.17926  -0.13964  -0.11354  -0.10809
 Alpha virt. eigenvalues --   -0.07079  -0.05246  -0.04443  -0.03111  -0.02968
 Alpha virt. eigenvalues --   -0.02570  -0.02510  -0.01209  -0.00895  -0.00207
 Alpha virt. eigenvalues --    0.00032   0.00206   0.00285   0.00626   0.00697

  Beta  occ. eigenvalues --  -38.45321 -38.44744 -38.44610 -38.44403 -38.43509
  Beta  occ. eigenvalues --  -38.43344 -38.42367  -2.21093  -2.20524  -2.20348
  Beta  occ. eigenvalues --   -2.20198  -2.19333  -2.19225  -2.18218  -1.14776
  Beta  occ. eigenvalues --   -1.14759  -1.14728  -1.14219  -1.14187  -1.14171
  Beta  occ. eigenvalues --   -1.14062  -1.14031  -1.14015  -1.13914  -1.13862
  Beta  occ. eigenvalues --   -1.13804  -1.13004  -1.12994  -1.12964  -1.12941
  Beta  occ. eigenvalues --   -1.12879  -1.12844  -1.11916  -1.11878  -1.11844
  Beta  occ. eigenvalues --   -0.17264  -0.13580  -0.10669
  Beta virt. eigenvalues --   -0.07641  -0.06804  -0.04890  -0.04102  -0.02892
  Beta virt. eigenvalues --   -0.02633  -0.02097  -0.01824  -0.00911  -0.00679
  Beta virt. eigenvalues --   -0.00086   0.00099   0.00216   0.00380   0.00736

 Mulliken charges and spin densities:
               1          2
     1  Na   0.490550   0.059949
     2  Na   0.049949   0.098234
     3  Na  -0.299492   0.027197
     4  Na   0.083590   0.112750
     5  Na  -0.336508   0.407922
     6  Na   0.140886   0.201906
     7  Na  -0.128976   0.092042
 Sum of Mulliken charges =  -0.00000   1.00000

 Dipole moment (field-independent basis, Debye):
    X=             -1.0169    Y=             -0.5046    Z=             -0.3050  Tot=              1.1754
 Quadrupole moment (field-independent basis, Debye-Ang):
   XX=            -47.4685   YY=            -79.5947   ZZ=            -67.1271
   XY=              2.0812   XZ=             -1.8035   YZ=             -5.9144

 Normal termination of Gaussian 16 at Thu Dec  7 12:37:01 2023.
