 Gaussian 16, Revision B.01,
 Gaussian 16:  ES64L-G16RevB.01 20-Dec-2017

 -------------------------
 #P B3LYP/6-311+g(d) force
 -------------------------

 -----
 DPGEN
 -----
 Symbolic Z-matrix:
 Charge =  0 Multiplicity = 2

                         Standard orientation:
 ---------------------------------------------------------------------
 Center     Atomic      Atomic             Coordinates (Angstroms)
 Number     Number       Type             X           Y           Z
 ---------------------------------------------------------------------
      1         11           0       -0.573370   -2.517289   -0.358195
      2         11           0        1.968415    2.218894    0.205247
      3         11           0        2.723133   -1.459636   -0.524636
      4         11           0       -1.374431    2.123014    0.093127
      5         11           0       -3.095016   -0.469452    0.191772
      6         11           0       -0.181265    0.598091   -1.865621
      7         11           0        0.532535   -0.493623    2.258306
 ---------------------------------------------------------------------

 SCF Done:  E(UB3LYP) =  -1136.13206044     A.U. after   19 cycles

 The electronic state is 2-A.
 Alpha  occ. eigenvalues --  -38.44185 -38.43925 -38.43921 -38.43716 -38.43484
 Alpha  occ. eigenvalues --  -38.43358 -38.43162  -2.20035  -2.19907  -2.19738
 Alpha  occ. eigenvalues --   -2.19582  -2.19334  -2.19331  -2.19043  -1.13762
 Alpha  occ. eigenvalues --   -1.13693  -1.13666  -1.13657  -1.13536  -1.13492
 Alpha  occ. eigenvalues --   -1.13409  -1.13391  -1.13382  -1.13293  -1.13242
 Alpha  occ. eigenvalues --   -1.13222  -1.13025  -1.13002  -1.12993  -1.12972
 Alpha  occ. eigenvalues --   -1.12950  -1.12895  -1.12726  -1.12713  -1.12667
 Alpha  occ. eigenvalues --   -0.18822  -0.12933  -0.12478  -0.11338
 Alpha virt. eigenvalues --   -0.05441  -0.05090  -0.04262  -0.03601  -0.03243
 Alpha virt. eigenvalues --   -0.02924  -0.01364  -0.00940  -0.00136   0.00022
 Alpha virt. eigenvalues --    0.00077   0.00377   0.00774   0.00879   0.00941

  Beta  occ. eigenvalues --  -38.44095 -38.43917 -38.43855 -38.43714 -38.43480
  Beta  occ. eigenvalues --  -38.43350 -38.43152  -2.19869  -2.19786  -2.19725
  Beta  occ. eigenvalues --   -2.19581  -2.19328  -2.19320  -2.19029  -1.13685
  Beta  occ. eigenvalues --   -1.13583  -1.13546  -1.13540  -1.13453  -1.13409
  Beta  occ. eigenvalues --   -1.13387  -1.13377  -1.13374  -1.13292  -1.13243
  Beta  occ. eigenvalues --   -1.13205  -1.13021  -1.12981  -1.12969  -1.12964
  Beta  occ. eigenvalues --   -1.12919  -1.12892  -1.12717  -1.12675  -1.12661
  Beta  occ. eigenvalues --   -0.18062  -0.12723  -0.12259
  Beta virt. eigenvalues --   -0.07395  -0.05356  -0.05064  -0.04160  -0.02824
  Beta virt. eigenvalues --   -0.02474  -0.01906  -0.01278  -0.00876  -0.00017
  Beta virt. eigenvalues --   -0.00003   0.00086   0.00401   0.00856   0.00929

 Mulliken charges and spin densities:
               1          2
     1  Na   0.201828   0.082325
     2  Na   0.189632  -0.018388
     3  Na   0.154480  -0.061980
     4  Na   0.608649   0.242383
     5  Na   0.041548  -0.050421
     6  Na  -0.463910   0.260682
     7  Na  -0.732228   0.545399
 Sum of Mulliken charges =  -0.00000   1.00000

 Dipole moment (field-independent basis, Debye):
    X=              0.3396    Y=             -0.1465    Z=              0.2198  Tot=              0.4302
 Quadrupole moment (field-independent basis, Debye-Ang):
   XX=            -58.3424   YY=            -67.7612   ZZ=            -69.6448
   XY=              0.7466   XZ=             -1.3905   YZ=              1.6941

 Normal termination of Gaussian 16 at Tue Dec  5 09:46:01 2023.
