 Gaussian 16, Revision B.01,
 Gaussian 16:  ES64L-G16RevB.01 20-Dec-2017

 -------------------------
 #P B3LYP/6-311+g(d) force
 -------------------------

 -----
 DPGEN
 -----
 Symbolic Z-matrix:
 Charge =  0 Multiplicity = 2

                         Standard orientation:
 ---------------------------------------------------------------------
 Center     Atomic      Atomic             Coordinates (Angstroms)
 Number     Number       Type             X           Y           Z
 ---------------------------------------------------------------------
      1         11           0        1.025161    3.043124    0.764494
      2         11           0        3.033047   -0.242189   -1.677564
      3         11           0       -0.016633    0.485666   -0.257636
      4         11           0        2.152878   -1.325823    1.658257
      5         11           0       -2.368887    2.467587   -0.366356
      6         11           0       -0.589353   -3.025624   -0.200230
      7         11           0       -3.236213   -1.402741    0.079034
 ---------------------------------------------------------------------

 SCF Done:  E(UB3LYP) =  -1136.12160142     A.U. after   21 cycles

 The electronic state is 2-A.
 Alpha  occ. eigenvalues --  -38.44755 -38.44467 -38.44211 -38.44012 -38.43869
 Alpha  occ. eigenvalues --  -38.43319 -38.42932  -2.20585  -2.20282  -2.20041
 Alpha  occ. eigenvalues --   -2.19825  -2.19691  -2.19154  -2.18982  -1.14318
 Alpha  occ. eigenvalues --   -1.14229  -1.14180  -1.13998  -1.13946  -1.13888
 Alpha  occ. eigenvalues --   -1.13750  -1.13707  -1.13682  -1.13488  -1.13471
 Alpha  occ. eigenvalues --   -1.13456  -1.13369  -1.13330  -1.13323  -1.12814
 Alpha  occ. eigenvalues --   -1.12788  -1.12768  -1.12690  -1.12650  -1.12611
 Alpha  occ. eigenvalues --   -0.17653  -0.13149  -0.13038  -0.09763
 Alpha virt. eigenvalues --   -0.06341  -0.05590  -0.05127  -0.03097  -0.02571
 Alpha virt. eigenvalues --   -0.01932  -0.01616  -0.01326  -0.01249  -0.00865
 Alpha virt. eigenvalues --   -0.00157   0.00283   0.00498   0.00654   0.00676

  Beta  occ. eigenvalues --  -38.44733 -38.44469 -38.44208 -38.44013 -38.43827
  Beta  occ. eigenvalues --  -38.43225 -38.42921  -2.20545  -2.20288  -2.20037
  Beta  occ. eigenvalues --   -2.19826  -2.19615  -2.18979  -2.18966  -1.14293
  Beta  occ. eigenvalues --   -1.14191  -1.14156  -1.14003  -1.13949  -1.13886
  Beta  occ. eigenvalues --   -1.13750  -1.13700  -1.13670  -1.13487  -1.13472
  Beta  occ. eigenvalues --   -1.13455  -1.13315  -1.13277  -1.13263  -1.12696
  Beta  occ. eigenvalues --   -1.12670  -1.12657  -1.12655  -1.12626  -1.12592
  Beta  occ. eigenvalues --   -0.17223  -0.12941  -0.12699
  Beta virt. eigenvalues --   -0.06333  -0.05925  -0.05435  -0.04887  -0.02637
  Beta virt. eigenvalues --   -0.02184  -0.01671  -0.01489  -0.01081  -0.00849
  Beta virt. eigenvalues --   -0.00678   0.00160   0.00420   0.00621   0.00710

 Mulliken charges and spin densities:
               1          2
     1  Na   0.419996   0.032642
     2  Na   0.388026   0.297340
     3  Na  -2.051116   0.552907
     4  Na   0.389638   0.151453
     5  Na   0.145322  -0.106128
     6  Na   0.746376   0.172993
     7  Na  -0.038243  -0.101206
 Sum of Mulliken charges =  -0.00000   1.00000

 Dipole moment (field-independent basis, Debye):
    X=             -0.8084    Y=              0.5712    Z=              0.6550  Tot=              1.1869
 Quadrupole moment (field-independent basis, Debye-Ang):
   XX=            -59.6805   YY=            -57.8196   ZZ=            -75.9023
   XY=             -0.5310   XZ=              3.3328   YZ=              1.3149

 Normal termination of Gaussian 16 at Tue Dec  5 17:50:08 2023.
