 Gaussian 16, Revision B.01,
 Gaussian 16:  ES64L-G16RevB.01 20-Dec-2017

 -------------------------
 #P B3LYP/6-311+g(d) force
 -------------------------

 -----
 DPGEN
 -----
 Symbolic Z-matrix:
 Charge =  0 Multiplicity = 2

                         Standard orientation:
 ---------------------------------------------------------------------
 Center     Atomic      Atomic             Coordinates (Angstroms)
 Number     Number       Type             X           Y           Z
 ---------------------------------------------------------------------
      1         11           0       -2.974526   -0.024206    0.096122
      2         11           0        2.299276   -1.650288    0.146993
      3         11           0       -0.957698   -2.227761   -0.060855
      4         11           0       -0.008164    0.122361    1.862695
      5         11           0        0.322531   -0.222895   -1.841805
      6         11           0        2.247821    1.693824    0.097615
      7         11           0       -0.929240    2.308964   -0.300766
 ---------------------------------------------------------------------

 SCF Done:  E(UB3LYP) =  -1136.13055337     A.U. after   19 cycles

 The electronic state is 2-A.
 Alpha  occ. eigenvalues --  -38.43822 -38.43551 -38.43519 -38.43427 -38.43394
 Alpha  occ. eigenvalues --  -38.43019 -38.42965  -2.19748  -2.19605  -2.19552
 Alpha  occ. eigenvalues --   -2.19359  -2.19321  -2.19031  -2.18933  -1.13466
 Alpha  occ. eigenvalues --   -1.13425  -1.13386  -1.13338  -1.13268  -1.13248
 Alpha  occ. eigenvalues --   -1.13230  -1.13207  -1.13178  -1.13025  -1.13013
 Alpha  occ. eigenvalues --   -1.13007  -1.12987  -1.12977  -1.12929  -1.12708
 Alpha  occ. eigenvalues --   -1.12679  -1.12633  -1.12615  -1.12588  -1.12552
 Alpha  occ. eigenvalues --   -0.19987  -0.13456  -0.12615  -0.11446
 Alpha virt. eigenvalues --   -0.05341  -0.04856  -0.04109  -0.03441  -0.03054
 Alpha virt. eigenvalues --   -0.02786  -0.01340  -0.00796  -0.00059   0.00269
 Alpha virt. eigenvalues --    0.00313   0.00381   0.00881   0.01007   0.01028

  Beta  occ. eigenvalues --  -38.43819 -38.43465 -38.43434 -38.43420 -38.43387
  Beta  occ. eigenvalues --  -38.43007 -38.42953  -2.19747  -2.19448  -2.19395
  Beta  occ. eigenvalues --   -2.19350  -2.19313  -2.19015  -2.18916  -1.13467
  Beta  occ. eigenvalues --   -1.13426  -1.13356  -1.13248  -1.13168  -1.13147
  Beta  occ. eigenvalues --   -1.13129  -1.13101  -1.13074  -1.13012  -1.12994
  Beta  occ. eigenvalues --   -1.12973  -1.12962  -1.12934  -1.12927  -1.12695
  Beta  occ. eigenvalues --   -1.12630  -1.12620  -1.12606  -1.12548  -1.12538
  Beta  occ. eigenvalues --   -0.19196  -0.13174  -0.12312
  Beta virt. eigenvalues --   -0.07410  -0.05316  -0.04864  -0.04118  -0.02578
  Beta virt. eigenvalues --   -0.02187  -0.01680  -0.01265  -0.00751   0.00079
  Beta virt. eigenvalues --    0.00229   0.00264   0.00389   0.00938   0.00993

 Mulliken charges and spin densities:
               1          2
     1  Na  -0.024069  -0.057382
     2  Na   0.369618  -0.064483
     3  Na   0.662423   0.010780
     4  Na  -0.891459   0.617761
     5  Na  -0.852182   0.545460
     6  Na   0.276166  -0.059182
     7  Na   0.459503   0.007046
 Sum of Mulliken charges =  -0.00000   1.00000

 Dipole moment (field-independent basis, Debye):
    X=              0.1308    Y=              0.0583    Z=              0.0897  Tot=              0.1689
 Quadrupole moment (field-independent basis, Debye-Ang):
   XX=            -56.9721   YY=            -67.2712   ZZ=            -70.9056
   XY=             -0.2611   XZ=              0.5383   YZ=             -0.7004

 Normal termination of Gaussian 16 at Fri Dec  8 17:14:15 2023.
