 Gaussian 16, Revision B.01,
 Gaussian 16:  ES64L-G16RevB.01 20-Dec-2017

 -------------------------
 #P B3LYP/6-311+g(d) force
 -------------------------

 -----
 DPGEN
 -----
 Symbolic Z-matrix:
 Charge =  0 Multiplicity = 2

                         Standard orientation:
 ---------------------------------------------------------------------
 Center     Atomic      Atomic             Coordinates (Angstroms)
 Number     Number       Type             X           Y           Z
 ---------------------------------------------------------------------
      1         11           0        2.416373   -1.898714   -0.177651
      2         11           0        2.899234    1.266252    0.277310
      3         11           0       -0.098927    0.257439    1.832165
      4         11           0       -0.212898    2.499109   -0.513826
      5         11           0       -3.322671    0.508094   -0.211299
      6         11           0        0.000272   -0.751113   -1.804091
      7         11           0       -1.681383   -1.881068    0.597391
 ---------------------------------------------------------------------

 SCF Done:  E(UB3LYP) =  -1136.12713874     A.U. after   21 cycles

 The electronic state is 2-A.
 Alpha  occ. eigenvalues --  -38.44897 -38.44160 -38.43738 -38.43596 -38.43547
 Alpha  occ. eigenvalues --  -38.43490 -38.42750  -2.20740  -2.20010  -2.19716
 Alpha  occ. eigenvalues --   -2.19502  -2.19467  -2.19459  -2.18628  -1.14450
 Alpha  occ. eigenvalues --   -1.14390  -1.14367  -1.13689  -1.13672  -1.13654
 Alpha  occ. eigenvalues --   -1.13499  -1.13369  -1.13312  -1.13246  -1.13219
 Alpha  occ. eigenvalues --   -1.13145  -1.13109  -1.13101  -1.13099  -1.13081
 Alpha  occ. eigenvalues --   -1.13047  -1.13043  -1.12322  -1.12298  -1.12241
 Alpha  occ. eigenvalues --   -0.19094  -0.13751  -0.11867  -0.11104
 Alpha virt. eigenvalues --   -0.06394  -0.05037  -0.03858  -0.03528  -0.02829
 Alpha virt. eigenvalues --   -0.02561  -0.02087  -0.00987  -0.00134  -0.00026
 Alpha virt. eigenvalues --    0.00066   0.00318   0.00752   0.00801   0.00899

  Beta  occ. eigenvalues --  -38.44894 -38.44157 -38.43658 -38.43593 -38.43475
  Beta  occ. eigenvalues --  -38.43465 -38.42736  -2.20738  -2.20006  -2.19570
  Beta  occ. eigenvalues --   -2.19458  -2.19428  -2.19369  -2.18606  -1.14450
  Beta  occ. eigenvalues --   -1.14373  -1.14362  -1.13685  -1.13655  -1.13654
  Beta  occ. eigenvalues --   -1.13409  -1.13262  -1.13213  -1.13194  -1.13161
  Beta  occ. eigenvalues --   -1.13111  -1.13084  -1.13059  -1.13052  -1.13039
  Beta  occ. eigenvalues --   -1.12981  -1.12977  -1.12311  -1.12264  -1.12222
  Beta  occ. eigenvalues --   -0.18344  -0.13522  -0.11618
  Beta virt. eigenvalues --   -0.07136  -0.06320  -0.05024  -0.03698  -0.02844
  Beta virt. eigenvalues --   -0.02102  -0.01987  -0.01510  -0.00936  -0.00076
  Beta virt. eigenvalues --    0.00021   0.00101   0.00344   0.00837   0.00892

 Mulliken charges and spin densities:
               1          2
     1  Na   0.315672  -0.071992
     2  Na  -0.006438  -0.026950
     3  Na  -0.384882   0.430263
     4  Na   0.017117   0.050737
     5  Na  -0.049644  -0.037080
     6  Na  -0.563434   0.596966
     7  Na   0.671609   0.058057
 Sum of Mulliken charges =  -0.00000   1.00000

 Dipole moment (field-independent basis, Debye):
    X=             -0.2216    Y=              0.1375    Z=             -0.0649  Tot=              0.2687
 Quadrupole moment (field-independent basis, Debye-Ang):
   XX=            -50.3487   YY=            -70.9196   ZZ=            -72.6655
   XY=             -0.7763   XZ=              1.3906   YZ=             -1.6437

 Normal termination of Gaussian 16 at Fri Dec  8 02:16:35 2023.
