 Gaussian 16, Revision B.01,
 Gaussian 16:  ES64L-G16RevB.01 20-Dec-2017

 -------------------------
 #P B3LYP/6-311+g(d) force
 -------------------------

 -----
 DPGEN
 -----
 Symbolic Z-matrix:
 Charge =  0 Multiplicity = 2

                         Standard orientation:
 ---------------------------------------------------------------------
 Center     Atomic      Atomic             Coordinates (Angstroms)
 Number     Number       Type             X           Y           Z
 ---------------------------------------------------------------------
      1         11           0        0.103817   -0.360771   -1.598941
      2         11           0        2.456335   -1.610974    0.262411
      3         11           0       -0.860362   -2.660989   -0.167640
      4         11           0        0.108358    0.071668    1.603940
      5         11           0        2.251434    1.931024   -0.145871
      6         11           0       -1.020304    2.646504   -0.162494
      7         11           0       -3.039278   -0.016462    0.208595
 ---------------------------------------------------------------------

 SCF Done:  E(UB3LYP) =  -1136.13563363     A.U. after   20 cycles

 The electronic state is 2-A.
 Alpha  occ. eigenvalues --  -38.43654 -38.43635 -38.43572 -38.43518 -38.43399
 Alpha  occ. eigenvalues --  -38.42941 -38.42816  -2.19539  -2.19520  -2.19458
 Alpha  occ. eigenvalues --   -2.19453  -2.19291  -2.19014  -2.18876  -1.13284
 Alpha  occ. eigenvalues --   -1.13241  -1.13210  -1.13196  -1.13187  -1.13175
 Alpha  occ. eigenvalues --   -1.13164  -1.13141  -1.13119  -1.13100  -1.13087
 Alpha  occ. eigenvalues --   -1.13043  -1.12973  -1.12955  -1.12913  -1.12714
 Alpha  occ. eigenvalues --   -1.12625  -1.12602  -1.12548  -1.12495  -1.12484
 Alpha  occ. eigenvalues --   -0.19451  -0.13096  -0.13009  -0.10496
 Alpha virt. eigenvalues --   -0.05273  -0.05167  -0.04870  -0.02929  -0.02904
 Alpha virt. eigenvalues --   -0.02015  -0.01407  -0.01188  -0.00204  -0.00164
 Alpha virt. eigenvalues --    0.00068   0.00357   0.00874   0.00914   0.00935

  Beta  occ. eigenvalues --  -38.43649 -38.43624 -38.43566 -38.43507 -38.43393
  Beta  occ. eigenvalues --  -38.42867 -38.42742  -2.19523  -2.19514  -2.19446
  Beta  occ. eigenvalues --   -2.19441  -2.19284  -2.18879  -2.18742  -1.13263
  Beta  occ. eigenvalues --   -1.13226  -1.13191  -1.13180  -1.13169  -1.13157
  Beta  occ. eigenvalues --   -1.13148  -1.13138  -1.13093  -1.13079  -1.13062
  Beta  occ. eigenvalues --   -1.13038  -1.12968  -1.12929  -1.12906  -1.12624
  Beta  occ. eigenvalues --   -1.12528  -1.12509  -1.12454  -1.12398  -1.12384
  Beta  occ. eigenvalues --   -0.18738  -0.12821  -0.12717
  Beta virt. eigenvalues --   -0.06566  -0.05251  -0.05167  -0.04847  -0.02143
  Beta virt. eigenvalues --   -0.02086  -0.01327  -0.01122  -0.01000  -0.00244
  Beta virt. eigenvalues --   -0.00215   0.00184   0.00393   0.00907   0.00922

 Mulliken charges and spin densities:
               1          2
     1  Na  -0.430031   0.615893
     2  Na   0.258889  -0.061906
     3  Na   0.419227  -0.032818
     4  Na  -0.434122   0.652846
     5  Na   0.090868  -0.072986
     6  Na   0.026843  -0.053776
     7  Na   0.068327  -0.047253
 Sum of Mulliken charges =  -0.00000   1.00000

 Dipole moment (field-independent basis, Debye):
    X=              0.0551    Y=              0.0310    Z=              0.0399  Tot=              0.0748
 Quadrupole moment (field-independent basis, Debye-Ang):
   XX=            -56.1674   YY=            -59.9072   ZZ=            -75.9228
   XY=              0.0156   XZ=             -0.1255   YZ=             -1.0757

 Normal termination of Gaussian 16 at Tue Dec  5 18:30:14 2023.
