 Gaussian 16, Revision B.01,
 Gaussian 16:  ES64L-G16RevB.01 20-Dec-2017

 -------------------------
 #P B3LYP/6-311+g(d) force
 -------------------------

 -----
 DPGEN
 -----
 Symbolic Z-matrix:
 Charge =  0 Multiplicity = 2

                         Standard orientation:
 ---------------------------------------------------------------------
 Center     Atomic      Atomic             Coordinates (Angstroms)
 Number     Number       Type             X           Y           Z
 ---------------------------------------------------------------------
      1         11           0       -2.407445   -1.264083    0.670335
      2         11           0        3.149623   -0.081016   -1.007466
      3         11           0        0.548937    2.228073   -0.777886
      4         11           0        1.431325    0.947294    2.532241
      5         11           0        0.436481   -1.922972    0.839157
      6         11           0        0.099754   -1.258199   -1.825139
      7         11           0       -3.258675    1.350902   -0.431242
 ---------------------------------------------------------------------

 SCF Done:  E(UB3LYP) =  -1136.11660710     A.U. after   23 cycles

 The electronic state is 2-A.
 Alpha  occ. eigenvalues --  -38.45125 -38.44765 -38.44281 -38.43739 -38.43643
 Alpha  occ. eigenvalues --  -38.43365 -38.43040  -2.20940  -2.20592  -2.20238
 Alpha  occ. eigenvalues --   -2.19580  -2.19552  -2.19178  -2.19047  -1.14593
 Alpha  occ. eigenvalues --   -1.14573  -1.14542  -1.14276  -1.14240  -1.14223
 Alpha  occ. eigenvalues --   -1.14039  -1.13859  -1.13823  -1.13420  -1.13300
 Alpha  occ. eigenvalues --   -1.13222  -1.13184  -1.13174  -1.13115  -1.12872
 Alpha  occ. eigenvalues --   -1.12856  -1.12794  -1.12733  -1.12684  -1.12629
 Alpha  occ. eigenvalues --   -0.18541  -0.13359  -0.12218  -0.11507
 Alpha virt. eigenvalues --   -0.06100  -0.04899  -0.04364  -0.03514  -0.03430
 Alpha virt. eigenvalues --   -0.02910  -0.01832  -0.00654  -0.00495   0.00062
 Alpha virt. eigenvalues --    0.00228   0.00278   0.00405   0.00702   0.00848

  Beta  occ. eigenvalues --  -38.45019 -38.44746 -38.44237 -38.43742 -38.43638
  Beta  occ. eigenvalues --  -38.43356 -38.43015  -2.20745  -2.20561  -2.20159
  Beta  occ. eigenvalues --   -2.19575  -2.19554  -2.19163  -2.19007  -1.14454
  Beta  occ. eigenvalues --   -1.14438  -1.14410  -1.14236  -1.14220  -1.14201
  Beta  occ. eigenvalues --   -1.13993  -1.13802  -1.13757  -1.13419  -1.13295
  Beta  occ. eigenvalues --   -1.13218  -1.13178  -1.13177  -1.13114  -1.12860
  Beta  occ. eigenvalues --   -1.12827  -1.12788  -1.12700  -1.12634  -1.12599
  Beta  occ. eigenvalues --   -0.17793  -0.13158  -0.11364
  Beta virt. eigenvalues --   -0.08078  -0.06007  -0.04584  -0.03739  -0.03357
  Beta virt. eigenvalues --   -0.02719  -0.02135  -0.01747  -0.00509  -0.00269
  Beta virt. eigenvalues --    0.00121   0.00256   0.00343   0.00504   0.00872

 Mulliken charges and spin densities:
               1          2
     1  Na  -0.087677  -0.033061
     2  Na   0.349200   0.066398
     3  Na  -0.442345   0.025156
     4  Na  -0.212427   0.377700
     5  Na   0.788921   0.008680
     6  Na  -0.422540   0.634337
     7  Na   0.026868  -0.079211
 Sum of Mulliken charges =  -0.00000   1.00000

 Dipole moment (field-independent basis, Debye):
    X=              1.0310    Y=              0.1589    Z=              0.0205  Tot=              1.0434
 Quadrupole moment (field-independent basis, Debye-Ang):
   XX=            -57.6480   YY=            -76.2276   ZZ=            -63.5926
   XY=             -0.2862   XZ=             -0.4770   YZ=              0.7464

 Normal termination of Gaussian 16 at Thu Dec  7 21:18:03 2023.
