 Gaussian 16, Revision B.01,
 Gaussian 16:  ES64L-G16RevB.01 20-Dec-2017

 -------------------------
 #P B3LYP/6-311+g(d) force
 -------------------------

 -----
 DPGEN
 -----
 Symbolic Z-matrix:
 Charge =  0 Multiplicity = 2

                         Standard orientation:
 ---------------------------------------------------------------------
 Center     Atomic      Atomic             Coordinates (Angstroms)
 Number     Number       Type             X           Y           Z
 ---------------------------------------------------------------------
      1         11           0       -1.713724   -1.424767    1.297018
      2         11           0       -0.183807    1.289364    0.121091
      3         11           0       -3.670860    1.731760    0.252508
      4         11           0        2.514995   -0.333922    1.782224
      5         11           0        1.659651   -1.594980   -0.871795
      6         11           0       -2.143638   -1.137642   -1.631160
      7         11           0        3.537383    1.470188   -0.949887
 ---------------------------------------------------------------------

 SCF Done:  E(UB3LYP) =  -1136.11838213     A.U. after   26 cycles

 The electronic state is 2-A.
 Alpha  occ. eigenvalues --  -38.44515 -38.44316 -38.44207 -38.44145 -38.44039
 Alpha  occ. eigenvalues --  -38.43705 -38.43555  -2.20404  -2.20198  -2.20032
 Alpha  occ. eigenvalues --   -2.20028  -2.19926  -2.19590  -2.19348  -1.14113
 Alpha  occ. eigenvalues --   -1.14063  -1.14002  -1.13970  -1.13897  -1.13782
 Alpha  occ. eigenvalues --   -1.13750  -1.13712  -1.13691  -1.13683  -1.13654
 Alpha  occ. eigenvalues --   -1.13626  -1.13594  -1.13568  -1.13500  -1.13288
 Alpha  occ. eigenvalues --   -1.13278  -1.13171  -1.13023  -1.13016  -1.12983
 Alpha  occ. eigenvalues --   -0.18418  -0.14605  -0.10788  -0.10642
 Alpha virt. eigenvalues --   -0.06500  -0.05878  -0.05286  -0.03000  -0.02609
 Alpha virt. eigenvalues --   -0.02141  -0.02011  -0.01386  -0.00892  -0.00324
 Alpha virt. eigenvalues --    0.00086   0.00231   0.00264   0.00290   0.00402

  Beta  occ. eigenvalues --  -38.44467 -38.44305 -38.44171 -38.44130 -38.44002
  Beta  occ. eigenvalues --  -38.43684 -38.43561  -2.20316  -2.20179  -2.20008
  Beta  occ. eigenvalues --   -2.19962  -2.19855  -2.19555  -2.19360  -1.14057
  Beta  occ. eigenvalues --   -1.13999  -1.13948  -1.13926  -1.13869  -1.13768
  Beta  occ. eigenvalues --   -1.13706  -1.13687  -1.13642  -1.13632  -1.13624
  Beta  occ. eigenvalues --   -1.13605  -1.13545  -1.13526  -1.13448  -1.13260
  Beta  occ. eigenvalues --   -1.13233  -1.13145  -1.13029  -1.13022  -1.12991
  Beta  occ. eigenvalues --   -0.17770  -0.14378  -0.10599
  Beta virt. eigenvalues --   -0.06984  -0.06318  -0.05735  -0.04529  -0.02812
  Beta virt. eigenvalues --   -0.02501  -0.01670  -0.01465  -0.01191  -0.00382
  Beta virt. eigenvalues --   -0.00238   0.00152   0.00284   0.00358   0.00443

 Mulliken charges and spin densities:
               1          2
     1  Na   0.260826   0.163965
     2  Na  -1.530560   0.199195
     3  Na   0.294704  -0.068893
     4  Na   0.450301   0.184735
     5  Na  -0.165824   0.340472
     6  Na   0.162814   0.076728
     7  Na   0.527739   0.103799
 Sum of Mulliken charges =  -0.00000   1.00000

 Dipole moment (field-independent basis, Debye):
    X=              0.3122    Y=             -0.4841    Z=              0.2134  Tot=              0.6143
 Quadrupole moment (field-independent basis, Debye-Ang):
   XX=            -51.8149   YY=            -75.8439   ZZ=            -68.0058
   XY=              2.0411   XZ=              0.7880   YZ=             -2.2487

 Normal termination of Gaussian 16 at Tue Dec  5 22:56:31 2023.
