 Gaussian 16, Revision B.01,
 Gaussian 16:  ES64L-G16RevB.01 20-Dec-2017

 -------------------------
 #P B3LYP/6-311+g(d) force
 -------------------------

 -----
 DPGEN
 -----
 Symbolic Z-matrix:
 Charge =  0 Multiplicity = 2

                         Standard orientation:
 ---------------------------------------------------------------------
 Center     Atomic      Atomic             Coordinates (Angstroms)
 Number     Number       Type             X           Y           Z
 ---------------------------------------------------------------------
      1         11           0        2.332134   -2.493177    0.237607
      2         11           0        0.354804   -0.435625    2.118676
      3         11           0       -2.881964    0.780665    1.173936
      4         11           0       -3.781954   -1.281563   -1.323317
      5         11           0        3.329937    0.221521   -1.015320
      6         11           0        1.126319    2.598397   -0.073167
      7         11           0       -0.479276    0.609783   -1.118414
 ---------------------------------------------------------------------

 SCF Done:  E(UB3LYP) =  -1136.11824044     A.U. after   22 cycles

 The electronic state is 2-A.
 Alpha  occ. eigenvalues --  -38.44704 -38.44567 -38.44452 -38.44297 -38.44173
 Alpha  occ. eigenvalues --  -38.42826 -38.42698  -2.20542  -2.20423  -2.20258
 Alpha  occ. eigenvalues --   -2.20164  -2.20138  -2.18742  -2.18536  -1.14226
 Alpha  occ. eigenvalues --   -1.14213  -1.14182  -1.14104  -1.14077  -1.14044
 Alpha  occ. eigenvalues --   -1.13920  -1.13908  -1.13901  -1.13870  -1.13851
 Alpha  occ. eigenvalues --   -1.13809  -1.13787  -1.13767  -1.13747  -1.12457
 Alpha  occ. eigenvalues --   -1.12373  -1.12345  -1.12212  -1.12191  -1.12189
 Alpha  occ. eigenvalues --   -0.18121  -0.14098  -0.11402  -0.11346
 Alpha virt. eigenvalues --   -0.06220  -0.05585  -0.04346  -0.03257  -0.02876
 Alpha virt. eigenvalues --   -0.02673  -0.02293  -0.01050  -0.00509  -0.00202
 Alpha virt. eigenvalues --   -0.00113   0.00148   0.00409   0.00500   0.00661

  Beta  occ. eigenvalues --  -38.44695 -38.44535 -38.44392 -38.44208 -38.44162
  Beta  occ. eigenvalues --  -38.42828 -38.42700  -2.20532  -2.20365  -2.20146
  Beta  occ. eigenvalues --   -2.20119  -2.20002  -2.18749  -2.18541  -1.14224
  Beta  occ. eigenvalues --   -1.14202  -1.14139  -1.14063  -1.14041  -1.14002
  Beta  occ. eigenvalues --   -1.13892  -1.13834  -1.13823  -1.13800  -1.13795
  Beta  occ. eigenvalues --   -1.13735  -1.13724  -1.13694  -1.13639  -1.12463
  Beta  occ. eigenvalues --   -1.12381  -1.12326  -1.12212  -1.12195  -1.12186
  Beta  occ. eigenvalues --   -0.17466  -0.13652  -0.11172
  Beta virt. eigenvalues --   -0.07763  -0.05959  -0.05059  -0.04110  -0.03028
  Beta virt. eigenvalues --   -0.02304  -0.02155  -0.01981  -0.00885  -0.00321
  Beta virt. eigenvalues --   -0.00059   0.00042   0.00230   0.00488   0.00672

 Mulliken charges and spin densities:
               1          2
     1  Na   0.101734   0.070833
     2  Na  -0.405977   0.285736
     3  Na   0.464503   0.212385
     4  Na  -0.012715   0.259509
     5  Na  -0.042116   0.082336
     6  Na   0.640082   0.226204
     7  Na  -0.745512  -0.137004
 Sum of Mulliken charges =  -0.00000   1.00000

 Dipole moment (field-independent basis, Debye):
    X=             -0.7137    Y=              0.3093    Z=              0.1479  Tot=              0.7917
 Quadrupole moment (field-independent basis, Debye-Ang):
   XX=            -58.0402   YY=            -71.9785   ZZ=            -67.5351
   XY=              2.9230   XZ=             -2.9305   YZ=              5.8575

 Normal termination of Gaussian 16 at Tue Dec  5 11:34:55 2023.
