 Gaussian 16, Revision B.01,
 Gaussian 16:  ES64L-G16RevB.01 20-Dec-2017

 -------------------------
 #P B3LYP/6-311+g(d) force
 -------------------------

 -----
 DPGEN
 -----
 Symbolic Z-matrix:
 Charge =  0 Multiplicity = 2

                         Standard orientation:
 ---------------------------------------------------------------------
 Center     Atomic      Atomic             Coordinates (Angstroms)
 Number     Number       Type             X           Y           Z
 ---------------------------------------------------------------------
      1         11           0        2.580526   -0.554586    1.941245
      2         11           0       -1.935965   -2.118764    0.152268
      3         11           0       -4.382231   -0.220178   -0.094428
      4         11           0       -2.166162    2.348662   -0.078893
      5         11           0        0.100899    0.202374   -0.036714
      6         11           0        2.761607   -1.394020   -1.546645
      7         11           0        3.041325    1.736512   -0.336833
 ---------------------------------------------------------------------

 SCF Done:  E(UB3LYP) =  -1136.10231816     A.U. after   34 cycles

 The electronic state is 2-A.
 Alpha  occ. eigenvalues --  -38.46074 -38.45079 -38.44449 -38.44220 -38.44137
 Alpha  occ. eigenvalues --  -38.43508 -38.43256  -2.21887  -2.20940  -2.20338
 Alpha  occ. eigenvalues --   -2.20152  -2.20087  -2.19352  -2.19078  -1.15560
 Alpha  occ. eigenvalues --   -1.15554  -1.15511  -1.14615  -1.14612  -1.14575
 Alpha  occ. eigenvalues --   -1.14015  -1.13971  -1.13959  -1.13855  -1.13830
 Alpha  occ. eigenvalues --   -1.13809  -1.13746  -1.13711  -1.13701  -1.13055
 Alpha  occ. eigenvalues --   -1.12997  -1.12993  -1.12786  -1.12736  -1.12703
 Alpha  occ. eigenvalues --   -0.18219  -0.15064  -0.10754  -0.10496
 Alpha virt. eigenvalues --   -0.07716  -0.06394  -0.03854  -0.03507  -0.02979
 Alpha virt. eigenvalues --   -0.02315  -0.01945  -0.01689  -0.00950  -0.00715
 Alpha virt. eigenvalues --   -0.00107  -0.00028   0.00333   0.00499   0.00521

  Beta  occ. eigenvalues --  -38.46074 -38.45057 -38.44368 -38.44138 -38.44118
  Beta  occ. eigenvalues --  -38.43521 -38.43267  -2.21885  -2.20905  -2.20188
  Beta  occ. eigenvalues --   -2.20123  -2.19936  -2.19377  -2.19098  -1.15561
  Beta  occ. eigenvalues --   -1.15554  -1.15515  -1.14596  -1.14582  -1.14514
  Beta  occ. eigenvalues --   -1.13919  -1.13871  -1.13848  -1.13819  -1.13799
  Beta  occ. eigenvalues --   -1.13762  -1.13645  -1.13615  -1.13583  -1.13071
  Beta  occ. eigenvalues --   -1.13013  -1.13006  -1.12796  -1.12748  -1.12716
  Beta  occ. eigenvalues --   -0.17595  -0.14869  -0.10694
  Beta virt. eigenvalues --   -0.07530  -0.06421  -0.06136  -0.03676  -0.03284
  Beta virt. eigenvalues --   -0.02904  -0.01855  -0.01480  -0.01201  -0.00525
  Beta virt. eigenvalues --   -0.00171  -0.00061  -0.00022   0.00505   0.00577

 Mulliken charges and spin densities:
               1          2
     1  Na   0.307443   0.191979
     2  Na   2.379822  -0.142307
     3  Na  -0.300707   0.061948
     4  Na   0.636365  -0.349310
     5  Na  -3.868865   0.636602
     6  Na   0.319789   0.397430
     7  Na   0.526153   0.203658
 Sum of Mulliken charges =  -0.00000   1.00000

 Dipole moment (field-independent basis, Debye):
    X=             -0.3617    Y=             -0.0281    Z=              0.2705  Tot=              0.4525
 Quadrupole moment (field-independent basis, Debye-Ang):
   XX=            -41.8794   YY=            -74.7917   ZZ=            -75.4411
   XY=              2.3707   XZ=              2.5507   YZ=             -0.0458

 Normal termination of Gaussian 16 at Tue Dec  5 10:31:13 2023.
