 Gaussian 16, Revision B.01,
 Gaussian 16:  ES64L-G16RevB.01 20-Dec-2017

 -------------------------
 #P B3LYP/6-311+g(d) force
 -------------------------

 -----
 DPGEN
 -----
 Symbolic Z-matrix:
 Charge =  0 Multiplicity = 2

                         Standard orientation:
 ---------------------------------------------------------------------
 Center     Atomic      Atomic             Coordinates (Angstroms)
 Number     Number       Type             X           Y           Z
 ---------------------------------------------------------------------
      1         11           0        2.028224    0.540922    1.548760
      2         11           0       -1.396915    1.373067    1.494583
      3         11           0        2.866635   -2.085544   -0.189176
      4         11           0       -3.734077   -0.005306   -0.340494
      5         11           0        1.315833    2.992629   -1.146430
      6         11           0       -1.152805   -2.486049    0.142014
      7         11           0        0.073105   -0.329718   -1.509258
 ---------------------------------------------------------------------

 SCF Done:  E(UB3LYP) =  -1136.12792296     A.U. after   21 cycles

 The electronic state is 2-A.
 Alpha  occ. eigenvalues --  -38.44668 -38.44295 -38.44067 -38.43626 -38.43563
 Alpha  occ. eigenvalues --  -38.43472 -38.43422  -2.20468  -2.20131  -2.19875
 Alpha  occ. eigenvalues --   -2.19423  -2.19409  -2.19364  -2.19337  -1.14147
 Alpha  occ. eigenvalues --   -1.14134  -1.14098  -1.13901  -1.13796  -1.13705
 Alpha  occ. eigenvalues --   -1.13563  -1.13541  -1.13499  -1.13106  -1.13092
 Alpha  occ. eigenvalues --   -1.13079  -1.13077  -1.13058  -1.13046  -1.13027
 Alpha  occ. eigenvalues --   -1.13005  -1.12995  -1.12981  -1.12969  -1.12946
 Alpha  occ. eigenvalues --   -0.17953  -0.13285  -0.12064  -0.10626
 Alpha virt. eigenvalues --   -0.06347  -0.05213  -0.04614  -0.03194  -0.02893
 Alpha virt. eigenvalues --   -0.02218  -0.02097  -0.01281  -0.00759  -0.00166
 Alpha virt. eigenvalues --   -0.00011   0.00260   0.00601   0.00718   0.00748

  Beta  occ. eigenvalues --  -38.44671 -38.44291 -38.44063 -38.43579 -38.43524
  Beta  occ. eigenvalues --  -38.43429 -38.43366  -2.20476  -2.20126  -2.19870
  Beta  occ. eigenvalues --   -2.19340  -2.19336  -2.19263  -2.19257  -1.14150
  Beta  occ. eigenvalues --   -1.14133  -1.14103  -1.13891  -1.13779  -1.13707
  Beta  occ. eigenvalues --   -1.13555  -1.13529  -1.13496  -1.13055  -1.13023
  Beta  occ. eigenvalues --   -1.13020  -1.13016  -1.12993  -1.12985  -1.12974
  Beta  occ. eigenvalues --   -1.12953  -1.12932  -1.12912  -1.12902  -1.12889
  Beta  occ. eigenvalues --   -0.17370  -0.13049  -0.11749
  Beta virt. eigenvalues --   -0.06946  -0.06153  -0.05042  -0.04328  -0.02762
  Beta virt. eigenvalues --   -0.02383  -0.02059  -0.01421  -0.01043  -0.00493
  Beta virt. eigenvalues --   -0.00119   0.00108   0.00321   0.00659   0.00783

 Mulliken charges and spin densities:
               1          2
     1  Na  -0.145254   0.300399
     2  Na  -0.366867   0.221830
     3  Na   0.389589   0.016818
     4  Na   0.521941  -0.015027
     5  Na  -0.176396   0.099659
     6  Na  -0.070567   0.104063
     7  Na  -0.152446   0.272259
 Sum of Mulliken charges =  -0.00000   1.00000

 Dipole moment (field-independent basis, Debye):
    X=             -0.6509    Y=             -0.4304    Z=             -0.1460  Tot=              0.7938
 Quadrupole moment (field-independent basis, Debye-Ang):
   XX=            -53.7873   YY=            -65.9021   ZZ=            -73.1854
   XY=             -0.7590   XZ=              0.7581   YZ=             -1.9930

 Normal termination of Gaussian 16 at Thu Dec  7 16:12:40 2023.
