 Gaussian 16, Revision B.01,
 Gaussian 16:  ES64L-G16RevB.01 20-Dec-2017

 -------------------------
 #P B3LYP/6-311+g(d) force
 -------------------------

 -----
 DPGEN
 -----
 Symbolic Z-matrix:
 Charge =  0 Multiplicity = 2

                         Standard orientation:
 ---------------------------------------------------------------------
 Center     Atomic      Atomic             Coordinates (Angstroms)
 Number     Number       Type             X           Y           Z
 ---------------------------------------------------------------------
      1         11           0       -2.781280    1.836713   -0.279494
      2         11           0        0.299612   -2.814379    0.215778
      3         11           0        0.121435   -0.262918   -1.636468
      4         11           0        1.519635    2.599903    0.181095
      5         11           0       -2.758950   -1.087003    0.006971
      6         11           0        0.388737    0.032591    2.039056
      7         11           0        3.210810   -0.304906   -0.526938
 ---------------------------------------------------------------------

 SCF Done:  E(UB3LYP) =  -1136.13234696     A.U. after   19 cycles

 The electronic state is 2-A.
 Alpha  occ. eigenvalues --  -38.44523 -38.43873 -38.43840 -38.43654 -38.43554
 Alpha  occ. eigenvalues --  -38.43546 -38.42845  -2.20362  -2.19742  -2.19700
 Alpha  occ. eigenvalues --   -2.19554  -2.19510  -2.19384  -2.18732  -1.14051
 Alpha  occ. eigenvalues --   -1.14009  -1.13990  -1.13582  -1.13411  -1.13386
 Alpha  occ. eigenvalues --   -1.13345  -1.13319  -1.13265  -1.13232  -1.13197
 Alpha  occ. eigenvalues --   -1.13187  -1.13178  -1.13153  -1.13136  -1.13051
 Alpha  occ. eigenvalues --   -1.13043  -1.13017  -1.12416  -1.12395  -1.12356
 Alpha  occ. eigenvalues --   -0.18625  -0.13501  -0.12064  -0.10883
 Alpha virt. eigenvalues --   -0.05976  -0.05134  -0.04407  -0.03400  -0.02807
 Alpha virt. eigenvalues --   -0.02589  -0.01835  -0.00997  -0.00477  -0.00224
 Alpha virt. eigenvalues --   -0.00031   0.00329   0.00783   0.00849   0.00901

  Beta  occ. eigenvalues --  -38.44503 -38.43873 -38.43836 -38.43556 -38.43547
  Beta  occ. eigenvalues --  -38.43490 -38.42838  -2.20329  -2.19740  -2.19701
  Beta  occ. eigenvalues --   -2.19409  -2.19375  -2.19374  -2.18722  -1.14015
  Beta  occ. eigenvalues --   -1.13979  -1.13970  -1.13584  -1.13404  -1.13371
  Beta  occ. eigenvalues --   -1.13337  -1.13318  -1.13265  -1.13144  -1.13109
  Beta  occ. eigenvalues --   -1.13084  -1.13072  -1.13059  -1.13053  -1.13029
  Beta  occ. eigenvalues --   -1.13014  -1.13000  -1.12413  -1.12366  -1.12344
  Beta  occ. eigenvalues --   -0.17915  -0.13249  -0.11827
  Beta virt. eigenvalues --   -0.06977  -0.05863  -0.05118  -0.04378  -0.02665
  Beta virt. eigenvalues --   -0.02032  -0.01741  -0.01541  -0.00931  -0.00498
  Beta virt. eigenvalues --   -0.00250   0.00109   0.00372   0.00838   0.00877

 Mulliken charges and spin densities:
               1          2
     1  Na  -0.066021  -0.051908
     2  Na   0.235304   0.004365
     3  Na  -0.219507   0.417973
     4  Na  -0.044944  -0.044845
     5  Na   0.175840   0.015324
     6  Na  -0.341452   0.634455
     7  Na   0.260780   0.024634
 Sum of Mulliken charges =  -0.00000   1.00000

 Dipole moment (field-independent basis, Debye):
    X=              0.4389    Y=              0.0802    Z=              0.0433  Tot=              0.4483
 Quadrupole moment (field-independent basis, Debye-Ang):
   XX=            -56.4280   YY=            -64.5119   ZZ=            -73.8052
   XY=             -0.6082   XZ=             -0.8624   YZ=             -0.8337

 Normal termination of Gaussian 16 at Thu Dec  7 02:11:36 2023.
