 Gaussian 16, Revision B.01,
 Gaussian 16:  ES64L-G16RevB.01 20-Dec-2017

 -------------------------
 #P B3LYP/6-311+g(d) force
 -------------------------

 -----
 DPGEN
 -----
 Symbolic Z-matrix:
 Charge =  0 Multiplicity = 2

                         Standard orientation:
 ---------------------------------------------------------------------
 Center     Atomic      Atomic             Coordinates (Angstroms)
 Number     Number       Type             X           Y           Z
 ---------------------------------------------------------------------
      1         11           0        2.833323    1.792013    0.215613
      2         11           0       -2.157203    2.143222   -0.044400
      3         11           0       -3.403325   -0.750383    0.107262
      4         11           0        0.328488   -0.095292    2.108686
      5         11           0        0.426550    0.763694   -1.724237
      6         11           0        2.707246   -1.782134   -0.228374
      7         11           0       -0.735080   -2.071118   -0.434549
 ---------------------------------------------------------------------

 SCF Done:  E(UB3LYP) =  -1136.12520256     A.U. after   22 cycles

 The electronic state is 2-A.
 Alpha  occ. eigenvalues --  -38.44885 -38.44340 -38.44338 -38.44096 -38.43822
 Alpha  occ. eigenvalues --  -38.43486 -38.42660  -2.20741  -2.20160  -2.20154
 Alpha  occ. eigenvalues --   -2.19956  -2.19655  -2.19409  -2.18593  -1.14441
 Alpha  occ. eigenvalues --   -1.14397  -1.14378  -1.13841  -1.13830  -1.13821
 Alpha  occ. eigenvalues --   -1.13816  -1.13809  -1.13779  -1.13630  -1.13580
 Alpha  occ. eigenvalues --   -1.13569  -1.13333  -1.13314  -1.13303  -1.13092
 Alpha  occ. eigenvalues --   -1.13051  -1.13021  -1.12279  -1.12253  -1.12235
 Alpha  occ. eigenvalues --   -0.18580  -0.13851  -0.11532  -0.10883
 Alpha virt. eigenvalues --   -0.06556  -0.05881  -0.03712  -0.03410  -0.02817
 Alpha virt. eigenvalues --   -0.02499  -0.02165  -0.01462  -0.00497  -0.00128
 Alpha virt. eigenvalues --    0.00086   0.00248   0.00604   0.00626   0.00740

  Beta  occ. eigenvalues --  -38.44887 -38.44335 -38.44333 -38.44002 -38.43820
  Beta  occ. eigenvalues --  -38.43422 -38.42644  -2.20747  -2.20154  -2.20148
  Beta  occ. eigenvalues --   -2.19783  -2.19654  -2.19291  -2.18569  -1.14447
  Beta  occ. eigenvalues --   -1.14403  -1.14370  -1.13835  -1.13816  -1.13813
  Beta  occ. eigenvalues --   -1.13801  -1.13791  -1.13778  -1.13514  -1.13458
  Beta  occ. eigenvalues --   -1.13446  -1.13327  -1.13312  -1.13294  -1.13014
  Beta  occ. eigenvalues --   -1.12965  -1.12934  -1.12267  -1.12226  -1.12197
  Beta  occ. eigenvalues --   -0.17840  -0.13676  -0.11314
  Beta virt. eigenvalues --   -0.06949  -0.06408  -0.05899  -0.03433  -0.02919
  Beta virt. eigenvalues --   -0.02144  -0.01910  -0.01555  -0.01352  -0.00557
  Beta virt. eigenvalues --    0.00058   0.00073   0.00273   0.00693   0.00724

 Mulliken charges and spin densities:
               1          2
     1  Na   0.107968  -0.021966
     2  Na   0.280423   0.083113
     3  Na  -0.088721  -0.070453
     4  Na  -0.458223   0.592229
     5  Na  -0.085159   0.182584
     6  Na   0.173340   0.025916
     7  Na   0.070372   0.208578
 Sum of Mulliken charges =  -0.00000   1.00000

 Dipole moment (field-independent basis, Debye):
    X=              0.2450    Y=              0.0847    Z=              0.2768  Tot=              0.3792
 Quadrupole moment (field-independent basis, Debye-Ang):
   XX=            -48.4915   YY=            -71.5460   ZZ=            -73.6800
   XY=             -0.2275   XZ=             -0.4723   YZ=              1.5442

 Normal termination of Gaussian 16 at Wed Nov 29 16:08:32 2023.
