 Gaussian 16, Revision B.01,
 Gaussian 16:  ES64L-G16RevB.01 20-Dec-2017

 -------------------------
 #P B3LYP/6-311+g(d) force
 -------------------------

 -----
 DPGEN
 -----
 Symbolic Z-matrix:
 Charge =  0 Multiplicity = 2

                         Standard orientation:
 ---------------------------------------------------------------------
 Center     Atomic      Atomic             Coordinates (Angstroms)
 Number     Number       Type             X           Y           Z
 ---------------------------------------------------------------------
      1         11           0       -0.412924    0.422765   -1.779100
      2         11           0        2.813168   -1.438579   -0.209114
      3         11           0        2.311551    2.023042   -0.063195
      4         11           0       -1.623213    2.418904    0.255507
      5         11           0       -3.207081   -1.010127   -0.006002
      6         11           0       -0.100066   -2.385397   -0.004332
      7         11           0        0.218564   -0.030607    1.806235
 ---------------------------------------------------------------------

 SCF Done:  E(UB3LYP) =  -1136.13272885     A.U. after   19 cycles

 The electronic state is 2-A.
 Alpha  occ. eigenvalues --  -38.44394 -38.43921 -38.43905 -38.43711 -38.43313
 Alpha  occ. eigenvalues --  -38.43293 -38.42846  -2.20202  -2.19770  -2.19743
 Alpha  occ. eigenvalues --   -2.19569  -2.19273  -2.19268  -2.18820  -1.13872
 Alpha  occ. eigenvalues --   -1.13864  -1.13843  -1.13474  -1.13439  -1.13423
 Alpha  occ. eigenvalues --   -1.13416  -1.13394  -1.13363  -1.13301  -1.13243
 Alpha  occ. eigenvalues --   -1.13173  -1.13017  -1.12948  -1.12910  -1.12902
 Alpha  occ. eigenvalues --   -1.12867  -1.12864  -1.12506  -1.12471  -1.12428
 Alpha  occ. eigenvalues --   -0.18946  -0.13223  -0.12364  -0.10646
 Alpha virt. eigenvalues --   -0.05938  -0.05438  -0.04114  -0.03223  -0.02805
 Alpha virt. eigenvalues --   -0.02355  -0.01854  -0.01208  -0.00348  -0.00028
 Alpha virt. eigenvalues --    0.00015   0.00330   0.00750   0.00840   0.00952

  Beta  occ. eigenvalues --  -38.44394 -38.43917 -38.43901 -38.43703 -38.43241
  Beta  occ. eigenvalues --  -38.43209 -38.42833  -2.20205  -2.19766  -2.19738
  Beta  occ. eigenvalues --   -2.19557  -2.19138  -2.19117  -2.18802  -1.13871
  Beta  occ. eigenvalues --   -1.13851  -1.13847  -1.13474  -1.13439  -1.13397
  Beta  occ. eigenvalues --   -1.13396  -1.13389  -1.13363  -1.13286  -1.13209
  Beta  occ. eigenvalues --   -1.13170  -1.12919  -1.12858  -1.12817  -1.12794
  Beta  occ. eigenvalues --   -1.12769  -1.12756  -1.12490  -1.12427  -1.12409
  Beta  occ. eigenvalues --   -0.18202  -0.13007  -0.12098
  Beta virt. eigenvalues --   -0.06730  -0.05908  -0.05399  -0.04116  -0.02453
  Beta virt. eigenvalues --   -0.02007  -0.01767  -0.01311  -0.01148  -0.00408
  Beta virt. eigenvalues --   -0.00026   0.00121   0.00355   0.00787   0.00850

 Mulliken charges and spin densities:
               1          2
     1  Na  -0.483956   0.689660
     2  Na  -0.012141  -0.027350
     3  Na   0.184768  -0.095239
     4  Na   0.145995  -0.175296
     5  Na   0.191195  -0.068848
     6  Na   0.377176   0.016636
     7  Na  -0.403037   0.660437
 Sum of Mulliken charges =  -0.00000   1.00000

 Dipole moment (field-independent basis, Debye):
    X=             -0.1890    Y=              0.3085    Z=             -0.0226  Tot=              0.3625
 Quadrupole moment (field-independent basis, Debye-Ang):
   XX=            -51.7217   YY=            -65.8314   ZZ=            -74.7484
   XY=              0.4654   XZ=             -1.3888   YZ=              1.0298

 Normal termination of Gaussian 16 at Fri Dec  8 01:55:32 2023.
