 Gaussian 16, Revision B.01,
 Gaussian 16:  ES64L-G16RevB.01 20-Dec-2017

 -------------------------
 #P B3LYP/6-311+g(d) force
 -------------------------

 -----
 DPGEN
 -----
 Symbolic Z-matrix:
 Charge =  0 Multiplicity = 2

                         Standard orientation:
 ---------------------------------------------------------------------
 Center     Atomic      Atomic             Coordinates (Angstroms)
 Number     Number       Type             X           Y           Z
 ---------------------------------------------------------------------
      1         11           0        3.698122   -0.889163   -0.210295
      2         11           0        1.175023    0.409007    2.353095
      3         11           0       -3.905943   -1.229126   -0.163119
      4         11           0       -1.677997    0.133103    0.214475
      5         11           0        0.186580   -2.383882   -0.292026
      6         11           0        1.355433    0.899344   -1.733742
      7         11           0       -0.831219    3.060716   -0.168387
 ---------------------------------------------------------------------

 SCF Done:  E(UB3LYP) =  -1136.11428870     A.U. after   22 cycles

 The electronic state is 2-A.
 Alpha  occ. eigenvalues --  -38.45004 -38.44791 -38.44756 -38.44279 -38.43710
 Alpha  occ. eigenvalues --  -38.43004 -38.42886  -2.20851  -2.20593  -2.20552
 Alpha  occ. eigenvalues --   -2.20108  -2.19585  -2.19081  -2.18731  -1.14717
 Alpha  occ. eigenvalues --   -1.14463  -1.14430  -1.14333  -1.14276  -1.14236
 Alpha  occ. eigenvalues --   -1.14213  -1.14186  -1.14157  -1.13774  -1.13729
 Alpha  occ. eigenvalues --   -1.13708  -1.13276  -1.13239  -1.13185  -1.12795
 Alpha  occ. eigenvalues --   -1.12730  -1.12705  -1.12399  -1.12377  -1.12358
 Alpha  occ. eigenvalues --   -0.18171  -0.13450  -0.11845  -0.11059
 Alpha virt. eigenvalues --   -0.06966  -0.04893  -0.04030  -0.03421  -0.02850
 Alpha virt. eigenvalues --   -0.02558  -0.02506  -0.01081  -0.00469  -0.00223
 Alpha virt. eigenvalues --    0.00008   0.00095   0.00456   0.00709   0.00770

  Beta  occ. eigenvalues --  -38.45009 -38.44784 -38.44749 -38.44166 -38.43653
  Beta  occ. eigenvalues --  -38.42994 -38.42887  -2.20860  -2.20583  -2.20544
  Beta  occ. eigenvalues --   -2.19899  -2.19481  -2.19066  -2.18735  -1.14723
  Beta  occ. eigenvalues --   -1.14466  -1.14436  -1.14329  -1.14246  -1.14229
  Beta  occ. eigenvalues --   -1.14190  -1.14180  -1.14154  -1.13628  -1.13591
  Beta  occ. eigenvalues --   -1.13562  -1.13204  -1.13171  -1.13105  -1.12790
  Beta  occ. eigenvalues --   -1.12728  -1.12660  -1.12403  -1.12370  -1.12357
  Beta  occ. eigenvalues --   -0.17486  -0.13247  -0.11698
  Beta virt. eigenvalues --   -0.07056  -0.06813  -0.04745  -0.03848  -0.02827
  Beta virt. eigenvalues --   -0.02536  -0.01952  -0.01835  -0.01008  -0.00242
  Beta virt. eigenvalues --   -0.00062   0.00012   0.00157   0.00658   0.00747

 Mulliken charges and spin densities:
               1          2
     1  Na   0.771451   0.158508
     2  Na  -0.056839   0.371264
     3  Na   0.307302  -0.342621
     4  Na  -1.448349   0.618066
     5  Na  -0.000076   0.050819
     6  Na  -0.387004   0.148567
     7  Na   0.813514  -0.004603
 Sum of Mulliken charges =  -0.00000   1.00000

 Dipole moment (field-independent basis, Debye):
    X=              0.5631    Y=             -0.5136    Z=              0.0115  Tot=              0.7622
 Quadrupole moment (field-independent basis, Debye-Ang):
   XX=            -51.7770   YY=            -68.2083   ZZ=            -72.7167
   XY=             -0.7493   XZ=              1.1712   YZ=              1.2620

 Normal termination of Gaussian 16 at Fri Dec  8 19:01:46 2023.
