 Gaussian 16, Revision B.01,
 Gaussian 16:  ES64L-G16RevB.01 20-Dec-2017

 -------------------------
 #P B3LYP/6-311+g(d) force
 -------------------------

 -----
 DPGEN
 -----
 Symbolic Z-matrix:
 Charge =  0 Multiplicity = 2

                         Standard orientation:
 ---------------------------------------------------------------------
 Center     Atomic      Atomic             Coordinates (Angstroms)
 Number     Number       Type             X           Y           Z
 ---------------------------------------------------------------------
      1         11           0       -3.841880   -1.623492    0.976970
      2         11           0       -1.126608   -3.128031   -0.056803
      3         11           0       -3.704627    2.012685   -0.717612
      4         11           0        1.896517   -1.739421   -0.985129
      5         11           0        4.882264   -0.569803    0.023974
      6         11           0       -0.219883    2.954887   -0.504840
      7         11           0        2.114217    2.093174    1.263439
 ---------------------------------------------------------------------

 SCF Done:  E(UB3LYP) =  -1136.10763727     A.U. after   24 cycles

 The electronic state is 2-A.
 Alpha  occ. eigenvalues --  -38.45372 -38.45040 -38.44930 -38.44441 -38.44184
 Alpha  occ. eigenvalues --  -38.43667 -38.43610  -2.21117  -2.20852  -2.20710
 Alpha  occ. eigenvalues --   -2.20206  -2.19993  -2.19483  -2.19425  -1.14802
 Alpha  occ. eigenvalues --   -1.14793  -1.14759  -1.14547  -1.14508  -1.14458
 Alpha  occ. eigenvalues --   -1.14396  -1.14385  -1.14349  -1.13872  -1.13851
 Alpha  occ. eigenvalues --   -1.13830  -1.13640  -1.13638  -1.13609  -1.13168
 Alpha  occ. eigenvalues --   -1.13144  -1.13123  -1.13080  -1.13079  -1.13067
 Alpha  occ. eigenvalues --   -0.15908  -0.13709  -0.13138  -0.10672
 Alpha virt. eigenvalues --   -0.07732  -0.04840  -0.04533  -0.03629  -0.03416
 Alpha virt. eigenvalues --   -0.02581  -0.01886  -0.01407  -0.01117  -0.00971
 Alpha virt. eigenvalues --   -0.00725  -0.00517   0.00273   0.00442   0.00502

  Beta  occ. eigenvalues --  -38.45390 -38.44989 -38.44920 -38.44384 -38.44111
  Beta  occ. eigenvalues --  -38.43658 -38.43574  -2.21151  -2.20764  -2.20697
  Beta  occ. eigenvalues --   -2.20099  -2.19856  -2.19471  -2.19357  -1.14828
  Beta  occ. eigenvalues --   -1.14816  -1.14767  -1.14474  -1.14450  -1.14394
  Beta  occ. eigenvalues --   -1.14391  -1.14374  -1.14305  -1.13799  -1.13782
  Beta  occ. eigenvalues --   -1.13757  -1.13546  -1.13542  -1.13523  -1.13146
  Beta  occ. eigenvalues --   -1.13140  -1.13100  -1.13035  -1.13030  -1.13028
  Beta  occ. eigenvalues --   -0.15388  -0.13212  -0.12464
  Beta virt. eigenvalues --   -0.07675  -0.07434  -0.04380  -0.04179  -0.03453
  Beta virt. eigenvalues --   -0.03085  -0.02332  -0.01638  -0.01142  -0.00839
  Beta virt. eigenvalues --   -0.00751  -0.00566  -0.00237   0.00351   0.00516

 Mulliken charges and spin densities:
               1          2
     1  Na   0.025177  -0.021364
     2  Na   0.016887   0.036943
     3  Na   0.109674   0.379390
     4  Na  -0.471078   0.158759
     5  Na   0.539117   0.316208
     6  Na  -0.345776  -0.044954
     7  Na   0.125999   0.175018
 Sum of Mulliken charges =  -0.00000   1.00000

 Dipole moment (field-independent basis, Debye):
    X=              0.2359    Y=             -0.0505    Z=              0.5487  Tot=              0.5994
 Quadrupole moment (field-independent basis, Debye-Ang):
   XX=            -60.9115   YY=            -73.2797   ZZ=            -67.1112
   XY=              4.7899   XZ=              0.5590   YZ=             -0.4248

 Normal termination of Gaussian 16 at Sun Dec  3 20:28:43 2023.
