 Gaussian 16, Revision B.01,
 Gaussian 16:  ES64L-G16RevB.01 20-Dec-2017

 -------------------------
 #P B3LYP/6-311+g(d) force
 -------------------------

 -----
 DPGEN
 -----
 Symbolic Z-matrix:
 Charge =  0 Multiplicity = 2

                         Standard orientation:
 ---------------------------------------------------------------------
 Center     Atomic      Atomic             Coordinates (Angstroms)
 Number     Number       Type             X           Y           Z
 ---------------------------------------------------------------------
      1         11           0        0.963919   -2.269448    0.010346
      2         11           0       -3.928056    0.920031   -0.550868
      3         11           0       -1.417187   -1.407393    2.311083
      4         11           0       -2.018210   -0.758986   -2.189353
      5         11           0       -0.647642    1.734955    1.042628
      6         11           0        2.666036    2.567373   -0.053183
      7         11           0        4.381139   -0.786533   -0.570654
 ---------------------------------------------------------------------

 SCF Done:  E(UB3LYP) =  -1136.11026330     A.U. after   24 cycles

 The electronic state is 2-A.
 Alpha  occ. eigenvalues --  -38.45491 -38.45165 -38.44641 -38.44406 -38.44188
 Alpha  occ. eigenvalues --  -38.43726 -38.43104  -2.21317  -2.20908  -2.20457
 Alpha  occ. eigenvalues --   -2.20223  -2.20008  -2.19481  -2.18888  -1.15003
 Alpha  occ. eigenvalues --   -1.14961  -1.14922  -1.14581  -1.14555  -1.14534
 Alpha  occ. eigenvalues --   -1.14147  -1.14108  -1.14089  -1.13897  -1.13884
 Alpha  occ. eigenvalues --   -1.13839  -1.13676  -1.13641  -1.13627  -1.13159
 Alpha  occ. eigenvalues --   -1.13155  -1.13110  -1.12584  -1.12569  -1.12516
 Alpha  occ. eigenvalues --   -0.17011  -0.13496  -0.11825  -0.11371
 Alpha virt. eigenvalues --   -0.07167  -0.05559  -0.04233  -0.03590  -0.03147
 Alpha virt. eigenvalues --   -0.02710  -0.02314  -0.01419  -0.00931  -0.00691
 Alpha virt. eigenvalues --   -0.00135  -0.00044   0.00016   0.00443   0.00639

  Beta  occ. eigenvalues --  -38.45421 -38.45134 -38.44642 -38.44341 -38.44131
  Beta  occ. eigenvalues --  -38.43720 -38.43112  -2.21187  -2.20851  -2.20466
  Beta  occ. eigenvalues --   -2.20104  -2.19903  -2.19472  -2.18903  -1.14914
  Beta  occ. eigenvalues --   -1.14873  -1.14832  -1.14543  -1.14514  -1.14499
  Beta  occ. eigenvalues --   -1.14134  -1.14117  -1.14089  -1.13819  -1.13791
  Beta  occ. eigenvalues --   -1.13757  -1.13596  -1.13573  -1.13562  -1.13155
  Beta  occ. eigenvalues --   -1.13144  -1.13098  -1.12593  -1.12576  -1.12520
  Beta  occ. eigenvalues --   -0.16337  -0.13051  -0.11182
  Beta virt. eigenvalues --   -0.08261  -0.06690  -0.05246  -0.03965  -0.02997
  Beta virt. eigenvalues --   -0.02807  -0.02365  -0.02118  -0.01194  -0.00675
  Beta virt. eigenvalues --   -0.00476  -0.00106   0.00112   0.00211   0.00559

 Mulliken charges and spin densities:
               1          2
     1  Na  -0.229204   0.074940
     2  Na   0.320034  -0.103139
     3  Na   0.232418   0.091713
     4  Na  -0.033313   0.340201
     5  Na  -0.388226   0.557449
     6  Na   0.029136  -0.074732
     7  Na   0.069154   0.113569
 Sum of Mulliken charges =  -0.00000   1.00000

 Dipole moment (field-independent basis, Debye):
    X=             -0.7625    Y=             -0.4102    Z=             -0.3046  Tot=              0.9179
 Quadrupole moment (field-independent basis, Debye-Ang):
   XX=            -54.4928   YY=            -75.5749   ZZ=            -67.7776
   XY=             -2.5097   XZ=             -5.0972   YZ=              2.5856

 Normal termination of Gaussian 16 at Sun Dec  3 19:32:56 2023.
