 Gaussian 16, Revision B.01,
 Gaussian 16:  ES64L-G16RevB.01 20-Dec-2017

 -------------------------
 #P B3LYP/6-311+g(d) force
 -------------------------

 -----
 DPGEN
 -----
 Symbolic Z-matrix:
 Charge =  0 Multiplicity = 2

                         Standard orientation:
 ---------------------------------------------------------------------
 Center     Atomic      Atomic             Coordinates (Angstroms)
 Number     Number       Type             X           Y           Z
 ---------------------------------------------------------------------
      1         11           0        0.492957   -1.602724    0.083276
      2         11           0        3.955242   -2.605150    0.214145
      3         11           0        3.109750    0.269666   -0.739966
      4         11           0        1.078372    3.637115    0.688687
      5         11           0       -1.132856    2.386203   -0.911190
      6         11           0       -2.735540   -0.445343    1.382144
      7         11           0       -4.767925   -1.639768   -0.717096
 ---------------------------------------------------------------------

 SCF Done:  E(UB3LYP) =  -1136.11449115     A.U. after   20 cycles

 The electronic state is 2-A.
 Alpha  occ. eigenvalues --  -38.44905 -38.44851 -38.44813 -38.43993 -38.43607
 Alpha  occ. eigenvalues --  -38.43463 -38.43357  -2.20708  -2.20686  -2.20632
 Alpha  occ. eigenvalues --   -2.19806  -2.19459  -2.19283  -2.19178  -1.14416
 Alpha  occ. eigenvalues --   -1.14391  -1.14378  -1.14368  -1.14354  -1.14336
 Alpha  occ. eigenvalues --   -1.14288  -1.14275  -1.14205  -1.13477  -1.13454
 Alpha  occ. eigenvalues --   -1.13439  -1.13148  -1.13132  -1.13037  -1.13000
 Alpha  occ. eigenvalues --   -1.12955  -1.12930  -1.12814  -1.12811  -1.12777
 Alpha  occ. eigenvalues --   -0.16642  -0.13882  -0.12766  -0.09685
 Alpha virt. eigenvalues --   -0.06406  -0.05726  -0.05201  -0.03339  -0.02880
 Alpha virt. eigenvalues --   -0.02501  -0.02064  -0.01705  -0.01007  -0.00391
 Alpha virt. eigenvalues --   -0.00270   0.00001   0.00305   0.00432   0.00465

  Beta  occ. eigenvalues --  -38.44907 -38.44834 -38.44799 -38.43985 -38.43538
  Beta  occ. eigenvalues --  -38.43464 -38.43273  -2.20712  -2.20657  -2.20606
  Beta  occ. eigenvalues --   -2.19792  -2.19331  -2.19292  -2.19022  -1.14420
  Beta  occ. eigenvalues --   -1.14372  -1.14371  -1.14344  -1.14331  -1.14329
  Beta  occ. eigenvalues --   -1.14271  -1.14245  -1.14188  -1.13469  -1.13442
  Beta  occ. eigenvalues --   -1.13430  -1.13061  -1.13045  -1.12987  -1.12968
  Beta  occ. eigenvalues --   -1.12948  -1.12897  -1.12707  -1.12702  -1.12687
  Beta  occ. eigenvalues --   -0.16150  -0.13596  -0.12291
  Beta virt. eigenvalues --   -0.06338  -0.06241  -0.05546  -0.04657  -0.03099
  Beta virt. eigenvalues --   -0.02715  -0.02312  -0.01832  -0.01368  -0.00787
  Beta virt. eigenvalues --   -0.00196   0.00049   0.00190   0.00413   0.00506

 Mulliken charges and spin densities:
               1          2
     1  Na  -1.088605   0.124743
     2  Na   1.051228   0.123325
     3  Na  -0.193109   0.235152
     4  Na   0.228841   0.046698
     5  Na  -0.107979   0.015613
     6  Na  -0.041420  -0.047577
     7  Na   0.151043   0.502046
 Sum of Mulliken charges =  -0.00000   1.00000

 Dipole moment (field-independent basis, Debye):
    X=              2.2283    Y=             -0.1565    Z=              0.0887  Tot=              2.2356
 Quadrupole moment (field-independent basis, Debye-Ang):
   XX=            -74.3935   YY=            -64.7560   ZZ=            -65.4439
   XY=             -8.5320   XZ=              3.8782   YZ=              1.1595

 Normal termination of Gaussian 16 at Wed Nov 29 02:52:08 2023.
