 Gaussian 16, Revision B.01,
 Gaussian 16:  ES64L-G16RevB.01 20-Dec-2017

 -------------------------
 #P B3LYP/6-311+g(d) force
 -------------------------

 -----
 DPGEN
 -----
 Symbolic Z-matrix:
 Charge =  0 Multiplicity = 2

                         Standard orientation:
 ---------------------------------------------------------------------
 Center     Atomic      Atomic             Coordinates (Angstroms)
 Number     Number       Type             X           Y           Z
 ---------------------------------------------------------------------
      1         11           0        3.021360   -1.076658   -0.085719
      2         11           0       -0.501661   -2.847380   -0.230038
      3         11           0       -0.081549   -0.482206    2.083103
      4         11           0       -3.287467   -0.131788   -0.199347
      5         11           0        2.108197    2.125353   -0.094611
      6         11           0       -1.253786    2.495724    0.120074
      7         11           0       -0.005095   -0.083044   -1.593461
 ---------------------------------------------------------------------

 SCF Done:  E(UB3LYP) =  -1136.13700449     A.U. after   19 cycles

 The electronic state is 2-A.
 Alpha  occ. eigenvalues --  -38.44398 -38.44267 -38.43533 -38.43416 -38.43404
 Alpha  occ. eigenvalues --  -38.43139 -38.43129  -2.20211  -2.20086  -2.19415
 Alpha  occ. eigenvalues --   -2.19278  -2.19263  -2.19125  -2.19015  -1.13882
 Alpha  occ. eigenvalues --   -1.13877  -1.13847  -1.13759  -1.13756  -1.13720
 Alpha  occ. eigenvalues --   -1.13093  -1.13056  -1.13028  -1.13019  -1.12952
 Alpha  occ. eigenvalues --   -1.12931  -1.12921  -1.12914  -1.12885  -1.12811
 Alpha  occ. eigenvalues --   -1.12765  -1.12733  -1.12678  -1.12672  -1.12649
 Alpha  occ. eigenvalues --   -0.18658  -0.13075  -0.12438  -0.10671
 Alpha virt. eigenvalues --   -0.06033  -0.04981  -0.04580  -0.03105  -0.02897
 Alpha virt. eigenvalues --   -0.02524  -0.01819  -0.01030  -0.00456  -0.00226
 Alpha virt. eigenvalues --   -0.00023   0.00343   0.00805   0.00841   0.00925

  Beta  occ. eigenvalues --  -38.44395 -38.44264 -38.43435 -38.43407 -38.43401
  Beta  occ. eigenvalues --  -38.43133 -38.43067  -2.20208  -2.20083  -2.19267
  Beta  occ. eigenvalues --   -2.19262  -2.19233  -2.19014  -2.19009  -1.13879
  Beta  occ. eigenvalues --   -1.13858  -1.13848  -1.13758  -1.13736  -1.13720
  Beta  occ. eigenvalues --   -1.13018  -1.12965  -1.12947  -1.12936  -1.12917
  Beta  occ. eigenvalues --   -1.12903  -1.12900  -1.12882  -1.12874  -1.12746
  Beta  occ. eigenvalues --   -1.12706  -1.12661  -1.12651  -1.12647  -1.12632
  Beta  occ. eigenvalues --   -0.17937  -0.12865  -0.12192
  Beta virt. eigenvalues --   -0.06736  -0.06009  -0.04982  -0.04532  -0.02360
  Beta virt. eigenvalues --   -0.02093  -0.01730  -0.01441  -0.00971  -0.00520
  Beta virt. eigenvalues --   -0.00262   0.00130   0.00372   0.00831   0.00858

 Mulliken charges and spin densities:
               1          2
     1  Na   0.259897  -0.047400
     2  Na   0.244210  -0.126328
     3  Na  -0.596860   0.770294
     4  Na   0.228369  -0.038321
     5  Na   0.079396  -0.006125
     6  Na   0.124182   0.018910
     7  Na  -0.339194   0.428971
 Sum of Mulliken charges =  -0.00000   1.00000

 Dipole moment (field-independent basis, Debye):
    X=             -0.0649    Y=             -0.3083    Z=              0.1216  Tot=              0.3377
 Quadrupole moment (field-independent basis, Debye-Ang):
   XX=            -53.8950   YY=            -64.2065   ZZ=            -74.9018
   XY=             -0.1089   XZ=              0.2796   YZ=              0.8408

 Normal termination of Gaussian 16 at Thu Dec  7 22:51:42 2023.
