 Gaussian 16, Revision B.01,
 Gaussian 16:  ES64L-G16RevB.01 20-Dec-2017

 -------------------------
 #P B3LYP/6-311+g(d) force
 -------------------------

 -----
 DPGEN
 -----
 Symbolic Z-matrix:
 Charge =  0 Multiplicity = 2

                         Standard orientation:
 ---------------------------------------------------------------------
 Center     Atomic      Atomic             Coordinates (Angstroms)
 Number     Number       Type             X           Y           Z
 ---------------------------------------------------------------------
      1         11           0        0.851834   -1.480097    1.087968
      2         11           0        0.039161    2.721326   -0.599593
      3         11           0        3.893748    1.690629   -0.400515
      4         11           0       -1.659375   -2.958849   -0.853360
      5         11           0       -4.261885   -0.925207   -0.154019
      6         11           0       -3.633544    2.239951    0.690465
      7         11           0        4.770061   -1.287753    0.229053
 ---------------------------------------------------------------------

 SCF Done:  E(UB3LYP) =  -1136.10846154     A.U. after   23 cycles

 The electronic state is 2-A.
 Alpha  occ. eigenvalues --  -38.45468 -38.45275 -38.44494 -38.44439 -38.44033
 Alpha  occ. eigenvalues --  -38.44002 -38.43828  -2.21219  -2.21057  -2.20311
 Alpha  occ. eigenvalues --   -2.20248  -2.19792  -2.19767  -2.19612  -1.14897
 Alpha  occ. eigenvalues --   -1.14888  -1.14819  -1.14737  -1.14726  -1.14700
 Alpha  occ. eigenvalues --   -1.13964  -1.13955  -1.13933  -1.13918  -1.13904
 Alpha  occ. eigenvalues --   -1.13879  -1.13461  -1.13452  -1.13447  -1.13438
 Alpha  occ. eigenvalues --   -1.13411  -1.13391  -1.13285  -1.13278  -1.13266
 Alpha  occ. eigenvalues --   -0.15917  -0.14194  -0.12147  -0.10980
 Alpha virt. eigenvalues --   -0.07391  -0.05240  -0.04328  -0.03643  -0.03367
 Alpha virt. eigenvalues --   -0.02813  -0.02214  -0.01401  -0.00795  -0.00649
 Alpha virt. eigenvalues --   -0.00564  -0.00464   0.00001   0.00459   0.00565

  Beta  occ. eigenvalues --  -38.45422 -38.45257 -38.44434 -38.44396 -38.44008
  Beta  occ. eigenvalues --  -38.43968 -38.43840  -2.21135  -2.21030  -2.20202
  Beta  occ. eigenvalues --   -2.20168  -2.19782  -2.19671  -2.19637  -1.14839
  Beta  occ. eigenvalues --   -1.14826  -1.14759  -1.14724  -1.14706  -1.14643
  Beta  occ. eigenvalues --   -1.13886  -1.13879  -1.13864  -1.13862  -1.13852
  Beta  occ. eigenvalues --   -1.13827  -1.13461  -1.13446  -1.13402  -1.13379
  Beta  occ. eigenvalues --   -1.13368  -1.13316  -1.13303  -1.13298  -1.13266
  Beta  occ. eigenvalues --   -0.15284  -0.13633  -0.11761
  Beta virt. eigenvalues --   -0.07630  -0.07309  -0.04826  -0.03941  -0.03374
  Beta virt. eigenvalues --   -0.02936  -0.02611  -0.02062  -0.01173  -0.00591
  Beta virt. eigenvalues --   -0.00550  -0.00313  -0.00224   0.00203   0.00529

 Mulliken charges and spin densities:
               1          2
     1  Na  -0.612334   0.215845
     2  Na  -0.128914   0.226531
     3  Na   0.023527   0.109433
     4  Na   0.444900  -0.043365
     5  Na  -0.310438   0.222373
     6  Na   0.407515   0.026164
     7  Na   0.175744   0.243019
 Sum of Mulliken charges =  -0.00000   1.00000

 Dipole moment (field-independent basis, Debye):
    X=              1.0961    Y=             -0.6079    Z=              0.0671  Tot=              1.2552
 Quadrupole moment (field-independent basis, Debye-Ang):
   XX=            -63.3629   YY=            -68.0181   ZZ=            -69.5202
   XY=              1.8433   XZ=             -0.0869   YZ=              0.8655

 Normal termination of Gaussian 16 at Mon Dec  4 00:14:31 2023.
