 Gaussian 16, Revision B.01,
 Gaussian 16:  ES64L-G16RevB.01 20-Dec-2017

 -------------------------
 #P B3LYP/6-311+g(d) force
 -------------------------

 -----
 DPGEN
 -----
 Symbolic Z-matrix:
 Charge =  0 Multiplicity = 2

                         Standard orientation:
 ---------------------------------------------------------------------
 Center     Atomic      Atomic             Coordinates (Angstroms)
 Number     Number       Type             X           Y           Z
 ---------------------------------------------------------------------
      1         11           0        2.646268   -1.633442   -0.160333
      2         11           0       -0.094217    0.058335    1.796124
      3         11           0       -0.729514   -2.382071    0.060847
      4         11           0       -3.141616   -0.219241    0.118528
      5         11           0       -0.938768    2.432182   -0.331836
      6         11           0       -0.045884   -0.070861   -1.751751
      7         11           0        2.303731    1.815098    0.268421
 ---------------------------------------------------------------------

 SCF Done:  E(UB3LYP) =  -1136.13462503     A.U. after   20 cycles

 The electronic state is 2-A.
 Alpha  occ. eigenvalues --  -38.44011 -38.43700 -38.43547 -38.43345 -38.43316
 Alpha  occ. eigenvalues --  -38.43043 -38.43017  -2.19884  -2.19543  -2.19421
 Alpha  occ. eigenvalues --   -2.19358  -2.19355  -2.19020  -2.18959  -1.13557
 Alpha  occ. eigenvalues --   -1.13546  -1.13532  -1.13220  -1.13205  -1.13197
 Alpha  occ. eigenvalues --   -1.13127  -1.13107  -1.13093  -1.13062  -1.13053
 Alpha  occ. eigenvalues --   -1.13040  -1.13000  -1.12949  -1.12938  -1.12694
 Alpha  occ. eigenvalues --   -1.12678  -1.12639  -1.12611  -1.12603  -1.12559
 Alpha  occ. eigenvalues --   -0.19475  -0.13253  -0.12550  -0.10993
 Alpha virt. eigenvalues --   -0.05623  -0.04996  -0.04214  -0.03215  -0.02906
 Alpha virt. eigenvalues --   -0.02513  -0.01668  -0.00954  -0.00063   0.00070
 Alpha virt. eigenvalues --    0.00085   0.00344   0.00822   0.00942   0.00961

  Beta  occ. eigenvalues --  -38.44007 -38.43698 -38.43540 -38.43263 -38.43232
  Beta  occ. eigenvalues --  -38.43030 -38.43004  -2.19880  -2.19542  -2.19412
  Beta  occ. eigenvalues --   -2.19208  -2.19205  -2.19003  -2.18940  -1.13557
  Beta  occ. eigenvalues --   -1.13538  -1.13509  -1.13215  -1.13200  -1.13187
  Beta  occ. eigenvalues --   -1.13105  -1.13059  -1.13052  -1.13020  -1.12971
  Beta  occ. eigenvalues --   -1.12942  -1.12901  -1.12843  -1.12831  -1.12673
  Beta  occ. eigenvalues --   -1.12624  -1.12616  -1.12591  -1.12564  -1.12548
  Beta  occ. eigenvalues --   -0.18721  -0.12993  -0.12249
  Beta virt. eigenvalues --   -0.07014  -0.05599  -0.04990  -0.04225  -0.02413
  Beta virt. eigenvalues --   -0.02065  -0.01589  -0.01428  -0.00898  -0.00036
  Beta virt. eigenvalues --    0.00030   0.00133   0.00362   0.00870   0.00928

 Mulliken charges and spin densities:
               1          2
     1  Na   0.039890  -0.096547
     2  Na  -0.519475   0.678962
     3  Na   0.346619  -0.066222
     4  Na   0.215297  -0.059375
     5  Na   0.307639  -0.041506
     6  Na  -0.487321   0.640272
     7  Na   0.097351  -0.055584
 Sum of Mulliken charges =  -0.00000   1.00000

 Dipole moment (field-independent basis, Debye):
    X=              0.0222    Y=              0.0099    Z=              0.0798  Tot=              0.0834
 Quadrupole moment (field-independent basis, Debye-Ang):
   XX=            -53.6486   YY=            -66.0272   ZZ=            -73.3914
   XY=             -0.3029   XZ=             -0.0208   YZ=             -0.0052

 Normal termination of Gaussian 16 at Thu Dec  7 20:16:38 2023.
