 Gaussian 16, Revision B.01,
 Gaussian 16:  ES64L-G16RevB.01 20-Dec-2017

 -------------------------
 #P B3LYP/6-311+g(d) force
 -------------------------

 -----
 DPGEN
 -----
 Symbolic Z-matrix:
 Charge =  0 Multiplicity = 2

                         Standard orientation:
 ---------------------------------------------------------------------
 Center     Atomic      Atomic             Coordinates (Angstroms)
 Number     Number       Type             X           Y           Z
 ---------------------------------------------------------------------
      1         11           0       -0.853537    2.419570    0.221571
      2         11           0        1.658820    0.509299    1.750163
      3         11           0        1.497313   -2.416259    0.004979
      4         11           0       -0.310065   -0.040474   -1.563676
      5         11           0       -1.075071   -0.528681    1.819317
      6         11           0        2.817705    0.681920   -1.463283
      7         11           0       -3.735165   -0.625376   -0.769071
 ---------------------------------------------------------------------

 SCF Done:  E(UB3LYP) =  -1136.12340469     A.U. after   37 cycles

 The electronic state is 2-A.
 Alpha  occ. eigenvalues --  -38.44389 -38.44293 -38.44176 -38.44098 -38.43381
 Alpha  occ. eigenvalues --  -38.42960 -38.42736  -2.20252  -2.20147  -2.20062
 Alpha  occ. eigenvalues --   -2.19865  -2.19345  -2.18941  -2.18698  -1.13934
 Alpha  occ. eigenvalues --   -1.13898  -1.13860  -1.13833  -1.13801  -1.13792
 Alpha  occ. eigenvalues --   -1.13752  -1.13689  -1.13653  -1.13544  -1.13528
 Alpha  occ. eigenvalues --   -1.13497  -1.13099  -1.12973  -1.12969  -1.12656
 Alpha  occ. eigenvalues --   -1.12625  -1.12528  -1.12403  -1.12343  -1.12298
 Alpha  occ. eigenvalues --   -0.19069  -0.13129  -0.12336  -0.11073
 Alpha virt. eigenvalues --   -0.06197  -0.04783  -0.04214  -0.03370  -0.02965
 Alpha virt. eigenvalues --   -0.02634  -0.01932  -0.00909  -0.00639   0.00134
 Alpha virt. eigenvalues --    0.00261   0.00278   0.00464   0.00787   0.00862

  Beta  occ. eigenvalues --  -38.44332 -38.44261 -38.44127 -38.44105 -38.43343
  Beta  occ. eigenvalues --  -38.42929 -38.42721  -2.20149  -2.20088  -2.19972
  Beta  occ. eigenvalues --   -2.19878  -2.19277  -2.18891  -2.18677  -1.13862
  Beta  occ. eigenvalues --   -1.13825  -1.13788  -1.13778  -1.13761  -1.13725
  Beta  occ. eigenvalues --   -1.13707  -1.13623  -1.13592  -1.13550  -1.13536
  Beta  occ. eigenvalues --   -1.13506  -1.13056  -1.12924  -1.12904  -1.12602
  Beta  occ. eigenvalues --   -1.12575  -1.12494  -1.12373  -1.12317  -1.12277
  Beta  occ. eigenvalues --   -0.18164  -0.12993  -0.10918
  Beta virt. eigenvalues --   -0.08192  -0.05969  -0.04183  -0.04071  -0.02871
  Beta virt. eigenvalues --   -0.02387  -0.02125  -0.01749  -0.00621  -0.00468
  Beta virt. eigenvalues --    0.00212   0.00301   0.00398   0.00493   0.00858

 Mulliken charges and spin densities:
               1          2
     1  Na  -0.264856   0.301968
     2  Na   0.518075  -0.060255
     3  Na  -0.340827   0.205145
     4  Na  -0.391292   0.267320
     5  Na  -0.027771   0.242433
     6  Na   0.392065   0.124692
     7  Na   0.114606  -0.081304
 Sum of Mulliken charges =  -0.00000   1.00000

 Dipole moment (field-independent basis, Debye):
    X=              0.0925    Y=              0.1133    Z=              0.0454  Tot=              0.1532
 Quadrupole moment (field-independent basis, Debye-Ang):
   XX=            -55.0705   YY=            -63.1207   ZZ=            -75.5648
   XY=              0.7621   XZ=             -1.2275   YZ=             -6.4588

 Normal termination of Gaussian 16 at Tue Dec  5 13:28:49 2023.
