 Gaussian 16, Revision B.01,
 Gaussian 16:  ES64L-G16RevB.01 20-Dec-2017

 -------------------------
 #P B3LYP/6-311+g(d) force
 -------------------------

 -----
 DPGEN
 -----
 Symbolic Z-matrix:
 Charge =  0 Multiplicity = 2

                         Standard orientation:
 ---------------------------------------------------------------------
 Center     Atomic      Atomic             Coordinates (Angstroms)
 Number     Number       Type             X           Y           Z
 ---------------------------------------------------------------------
      1         11           0        2.149311   -1.654227   -1.283611
      2         11           0       -1.548662   -1.363442   -1.106688
      3         11           0        0.355154    1.810637   -1.031708
      4         11           0       -2.474691   -0.435509    1.982471
      5         11           0       -3.724168    1.151966   -0.547071
      6         11           0        1.329475   -0.810082    1.352390
      7         11           0        3.913581    1.300657    0.634217
 ---------------------------------------------------------------------

 SCF Done:  E(UB3LYP) =  -1136.11560684     A.U. after   30 cycles

 The electronic state is 2-A.
 Alpha  occ. eigenvalues --  -38.44931 -38.44528 -38.44419 -38.44150 -38.43931
 Alpha  occ. eigenvalues --  -38.43703 -38.43533  -2.20703  -2.20390  -2.20252
 Alpha  occ. eigenvalues --   -2.20017  -2.19860  -2.19504  -2.19421  -1.14412
 Alpha  occ. eigenvalues --   -1.14377  -1.14296  -1.14055  -1.14044  -1.14031
 Alpha  occ. eigenvalues --   -1.13925  -1.13887  -1.13879  -1.13869  -1.13670
 Alpha  occ. eigenvalues --   -1.13612  -1.13540  -1.13475  -1.13433  -1.13177
 Alpha  occ. eigenvalues --   -1.13161  -1.13124  -1.13114  -1.13103  -1.13024
 Alpha  occ. eigenvalues --   -0.18200  -0.14529  -0.11262  -0.10655
 Alpha virt. eigenvalues --   -0.06983  -0.05362  -0.05225  -0.03184  -0.02694
 Alpha virt. eigenvalues --   -0.02327  -0.02208  -0.01409  -0.01067  -0.00225
 Alpha virt. eigenvalues --    0.00047   0.00102   0.00282   0.00372   0.00547

  Beta  occ. eigenvalues --  -38.44907 -38.44459 -38.44403 -38.44152 -38.43902
  Beta  occ. eigenvalues --  -38.43682 -38.43510  -2.20662  -2.20261  -2.20224
  Beta  occ. eigenvalues --   -2.20022  -2.19807  -2.19464  -2.19383  -1.14387
  Beta  occ. eigenvalues --   -1.14339  -1.14265  -1.13985  -1.13958  -1.13938
  Beta  occ. eigenvalues --   -1.13904  -1.13864  -1.13858  -1.13838  -1.13663
  Beta  occ. eigenvalues --   -1.13610  -1.13510  -1.13440  -1.13388  -1.13145
  Beta  occ. eigenvalues --   -1.13133  -1.13101  -1.13092  -1.13044  -1.12999
  Beta  occ. eigenvalues --   -0.17526  -0.14248  -0.10512
  Beta virt. eigenvalues --   -0.07515  -0.06669  -0.05248  -0.04509  -0.02867
  Beta virt. eigenvalues --   -0.02585  -0.01934  -0.01619  -0.01242  -0.00578
  Beta virt. eigenvalues --   -0.00080   0.00086   0.00261   0.00351   0.00508

 Mulliken charges and spin densities:
               1          2
     1  Na   0.409282   0.142062
     2  Na  -0.259842   0.348341
     3  Na  -0.563544   0.028872
     4  Na   0.054930   0.277796
     5  Na   0.444302   0.088008
     6  Na  -0.468794   0.024903
     7  Na   0.383666   0.090018
 Sum of Mulliken charges =  -0.00000   1.00000

 Dipole moment (field-independent basis, Debye):
    X=             -0.4542    Y=             -0.1480    Z=             -0.3892  Tot=              0.6162
 Quadrupole moment (field-independent basis, Debye-Ang):
   XX=            -53.6599   YY=            -76.9713   ZZ=            -67.6356
   XY=             -3.0276   XZ=             -1.2476   YZ=              0.4609

 Normal termination of Gaussian 16 at Thu Dec  7 16:11:15 2023.
