 Gaussian 16, Revision B.01,
 Gaussian 16:  ES64L-G16RevB.01 20-Dec-2017

 -------------------------
 #P B3LYP/6-311+g(d) force
 -------------------------

 -----
 DPGEN
 -----
 Symbolic Z-matrix:
 Charge =  0 Multiplicity = 2

                         Standard orientation:
 ---------------------------------------------------------------------
 Center     Atomic      Atomic             Coordinates (Angstroms)
 Number     Number       Type             X           Y           Z
 ---------------------------------------------------------------------
      1         11           0       -3.522677    0.761653    1.164829
      2         11           0        0.235776   -1.323508   -1.882718
      3         11           0        2.206915    1.524178   -0.938262
      4         11           0        3.902255   -0.852833    1.015595
      5         11           0       -2.560484   -1.862905   -0.508126
      6         11           0       -0.756663    2.140012   -0.627437
      7         11           0        0.494878   -0.386598    1.776119
 ---------------------------------------------------------------------

 SCF Done:  E(UB3LYP) =  -1136.12040634     A.U. after   27 cycles

 The electronic state is 2-A.
 Alpha  occ. eigenvalues --  -38.45225 -38.44908 -38.44867 -38.44084 -38.43837
 Alpha  occ. eigenvalues --  -38.43354 -38.42236  -2.21028  -2.20742  -2.20729
 Alpha  occ. eigenvalues --   -2.19877  -2.19693  -2.19253  -2.18119  -1.14724
 Alpha  occ. eigenvalues --   -1.14697  -1.14631  -1.14425  -1.14394  -1.14370
 Alpha  occ. eigenvalues --   -1.14368  -1.14361  -1.14344  -1.13547  -1.13539
 Alpha  occ. eigenvalues --   -1.13507  -1.13386  -1.13341  -1.13327  -1.12953
 Alpha  occ. eigenvalues --   -1.12927  -1.12870  -1.11812  -1.11778  -1.11760
 Alpha  occ. eigenvalues --   -0.18215  -0.13957  -0.11969  -0.11052
 Alpha virt. eigenvalues --   -0.06863  -0.05002  -0.04765  -0.03443  -0.02774
 Alpha virt. eigenvalues --   -0.02712  -0.02444  -0.01013  -0.00947  -0.00107
 Alpha virt. eigenvalues --    0.00052   0.00239   0.00361   0.00417   0.00703

  Beta  occ. eigenvalues --  -38.45200 -38.44864 -38.44761 -38.44070 -38.43812
  Beta  occ. eigenvalues --  -38.43350 -38.42238  -2.20982  -2.20646  -2.20549
  Beta  occ. eigenvalues --   -2.19853  -2.19654  -2.19246  -2.18126  -1.14687
  Beta  occ. eigenvalues --   -1.14667  -1.14595  -1.14340  -1.14313  -1.14302
  Beta  occ. eigenvalues --   -1.14292  -1.14238  -1.14198  -1.13531  -1.13518
  Beta  occ. eigenvalues --   -1.13492  -1.13337  -1.13320  -1.13286  -1.12955
  Beta  occ. eigenvalues --   -1.12910  -1.12863  -1.11821  -1.11779  -1.11748
  Beta  occ. eigenvalues --   -0.17526  -0.13622  -0.10827
  Beta virt. eigenvalues --   -0.08101  -0.06659  -0.04764  -0.04221  -0.02974
  Beta virt. eigenvalues --   -0.02533  -0.02225  -0.01913  -0.00946  -0.00620
  Beta virt. eigenvalues --   -0.00021   0.00094   0.00305   0.00420   0.00617

 Mulliken charges and spin densities:
               1          2
     1  Na   0.790859   0.284148
     2  Na   0.079010   0.434356
     3  Na   0.264224   0.098040
     4  Na   0.267490  -0.027073
     5  Na  -0.204825  -0.007433
     6  Na  -0.539555  -0.060893
     7  Na  -0.657202   0.278854
 Sum of Mulliken charges =  -0.00000   1.00000

 Dipole moment (field-independent basis, Debye):
    X=             -0.1409    Y=             -0.1878    Z=              0.2044  Tot=              0.3113
 Quadrupole moment (field-independent basis, Debye-Ang):
   XX=            -52.2559   YY=            -76.7630   ZZ=            -68.8178
   XY=             -1.0896   XZ=             -4.5575   YZ=              4.2767

 Normal termination of Gaussian 16 at Thu Dec  7 23:39:07 2023.
