 Gaussian 16, Revision B.01,
 Gaussian 16:  ES64L-G16RevB.01 20-Dec-2017

 -------------------------
 #P B3LYP/6-311+g(d) force
 -------------------------

 -----
 DPGEN
 -----
 Symbolic Z-matrix:
 Charge =  0 Multiplicity = 2

                         Standard orientation:
 ---------------------------------------------------------------------
 Center     Atomic      Atomic             Coordinates (Angstroms)
 Number     Number       Type             X           Y           Z
 ---------------------------------------------------------------------
      1         11           0        0.123651   -2.732014   -0.059477
      2         11           0        0.413221   -0.014166    1.928502
      3         11           0        1.831481    2.259082   -0.174200
      4         11           0       -3.152027   -0.816928    0.043523
      5         11           0        2.840602   -0.759131   -0.257438
      6         11           0       -1.878865    2.260707   -0.078945
      7         11           0       -0.178063   -0.197549   -1.401965
 ---------------------------------------------------------------------

 SCF Done:  E(UB3LYP) =  -1136.13361489     A.U. after   20 cycles

 The electronic state is 2-A.
 Alpha  occ. eigenvalues --  -38.44305 -38.43864 -38.43591 -38.43333 -38.43176
 Alpha  occ. eigenvalues --  -38.43158 -38.42881  -2.20133  -2.19794  -2.19446
 Alpha  occ. eigenvalues --   -2.19222  -2.19133  -2.19091  -2.18981  -1.13809
 Alpha  occ. eigenvalues --   -1.13795  -1.13773  -1.13490  -1.13452  -1.13441
 Alpha  occ. eigenvalues --   -1.13146  -1.13108  -1.13074  -1.12963  -1.12911
 Alpha  occ. eigenvalues --   -1.12885  -1.12859  -1.12822  -1.12762  -1.12747
 Alpha  occ. eigenvalues --   -1.12707  -1.12690  -1.12637  -1.12580  -1.12553
 Alpha  occ. eigenvalues --   -0.19251  -0.13445  -0.12490  -0.10546
 Alpha virt. eigenvalues --   -0.05807  -0.05172  -0.04479  -0.03139  -0.02659
 Alpha virt. eigenvalues --   -0.02211  -0.01696  -0.01042  -0.00279  -0.00219
 Alpha virt. eigenvalues --    0.00024   0.00348   0.00806   0.00901   0.00916

  Beta  occ. eigenvalues --  -38.44306 -38.43852 -38.43588 -38.43325 -38.43149
  Beta  occ. eigenvalues --  -38.43081 -38.42824  -2.20135  -2.19776  -2.19444
  Beta  occ. eigenvalues --   -2.19212  -2.19078  -2.18958  -2.18880  -1.13807
  Beta  occ. eigenvalues --   -1.13788  -1.13774  -1.13481  -1.13434  -1.13401
  Beta  occ. eigenvalues --   -1.13140  -1.13090  -1.13075  -1.12932  -1.12902
  Beta  occ. eigenvalues --   -1.12856  -1.12844  -1.12730  -1.12686  -1.12680
  Beta  occ. eigenvalues --   -1.12623  -1.12607  -1.12561  -1.12504  -1.12493
  Beta  occ. eigenvalues --   -0.18515  -0.13206  -0.12221
  Beta virt. eigenvalues --   -0.06583  -0.05761  -0.05171  -0.04473  -0.02367
  Beta virt. eigenvalues --   -0.01869  -0.01621  -0.01141  -0.00980  -0.00314
  Beta virt. eigenvalues --   -0.00277   0.00174   0.00382   0.00851   0.00900

 Mulliken charges and spin densities:
               1          2
     1  Na   0.389656  -0.021812
     2  Na  -0.605697   0.764179
     3  Na   0.167898  -0.009654
     4  Na   0.131814  -0.043018
     5  Na   0.524141   0.079992
     6  Na   0.110703  -0.066424
     7  Na  -0.718516   0.296736
 Sum of Mulliken charges =  -0.00000   1.00000

 Dipole moment (field-independent basis, Debye):
    X=             -0.3276    Y=              0.0073    Z=              0.2316  Tot=              0.4012
 Quadrupole moment (field-independent basis, Debye-Ang):
   XX=            -53.6900   YY=            -62.9179   ZZ=            -75.6275
   XY=              0.5061   XZ=             -1.3578   YZ=             -0.4532

 Normal termination of Gaussian 16 at Wed Dec  6 00:23:50 2023.
