 Gaussian 16, Revision B.01,
 Gaussian 16:  ES64L-G16RevB.01 20-Dec-2017

 -------------------------
 #P B3LYP/6-311+g(d) force
 -------------------------

 -----
 DPGEN
 -----
 Symbolic Z-matrix:
 Charge =  0 Multiplicity = 2

                         Standard orientation:
 ---------------------------------------------------------------------
 Center     Atomic      Atomic             Coordinates (Angstroms)
 Number     Number       Type             X           Y           Z
 ---------------------------------------------------------------------
      1         11           0       -1.727005    2.297836   -0.397516
      2         11           0        2.952672   -0.850774   -0.293553
      3         11           0        0.096423   -2.821216    0.103011
      4         11           0        1.715394    2.429658    0.170969
      5         11           0        0.194927   -0.199235   -1.590379
      6         11           0       -3.018537   -0.870102   -0.219775
      7         11           0       -0.213874    0.013834    2.227241
 ---------------------------------------------------------------------

 SCF Done:  E(UB3LYP) =  -1136.13904749     A.U. after   18 cycles

 The electronic state is 2-A.
 Alpha  occ. eigenvalues --  -38.43911 -38.43823 -38.43765 -38.43419 -38.43392
 Alpha  occ. eigenvalues --  -38.43344 -38.43190  -2.19774  -2.19650  -2.19627
 Alpha  occ. eigenvalues --   -2.19277  -2.19233  -2.19223  -2.19206  -1.13431
 Alpha  occ. eigenvalues --   -1.13400  -1.13393  -1.13350  -1.13324  -1.13311
 Alpha  occ. eigenvalues --   -1.13293  -1.13277  -1.13255  -1.12999  -1.12978
 Alpha  occ. eigenvalues --   -1.12939  -1.12923  -1.12902  -1.12900  -1.12887
 Alpha  occ. eigenvalues --   -1.12860  -1.12853  -1.12837  -1.12817  -1.12795
 Alpha  occ. eigenvalues --   -0.18722  -0.12918  -0.12523  -0.11012
 Alpha virt. eigenvalues --   -0.05419  -0.05047  -0.04709  -0.03156  -0.03046
 Alpha virt. eigenvalues --   -0.02814  -0.01420  -0.01040  -0.00271  -0.00221
 Alpha virt. eigenvalues --   -0.00027   0.00357   0.00817   0.00905   0.00919

  Beta  occ. eigenvalues --  -38.43820 -38.43805 -38.43760 -38.43410 -38.43388
  Beta  occ. eigenvalues --  -38.43337 -38.43134  -2.19646  -2.19619  -2.19578
  Beta  occ. eigenvalues --   -2.19264  -2.19229  -2.19214  -2.19105  -1.13336
  Beta  occ. eigenvalues --   -1.13319  -1.13306  -1.13299  -1.13286  -1.13264
  Beta  occ. eigenvalues --   -1.13258  -1.13253  -1.13248  -1.12975  -1.12961
  Beta  occ. eigenvalues --   -1.12918  -1.12914  -1.12896  -1.12875  -1.12858
  Beta  occ. eigenvalues --   -1.12858  -1.12830  -1.12795  -1.12748  -1.12737
  Beta  occ. eigenvalues --   -0.17994  -0.12674  -0.12302
  Beta virt. eigenvalues --   -0.07039  -0.05397  -0.05049  -0.04636  -0.02390
  Beta virt. eigenvalues --   -0.02237  -0.01721  -0.01341  -0.00972  -0.00306
  Beta virt. eigenvalues --   -0.00268   0.00120   0.00386   0.00888   0.00897

 Mulliken charges and spin densities:
               1          2
     1  Na   0.142901  -0.004643
     2  Na   0.304234  -0.001815
     3  Na   0.245419   0.009946
     4  Na   0.114368   0.018097
     5  Na  -0.310936   0.267127
     6  Na   0.145793  -0.038367
     7  Na  -0.641780   0.749655
 Sum of Mulliken charges =  -0.00000   1.00000

 Dipole moment (field-independent basis, Debye):
    X=             -0.0393    Y=             -0.0784    Z=              0.2262  Tot=              0.2426
 Quadrupole moment (field-independent basis, Debye-Ang):
   XX=            -57.8074   YY=            -63.2294   ZZ=            -73.0545
   XY=              0.4344   XZ=              0.7421   YZ=             -0.3347

 Normal termination of Gaussian 16 at Fri Dec  8 05:58:19 2023.
