 Gaussian 16, Revision B.01,
 Gaussian 16:  ES64L-G16RevB.01 20-Dec-2017

 -------------------------
 #P B3LYP/6-311+g(d) force
 -------------------------

 -----
 DPGEN
 -----
 Symbolic Z-matrix:
 Charge =  0 Multiplicity = 2

                         Standard orientation:
 ---------------------------------------------------------------------
 Center     Atomic      Atomic             Coordinates (Angstroms)
 Number     Number       Type             X           Y           Z
 ---------------------------------------------------------------------
      1         11           0        4.308599   -0.018761    0.204400
      2         11           0        1.632159    1.422165   -0.374772
      3         11           0        1.032950   -2.081552   -0.350072
      4         11           0       -2.535201   -2.352782   -0.016802
      5         11           0       -1.470541    0.221264   -1.409166
      6         11           0       -1.988564    2.950796    0.114846
      7         11           0       -0.979401   -0.141131    1.831565
 ---------------------------------------------------------------------

 SCF Done:  E(UB3LYP) =  -1136.12696245     A.U. after   21 cycles

 The electronic state is 2-A.
 Alpha  occ. eigenvalues --  -38.44858 -38.44309 -38.44076 -38.43706 -38.43492
 Alpha  occ. eigenvalues --  -38.43174 -38.42829  -2.20654  -2.20147  -2.19949
 Alpha  occ. eigenvalues --   -2.19588  -2.19314  -2.19111  -2.18842  -1.14352
 Alpha  occ. eigenvalues --   -1.14307  -1.14282  -1.13871  -1.13838  -1.13727
 Alpha  occ. eigenvalues --   -1.13655  -1.13607  -1.13564  -1.13302  -1.13270
 Alpha  occ. eigenvalues --   -1.13185  -1.13014  -1.12967  -1.12949  -1.12794
 Alpha  occ. eigenvalues --   -1.12770  -1.12695  -1.12531  -1.12498  -1.12430
 Alpha  occ. eigenvalues --   -0.18534  -0.13578  -0.12287  -0.10141
 Alpha virt. eigenvalues --   -0.06796  -0.05272  -0.04298  -0.03024  -0.02601
 Alpha virt. eigenvalues --   -0.02349  -0.02053  -0.01623  -0.00559  -0.00190
 Alpha virt. eigenvalues --   -0.00089   0.00156   0.00639   0.00700   0.00751

  Beta  occ. eigenvalues --  -38.44863 -38.44297 -38.44067 -38.43696 -38.43491
  Beta  occ. eigenvalues --  -38.43087 -38.42771  -2.20664  -2.20127  -2.19938
  Beta  occ. eigenvalues --   -2.19572  -2.19315  -2.18950  -2.18738  -1.14359
  Beta  occ. eigenvalues --   -1.14310  -1.14288  -1.13861  -1.13793  -1.13718
  Beta  occ. eigenvalues --   -1.13650  -1.13567  -1.13557  -1.13293  -1.13233
  Beta  occ. eigenvalues --   -1.13179  -1.13012  -1.12954  -1.12947  -1.12686
  Beta  occ. eigenvalues --   -1.12658  -1.12578  -1.12458  -1.12417  -1.12349
  Beta  occ. eigenvalues --   -0.17826  -0.13457  -0.12053
  Beta virt. eigenvalues --   -0.06611  -0.06179  -0.05267  -0.04288  -0.02573
  Beta virt. eigenvalues --   -0.02263  -0.01865  -0.01590  -0.01047  -0.00473
  Beta virt. eigenvalues --   -0.00108   0.00117   0.00238   0.00708   0.00764

 Mulliken charges and spin densities:
               1          2
     1  Na   0.428298  -0.009150
     2  Na  -0.691866  -0.035543
     3  Na  -0.189587   0.029632
     4  Na   0.555883   0.140385
     5  Na   0.174028   0.290299
     6  Na   0.113967  -0.037544
     7  Na  -0.390722   0.621921
 Sum of Mulliken charges =  -0.00000   1.00000

 Dipole moment (field-independent basis, Debye):
    X=              0.8165    Y=             -0.4165    Z=              0.1266  Tot=              0.9253
 Quadrupole moment (field-independent basis, Debye-Ang):
   XX=            -49.1090   YY=            -63.1532   ZZ=            -77.6655
   XY=             -0.4193   XZ=              1.2643   YZ=              0.9082

 Normal termination of Gaussian 16 at Thu Dec  7 14:27:21 2023.
