 Gaussian 16, Revision B.01,
 Gaussian 16:  ES64L-G16RevB.01 20-Dec-2017

 -------------------------
 #P B3LYP/6-311+g(d) force
 -------------------------

 -----
 DPGEN
 -----
 Symbolic Z-matrix:
 Charge =  0 Multiplicity = 2

                         Standard orientation:
 ---------------------------------------------------------------------
 Center     Atomic      Atomic             Coordinates (Angstroms)
 Number     Number       Type             X           Y           Z
 ---------------------------------------------------------------------
      1         11           0        0.379461   -0.967727   -1.706143
      2         11           0        0.525615   -2.494099    1.056176
      3         11           0       -0.870691    2.356889   -0.244529
      4         11           0        3.199824   -0.176564   -1.049893
      5         11           0       -2.934964    0.145256   -1.500422
      6         11           0        1.936299    1.740644    1.566737
      7         11           0       -2.235544   -0.604399    1.878075
 ---------------------------------------------------------------------

 SCF Done:  E(UB3LYP) =  -1136.12460443     A.U. after   21 cycles

 The electronic state is 2-A.
 Alpha  occ. eigenvalues --  -38.44727 -38.44527 -38.44292 -38.43691 -38.43610
 Alpha  occ. eigenvalues --  -38.43598 -38.43224  -2.20542  -2.20365  -2.20144
 Alpha  occ. eigenvalues --   -2.19628  -2.19429  -2.19419  -2.19062  -1.14213
 Alpha  occ. eigenvalues --   -1.14183  -1.14166  -1.14106  -1.14003  -1.13975
 Alpha  occ. eigenvalues --   -1.13818  -1.13787  -1.13772  -1.13320  -1.13287
 Alpha  occ. eigenvalues --   -1.13250  -1.13100  -1.13085  -1.13084  -1.13072
 Alpha  occ. eigenvalues --   -1.13056  -1.13041  -1.12746  -1.12740  -1.12687
 Alpha  occ. eigenvalues --   -0.18017  -0.13357  -0.11907  -0.11577
 Alpha virt. eigenvalues --   -0.05906  -0.05275  -0.04408  -0.03548  -0.03311
 Alpha virt. eigenvalues --   -0.02954  -0.01624  -0.00988  -0.00419  -0.00127
 Alpha virt. eigenvalues --    0.00192   0.00318   0.00498   0.00558   0.00787

  Beta  occ. eigenvalues --  -38.44673 -38.44513 -38.44258 -38.43643 -38.43582
  Beta  occ. eigenvalues --  -38.43580 -38.43218  -2.20442  -2.20342  -2.20082
  Beta  occ. eigenvalues --   -2.19540  -2.19397  -2.19366  -2.19055  -1.14136
  Beta  occ. eigenvalues --   -1.14120  -1.14092  -1.14077  -1.13987  -1.13962
  Beta  occ. eigenvalues --   -1.13763  -1.13746  -1.13732  -1.13265  -1.13229
  Beta  occ. eigenvalues --   -1.13185  -1.13073  -1.13058  -1.13047  -1.13034
  Beta  occ. eigenvalues --   -1.13021  -1.13005  -1.12744  -1.12717  -1.12679
  Beta  occ. eigenvalues --   -0.17330  -0.13133  -0.11345
  Beta virt. eigenvalues --   -0.08052  -0.05800  -0.04653  -0.04191  -0.03266
  Beta virt. eigenvalues --   -0.02771  -0.02193  -0.01547  -0.00573  -0.00350
  Beta virt. eigenvalues --    0.00070   0.00296   0.00378   0.00498   0.00682

 Mulliken charges and spin densities:
               1          2
     1  Na   0.150840   0.255305
     2  Na  -0.309805   0.202706
     3  Na  -0.655636   0.124668
     4  Na   0.163287  -0.115847
     5  Na   0.734722   0.092117
     6  Na   0.010581   0.204003
     7  Na  -0.093988   0.237047
 Sum of Mulliken charges =  -0.00000   1.00000

 Dipole moment (field-independent basis, Debye):
    X=             -0.2372    Y=             -0.2647    Z=              0.0866  Tot=              0.3658
 Quadrupole moment (field-independent basis, Debye-Ang):
   XX=            -55.7441   YY=            -76.7315   ZZ=            -64.3660
   XY=             -0.9156   XZ=              0.2708   YZ=             -0.9952

 Normal termination of Gaussian 16 at Mon Dec  4 05:02:40 2023.
