 Gaussian 16, Revision B.01,
 Gaussian 16:  ES64L-G16RevB.01 20-Dec-2017

 -------------------------
 #P B3LYP/6-311+g(d) force
 -------------------------

 -----
 DPGEN
 -----
 Symbolic Z-matrix:
 Charge =  0 Multiplicity = 2

                         Standard orientation:
 ---------------------------------------------------------------------
 Center     Atomic      Atomic             Coordinates (Angstroms)
 Number     Number       Type             X           Y           Z
 ---------------------------------------------------------------------
      1         11           0       -0.109514    1.157661   -0.527859
      2         11           0        8.818091    1.222628    0.823348
      3         11           0        6.166656   -0.690503   -0.265726
      4         11           0       -6.368612   -1.143233    0.813766
      5         11           0       -8.170052    1.871636   -0.171772
      6         11           0       -3.120457   -1.413561    0.005125
      7         11           0        2.783888   -1.004628   -0.676881
 ---------------------------------------------------------------------

 SCF Done:  E(UB3LYP) =  -1136.10058444     A.U. after   21 cycles

 The electronic state is 2-A.
 Alpha  occ. eigenvalues --  -38.45270 -38.45186 -38.45001 -38.44709 -38.44552
 Alpha  occ. eigenvalues --  -38.44313 -38.43951  -2.21043  -2.20900  -2.20775
 Alpha  occ. eigenvalues --   -2.20492  -2.20339  -2.20073  -2.19719  -1.14684
 Alpha  occ. eigenvalues --   -1.14683  -1.14646  -1.14594  -1.14569  -1.14562
 Alpha  occ. eigenvalues --   -1.14420  -1.14420  -1.14390  -1.14154  -1.14148
 Alpha  occ. eigenvalues --   -1.14102  -1.14005  -1.14002  -1.13949  -1.13760
 Alpha  occ. eigenvalues --   -1.13750  -1.13726  -1.13403  -1.13400  -1.13372
 Alpha  occ. eigenvalues --   -0.14820  -0.14163  -0.12697  -0.11352
 Alpha virt. eigenvalues --   -0.07918  -0.05182  -0.04469  -0.03298  -0.02875
 Alpha virt. eigenvalues --   -0.02761  -0.02714  -0.01990  -0.01775  -0.01432
 Alpha virt. eigenvalues --   -0.00829  -0.00726  -0.00330   0.00185   0.00246

  Beta  occ. eigenvalues --  -38.45235 -38.45162 -38.44928 -38.44641 -38.44501
  Beta  occ. eigenvalues --  -38.44337 -38.43970  -2.20993  -2.20841  -2.20637
  Beta  occ. eigenvalues --   -2.20364  -2.20243  -2.20125  -2.19761  -1.14659
  Beta  occ. eigenvalues --   -1.14634  -1.14612  -1.14546  -1.14545  -1.14514
  Beta  occ. eigenvalues --   -1.14326  -1.14326  -1.14300  -1.14066  -1.14062
  Beta  occ. eigenvalues --   -1.14031  -1.13938  -1.13935  -1.13901  -1.13800
  Beta  occ. eigenvalues --   -1.13787  -1.13723  -1.13436  -1.13433  -1.13363
  Beta  occ. eigenvalues --   -0.14501  -0.13546  -0.12204
  Beta virt. eigenvalues --   -0.08171  -0.07235  -0.04834  -0.04306  -0.03201
  Beta virt. eigenvalues --   -0.02650  -0.02532  -0.02390  -0.01723  -0.01594
  Beta virt. eigenvalues --   -0.01156  -0.00474  -0.00288  -0.00124   0.00223

 Mulliken charges and spin densities:
               1          2
     1  Na   0.259688  -0.221722
     2  Na   0.156571   0.326886
     3  Na  -0.419197  -0.058048
     4  Na   0.388074  -0.123643
     5  Na   0.012082   0.551209
     6  Na  -0.405676   0.318259
     7  Na   0.008457   0.207058
 Sum of Mulliken charges =  -0.00000   1.00000

 Dipole moment (field-independent basis, Debye):
    X=             -0.2685    Y=              1.0090    Z=              0.0171  Tot=              1.0442
 Quadrupole moment (field-independent basis, Debye-Ang):
   XX=            -58.1399   YY=            -62.2870   ZZ=            -74.3847
   XY=              0.8636   XZ=              3.7944   YZ=             -0.4006

 Normal termination of Gaussian 16 at Sun Dec  3 16:08:09 2023.
