 Gaussian 16, Revision B.01,
 Gaussian 16:  ES64L-G16RevB.01 20-Dec-2017

 -------------------------
 #P B3LYP/6-311+g(d) force
 -------------------------

 -----
 DPGEN
 -----
 Symbolic Z-matrix:
 Charge =  0 Multiplicity = 2

                         Standard orientation:
 ---------------------------------------------------------------------
 Center     Atomic      Atomic             Coordinates (Angstroms)
 Number     Number       Type             X           Y           Z
 ---------------------------------------------------------------------
      1         11           0        0.407929    2.880544    0.085733
      2         11           0        1.669601   -2.396730   -0.282593
      3         11           0       -2.994844    1.017179   -0.243736
      4         11           0       -0.607770    0.099790   -1.556620
      5         11           0       -2.050700   -2.153934    0.261324
      6         11           0        0.274345    0.102342    2.125543
      7         11           0        3.301439    0.450808   -0.389651
 ---------------------------------------------------------------------

 SCF Done:  E(UB3LYP) =  -1136.13302604     A.U. after   19 cycles

 The electronic state is 2-A.
 Alpha  occ. eigenvalues --  -38.44389 -38.44296 -38.43672 -38.43556 -38.43491
 Alpha  occ. eigenvalues --  -38.43342 -38.43215  -2.20191  -2.20181  -2.19545
 Alpha  occ. eigenvalues --   -2.19494  -2.19420  -2.19180  -2.19048  -1.13970
 Alpha  occ. eigenvalues --   -1.13860  -1.13859  -1.13824  -1.13821  -1.13783
 Alpha  occ. eigenvalues --   -1.13216  -1.13188  -1.13171  -1.13166  -1.13143
 Alpha  occ. eigenvalues --   -1.13130  -1.13079  -1.13052  -1.13049  -1.12857
 Alpha  occ. eigenvalues --   -1.12844  -1.12816  -1.12727  -1.12722  -1.12670
 Alpha  occ. eigenvalues --   -0.18548  -0.13334  -0.12192  -0.10760
 Alpha virt. eigenvalues --   -0.05948  -0.05177  -0.04489  -0.03378  -0.02813
 Alpha virt. eigenvalues --   -0.02549  -0.01710  -0.01059  -0.00461  -0.00312
 Alpha virt. eigenvalues --   -0.00032   0.00324   0.00763   0.00855   0.00893

  Beta  occ. eigenvalues --  -38.44380 -38.44288 -38.43571 -38.43549 -38.43442
  Beta  occ. eigenvalues --  -38.43336 -38.43210  -2.20176  -2.20169  -2.19411
  Beta  occ. eigenvalues --   -2.19404  -2.19358  -2.19172  -2.19042  -1.13951
  Beta  occ. eigenvalues --   -1.13852  -1.13837  -1.13814  -1.13800  -1.13775
  Beta  occ. eigenvalues --   -1.13157  -1.13096  -1.13081  -1.13065  -1.13058
  Beta  occ. eigenvalues --   -1.13041  -1.13041  -1.13022  -1.13011  -1.12849
  Beta  occ. eigenvalues --   -1.12832  -1.12802  -1.12725  -1.12693  -1.12670
  Beta  occ. eigenvalues --   -0.17857  -0.13068  -0.11964
  Beta virt. eigenvalues --   -0.06890  -0.05847  -0.05152  -0.04443  -0.02624
  Beta virt. eigenvalues --   -0.02055  -0.01618  -0.01520  -0.00994  -0.00483
  Beta virt. eigenvalues --   -0.00341   0.00122   0.00379   0.00840   0.00857

 Mulliken charges and spin densities:
               1          2
     1  Na   0.066509  -0.072575
     2  Na   0.035328  -0.001604
     3  Na   0.553660   0.002204
     4  Na  -0.299269   0.329887
     5  Na   0.122129   0.047025
     6  Na  -0.463170   0.703326
     7  Na  -0.015186  -0.008263
 Sum of Mulliken charges =  -0.00000   1.00000

 Dipole moment (field-independent basis, Debye):
    X=             -0.0452    Y=              0.1315    Z=              0.1652  Tot=              0.2159
 Quadrupole moment (field-independent basis, Debye-Ang):
   XX=            -55.0853   YY=            -64.9121   ZZ=            -74.0616
   XY=              0.7995   XZ=             -1.7233   YZ=             -0.3519

 Normal termination of Gaussian 16 at Thu Dec  7 06:40:24 2023.
