 Gaussian 16, Revision B.01,
 Gaussian 16:  ES64L-G16RevB.01 20-Dec-2017

 -------------------------
 #P B3LYP/6-311+g(d) force
 -------------------------

 -----
 DPGEN
 -----
 Symbolic Z-matrix:
 Charge =  0 Multiplicity = 2

                         Standard orientation:
 ---------------------------------------------------------------------
 Center     Atomic      Atomic             Coordinates (Angstroms)
 Number     Number       Type             X           Y           Z
 ---------------------------------------------------------------------
      1         11           0       -0.955066   -2.788890    0.019589
      2         11           0       -0.007050    0.857313   -0.892544
      3         11           0       -2.956218    2.795686   -0.028086
      4         11           0       -3.372971   -0.795422    0.092902
      5         11           0        3.849154    1.604600    0.152034
      6         11           0        2.184209   -1.238583   -1.260758
      7         11           0        1.257942   -0.434705    1.916863
 ---------------------------------------------------------------------

 SCF Done:  E(UB3LYP) =  -1136.11924834     A.U. after   24 cycles

 The electronic state is 2-A.
 Alpha  occ. eigenvalues --  -38.45378 -38.44841 -38.44480 -38.43937 -38.43792
 Alpha  occ. eigenvalues --  -38.43439 -38.42953  -2.21146  -2.20650  -2.20339
 Alpha  occ. eigenvalues --   -2.19842  -2.19718  -2.19213  -2.18801  -1.14824
 Alpha  occ. eigenvalues --   -1.14806  -1.14767  -1.14341  -1.14323  -1.14269
 Alpha  occ. eigenvalues --   -1.14044  -1.13998  -1.13915  -1.13584  -1.13560
 Alpha  occ. eigenvalues --   -1.13461  -1.13358  -1.13344  -1.13301  -1.12883
 Alpha  occ. eigenvalues --   -1.12879  -1.12850  -1.12498  -1.12456  -1.12440
 Alpha  occ. eigenvalues --   -0.18081  -0.13821  -0.11648  -0.10306
 Alpha virt. eigenvalues --   -0.07250  -0.05669  -0.04364  -0.03283  -0.02737
 Alpha virt. eigenvalues --   -0.02320  -0.02117  -0.01536  -0.00940  -0.00330
 Alpha virt. eigenvalues --   -0.00225   0.00062   0.00406   0.00560   0.00632

  Beta  occ. eigenvalues --  -38.45363 -38.44838 -38.44412 -38.43900 -38.43728
  Beta  occ. eigenvalues --  -38.43445 -38.42952  -2.21120  -2.20646  -2.20213
  Beta  occ. eigenvalues --   -2.19780  -2.19604  -2.19224  -2.18803  -1.14808
  Beta  occ. eigenvalues --   -1.14767  -1.14753  -1.14340  -1.14315  -1.14266
  Beta  occ. eigenvalues --   -1.13959  -1.13911  -1.13819  -1.13528  -1.13484
  Beta  occ. eigenvalues --   -1.13421  -1.13279  -1.13257  -1.13224  -1.12890
  Beta  occ. eigenvalues --   -1.12886  -1.12857  -1.12502  -1.12449  -1.12428
  Beta  occ. eigenvalues --   -0.17407  -0.13632  -0.11516
  Beta virt. eigenvalues --   -0.07135  -0.06328  -0.05496  -0.04311  -0.02780
  Beta virt. eigenvalues --   -0.02575  -0.01754  -0.01536  -0.01275  -0.00825
  Beta virt. eigenvalues --   -0.00171   0.00000   0.00118   0.00565   0.00627

 Mulliken charges and spin densities:
               1          2
     1  Na   0.204594   0.035484
     2  Na  -1.299759   0.275323
     3  Na   0.437015  -0.072232
     4  Na  -0.154959   0.009380
     5  Na   0.127659   0.066280
     6  Na   1.112444   0.096347
     7  Na  -0.426994   0.589417
 Sum of Mulliken charges =  -0.00000   1.00000

 Dipole moment (field-independent basis, Debye):
    X=              0.9447    Y=              0.1630    Z=              0.0605  Tot=              0.9605
 Quadrupole moment (field-independent basis, Debye-Ang):
   XX=            -50.8610   YY=            -65.7341   ZZ=            -76.5358
   XY=              4.3996   XZ=             -2.7020   YZ=              1.4300

 Normal termination of Gaussian 16 at Tue Dec  5 20:58:00 2023.
