 Gaussian 16, Revision B.01,
 Gaussian 16:  ES64L-G16RevB.01 20-Dec-2017

 -------------------------
 #P B3LYP/6-311+g(d) force
 -------------------------

 -----
 DPGEN
 -----
 Symbolic Z-matrix:
 Charge =  0 Multiplicity = 2

                         Standard orientation:
 ---------------------------------------------------------------------
 Center     Atomic      Atomic             Coordinates (Angstroms)
 Number     Number       Type             X           Y           Z
 ---------------------------------------------------------------------
      1         11           0       -3.659668    0.509272   -0.424573
      2         11           0       -0.602166    0.233332    1.625512
      3         11           0        3.867239   -1.756807   -0.080171
      4         11           0       -2.424373   -2.441922    0.247409
      5         11           0        0.430388   -0.694691   -1.257796
      6         11           0       -0.419668    2.626897   -0.367481
      7         11           0        2.808248    1.523920    0.257101
 ---------------------------------------------------------------------

 SCF Done:  E(UB3LYP) =  -1136.12091205     A.U. after   25 cycles

 The electronic state is 2-A.
 Alpha  occ. eigenvalues --  -38.45352 -38.44612 -38.43877 -38.43813 -38.43701
 Alpha  occ. eigenvalues --  -38.43688 -38.42879  -2.21206  -2.20446  -2.19771
 Alpha  occ. eigenvalues --   -2.19716  -2.19553  -2.19477  -2.18770  -1.14936
 Alpha  occ. eigenvalues --   -1.14870  -1.14808  -1.14147  -1.14113  -1.14057
 Alpha  occ. eigenvalues --   -1.13474  -1.13427  -1.13403  -1.13387  -1.13377
 Alpha  occ. eigenvalues --   -1.13333  -1.13215  -1.13179  -1.13170  -1.13145
 Alpha  occ. eigenvalues --   -1.13131  -1.13104  -1.12455  -1.12450  -1.12383
 Alpha  occ. eigenvalues --   -0.18358  -0.14058  -0.11856  -0.09851
 Alpha virt. eigenvalues --   -0.07070  -0.06045  -0.04275  -0.03159  -0.02929
 Alpha virt. eigenvalues --   -0.02219  -0.02015  -0.01428  -0.01078  -0.00359
 Alpha virt. eigenvalues --   -0.00288   0.00015   0.00485   0.00558   0.00612

  Beta  occ. eigenvalues --  -38.45352 -38.44609 -38.43865 -38.43750 -38.43663
  Beta  occ. eigenvalues --  -38.43625 -38.42873  -2.21209  -2.20442  -2.19698
  Beta  occ. eigenvalues --   -2.19657  -2.19430  -2.19412  -2.18762  -1.14917
  Beta  occ. eigenvalues --   -1.14870  -1.14818  -1.14144  -1.14111  -1.14040
  Beta  occ. eigenvalues --   -1.13401  -1.13384  -1.13371  -1.13341  -1.13329
  Beta  occ. eigenvalues --   -1.13267  -1.13116  -1.13113  -1.13093  -1.13081
  Beta  occ. eigenvalues --   -1.13076  -1.13075  -1.12451  -1.12444  -1.12360
  Beta  occ. eigenvalues --   -0.17852  -0.13624  -0.11582
  Beta virt. eigenvalues --   -0.06849  -0.06278  -0.05920  -0.04029  -0.02911
  Beta virt. eigenvalues --   -0.02472  -0.02025  -0.01567  -0.01061  -0.00881
  Beta virt. eigenvalues --   -0.00199  -0.00040   0.00203   0.00629   0.00646

 Mulliken charges and spin densities:
               1          2
     1  Na  -0.137919   0.596441
     2  Na   0.239287   0.039556
     3  Na   0.078088   0.130653
     4  Na   0.093101  -0.001191
     5  Na  -0.220427   0.055610
     6  Na  -0.381851   0.135814
     7  Na   0.329721   0.043118
 Sum of Mulliken charges =  -0.00000   1.00000

 Dipole moment (field-independent basis, Debye):
    X=              0.5795    Y=             -0.2078    Z=              0.7025  Tot=              0.9341
 Quadrupole moment (field-independent basis, Debye-Ang):
   XX=            -68.4859   YY=            -66.4767   ZZ=            -68.2504
   XY=              5.8997   XZ=              0.1129   YZ=              0.8224

 Normal termination of Gaussian 16 at Fri Dec  8 02:57:36 2023.
