 Gaussian 16, Revision B.01,
 Gaussian 16:  ES64L-G16RevB.01 20-Dec-2017

 -------------------------
 #P B3LYP/6-311+g(d) force
 -------------------------

 -----
 DPGEN
 -----
 Symbolic Z-matrix:
 Charge =  0 Multiplicity = 2

                         Standard orientation:
 ---------------------------------------------------------------------
 Center     Atomic      Atomic             Coordinates (Angstroms)
 Number     Number       Type             X           Y           Z
 ---------------------------------------------------------------------
      1         11           0       -2.892758    1.773979   -0.298512
      2         11           0        3.248475   -1.213640   -1.333747
      3         11           0       -0.324997    0.274274    1.294281
      4         11           0        1.108579    2.336061   -1.061842
      5         11           0        2.936276    0.192041    1.758579
      6         11           0       -3.949223   -1.460898    0.037174
      7         11           0       -0.126352   -1.901816   -0.395933
 ---------------------------------------------------------------------

 SCF Done:  E(UB3LYP) =  -1136.11064180     A.U. after   27 cycles

 The electronic state is 2-A.
 Alpha  occ. eigenvalues --  -38.45071 -38.44946 -38.44690 -38.44338 -38.44041
 Alpha  occ. eigenvalues --  -38.43874 -38.43554  -2.20907  -2.20710  -2.20543
 Alpha  occ. eigenvalues --   -2.20142  -2.19871  -2.19866  -2.19341  -1.14586
 Alpha  occ. eigenvalues --   -1.14543  -1.14538  -1.14440  -1.14392  -1.14383
 Alpha  occ. eigenvalues --   -1.14339  -1.14191  -1.14082  -1.13836  -1.13807
 Alpha  occ. eigenvalues --   -1.13758  -1.13583  -1.13535  -1.13499  -1.13491
 Alpha  occ. eigenvalues --   -1.13465  -1.13455  -1.13027  -1.13003  -1.12955
 Alpha  occ. eigenvalues --   -0.18015  -0.14130  -0.11183  -0.10640
 Alpha virt. eigenvalues --   -0.07436  -0.05848  -0.04115  -0.03254  -0.03065
 Alpha virt. eigenvalues --   -0.02428  -0.01994  -0.01621  -0.00983  -0.00580
 Alpha virt. eigenvalues --   -0.00006   0.00158   0.00377   0.00480   0.00630

  Beta  occ. eigenvalues --  -38.45023 -38.44959 -38.44671 -38.44334 -38.43983
  Beta  occ. eigenvalues --  -38.43821 -38.43533  -2.20822  -2.20735  -2.20512
  Beta  occ. eigenvalues --   -2.20133  -2.19779  -2.19757  -2.19301  -1.14502
  Beta  occ. eigenvalues --   -1.14484  -1.14480  -1.14407  -1.14403  -1.14400
  Beta  occ. eigenvalues --   -1.14354  -1.14156  -1.14064  -1.13828  -1.13800
  Beta  occ. eigenvalues --   -1.13756  -1.13527  -1.13457  -1.13423  -1.13418
  Beta  occ. eigenvalues --   -1.13395  -1.13371  -1.13001  -1.12969  -1.12928
  Beta  occ. eigenvalues --   -0.17412  -0.13894  -0.10961
  Beta virt. eigenvalues --   -0.07303  -0.06789  -0.05707  -0.03619  -0.03112
  Beta virt. eigenvalues --   -0.02908  -0.01842  -0.01544  -0.01236  -0.00549
  Beta virt. eigenvalues --   -0.00454   0.00052   0.00196   0.00509   0.00546

 Mulliken charges and spin densities:
               1          2
     1  Na   0.365932   0.066229
     2  Na   0.353795   0.462599
     3  Na  -0.762006   0.222650
     4  Na  -0.251619   0.221890
     5  Na   0.307466   0.092695
     6  Na   0.466203  -0.092996
     7  Na  -0.479770   0.026933
 Sum of Mulliken charges =  -0.00000   1.00000

 Dipole moment (field-independent basis, Debye):
    X=             -0.4875    Y=             -0.0035    Z=              0.2375  Tot=              0.5422
 Quadrupole moment (field-independent basis, Debye-Ang):
   XX=            -44.5262   YY=            -75.7679   ZZ=            -72.5744
   XY=              2.1575   XZ=              3.0129   YZ=             -0.1325

 Normal termination of Gaussian 16 at Wed Dec  6 01:23:20 2023.
