 Gaussian 16, Revision B.01,
 Gaussian 16:  ES64L-G16RevB.01 20-Dec-2017

 -------------------------
 #P B3LYP/6-311+g(d) force
 -------------------------

 -----
 DPGEN
 -----
 Symbolic Z-matrix:
 Charge =  0 Multiplicity = 2

                         Standard orientation:
 ---------------------------------------------------------------------
 Center     Atomic      Atomic             Coordinates (Angstroms)
 Number     Number       Type             X           Y           Z
 ---------------------------------------------------------------------
      1         11           0        0.828987    0.115338   -1.608126
      2         11           0       -0.626127    2.248860   -0.541296
      3         11           0        2.585197   -2.111803    0.051047
      4         11           0        0.060990   -0.524740    1.798787
      5         11           0        2.665145    1.695979    0.479876
      6         11           0       -2.011856   -1.812960   -0.776832
      7         11           0       -3.502338    0.389327    0.596542
 ---------------------------------------------------------------------

 SCF Done:  E(UB3LYP) =  -1136.12425334     A.U. after   21 cycles

 The electronic state is 2-A.
 Alpha  occ. eigenvalues --  -38.44691 -38.44293 -38.44053 -38.43870 -38.43624
 Alpha  occ. eigenvalues --  -38.43160 -38.42898  -2.20535  -2.20147  -2.19923
 Alpha  occ. eigenvalues --   -2.19762  -2.19448  -2.19219  -2.18824  -1.14258
 Alpha  occ. eigenvalues --   -1.14175  -1.14166  -1.13837  -1.13812  -1.13761
 Alpha  occ. eigenvalues --   -1.13588  -1.13577  -1.13558  -1.13458  -1.13402
 Alpha  occ. eigenvalues --   -1.13375  -1.13147  -1.13102  -1.13087  -1.13057
 Alpha  occ. eigenvalues --   -1.12832  -1.12825  -1.12484  -1.12462  -1.12394
 Alpha  occ. eigenvalues --   -0.18839  -0.13842  -0.11638  -0.10818
 Alpha virt. eigenvalues --   -0.06352  -0.05553  -0.03910  -0.03403  -0.02604
 Alpha virt. eigenvalues --   -0.02410  -0.02080  -0.01254  -0.00428  -0.00026
 Alpha virt. eigenvalues --    0.00125   0.00277   0.00636   0.00739   0.00769

  Beta  occ. eigenvalues --  -38.44684 -38.44281 -38.44034 -38.43810 -38.43624
  Beta  occ. eigenvalues --  -38.43087 -38.42883  -2.20521  -2.20127  -2.19891
  Beta  occ. eigenvalues --   -2.19651  -2.19452  -2.19089  -2.18802  -1.14251
  Beta  occ. eigenvalues --   -1.14160  -1.14153  -1.13820  -1.13789  -1.13745
  Beta  occ. eigenvalues --   -1.13568  -1.13542  -1.13526  -1.13384  -1.13320
  Beta  occ. eigenvalues --   -1.13293  -1.13138  -1.13100  -1.13083  -1.12983
  Beta  occ. eigenvalues --   -1.12740  -1.12726  -1.12458  -1.12411  -1.12383
  Beta  occ. eigenvalues --   -0.18109  -0.13651  -0.11410
  Beta virt. eigenvalues --   -0.06931  -0.06188  -0.05475  -0.03627  -0.03005
  Beta virt. eigenvalues --   -0.02019  -0.01864  -0.01476  -0.01087  -0.00316
  Beta virt. eigenvalues --    0.00065   0.00142   0.00306   0.00743   0.00793

 Mulliken charges and spin densities:
               1          2
     1  Na   0.089530   0.255651
     2  Na  -0.073671   0.092245
     3  Na   0.002042  -0.094113
     4  Na  -0.417844   0.580728
     5  Na   0.165830   0.085099
     6  Na   0.052194   0.001815
     7  Na   0.181920   0.078574
 Sum of Mulliken charges =  -0.00000   1.00000

 Dipole moment (field-independent basis, Debye):
    X=             -0.1153    Y=             -0.0071    Z=              0.4678  Tot=              0.4819
 Quadrupole moment (field-independent basis, Debye-Ang):
   XX=            -49.6739   YY=            -70.0468   ZZ=            -73.1356
   XY=             -0.0014   XZ=              0.3376   YZ=              2.8278

 Normal termination of Gaussian 16 at Wed Dec  6 00:07:34 2023.
