 Gaussian 16, Revision B.01,
 Gaussian 16:  ES64L-G16RevB.01 20-Dec-2017

 -------------------------
 #P B3LYP/6-311+g(d) force
 -------------------------

 -----
 DPGEN
 -----
 Symbolic Z-matrix:
 Charge =  0 Multiplicity = 2

                         Standard orientation:
 ---------------------------------------------------------------------
 Center     Atomic      Atomic             Coordinates (Angstroms)
 Number     Number       Type             X           Y           Z
 ---------------------------------------------------------------------
      1         11           0        3.367959   -2.527738   -0.318666
      2         11           0        1.965896    3.569020   -0.152540
      3         11           0       -1.656339    3.152037    0.771542
      4         11           0       -4.091915    1.098671   -0.608511
      5         11           0        3.963513    0.581150   -0.168855
      6         11           0       -0.221312   -3.423327    0.778311
      7         11           0       -3.327801   -2.449813   -0.301281
 ---------------------------------------------------------------------

 SCF Done:  E(UB3LYP) =  -1136.10775518     A.U. after   23 cycles

 The electronic state is 2-A.
 Alpha  occ. eigenvalues --  -38.45259 -38.45026 -38.44964 -38.44742 -38.44388
 Alpha  occ. eigenvalues --  -38.44074 -38.43885  -2.21001  -2.20787  -2.20753
 Alpha  occ. eigenvalues --   -2.20512  -2.20177  -2.19886  -2.19673  -1.14689
 Alpha  occ. eigenvalues --   -1.14679  -1.14634  -1.14461  -1.14454  -1.14433
 Alpha  occ. eigenvalues --   -1.14427  -1.14414  -1.14403  -1.14188  -1.14175
 Alpha  occ. eigenvalues --   -1.14149  -1.13837  -1.13824  -1.13808  -1.13546
 Alpha  occ. eigenvalues --   -1.13535  -1.13516  -1.13328  -1.13318  -1.13301
 Alpha  occ. eigenvalues --   -0.15431  -0.14001  -0.13451  -0.10903
 Alpha virt. eigenvalues --   -0.07850  -0.04714  -0.04622  -0.03547  -0.03469
 Alpha virt. eigenvalues --   -0.02491  -0.02200  -0.01913  -0.01495  -0.00891
 Alpha virt. eigenvalues --   -0.00582  -0.00027   0.00052   0.00305   0.00429

  Beta  occ. eigenvalues --  -38.45258 -38.44993 -38.44947 -38.44726 -38.44338
  Beta  occ. eigenvalues --  -38.44028 -38.43820  -2.21003  -2.20731  -2.20728
  Beta  occ. eigenvalues --   -2.20487  -2.20086  -2.19802  -2.19552  -1.14696
  Beta  occ. eigenvalues --   -1.14685  -1.14602  -1.14426  -1.14419  -1.14418
  Beta  occ. eigenvalues --   -1.14413  -1.14357  -1.14345  -1.14174  -1.14161
  Beta  occ. eigenvalues --   -1.14109  -1.13776  -1.13764  -1.13745  -1.13485
  Beta  occ. eigenvalues --   -1.13478  -1.13457  -1.13245  -1.13237  -1.13221
  Beta  occ. eigenvalues --   -0.14880  -0.13258  -0.12649
  Beta virt. eigenvalues --   -0.08089  -0.07796  -0.04227  -0.04136  -0.03360
  Beta virt. eigenvalues --   -0.03160  -0.02268  -0.01943  -0.01765  -0.01322
  Beta virt. eigenvalues --   -0.00528  -0.00375   0.00088   0.00240   0.00259

 Mulliken charges and spin densities:
               1          2
     1  Na   0.124174   0.169717
     2  Na   0.058349   0.300433
     3  Na  -0.246637  -0.016576
     4  Na   0.127370   0.232902
     5  Na  -0.030094   0.128402
     6  Na  -0.189418   0.133996
     7  Na   0.156256   0.051126
 Sum of Mulliken charges =  -0.00000   1.00000

 Dipole moment (field-independent basis, Debye):
    X=             -0.4445    Y=             -0.3675    Z=              0.0701  Tot=              0.5810
 Quadrupole moment (field-independent basis, Debye-Ang):
   XX=            -62.3809   YY=            -66.7587   ZZ=            -71.6004
   XY=              0.3637   XZ=              1.4175   YZ=              0.6974

 Normal termination of Gaussian 16 at Mon Dec  4 03:47:30 2023.
