 Gaussian 16, Revision B.01,
 Gaussian 16:  ES64L-G16RevB.01 20-Dec-2017

 -------------------------
 #P B3LYP/6-311+g(d) force
 -------------------------

 -----
 DPGEN
 -----
 Symbolic Z-matrix:
 Charge =  0 Multiplicity = 2

                         Standard orientation:
 ---------------------------------------------------------------------
 Center     Atomic      Atomic             Coordinates (Angstroms)
 Number     Number       Type             X           Y           Z
 ---------------------------------------------------------------------
      1         11           0        1.395536   -1.819953   -0.317734
      2         11           0        5.258202   -0.440648   -0.658453
      3         11           0        2.682500    1.683834   -0.177899
      4         11           0       -0.721867    2.067913    0.184591
      5         11           0       -2.263195   -0.836145   -1.171910
      6         11           0       -0.429478   -0.717082    2.648226
      7         11           0       -5.921700    0.062082   -0.506821
 ---------------------------------------------------------------------

 SCF Done:  E(UB3LYP) =  -1136.10766824     A.U. after   31 cycles

 The electronic state is 2-A.
 Alpha  occ. eigenvalues --  -38.45274 -38.45200 -38.44906 -38.44234 -38.44204
 Alpha  occ. eigenvalues --  -38.43950 -38.43905  -2.21074  -2.20951  -2.20744
 Alpha  occ. eigenvalues --   -2.20069  -2.19976  -2.19726  -2.19633  -1.14766
 Alpha  occ. eigenvalues --   -1.14732  -1.14664  -1.14632  -1.14621  -1.14581
 Alpha  occ. eigenvalues --   -1.14418  -1.14378  -1.14354  -1.13757  -1.13732
 Alpha  occ. eigenvalues --   -1.13686  -1.13680  -1.13654  -1.13581  -1.13395
 Alpha  occ. eigenvalues --   -1.13389  -1.13351  -1.13308  -1.13304  -1.13252
 Alpha  occ. eigenvalues --   -0.17365  -0.13202  -0.11928  -0.10997
 Alpha virt. eigenvalues --   -0.07457  -0.05796  -0.04728  -0.03408  -0.02864
 Alpha virt. eigenvalues --   -0.02564  -0.02300  -0.01984  -0.01526  -0.00894
 Alpha virt. eigenvalues --   -0.00360   0.00067   0.00203   0.00364   0.00469

  Beta  occ. eigenvalues --  -38.45210 -38.45209 -38.44824 -38.44202 -38.44192
  Beta  occ. eigenvalues --  -38.43943 -38.43894  -2.20972  -2.20955  -2.20594
  Beta  occ. eigenvalues --   -2.19994  -2.19973  -2.19714  -2.19612  -1.14686
  Beta  occ. eigenvalues --   -1.14659  -1.14646  -1.14622  -1.14601  -1.14561
  Beta  occ. eigenvalues --   -1.14317  -1.14263  -1.14251  -1.13710  -1.13688
  Beta  occ. eigenvalues --   -1.13673  -1.13655  -1.13605  -1.13569  -1.13386
  Beta  occ. eigenvalues --   -1.13377  -1.13343  -1.13294  -1.13290  -1.13238
  Beta  occ. eigenvalues --   -0.16570  -0.13089  -0.10919
  Beta virt. eigenvalues --   -0.07809  -0.07343  -0.05486  -0.04188  -0.02843
  Beta virt. eigenvalues --   -0.02712  -0.02245  -0.01908  -0.01827  -0.01164
  Beta virt. eigenvalues --   -0.00808  -0.00231   0.00242   0.00409   0.00479

 Mulliken charges and spin densities:
               1          2
     1  Na  -0.560364   0.488716
     2  Na   0.588048   0.021177
     3  Na  -0.153608  -0.018878
     4  Na  -0.196172   0.603411
     5  Na  -0.108130  -0.097048
     6  Na   0.251777  -0.063543
     7  Na   0.178449   0.066165
 Sum of Mulliken charges =  -0.00000   1.00000

 Dipole moment (field-independent basis, Debye):
    X=              1.1878    Y=             -0.2945    Z=              1.5037  Tot=              1.9387
 Quadrupole moment (field-independent basis, Debye-Ang):
   XX=            -69.3368   YY=            -69.0815   ZZ=            -67.9888
   XY=             -4.5704   XZ=             -5.8668   YZ=              1.1470

 Normal termination of Gaussian 16 at Wed Nov 29 00:52:12 2023.
