 Gaussian 16, Revision B.01,
 Gaussian 16:  ES64L-G16RevB.01 20-Dec-2017

 -------------------------
 #P B3LYP/6-311+g(d) force
 -------------------------

 -----
 DPGEN
 -----
 Symbolic Z-matrix:
 Charge =  0 Multiplicity = 2

                         Standard orientation:
 ---------------------------------------------------------------------
 Center     Atomic      Atomic             Coordinates (Angstroms)
 Number     Number       Type             X           Y           Z
 ---------------------------------------------------------------------
      1         11           0       -2.799950   -1.761040   -0.190094
      2         11           0        2.998370    1.959806   -0.030076
      3         11           0       -0.262671    3.422946    0.507864
      4         11           0       -3.046118    1.501136   -0.269563
      5         11           0        3.066091   -1.662813   -0.387559
      6         11           0        0.072123   -3.334172    0.688058
      7         11           0       -0.027844   -0.125865   -0.318631
 ---------------------------------------------------------------------

 SCF Done:  E(UB3LYP) =  -1136.12868042     A.U. after   24 cycles

 The electronic state is 2-A.
 Alpha  occ. eigenvalues --  -38.44685 -38.44199 -38.43921 -38.43807 -38.43695
 Alpha  occ. eigenvalues --  -38.43220 -38.43217  -2.20471  -2.20081  -2.19751
 Alpha  occ. eigenvalues --   -2.19748  -2.19565  -2.19091  -2.19057  -1.14161
 Alpha  occ. eigenvalues --   -1.14138  -1.14100  -1.13787  -1.13750  -1.13718
 Alpha  occ. eigenvalues --   -1.13482  -1.13440  -1.13417  -1.13394  -1.13373
 Alpha  occ. eigenvalues --   -1.13368  -1.13225  -1.13216  -1.13202  -1.12746
 Alpha  occ. eigenvalues --   -1.12734  -1.12723  -1.12714  -1.12696  -1.12693
 Alpha  occ. eigenvalues --   -0.17562  -0.13754  -0.13604  -0.09497
 Alpha virt. eigenvalues --   -0.06706  -0.05685  -0.04346  -0.03163  -0.02716
 Alpha virt. eigenvalues --   -0.02068  -0.01980  -0.01593  -0.01456  -0.00269
 Alpha virt. eigenvalues --    0.00118   0.00325   0.00510   0.00674   0.00758

  Beta  occ. eigenvalues --  -38.44677 -38.44179 -38.43887 -38.43819 -38.43662
  Beta  occ. eigenvalues --  -38.43164 -38.43162  -2.20461  -2.20053  -2.19770
  Beta  occ. eigenvalues --   -2.19687  -2.19509  -2.18988  -2.18955  -1.14160
  Beta  occ. eigenvalues --   -1.14138  -1.14048  -1.13778  -1.13739  -1.13638
  Beta  occ. eigenvalues --   -1.13487  -1.13436  -1.13415  -1.13379  -1.13351
  Beta  occ. eigenvalues --   -1.13312  -1.13191  -1.13184  -1.13137  -1.12676
  Beta  occ. eigenvalues --   -1.12665  -1.12653  -1.12644  -1.12629  -1.12625
  Beta  occ. eigenvalues --   -0.17281  -0.13084  -0.12932
  Beta virt. eigenvalues --   -0.06800  -0.06265  -0.05382  -0.04206  -0.02558
  Beta virt. eigenvalues --   -0.02095  -0.01933  -0.01923  -0.01322  -0.01185
  Beta virt. eigenvalues --   -0.00106   0.00385   0.00478   0.00549   0.00748

 Mulliken charges and spin densities:
               1          2
     1  Na   0.973771   0.117367
     2  Na   0.813804   0.070858
     3  Na   0.250460   0.297255
     4  Na   1.328649   0.196303
     5  Na   1.020360   0.228893
     6  Na   0.631918   0.276250
     7  Na  -5.018963  -0.186925
 Sum of Mulliken charges =  -0.00000   1.00000

 Dipole moment (field-independent basis, Debye):
    X=              0.1062    Y=             -0.1702    Z=              0.0607  Tot=              0.2096
 Quadrupole moment (field-independent basis, Debye-Ang):
   XX=            -60.3099   YY=            -63.7010   ZZ=            -72.6315
   XY=              0.0648   XZ=              0.1708   YZ=              0.1559

 Normal termination of Gaussian 16 at Wed Nov 29 17:06:19 2023.
