 Gaussian 16, Revision B.01,
 Gaussian 16:  ES64L-G16RevB.01 20-Dec-2017

 -------------------------
 #P B3LYP/6-311+g(d) force
 -------------------------

 -----
 DPGEN
 -----
 Symbolic Z-matrix:
 Charge =  0 Multiplicity = 2

                         Standard orientation:
 ---------------------------------------------------------------------
 Center     Atomic      Atomic             Coordinates (Angstroms)
 Number     Number       Type             X           Y           Z
 ---------------------------------------------------------------------
      1         11           0        2.752140   -1.622519   -0.393213
      2         11           0       -1.254172    2.643235   -0.231598
      3         11           0        2.735109    1.660763    0.031699
      4         11           0       -0.862354   -2.540080    0.084134
      5         11           0        0.029621    0.099465    2.152468
      6         11           0       -3.245202   -0.325993   -0.148487
      7         11           0       -0.155142    0.085128   -1.495003
 ---------------------------------------------------------------------

 SCF Done:  E(UB3LYP) =  -1136.13420159     A.U. after   19 cycles

 The electronic state is 2-A.
 Alpha  occ. eigenvalues --  -38.44456 -38.44189 -38.43911 -38.43666 -38.43230
 Alpha  occ. eigenvalues --  -38.43205 -38.42901  -2.20303  -2.20001  -2.19736
 Alpha  occ. eigenvalues --   -2.19541  -2.19225  -2.19086  -2.18802  -1.13981
 Alpha  occ. eigenvalues --   -1.13962  -1.13942  -1.13677  -1.13672  -1.13640
 Alpha  occ. eigenvalues --   -1.13408  -1.13387  -1.13375  -1.13208  -1.13163
 Alpha  occ. eigenvalues --   -1.13157  -1.12972  -1.12927  -1.12838  -1.12741
 Alpha  occ. eigenvalues --   -1.12728  -1.12698  -1.12493  -1.12459  -1.12423
 Alpha  occ. eigenvalues --   -0.18684  -0.13366  -0.12079  -0.10752
 Alpha virt. eigenvalues --   -0.06046  -0.05305  -0.04202  -0.03265  -0.02683
 Alpha virt. eigenvalues --   -0.02595  -0.01885  -0.01137  -0.00411  -0.00221
 Alpha virt. eigenvalues --   -0.00028   0.00322   0.00736   0.00844   0.00907

  Beta  occ. eigenvalues --  -38.44452 -38.44187 -38.43903 -38.43558 -38.43225
  Beta  occ. eigenvalues --  -38.43153 -38.42893  -2.20299  -2.20000  -2.19724
  Beta  occ. eigenvalues --   -2.19343  -2.19133  -2.19079  -2.18792  -1.13976
  Beta  occ. eigenvalues --   -1.13944  -1.13939  -1.13678  -1.13656  -1.13639
  Beta  occ. eigenvalues --   -1.13389  -1.13378  -1.13367  -1.13077  -1.13024
  Beta  occ. eigenvalues --   -1.13014  -1.12924  -1.12861  -1.12771  -1.12719
  Beta  occ. eigenvalues --   -1.12704  -1.12687  -1.12486  -1.12423  -1.12417
  Beta  occ. eigenvalues --   -0.17965  -0.13141  -0.11837
  Beta virt. eigenvalues --   -0.06800  -0.05992  -0.05288  -0.04191  -0.02514
  Beta virt. eigenvalues --   -0.01905  -0.01797  -0.01491  -0.01078  -0.00458
  Beta virt. eigenvalues --   -0.00244   0.00124   0.00359   0.00806   0.00843

 Mulliken charges and spin densities:
               1          2
     1  Na   0.123845   0.017237
     2  Na   0.207341  -0.039042
     3  Na   0.164372  -0.018004
     4  Na   0.290326   0.063202
     5  Na  -0.575443   0.734760
     6  Na   0.281174  -0.004012
     7  Na  -0.491615   0.245859
 Sum of Mulliken charges =  -0.00000   1.00000

 Dipole moment (field-independent basis, Debye):
    X=              0.0221    Y=              0.1378    Z=              0.1944  Tot=              0.2393
 Quadrupole moment (field-independent basis, Debye-Ang):
   XX=            -52.4990   YY=            -65.7397   ZZ=            -74.6760
   XY=              0.3036   XZ=             -0.3633   YZ=              0.3917

 Normal termination of Gaussian 16 at Thu Dec  7 03:44:59 2023.
