 Gaussian 16, Revision B.01,
 Gaussian 16:  ES64L-G16RevB.01 20-Dec-2017

 -------------------------
 #P B3LYP/6-311+g(d) force
 -------------------------

 -----
 DPGEN
 -----
 Symbolic Z-matrix:
 Charge =  0 Multiplicity = 2

                         Standard orientation:
 ---------------------------------------------------------------------
 Center     Atomic      Atomic             Coordinates (Angstroms)
 Number     Number       Type             X           Y           Z
 ---------------------------------------------------------------------
      1         11           0       -2.277582    2.013106    0.088774
      2         11           0       -1.357886   -1.068832   -0.558847
      3         11           0        2.459593   -1.805407   -0.939915
      4         11           0        1.202586    1.136197    0.598905
      5         11           0        4.371844    1.182133   -0.728420
      6         11           0        0.452625   -1.136801    2.203674
      7         11           0       -4.851180   -0.320396   -0.664171
 ---------------------------------------------------------------------

 SCF Done:  E(UB3LYP) =  -1136.11704974     A.U. after   24 cycles

 The electronic state is 2-A.
 Alpha  occ. eigenvalues --  -38.44655 -38.44641 -38.44151 -38.44102 -38.43889
 Alpha  occ. eigenvalues --  -38.43553 -38.42654  -2.20477  -2.20476  -2.20010
 Alpha  occ. eigenvalues --   -2.19946  -2.19776  -2.19540  -2.18459  -1.14181
 Alpha  occ. eigenvalues --   -1.14175  -1.14138  -1.14133  -1.14078  -1.14068
 Alpha  occ. eigenvalues --   -1.13729  -1.13698  -1.13625  -1.13608  -1.13608
 Alpha  occ. eigenvalues --   -1.13590  -1.13553  -1.13412  -1.13390  -1.13231
 Alpha  occ. eigenvalues --   -1.13164  -1.13108  -1.12132  -1.12122  -1.12090
 Alpha  occ. eigenvalues --   -0.18123  -0.14066  -0.11398  -0.11012
 Alpha virt. eigenvalues --   -0.06895  -0.05513  -0.04353  -0.03055  -0.03001
 Alpha virt. eigenvalues --   -0.02443  -0.01987  -0.01302  -0.01258  -0.00580
 Alpha virt. eigenvalues --   -0.00193   0.00099   0.00429   0.00467   0.00707

  Beta  occ. eigenvalues --  -38.44612 -38.44604 -38.44123 -38.44073 -38.43901
  Beta  occ. eigenvalues --  -38.43501 -38.42649  -2.20410  -2.20398  -2.19960
  Beta  occ. eigenvalues --   -2.19892  -2.19803  -2.19447  -2.18450  -1.14138
  Beta  occ. eigenvalues --   -1.14121  -1.14097  -1.14084  -1.14004  -1.14000
  Beta  occ. eigenvalues --   -1.13693  -1.13654  -1.13609  -1.13580  -1.13571
  Beta  occ. eigenvalues --   -1.13555  -1.13520  -1.13428  -1.13385  -1.13176
  Beta  occ. eigenvalues --   -1.13101  -1.13025  -1.12123  -1.12115  -1.12086
  Beta  occ. eigenvalues --   -0.17397  -0.13806  -0.10917
  Beta virt. eigenvalues --   -0.07594  -0.06490  -0.05005  -0.04190  -0.02841
  Beta virt. eigenvalues --   -0.02411  -0.02044  -0.01815  -0.01100  -0.00778
  Beta virt. eigenvalues --   -0.00362  -0.00123   0.00242   0.00485   0.00570

 Mulliken charges and spin densities:
               1          2
     1  Na   0.179203   0.048962
     2  Na  -1.173137   0.243173
     3  Na   0.198315   0.097252
     4  Na  -0.897475   0.183892
     5  Na   0.435955   0.064843
     6  Na   0.633277   0.192554
     7  Na   0.623862   0.169324
 Sum of Mulliken charges =  -0.00000   1.00000

 Dipole moment (field-independent basis, Debye):
    X=             -1.2401    Y=             -0.7605    Z=              0.7205  Tot=              1.6234
 Quadrupole moment (field-independent basis, Debye-Ang):
   XX=            -65.5868   YY=            -65.7589   ZZ=            -68.8389
   XY=             -2.3483   XZ=              1.3361   YZ=              1.9254

 Normal termination of Gaussian 16 at Wed Nov 29 01:04:25 2023.
