 Gaussian 16, Revision B.01,
 Gaussian 16:  ES64L-G16RevB.01 20-Dec-2017

 -------------------------
 #P B3LYP/6-311+g(d) force
 -------------------------

 -----
 DPGEN
 -----
 Symbolic Z-matrix:
 Charge =  0 Multiplicity = 2

                         Standard orientation:
 ---------------------------------------------------------------------
 Center     Atomic      Atomic             Coordinates (Angstroms)
 Number     Number       Type             X           Y           Z
 ---------------------------------------------------------------------
      1         11           0        4.437593   -1.432771    0.887163
      2         11           0        1.004741   -0.840352    0.836621
      3         11           0        2.826499    1.733752   -0.825943
      4         11           0       -2.656625    1.129073    2.034835
      5         11           0       -0.225888    2.020210   -0.968632
      6         11           0       -4.487400   -0.950740   -0.272691
      7         11           0       -0.898919   -1.659172   -1.691353
 ---------------------------------------------------------------------

 SCF Done:  E(UB3LYP) =  -1136.10837605     A.U. after   34 cycles

 The electronic state is 2-A.
 Alpha  occ. eigenvalues --  -38.45405 -38.45118 -38.44856 -38.44772 -38.44421
 Alpha  occ. eigenvalues --  -38.43246 -38.42787  -2.21151  -2.20899  -2.20683
 Alpha  occ. eigenvalues --   -2.20590  -2.20266  -2.19036  -2.18655  -1.14827
 Alpha  occ. eigenvalues --   -1.14805  -1.14784  -1.14565  -1.14532  -1.14512
 Alpha  occ. eigenvalues --   -1.14367  -1.14308  -1.14290  -1.14278  -1.14276
 Alpha  occ. eigenvalues --   -1.14208  -1.13989  -1.13924  -1.13888  -1.12697
 Alpha  occ. eigenvalues --   -1.12689  -1.12663  -1.12340  -1.12317  -1.12296
 Alpha  occ. eigenvalues --   -0.17410  -0.13847  -0.11540  -0.10935
 Alpha virt. eigenvalues --   -0.07577  -0.05153  -0.04584  -0.03811  -0.03007
 Alpha virt. eigenvalues --   -0.02692  -0.01918  -0.01610  -0.01054  -0.00661
 Alpha virt. eigenvalues --   -0.00312  -0.00140   0.00291   0.00479   0.00510

  Beta  occ. eigenvalues --  -38.45382 -38.45039 -38.44797 -38.44754 -38.44433
  Beta  occ. eigenvalues --  -38.43213 -38.42789  -2.21111  -2.20754  -2.20635
  Beta  occ. eigenvalues --   -2.20494  -2.20294  -2.18973  -2.18659  -1.14802
  Beta  occ. eigenvalues --   -1.14762  -1.14753  -1.14467  -1.14431  -1.14408
  Beta  occ. eigenvalues --   -1.14316  -1.14303  -1.14246  -1.14244  -1.14176
  Beta  occ. eigenvalues --   -1.14150  -1.13980  -1.13949  -1.13900  -1.12655
  Beta  occ. eigenvalues --   -1.12647  -1.12624  -1.12347  -1.12311  -1.12298
  Beta  occ. eigenvalues --   -0.16795  -0.13238  -0.11049
  Beta virt. eigenvalues --   -0.07823  -0.07340  -0.04843  -0.03926  -0.03213
  Beta virt. eigenvalues --   -0.02965  -0.02425  -0.01555  -0.01435  -0.00773
  Beta virt. eigenvalues --   -0.00476  -0.00183   0.00119   0.00348   0.00534

 Mulliken charges and spin densities:
               1          2
     1  Na   0.242138   0.137212
     2  Na  -1.422945  -0.097553
     3  Na   0.319851  -0.130140
     4  Na   0.773254   0.522123
     5  Na  -0.505885   0.055009
     6  Na  -0.174636   0.080541
     7  Na   0.768222   0.432808
 Sum of Mulliken charges =  -0.00000   1.00000

 Dipole moment (field-independent basis, Debye):
    X=             -1.0750    Y=              0.2270    Z=             -0.5217  Tot=              1.2163
 Quadrupole moment (field-independent basis, Debye-Ang):
   XX=            -57.4071   YY=            -75.0103   ZZ=            -67.5200
   XY=              4.3333   XZ=             -0.9714   YZ=              2.0217

 Normal termination of Gaussian 16 at Sun Dec  3 16:17:13 2023.
