 Gaussian 16, Revision B.01,
 Gaussian 16:  ES64L-G16RevB.01 20-Dec-2017

 -------------------------
 #P B3LYP/6-311+g(d) force
 -------------------------

 -----
 DPGEN
 -----
 Symbolic Z-matrix:
 Charge =  0 Multiplicity = 2

                         Standard orientation:
 ---------------------------------------------------------------------
 Center     Atomic      Atomic             Coordinates (Angstroms)
 Number     Number       Type             X           Y           Z
 ---------------------------------------------------------------------
      1         11           0        0.118776   -0.159077    1.763183
      2         11           0        0.058671   -2.831728   -0.055930
      3         11           0       -0.453064    0.016167   -1.757715
      4         11           0       -2.970843   -0.787680    0.125501
      5         11           0        1.934398    2.274769   -0.071956
      6         11           0        2.759357   -1.044798   -0.117653
      7         11           0       -1.447296    2.532346    0.114571
 ---------------------------------------------------------------------

 SCF Done:  E(UB3LYP) =  -1136.14048284     A.U. after   19 cycles

 The electronic state is 2-A.
 Alpha  occ. eigenvalues --  -38.43786 -38.43607 -38.43532 -38.43495 -38.43437
 Alpha  occ. eigenvalues --  -38.43098 -38.43079  -2.19641  -2.19476  -2.19412
 Alpha  occ. eigenvalues --   -2.19349  -2.19342  -2.19079  -2.19062  -1.13331
 Alpha  occ. eigenvalues --   -1.13305  -1.13274  -1.13173  -1.13147  -1.13128
 Alpha  occ. eigenvalues --   -1.13109  -1.13091  -1.13073  -1.13029  -1.13014
 Alpha  occ. eigenvalues --   -1.13010  -1.13003  -1.12979  -1.12943  -1.12766
 Alpha  occ. eigenvalues --   -1.12724  -1.12703  -1.12694  -1.12684  -1.12675
 Alpha  occ. eigenvalues --   -0.19083  -0.12996  -0.12835  -0.10630
 Alpha virt. eigenvalues --   -0.05386  -0.05082  -0.04914  -0.03077  -0.02948
 Alpha virt. eigenvalues --   -0.02317  -0.01351  -0.01158  -0.00275  -0.00235
 Alpha virt. eigenvalues --    0.00019   0.00372   0.00876   0.00903   0.00925

  Beta  occ. eigenvalues --  -38.43781 -38.43601 -38.43528 -38.43492 -38.43428
  Beta  occ. eigenvalues --  -38.43022 -38.42999  -2.19635  -2.19469  -2.19407
  Beta  occ. eigenvalues --   -2.19346  -2.19331  -2.18939  -2.18917  -1.13323
  Beta  occ. eigenvalues --   -1.13277  -1.13275  -1.13167  -1.13125  -1.13116
  Beta  occ. eigenvalues --   -1.13108  -1.13090  -1.13043  -1.13020  -1.13004
  Beta  occ. eigenvalues --   -1.12988  -1.12982  -1.12969  -1.12942  -1.12675
  Beta  occ. eigenvalues --   -1.12628  -1.12602  -1.12593  -1.12580  -1.12570
  Beta  occ. eigenvalues --   -0.18345  -0.12744  -0.12581
  Beta virt. eigenvalues --   -0.06708  -0.05386  -0.05068  -0.04882  -0.02262
  Beta virt. eigenvalues --   -0.02149  -0.01278  -0.01274  -0.01086  -0.00331
  Beta virt. eigenvalues --   -0.00297   0.00149   0.00394   0.00895   0.00908

 Mulliken charges and spin densities:
               1          2
     1  Na  -0.388700   0.712767
     2  Na   0.303006  -0.072950
     3  Na  -0.397574   0.712952
     4  Na   0.235039  -0.117360
     5  Na   0.033556  -0.083425
     6  Na   0.083716  -0.049461
     7  Na   0.130957  -0.102524
 Sum of Mulliken charges =  -0.00000   1.00000

 Dipole moment (field-independent basis, Debye):
    X=             -0.1804    Y=              0.0335    Z=              0.0108  Tot=              0.1838
 Quadrupole moment (field-independent basis, Debye-Ang):
   XX=            -57.7127   YY=            -60.3963   ZZ=            -74.9325
   XY=              0.2631   XZ=             -1.3465   YZ=              0.3648

 Normal termination of Gaussian 16 at Tue Dec  5 11:36:41 2023.
