 Gaussian 16, Revision B.01,
 Gaussian 16:  ES64L-G16RevB.01 20-Dec-2017

 -------------------------
 #P B3LYP/6-311+g(d) force
 -------------------------

 -----
 DPGEN
 -----
 Symbolic Z-matrix:
 Charge =  0 Multiplicity = 2

                         Standard orientation:
 ---------------------------------------------------------------------
 Center     Atomic      Atomic             Coordinates (Angstroms)
 Number     Number       Type             X           Y           Z
 ---------------------------------------------------------------------
      1         11           0       -3.108066   -0.968525   -0.170426
      2         11           0        0.254592   -2.633819   -0.504661
      3         11           0        0.156940    0.237811   -1.748676
      4         11           0        1.995293    2.247066   -0.258666
      5         11           0       -2.109326    2.100259    0.009439
      6         11           0        2.890111   -0.844749    0.209408
      7         11           0       -0.079544   -0.138043    2.463583
 ---------------------------------------------------------------------

 SCF Done:  E(UB3LYP) =  -1136.13208145     A.U. after   19 cycles

 The electronic state is 2-A.
 Alpha  occ. eigenvalues --  -38.44677 -38.44259 -38.43994 -38.43656 -38.43628
 Alpha  occ. eigenvalues --  -38.43304 -38.42779  -2.20490  -2.20070  -2.19870
 Alpha  occ. eigenvalues --   -2.19609  -2.19490  -2.19164  -2.18660  -1.14132
 Alpha  occ. eigenvalues --   -1.14117  -1.14111  -1.13747  -1.13737  -1.13711
 Alpha  occ. eigenvalues --   -1.13545  -1.13533  -1.13524  -1.13300  -1.13288
 Alpha  occ. eigenvalues --   -1.13241  -1.13156  -1.13151  -1.13121  -1.12847
 Alpha  occ. eigenvalues --   -1.12815  -1.12789  -1.12367  -1.12306  -1.12283
 Alpha  occ. eigenvalues --   -0.18517  -0.13280  -0.11906  -0.11428
 Alpha virt. eigenvalues --   -0.05827  -0.05227  -0.04031  -0.03616  -0.03318
 Alpha virt. eigenvalues --   -0.02858  -0.01575  -0.00938  -0.00242  -0.00146
 Alpha virt. eigenvalues --   -0.00071   0.00369   0.00708   0.00779   0.00894

  Beta  occ. eigenvalues --  -38.44565 -38.44260 -38.43990 -38.43654 -38.43568
  Beta  occ. eigenvalues --  -38.43301 -38.42768  -2.20283  -2.20073  -2.19866
  Beta  occ. eigenvalues --   -2.19499  -2.19488  -2.19161  -2.18644  -1.13994
  Beta  occ. eigenvalues --   -1.13974  -1.13962  -1.13752  -1.13725  -1.13714
  Beta  occ. eigenvalues --   -1.13545  -1.13532  -1.13499  -1.13229  -1.13209
  Beta  occ. eigenvalues --   -1.13185  -1.13139  -1.13132  -1.13113  -1.12836
  Beta  occ. eigenvalues --   -1.12802  -1.12787  -1.12350  -1.12280  -1.12275
  Beta  occ. eigenvalues --   -0.17779  -0.13117  -0.11686
  Beta virt. eigenvalues --   -0.07393  -0.05691  -0.05237  -0.03993  -0.02812
  Beta virt. eigenvalues --   -0.02278  -0.02059  -0.01474  -0.00876  -0.00280
  Beta virt. eigenvalues --   -0.00146   0.00078   0.00400   0.00822   0.00890

 Mulliken charges and spin densities:
               1          2
     1  Na   0.063681  -0.040378
     2  Na   0.102951   0.045237
     3  Na   0.056880   0.168479
     4  Na   0.174364   0.012915
     5  Na   0.072630   0.013706
     6  Na   0.129208   0.134819
     7  Na  -0.599714   0.665222
 Sum of Mulliken charges =  -0.00000   1.00000

 Dipole moment (field-independent basis, Debye):
    X=             -0.2628    Y=              0.0217    Z=              0.4308  Tot=              0.5050
 Quadrupole moment (field-independent basis, Debye-Ang):
   XX=            -56.7759   YY=            -68.3962   ZZ=            -70.8039
   XY=              0.5285   XZ=              0.7683   YZ=              0.5990

 Normal termination of Gaussian 16 at Thu Dec  7 08:01:58 2023.
