 Gaussian 16, Revision B.01,
 Gaussian 16:  ES64L-G16RevB.01 20-Dec-2017

 -------------------------
 #P B3LYP/6-311+g(d) force
 -------------------------

 -----
 DPGEN
 -----
 Symbolic Z-matrix:
 Charge =  0 Multiplicity = 2

                         Standard orientation:
 ---------------------------------------------------------------------
 Center     Atomic      Atomic             Coordinates (Angstroms)
 Number     Number       Type             X           Y           Z
 ---------------------------------------------------------------------
      1         11           0       -3.154510    0.158334   -0.157586
      2         11           0        2.553749    1.198722   -0.231483
      3         11           0        2.113644   -2.198806   -0.243087
      4         11           0       -1.324388   -2.211482   -0.325218
      5         11           0        0.086118   -0.459794    2.269929
      6         11           0       -0.021987    0.363954   -1.517262
      7         11           0       -0.252626    3.149073    0.204706
 ---------------------------------------------------------------------

 SCF Done:  E(UB3LYP) =  -1136.13343285     A.U. after   19 cycles

 The electronic state is 2-A.
 Alpha  occ. eigenvalues --  -38.43970 -38.43851 -38.43712 -38.43712 -38.43365
 Alpha  occ. eigenvalues --  -38.43282 -38.43160  -2.19830  -2.19707  -2.19607
 Alpha  occ. eigenvalues --   -2.19531  -2.19241  -2.19223  -2.19202  -1.13487
 Alpha  occ. eigenvalues --   -1.13461  -1.13445  -1.13439  -1.13378  -1.13357
 Alpha  occ. eigenvalues --   -1.13338  -1.13262  -1.13235  -1.13208  -1.13186
 Alpha  occ. eigenvalues --   -1.13155  -1.13003  -1.12906  -1.12892  -1.12880
 Alpha  occ. eigenvalues --   -1.12876  -1.12858  -1.12831  -1.12815  -1.12794
 Alpha  occ. eigenvalues --   -0.18858  -0.13060  -0.12524  -0.11011
 Alpha virt. eigenvalues --   -0.05401  -0.05041  -0.04704  -0.03207  -0.03040
 Alpha virt. eigenvalues --   -0.02758  -0.01337  -0.01167  -0.00257  -0.00065
 Alpha virt. eigenvalues --   -0.00029   0.00352   0.00816   0.00888   0.00926

  Beta  occ. eigenvalues --  -38.43863 -38.43849 -38.43710 -38.43705 -38.43360
  Beta  occ. eigenvalues --  -38.43269 -38.43107  -2.19707  -2.19632  -2.19596
  Beta  occ. eigenvalues --   -2.19530  -2.19223  -2.19217  -2.19107  -1.13442
  Beta  occ. eigenvalues --   -1.13365  -1.13354  -1.13347  -1.13331  -1.13320
  Beta  occ. eigenvalues --   -1.13303  -1.13237  -1.13231  -1.13202  -1.13175
  Beta  occ. eigenvalues --   -1.13156  -1.12975  -1.12900  -1.12877  -1.12852
  Beta  occ. eigenvalues --   -1.12847  -1.12822  -1.12797  -1.12752  -1.12728
  Beta  occ. eigenvalues --   -0.18119  -0.12819  -0.12331
  Beta virt. eigenvalues --   -0.07004  -0.05386  -0.04966  -0.04685  -0.02406
  Beta virt. eigenvalues --   -0.02264  -0.01675  -0.01258  -0.01097  -0.00294
  Beta virt. eigenvalues --   -0.00096   0.00135   0.00385   0.00869   0.00895

 Mulliken charges and spin densities:
               1          2
     1  Na   0.106781  -0.028778
     2  Na   0.307841   0.029707
     3  Na   0.270664   0.031848
     4  Na   0.411058   0.085185
     5  Na  -0.802431   0.735020
     6  Na  -0.319163   0.130228
     7  Na   0.025250   0.016789
 Sum of Mulliken charges =  -0.00000   1.00000

 Dipole moment (field-independent basis, Debye):
    X=             -0.0397    Y=              0.2691    Z=              0.3492  Tot=              0.4427
 Quadrupole moment (field-independent basis, Debye-Ang):
   XX=            -59.4102   YY=            -61.9236   ZZ=            -73.0419
   XY=             -1.9598   XZ=             -0.4928   YZ=              1.8088

 Normal termination of Gaussian 16 at Thu Dec  7 16:21:22 2023.
