 Gaussian 16, Revision B.01,
 Gaussian 16:  ES64L-G16RevB.01 20-Dec-2017

 -------------------------
 #P B3LYP/6-311+g(d) force
 -------------------------

 -----
 DPGEN
 -----
 Symbolic Z-matrix:
 Charge =  0 Multiplicity = 2

                         Standard orientation:
 ---------------------------------------------------------------------
 Center     Atomic      Atomic             Coordinates (Angstroms)
 Number     Number       Type             X           Y           Z
 ---------------------------------------------------------------------
      1         11           0        0.035654   -0.871459    1.922198
      2         11           0       -0.456203    2.079507   -0.365380
      3         11           0       -3.666956    1.039865    0.589622
      4         11           0        3.329429    1.400525    0.142579
      5         11           0       -2.894180   -1.768374   -0.698622
      6         11           0        3.105769   -1.547552    0.116981
      7         11           0        0.546487   -0.332512   -1.707378
 ---------------------------------------------------------------------

 SCF Done:  E(UB3LYP) =  -1136.10679781     A.U. after   32 cycles

 The electronic state is 2-A.
 Alpha  occ. eigenvalues --  -38.45702 -38.45292 -38.44986 -38.44657 -38.44227
 Alpha  occ. eigenvalues --  -38.43506 -38.42364  -2.21466  -2.21126  -2.20804
 Alpha  occ. eigenvalues --   -2.20458  -2.20106  -2.19465  -2.18253  -1.15168
 Alpha  occ. eigenvalues --   -1.15131  -1.15076  -1.14856  -1.14784  -1.14733
 Alpha  occ. eigenvalues --   -1.14496  -1.14448  -1.14436  -1.14124  -1.14111
 Alpha  occ. eigenvalues --   -1.14093  -1.13789  -1.13766  -1.13730  -1.13201
 Alpha  occ. eigenvalues --   -1.13095  -1.13046  -1.11981  -1.11922  -1.11837
 Alpha  occ. eigenvalues --   -0.18309  -0.14539  -0.10789  -0.10642
 Alpha virt. eigenvalues --   -0.07823  -0.06019  -0.04135  -0.03219  -0.02972
 Alpha virt. eigenvalues --   -0.02468  -0.02293  -0.01660  -0.00699  -0.00548
 Alpha virt. eigenvalues --   -0.00026   0.00132   0.00285   0.00508   0.00543

  Beta  occ. eigenvalues --  -38.45687 -38.45282 -38.44956 -38.44638 -38.44223
  Beta  occ. eigenvalues --  -38.43411 -38.42349  -2.21438  -2.21109  -2.20748
  Beta  occ. eigenvalues --   -2.20425  -2.20101  -2.19292  -2.18230  -1.15149
  Beta  occ. eigenvalues --   -1.15102  -1.15056  -1.14848  -1.14766  -1.14712
  Beta  occ. eigenvalues --   -1.14456  -1.14407  -1.14397  -1.14103  -1.14076
  Beta  occ. eigenvalues --   -1.14064  -1.13788  -1.13742  -1.13727  -1.13084
  Beta  occ. eigenvalues --   -1.12977  -1.12918  -1.11954  -1.11887  -1.11825
  Beta  occ. eigenvalues --   -0.17694  -0.14193  -0.10608
  Beta virt. eigenvalues --   -0.07595  -0.07026  -0.05762  -0.03596  -0.03030
  Beta virt. eigenvalues --   -0.02853  -0.01945  -0.01628  -0.01344  -0.00585
  Beta virt. eigenvalues --   -0.00306   0.00038   0.00161   0.00452   0.00592

 Mulliken charges and spin densities:
               1          2
     1  Na  -0.424774   0.181326
     2  Na  -0.245546  -0.070430
     3  Na   0.198407   0.248176
     4  Na  -0.078809   0.031232
     5  Na   0.168385  -0.031658
     6  Na   0.651476   0.070632
     7  Na  -0.269140   0.570723
 Sum of Mulliken charges =  -0.00000   1.00000

 Dipole moment (field-independent basis, Debye):
    X=              0.1051    Y=             -0.1217    Z=              0.3231  Tot=              0.3609
 Quadrupole moment (field-independent basis, Debye-Ang):
   XX=            -47.5977   YY=            -76.2684   ZZ=            -72.1176
   XY=              1.7586   XZ=             -0.4334   YZ=              4.2960

 Normal termination of Gaussian 16 at Thu Dec  7 04:35:05 2023.
