 Gaussian 16, Revision B.01,
 Gaussian 16:  ES64L-G16RevB.01 20-Dec-2017

 -------------------------
 #P B3LYP/6-311+g(d) force
 -------------------------

 -----
 DPGEN
 -----
 Symbolic Z-matrix:
 Charge =  0 Multiplicity = 2

                         Standard orientation:
 ---------------------------------------------------------------------
 Center     Atomic      Atomic             Coordinates (Angstroms)
 Number     Number       Type             X           Y           Z
 ---------------------------------------------------------------------
      1         11           0       -0.810182    0.432076    2.314273
      2         11           0        2.293689   -0.632059    1.859804
      3         11           0        2.949401    0.126317   -1.286566
      4         11           0        0.653000    2.509738   -0.790236
      5         11           0       -2.504867    2.005344   -0.589996
      6         11           0        0.806538   -2.440118   -1.112057
      7         11           0       -3.387580   -2.001298   -0.395222
 ---------------------------------------------------------------------

 SCF Done:  E(UB3LYP) =  -1136.11901944     A.U. after   23 cycles

 The electronic state is 2-A.
 Alpha  occ. eigenvalues --  -38.45116 -38.44821 -38.44426 -38.44160 -38.44123
 Alpha  occ. eigenvalues --  -38.44084 -38.43178  -2.20928  -2.20676  -2.20199
 Alpha  occ. eigenvalues --   -2.19995  -2.19886  -2.19879  -2.19013  -1.14622
 Alpha  occ. eigenvalues --   -1.14557  -1.14545  -1.14347  -1.14323  -1.14294
 Alpha  occ. eigenvalues --   -1.13895  -1.13863  -1.13820  -1.13666  -1.13649
 Alpha  occ. eigenvalues --   -1.13614  -1.13576  -1.13562  -1.13548  -1.13535
 Alpha  occ. eigenvalues --   -1.13525  -1.13507  -1.12693  -1.12664  -1.12658
 Alpha  occ. eigenvalues --   -0.17540  -0.13202  -0.12093  -0.11532
 Alpha virt. eigenvalues --   -0.06183  -0.05521  -0.04958  -0.03646  -0.03198
 Alpha virt. eigenvalues --   -0.02818  -0.01582  -0.01020  -0.00682  -0.00384
 Alpha virt. eigenvalues --   -0.00205   0.00147   0.00348   0.00369   0.00424

  Beta  occ. eigenvalues --  -38.45034 -38.44759 -38.44403 -38.44158 -38.44096
  Beta  occ. eigenvalues --  -38.44080 -38.43164  -2.20781  -2.20566  -2.20158
  Beta  occ. eigenvalues --   -2.19945  -2.19878  -2.19874  -2.18990  -1.14515
  Beta  occ. eigenvalues --   -1.14462  -1.14425  -1.14264  -1.14252  -1.14200
  Beta  occ. eigenvalues --   -1.13861  -1.13835  -1.13791  -1.13624  -1.13619
  Beta  occ. eigenvalues --   -1.13580  -1.13568  -1.13558  -1.13542  -1.13532
  Beta  occ. eigenvalues --   -1.13522  -1.13503  -1.12674  -1.12649  -1.12637
  Beta  occ. eigenvalues --   -0.16789  -0.13103  -0.11359
  Beta virt. eigenvalues --   -0.07979  -0.06021  -0.05284  -0.04458  -0.03372
  Beta virt. eigenvalues --   -0.02502  -0.02207  -0.01483  -0.00956  -0.00435
  Beta virt. eigenvalues --   -0.00194  -0.00163   0.00390   0.00422   0.00494

 Mulliken charges and spin densities:
               1          2
     1  Na  -0.260289   0.356790
     2  Na   0.311110   0.125294
     3  Na   0.302257   0.318317
     4  Na  -0.247170   0.073298
     5  Na   0.337643   0.009986
     6  Na  -0.405483   0.099017
     7  Na  -0.038069   0.017299
 Sum of Mulliken charges =  -0.00000   1.00000

 Dipole moment (field-independent basis, Debye):
    X=              0.4642    Y=             -0.0522    Z=              0.2688  Tot=              0.5390
 Quadrupole moment (field-independent basis, Debye-Ang):
   XX=            -58.7072   YY=            -73.7981   ZZ=            -67.0629
   XY=             -2.1593   XZ=              0.2488   YZ=              0.1469

 Normal termination of Gaussian 16 at Tue Nov 28 19:47:48 2023.
