 Gaussian 16, Revision B.01,
 Gaussian 16:  ES64L-G16RevB.01 20-Dec-2017

 -------------------------
 #P B3LYP/6-311+g(d) force
 -------------------------

 -----
 DPGEN
 -----
 Symbolic Z-matrix:
 Charge =  0 Multiplicity = 2

                         Standard orientation:
 ---------------------------------------------------------------------
 Center     Atomic      Atomic             Coordinates (Angstroms)
 Number     Number       Type             X           Y           Z
 ---------------------------------------------------------------------
      1         11           0       -0.570852   -1.875094   -0.969311
      2         11           0       -0.152292   -0.875681    1.748374
      3         11           0        3.352864   -2.025861   -0.678736
      4         11           0        2.675230    1.409749    1.038888
      5         11           0        0.846757    2.638359   -1.069754
      6         11           0       -3.643741   -1.241751    0.051954
      7         11           0       -2.507966    1.970279   -0.121414
 ---------------------------------------------------------------------

 SCF Done:  E(UB3LYP) =  -1136.11465886     A.U. after   24 cycles

 The electronic state is 2-A.
 Alpha  occ. eigenvalues --  -38.45117 -38.44587 -38.44475 -38.44256 -38.44229
 Alpha  occ. eigenvalues --  -38.43844 -38.43765  -2.20934  -2.20445  -2.20301
 Alpha  occ. eigenvalues --   -2.20044  -2.19996  -2.19727  -2.19583  -1.14617
 Alpha  occ. eigenvalues --   -1.14586  -1.14572  -1.14233  -1.14103  -1.14030
 Alpha  occ. eigenvalues --   -1.14016  -1.13951  -1.13924  -1.13723  -1.13712
 Alpha  occ. eigenvalues --   -1.13680  -1.13656  -1.13646  -1.13611  -1.13424
 Alpha  occ. eigenvalues --   -1.13355  -1.13305  -1.13255  -1.13240  -1.13216
 Alpha  occ. eigenvalues --   -0.17603  -0.13746  -0.12253  -0.10001
 Alpha virt. eigenvalues --   -0.06785  -0.06519  -0.04258  -0.03512  -0.02773
 Alpha virt. eigenvalues --   -0.02513  -0.02083  -0.01730  -0.00940  -0.00281
 Alpha virt. eigenvalues --   -0.00114   0.00140   0.00290   0.00441   0.00581

  Beta  occ. eigenvalues --  -38.45116 -38.44585 -38.44458 -38.44249 -38.44167
  Beta  occ. eigenvalues --  -38.43768 -38.43759  -2.20934  -2.20443  -2.20271
  Beta  occ. eigenvalues --   -2.20031  -2.19881  -2.19587  -2.19572  -1.14619
  Beta  occ. eigenvalues --   -1.14588  -1.14561  -1.14215  -1.14100  -1.14025
  Beta  occ. eigenvalues --   -1.13999  -1.13912  -1.13907  -1.13706  -1.13700
  Beta  occ. eigenvalues --   -1.13672  -1.13574  -1.13566  -1.13536  -1.13332
  Beta  occ. eigenvalues --   -1.13260  -1.13240  -1.13232  -1.13210  -1.13205
  Beta  occ. eigenvalues --   -0.17135  -0.13524  -0.11858
  Beta virt. eigenvalues --   -0.06646  -0.06566  -0.06287  -0.03820  -0.03203
  Beta virt. eigenvalues --   -0.02458  -0.02190  -0.01802  -0.01123  -0.00822
  Beta virt. eigenvalues --   -0.00106  -0.00007   0.00226   0.00427   0.00583

 Mulliken charges and spin densities:
               1          2
     1  Na  -0.694876   0.222854
     2  Na  -0.110613   0.228239
     3  Na  -0.091378   0.287985
     4  Na   0.107039   0.209966
     5  Na  -0.004401  -0.031967
     6  Na   1.196970   0.082176
     7  Na  -0.402740   0.000747
 Sum of Mulliken charges =  -0.00000   1.00000

 Dipole moment (field-independent basis, Debye):
    X=             -1.0300    Y=             -0.3276    Z=              0.3562  Tot=              1.1380
 Quadrupole moment (field-independent basis, Debye-Ang):
   XX=            -52.0691   YY=            -72.8364   ZZ=            -73.2690
   XY=              5.8735   XZ=              0.6916   YZ=              0.8768

 Normal termination of Gaussian 16 at Mon Dec  4 02:05:21 2023.
