 Gaussian 16, Revision B.01,
 Gaussian 16:  ES64L-G16RevB.01 20-Dec-2017

 -------------------------
 #P B3LYP/6-311+g(d) force
 -------------------------

 -----
 DPGEN
 -----
 Symbolic Z-matrix:
 Charge =  0 Multiplicity = 2

                         Standard orientation:
 ---------------------------------------------------------------------
 Center     Atomic      Atomic             Coordinates (Angstroms)
 Number     Number       Type             X           Y           Z
 ---------------------------------------------------------------------
      1         11           0        2.740047    1.653408    0.299429
      2         11           0        0.334710    0.035293   -1.354064
      3         11           0       -0.319797   -0.667963    1.950498
      4         11           0       -0.462205    2.969638   -0.344965
      5         11           0        2.628737   -2.178424   -0.168180
      6         11           0       -3.064839    0.845006    0.141852
      7         11           0       -1.856653   -2.656959   -0.524570
 ---------------------------------------------------------------------

 SCF Done:  E(UB3LYP) =  -1136.13289704     A.U. after   21 cycles

 The electronic state is 2-A.
 Alpha  occ. eigenvalues --  -38.44490 -38.44249 -38.44169 -38.44149 -38.43277
 Alpha  occ. eigenvalues --  -38.43221 -38.42864  -2.20266  -2.20058  -2.19968
 Alpha  occ. eigenvalues --   -2.19963  -2.19135  -2.19096  -2.18851  -1.13948
 Alpha  occ. eigenvalues --   -1.13919  -1.13905  -1.13739  -1.13725  -1.13686
 Alpha  occ. eigenvalues --   -1.13641  -1.13639  -1.13631  -1.13626  -1.13612
 Alpha  occ. eigenvalues --   -1.13589  -1.12847  -1.12788  -1.12781  -1.12768
 Alpha  occ. eigenvalues --   -1.12723  -1.12705  -1.12550  -1.12483  -1.12476
 Alpha  occ. eigenvalues --   -0.18181  -0.12932  -0.12506  -0.10019
 Alpha virt. eigenvalues --   -0.06171  -0.05494  -0.04824  -0.03028  -0.02689
 Alpha virt. eigenvalues --   -0.02012  -0.01741  -0.01571  -0.00771  -0.00572
 Alpha virt. eigenvalues --    0.00012   0.00324   0.00694   0.00775   0.00809

  Beta  occ. eigenvalues --  -38.44488 -38.44245 -38.44154 -38.44145 -38.43271
  Beta  occ. eigenvalues --  -38.43134 -38.42816  -2.20266  -2.20053  -2.19960
  Beta  occ. eigenvalues --   -2.19942  -2.19126  -2.18935  -2.18765  -1.13937
  Beta  occ. eigenvalues --   -1.13916  -1.13904  -1.13734  -1.13710  -1.13684
  Beta  occ. eigenvalues --   -1.13635  -1.13621  -1.13607  -1.13603  -1.13601
  Beta  occ. eigenvalues --   -1.13578  -1.12835  -1.12766  -1.12765  -1.12675
  Beta  occ. eigenvalues --   -1.12609  -1.12589  -1.12477  -1.12421  -1.12414
  Beta  occ. eigenvalues --   -0.17518  -0.12740  -0.12274
  Beta virt. eigenvalues --   -0.06220  -0.06160  -0.05379  -0.04773  -0.02313
  Beta virt. eigenvalues --   -0.02027  -0.01675  -0.01464  -0.01037  -0.00813
  Beta virt. eigenvalues --   -0.00566   0.00176   0.00374   0.00708   0.00823

 Mulliken charges and spin densities:
               1          2
     1  Na   0.063200   0.038816
     2  Na  -0.091655   0.346351
     3  Na  -0.378829   0.673618
     4  Na   0.119639  -0.004848
     5  Na   0.059449  -0.071241
     6  Na   0.207782   0.040219
     7  Na   0.020414  -0.022916
 Sum of Mulliken charges =  -0.00000   1.00000

 Dipole moment (field-independent basis, Debye):
    X=              0.2501    Y=             -0.3504    Z=              0.1085  Tot=              0.4439
 Quadrupole moment (field-independent basis, Debye-Ang):
   XX=            -53.8041   YY=            -59.0762   ZZ=            -77.9724
   XY=             -0.2394   XZ=              1.4839   YZ=              1.5861

 Normal termination of Gaussian 16 at Tue Dec  5 22:49:51 2023.
