 Gaussian 16, Revision B.01,
 Gaussian 16:  ES64L-G16RevB.01 20-Dec-2017

 -------------------------
 #P B3LYP/6-311+g(d) force
 -------------------------

 -----
 DPGEN
 -----
 Symbolic Z-matrix:
 Charge =  0 Multiplicity = 2

                         Standard orientation:
 ---------------------------------------------------------------------
 Center     Atomic      Atomic             Coordinates (Angstroms)
 Number     Number       Type             X           Y           Z
 ---------------------------------------------------------------------
      1         11           0        0.383790    1.147057    0.051687
      2         11           0        3.237355    2.244004   -0.080532
      3         11           0        0.618959   -0.731636    2.045180
      4         11           0       -4.167225    1.741065   -0.621127
      5         11           0       -3.105556   -1.162706    0.495723
      6         11           0       -0.036063   -2.038282   -1.201007
      7         11           0        3.068739   -1.199502   -0.689925
 ---------------------------------------------------------------------

 SCF Done:  E(UB3LYP) =  -1136.11185908     A.U. after   24 cycles

 The electronic state is 2-A.
 Alpha  occ. eigenvalues --  -38.44611 -38.44443 -38.44413 -38.44410 -38.44046
 Alpha  occ. eigenvalues --  -38.43532 -38.43417  -2.20554  -2.20401  -2.20319
 Alpha  occ. eigenvalues --   -2.20216  -2.19823  -2.19370  -2.19301  -1.14535
 Alpha  occ. eigenvalues --   -1.14156  -1.14118  -1.14040  -1.14005  -1.13994
 Alpha  occ. eigenvalues --   -1.13969  -1.13958  -1.13928  -1.13907  -1.13881
 Alpha  occ. eigenvalues --   -1.13852  -1.13482  -1.13476  -1.13456  -1.13054
 Alpha  occ. eigenvalues --   -1.13015  -1.13009  -1.12997  -1.12942  -1.12924
 Alpha  occ. eigenvalues --   -0.18410  -0.13858  -0.11590  -0.10918
 Alpha virt. eigenvalues --   -0.06673  -0.06099  -0.03934  -0.03395  -0.02715
 Alpha virt. eigenvalues --   -0.02519  -0.02061  -0.01557  -0.00956  -0.00536
 Alpha virt. eigenvalues --   -0.00096   0.00094   0.00362   0.00499   0.00638

  Beta  occ. eigenvalues --  -38.44520 -38.44410 -38.44391 -38.44385 -38.44024
  Beta  occ. eigenvalues --  -38.43533 -38.43393  -2.20402  -2.20342  -2.20225
  Beta  occ. eigenvalues --   -2.20218  -2.19781  -2.19373  -2.19258  -1.14433
  Beta  occ. eigenvalues --   -1.14049  -1.14034  -1.13963  -1.13958  -1.13926
  Beta  occ. eigenvalues --   -1.13906  -1.13905  -1.13894  -1.13885  -1.13859
  Beta  occ. eigenvalues --   -1.13837  -1.13454  -1.13445  -1.13430  -1.13057
  Beta  occ. eigenvalues --   -1.13013  -1.13004  -1.12970  -1.12912  -1.12880
  Beta  occ. eigenvalues --   -0.17754  -0.13552  -0.11257
  Beta virt. eigenvalues --   -0.07219  -0.06373  -0.05991  -0.03623  -0.02922
  Beta virt. eigenvalues --   -0.02443  -0.02105  -0.01568  -0.01295  -0.00793
  Beta virt. eigenvalues --   -0.00196  -0.00036   0.00188   0.00458   0.00549

 Mulliken charges and spin densities:
               1          2
     1  Na  -1.425982   0.304400
     2  Na   0.279318  -0.118566
     3  Na   0.329588   0.166511
     4  Na   0.129079   0.090108
     5  Na   0.692721   0.176331
     6  Na  -0.136415   0.169709
     7  Na   0.131691   0.211507
 Sum of Mulliken charges =  -0.00000   1.00000

 Dipole moment (field-independent basis, Debye):
    X=              0.5374    Y=             -0.7066    Z=              0.5249  Tot=              1.0313
 Quadrupole moment (field-independent basis, Debye-Ang):
   XX=            -60.7008   YY=            -68.5347   ZZ=            -69.9910
   XY=              0.0963   XZ=              1.4813   YZ=             -3.8398

 Normal termination of Gaussian 16 at Tue Dec  5 18:29:31 2023.
