 Gaussian 16, Revision B.01,
 Gaussian 16:  ES64L-G16RevB.01 20-Dec-2017

 -------------------------
 #P B3LYP/6-311+g(d) force
 -------------------------

 -----
 DPGEN
 -----
 Symbolic Z-matrix:
 Charge =  0 Multiplicity = 2

                         Standard orientation:
 ---------------------------------------------------------------------
 Center     Atomic      Atomic             Coordinates (Angstroms)
 Number     Number       Type             X           Y           Z
 ---------------------------------------------------------------------
      1         11           0        0.222790    3.535203   -0.406754
      2         11           0       -3.228216    1.648339    0.230473
      3         11           0        3.017301    1.754888    0.610313
      4         11           0        3.505747   -1.691903   -0.452081
      5         11           0       -0.178291   -0.270749   -0.085374
      6         11           0       -3.137730   -1.402715   -0.198782
      7         11           0       -0.201602   -3.573063    0.302205
 ---------------------------------------------------------------------

 SCF Done:  E(UB3LYP) =  -1136.12590171     A.U. after   21 cycles

 The electronic state is 2-A.
 Alpha  occ. eigenvalues --  -38.44557 -38.44261 -38.43999 -38.43803 -38.43696
 Alpha  occ. eigenvalues --  -38.43660 -38.43647  -2.20345  -2.20150  -2.19892
 Alpha  occ. eigenvalues --   -2.19596  -2.19506  -2.19501  -2.19482  -1.14037
 Alpha  occ. eigenvalues --   -1.14012  -1.13978  -1.13873  -1.13819  -1.13788
 Alpha  occ. eigenvalues --   -1.13626  -1.13529  -1.13523  -1.13260  -1.13231
 Alpha  occ. eigenvalues --   -1.13220  -1.13167  -1.13164  -1.13156  -1.13144
 Alpha  occ. eigenvalues --   -1.13142  -1.13140  -1.13125  -1.13122  -1.13108
 Alpha  occ. eigenvalues --   -0.17072  -0.13881  -0.13091  -0.09902
 Alpha virt. eigenvalues --   -0.06369  -0.05652  -0.04622  -0.03034  -0.02526
 Alpha virt. eigenvalues --   -0.02211  -0.02005  -0.01933  -0.01725  -0.00134
 Alpha virt. eigenvalues --    0.00092   0.00268   0.00517   0.00547   0.00631

  Beta  occ. eigenvalues --  -38.44551 -38.44243 -38.44009 -38.43735 -38.43653
  Beta  occ. eigenvalues --  -38.43616 -38.43604  -2.20339  -2.20125  -2.19909
  Beta  occ. eigenvalues --   -2.19471  -2.19429  -2.19421  -2.19401  -1.14040
  Beta  occ. eigenvalues --   -1.14015  -1.13928  -1.13867  -1.13807  -1.13717
  Beta  occ. eigenvalues --   -1.13636  -1.13551  -1.13533  -1.13175  -1.13144
  Beta  occ. eigenvalues --   -1.13132  -1.13113  -1.13112  -1.13103  -1.13089
  Beta  occ. eigenvalues --   -1.13088  -1.13085  -1.13074  -1.13062  -1.13047
  Beta  occ. eigenvalues --   -0.16805  -0.13082  -0.12441
  Beta virt. eigenvalues --   -0.06700  -0.06437  -0.05330  -0.04431  -0.02487
  Beta virt. eigenvalues --   -0.02133  -0.01892  -0.01767  -0.01741  -0.01507
  Beta virt. eigenvalues --   -0.00031   0.00371   0.00523   0.00556   0.00641

 Mulliken charges and spin densities:
               1          2
     1  Na   0.616470   0.225323
     2  Na   0.853307   0.236226
     3  Na   0.792667   0.091074
     4  Na   0.655075   0.448630
     5  Na  -4.751322  -0.330801
     6  Na   0.693850   0.161677
     7  Na   1.139953   0.167870
 Sum of Mulliken charges =  -0.00000   1.00000

 Dipole moment (field-independent basis, Debye):
    X=             -0.4020    Y=             -0.0990    Z=              0.1224  Tot=              0.4317
 Quadrupole moment (field-independent basis, Debye-Ang):
   XX=            -66.5152   YY=            -59.5786   ZZ=            -71.2517
   XY=              1.4995   XZ=              1.4156   YZ=              0.7663

 Normal termination of Gaussian 16 at Fri Dec  8 18:06:09 2023.
