 Gaussian 16, Revision B.01,
 Gaussian 16:  ES64L-G16RevB.01 20-Dec-2017

 -------------------------
 #P B3LYP/6-311+g(d) force
 -------------------------

 -----
 DPGEN
 -----
 Symbolic Z-matrix:
 Charge =  0 Multiplicity = 2

                         Standard orientation:
 ---------------------------------------------------------------------
 Center     Atomic      Atomic             Coordinates (Angstroms)
 Number     Number       Type             X           Y           Z
 ---------------------------------------------------------------------
      1         11           0       -4.506933    0.323124    0.163355
      2         11           0        3.543089    0.039193    1.172517
      3         11           0       -2.148896    3.364223    0.316125
      4         11           0        0.035406    1.430105   -1.140908
      5         11           0        6.066074    0.005030   -0.280670
      6         11           0       -3.511348   -2.767305    0.217010
      7         11           0        0.522608   -2.394369   -0.447429
 ---------------------------------------------------------------------

 SCF Done:  E(UB3LYP) =  -1136.10758140     A.U. after   21 cycles

 The electronic state is 2-A.
 Alpha  occ. eigenvalues --  -38.45321 -38.44966 -38.44797 -38.44633 -38.44579
 Alpha  occ. eigenvalues --  -38.43379 -38.43356  -2.21078  -2.20799  -2.20589
 Alpha  occ. eigenvalues --   -2.20445  -2.20360  -2.19152  -2.19147  -1.14746
 Alpha  occ. eigenvalues --   -1.14729  -1.14673  -1.14551  -1.14422  -1.14420
 Alpha  occ. eigenvalues --   -1.14259  -1.14244  -1.14199  -1.14101  -1.14092
 Alpha  occ. eigenvalues --   -1.14073  -1.14040  -1.14024  -1.13982  -1.12833
 Alpha  occ. eigenvalues --   -1.12825  -1.12813  -1.12806  -1.12798  -1.12793
 Alpha  occ. eigenvalues --   -0.15852  -0.14117  -0.11879  -0.11752
 Alpha virt. eigenvalues --   -0.05904  -0.05847  -0.05092  -0.03332  -0.03165
 Alpha virt. eigenvalues --   -0.02640  -0.01742  -0.01508  -0.01344  -0.00983
 Alpha virt. eigenvalues --   -0.00748  -0.00375   0.00044   0.00320   0.00616

  Beta  occ. eigenvalues --  -38.45239 -38.44904 -38.44735 -38.44637 -38.44553
  Beta  occ. eigenvalues --  -38.43384 -38.43356  -2.20926  -2.20685  -2.20474
  Beta  occ. eigenvalues --   -2.20458  -2.20311  -2.19165  -2.19147  -1.14643
  Beta  occ. eigenvalues --   -1.14621  -1.14574  -1.14484  -1.14345  -1.14341
  Beta  occ. eigenvalues --   -1.14181  -1.14170  -1.14115  -1.14113  -1.14099
  Beta  occ. eigenvalues --   -1.14041  -1.14009  -1.13992  -1.13939  -1.12837
  Beta  occ. eigenvalues --   -1.12835  -1.12813  -1.12805  -1.12794  -1.12792
  Beta  occ. eigenvalues --   -0.15076  -0.13408  -0.11677
  Beta virt. eigenvalues --   -0.08496  -0.05495  -0.05299  -0.04762  -0.03128
  Beta virt. eigenvalues --   -0.02942  -0.02394  -0.01539  -0.01311  -0.00860
  Beta virt. eigenvalues --   -0.00741  -0.00563  -0.00248   0.00244   0.00388

 Mulliken charges and spin densities:
               1          2
     1  Na  -0.146437   0.357824
     2  Na  -0.104806   0.078776
     3  Na   0.279789   0.073102
     4  Na  -0.378124   0.001851
     5  Na   0.226609   0.209914
     6  Na   0.192205  -0.014331
     7  Na  -0.069235   0.292863
 Sum of Mulliken charges =  -0.00000   1.00000

 Dipole moment (field-independent basis, Debye):
    X=              1.5437    Y=             -0.0198    Z=             -0.2205  Tot=              1.5595
 Quadrupole moment (field-independent basis, Debye-Ang):
   XX=            -58.4619   YY=            -70.1266   ZZ=            -69.5229
   XY=             -4.9346   XZ=             -5.3884   YZ=              2.2803

 Normal termination of Gaussian 16 at Mon Dec  4 05:24:48 2023.
