 Gaussian 16, Revision B.01,
 Gaussian 16:  ES64L-G16RevB.01 20-Dec-2017

 -------------------------
 #P B3LYP/6-311+g(d) force
 -------------------------

 -----
 DPGEN
 -----
 Symbolic Z-matrix:
 Charge =  0 Multiplicity = 2

                         Standard orientation:
 ---------------------------------------------------------------------
 Center     Atomic      Atomic             Coordinates (Angstroms)
 Number     Number       Type             X           Y           Z
 ---------------------------------------------------------------------
      1         11           0        1.425803   -2.514848    0.083883
      2         11           0        0.015147    3.142331    0.026883
      3         11           0       -3.005299    1.003775   -0.226811
      4         11           0        3.494991    0.467171   -0.010899
      5         11           0       -0.354222   -0.109564    2.074210
      6         11           0       -2.173938   -2.190739   -0.409427
      7         11           0        0.597520    0.201875   -1.537839
 ---------------------------------------------------------------------

 SCF Done:  E(UB3LYP) =  -1136.13486385     A.U. after   19 cycles

 The electronic state is 2-A.
 Alpha  occ. eigenvalues --  -38.44770 -38.44132 -38.43640 -38.43601 -38.43474
 Alpha  occ. eigenvalues --  -38.43423 -38.43297  -2.20556  -2.19953  -2.19452
 Alpha  occ. eigenvalues --   -2.19438  -2.19310  -2.19292  -2.19237  -1.14237
 Alpha  occ. eigenvalues --   -1.14209  -1.14195  -1.13627  -1.13624  -1.13589
 Alpha  occ. eigenvalues --   -1.13165  -1.13128  -1.13123  -1.13102  -1.13071
 Alpha  occ. eigenvalues --   -1.13070  -1.12980  -1.12973  -1.12960  -1.12949
 Alpha  occ. eigenvalues --   -1.12919  -1.12916  -1.12902  -1.12871  -1.12859
 Alpha  occ. eigenvalues --   -0.18217  -0.13110  -0.12263  -0.10390
 Alpha virt. eigenvalues --   -0.06220  -0.05081  -0.04869  -0.03151  -0.02755
 Alpha virt. eigenvalues --   -0.02346  -0.01907  -0.01152  -0.00694  -0.00501
 Alpha virt. eigenvalues --   -0.00032   0.00313   0.00737   0.00785   0.00850

  Beta  occ. eigenvalues --  -38.44771 -38.44125 -38.43639 -38.43594 -38.43463
  Beta  occ. eigenvalues --  -38.43322 -38.43251  -2.20560  -2.19942  -2.19442
  Beta  occ. eigenvalues --   -2.19437  -2.19292  -2.19153  -2.19106  -1.14230
  Beta  occ. eigenvalues --   -1.14207  -1.14201  -1.13622  -1.13598  -1.13580
  Beta  occ. eigenvalues --   -1.13156  -1.13123  -1.13089  -1.13089  -1.13071
  Beta  occ. eigenvalues --   -1.13069  -1.12967  -1.12949  -1.12931  -1.12866
  Beta  occ. eigenvalues --   -1.12827  -1.12812  -1.12797  -1.12789  -1.12770
  Beta  occ. eigenvalues --   -0.17525  -0.12890  -0.12058
  Beta virt. eigenvalues --   -0.06533  -0.06150  -0.05072  -0.04785  -0.02437
  Beta virt. eigenvalues --   -0.02024  -0.01822  -0.01316  -0.01074  -0.00729
  Beta virt. eigenvalues --   -0.00527   0.00135   0.00363   0.00771   0.00822

 Mulliken charges and spin densities:
               1          2
     1  Na   0.159408   0.011480
     2  Na  -0.021205  -0.115398
     3  Na   0.127194   0.019041
     4  Na   0.170804  -0.101986
     5  Na  -0.386183   0.736006
     6  Na   0.009693   0.044590
     7  Na  -0.059710   0.406267
 Sum of Mulliken charges =  -0.00000   1.00000

 Dipole moment (field-independent basis, Debye):
    X=              0.5217    Y=              0.2083    Z=              0.1233  Tot=              0.5751
 Quadrupole moment (field-independent basis, Debye-Ang):
   XX=            -53.8738   YY=            -62.6965   ZZ=            -76.0633
   XY=              0.2478   XZ=              1.9331   YZ=              0.7850

 Normal termination of Gaussian 16 at Fri Dec  8 07:47:33 2023.
