 Gaussian 16, Revision B.01,
 Gaussian 16:  ES64L-G16RevB.01 20-Dec-2017

 -------------------------
 #P B3LYP/6-311+g(d) force
 -------------------------

 -----
 DPGEN
 -----
 Symbolic Z-matrix:
 Charge =  0 Multiplicity = 2

                         Standard orientation:
 ---------------------------------------------------------------------
 Center     Atomic      Atomic             Coordinates (Angstroms)
 Number     Number       Type             X           Y           Z
 ---------------------------------------------------------------------
      1         11           0        2.933866   -1.604521   -0.590971
      2         11           0       -2.916506   -1.687715   -0.522151
      3         11           0        1.852241    1.363853    1.343242
      4         11           0       -2.107401    1.372781    0.797877
      5         11           0       -0.064417   -1.670533    1.688130
      6         11           0        0.252432   -0.327683   -1.735141
      7         11           0        0.049785    2.553819   -0.980987
 ---------------------------------------------------------------------

 SCF Done:  E(UB3LYP) =  -1136.13086455     A.U. after   20 cycles

 The electronic state is 2-A.
 Alpha  occ. eigenvalues --  -38.43997 -38.43878 -38.43873 -38.43850 -38.43700
 Alpha  occ. eigenvalues --  -38.43611 -38.43008  -2.19865  -2.19754  -2.19721
 Alpha  occ. eigenvalues --   -2.19672  -2.19585  -2.19511  -2.18966  -1.13545
 Alpha  occ. eigenvalues --   -1.13541  -1.13478  -1.13465  -1.13430  -1.13407
 Alpha  occ. eigenvalues --   -1.13401  -1.13383  -1.13378  -1.13329  -1.13318
 Alpha  occ. eigenvalues --   -1.13299  -1.13297  -1.13219  -1.13190  -1.13168
 Alpha  occ. eigenvalues --   -1.13164  -1.13145  -1.12640  -1.12599  -1.12586
 Alpha  occ. eigenvalues --   -0.18671  -0.12869  -0.12265  -0.11461
 Alpha virt. eigenvalues --   -0.05425  -0.05311  -0.04086  -0.03511  -0.03274
 Alpha virt. eigenvalues --   -0.02925  -0.01429  -0.01068  -0.00360   0.00199
 Alpha virt. eigenvalues --    0.00288   0.00369   0.00687   0.00736   0.00764

  Beta  occ. eigenvalues --  -38.43956 -38.43863 -38.43843 -38.43833 -38.43698
  Beta  occ. eigenvalues --  -38.43533 -38.42991  -2.19793  -2.19739  -2.19661
  Beta  occ. eigenvalues --   -2.19639  -2.19510  -2.19444  -2.18940  -1.13500
  Beta  occ. eigenvalues --   -1.13472  -1.13454  -1.13430  -1.13401  -1.13372
  Beta  occ. eigenvalues --   -1.13370  -1.13352  -1.13315  -1.13307  -1.13290
  Beta  occ. eigenvalues --   -1.13265  -1.13204  -1.13172  -1.13166  -1.13147
  Beta  occ. eigenvalues --   -1.13117  -1.13078  -1.12615  -1.12579  -1.12551
  Beta  occ. eigenvalues --   -0.17896  -0.12676  -0.12078
  Beta virt. eigenvalues --   -0.07499  -0.05291  -0.05152  -0.03940  -0.02877
  Beta virt. eigenvalues --   -0.02695  -0.01941  -0.01353  -0.00918  -0.00113
  Beta virt. eigenvalues --    0.00161   0.00353   0.00409   0.00767   0.00797

 Mulliken charges and spin densities:
               1          2
     1  Na   0.109792  -0.061237
     2  Na   0.251753  -0.113904
     3  Na  -0.258727   0.238529
     4  Na  -0.300483   0.146812
     5  Na  -0.278157   0.358002
     6  Na  -0.431207   0.458309
     7  Na   0.907029  -0.026511
 Sum of Mulliken charges =  -0.00000   1.00000

 Dipole moment (field-independent basis, Debye):
    X=              0.0838    Y=             -0.3095    Z=              0.3382  Tot=              0.4660
 Quadrupole moment (field-independent basis, Debye-Ang):
   XX=            -58.9930   YY=            -67.5787   ZZ=            -68.2945
   XY=              0.0195   XZ=              0.8823   YZ=              1.2881

 Normal termination of Gaussian 16 at Sun Dec  3 20:53:31 2023.
