 Gaussian 16, Revision B.01,
 Gaussian 16:  ES64L-G16RevB.01 20-Dec-2017

 -------------------------
 #P B3LYP/6-311+g(d) force
 -------------------------

 -----
 DPGEN
 -----
 Symbolic Z-matrix:
 Charge =  0 Multiplicity = 2

                         Standard orientation:
 ---------------------------------------------------------------------
 Center     Atomic      Atomic             Coordinates (Angstroms)
 Number     Number       Type             X           Y           Z
 ---------------------------------------------------------------------
      1         11           0       -3.175792   -0.712840   -0.406358
      2         11           0       -0.032468   -3.000645    0.099198
      3         11           0        3.078800   -0.862649    0.063935
      4         11           0       -0.793042   -0.150030    1.544214
      5         11           0        1.960663    2.252147    0.207174
      6         11           0        0.605147   -0.077582   -1.398330
      7         11           0       -1.643309    2.551599   -0.109833
 ---------------------------------------------------------------------

 SCF Done:  E(UB3LYP) =  -1136.13026868     A.U. after   26 cycles

 The electronic state is 2-A.
 Alpha  occ. eigenvalues --  -38.44493 -38.44353 -38.43724 -38.43681 -38.43615
 Alpha  occ. eigenvalues --  -38.42911 -38.42675  -2.20325  -2.20223  -2.19568
 Alpha  occ. eigenvalues --   -2.19554  -2.19462  -2.18956  -2.18682  -1.14022
 Alpha  occ. eigenvalues --   -1.13974  -1.13956  -1.13950  -1.13873  -1.13842
 Alpha  occ. eigenvalues --   -1.13270  -1.13254  -1.13231  -1.13211  -1.13204
 Alpha  occ. eigenvalues --   -1.13168  -1.13157  -1.13134  -1.13083  -1.12664
 Alpha  occ. eigenvalues --   -1.12590  -1.12572  -1.12367  -1.12314  -1.12292
 Alpha  occ. eigenvalues --   -0.18827  -0.13499  -0.12617  -0.09729
 Alpha virt. eigenvalues --   -0.06074  -0.05369  -0.04938  -0.03118  -0.02513
 Alpha virt. eigenvalues --   -0.01804  -0.01510  -0.01280  -0.00688  -0.00552
 Alpha virt. eigenvalues --    0.00056   0.00339   0.00773   0.00818   0.00841

  Beta  occ. eigenvalues --  -38.44480 -38.44349 -38.43717 -38.43675 -38.43607
  Beta  occ. eigenvalues --  -38.42858 -38.42607  -2.20303  -2.20220  -2.19560
  Beta  occ. eigenvalues --   -2.19545  -2.19451  -2.18860  -2.18559  -1.14001
  Beta  occ. eigenvalues --   -1.13949  -1.13946  -1.13936  -1.13861  -1.13834
  Beta  occ. eigenvalues --   -1.13263  -1.13245  -1.13216  -1.13197  -1.13183
  Beta  occ. eigenvalues --   -1.13158  -1.13152  -1.13097  -1.13080  -1.12584
  Beta  occ. eigenvalues --   -1.12519  -1.12506  -1.12280  -1.12224  -1.12200
  Beta  occ. eigenvalues --   -0.18163  -0.13255  -0.12362
  Beta virt. eigenvalues --   -0.06039  -0.05923  -0.05349  -0.04892  -0.02354
  Beta virt. eigenvalues --   -0.01802  -0.01691  -0.01213  -0.00743  -0.00643
  Beta virt. eigenvalues --   -0.00583   0.00214   0.00404   0.00801   0.00837

 Mulliken charges and spin densities:
               1          2
     1  Na   0.061234   0.068151
     2  Na   0.098087  -0.111767
     3  Na   0.379758  -0.038907
     4  Na  -0.290109   0.559225
     5  Na   0.079155  -0.043095
     6  Na  -0.403850   0.543753
     7  Na   0.075723   0.022640
 Sum of Mulliken charges =  -0.00000   1.00000

 Dipole moment (field-independent basis, Debye):
    X=             -0.0379    Y=             -0.1241    Z=              0.0645  Tot=              0.1449
 Quadrupole moment (field-independent basis, Debye-Ang):
   XX=            -52.4243   YY=            -59.1011   ZZ=            -78.8213
   XY=             -0.1483   XZ=              2.8510   YZ=              0.2210

 Normal termination of Gaussian 16 at Wed Nov 29 04:11:19 2023.
