 Gaussian 16, Revision B.01,
 Gaussian 16:  ES64L-G16RevB.01 20-Dec-2017

 -------------------------
 #P B3LYP/6-311+g(d) force
 -------------------------

 -----
 DPGEN
 -----
 Symbolic Z-matrix:
 Charge =  0 Multiplicity = 2

                         Standard orientation:
 ---------------------------------------------------------------------
 Center     Atomic      Atomic             Coordinates (Angstroms)
 Number     Number       Type             X           Y           Z
 ---------------------------------------------------------------------
      1         11           0        0.414672    2.751477    0.087719
      2         11           0        5.013383   -1.287625    0.303396
      3         11           0       -1.499464   -0.177841    1.879101
      4         11           0        2.737730    0.303408   -0.173356
      5         11           0       -0.059868   -1.407882   -1.319943
      6         11           0       -4.377887   -1.734607    0.035173
      7         11           0       -2.228566    1.553070   -0.812089
 ---------------------------------------------------------------------

 SCF Done:  E(UB3LYP) =  -1136.10766680     A.U. after   26 cycles

 The electronic state is 2-A.
 Alpha  occ. eigenvalues --  -38.46219 -38.45070 -38.44515 -38.44009 -38.43803
 Alpha  occ. eigenvalues --  -38.43335 -38.43113  -2.22022  -2.20952  -2.20266
 Alpha  occ. eigenvalues --   -2.19857  -2.19649  -2.19204  -2.19026  -1.15707
 Alpha  occ. eigenvalues --   -1.15702  -1.15616  -1.14649  -1.14623  -1.14578
 Alpha  occ. eigenvalues --   -1.13947  -1.13931  -1.13886  -1.13519  -1.13487
 Alpha  occ. eigenvalues --   -1.13456  -1.13432  -1.13268  -1.13261  -1.12895
 Alpha  occ. eigenvalues --   -1.12853  -1.12845  -1.12677  -1.12676  -1.12664
 Alpha  occ. eigenvalues --   -0.17917  -0.13769  -0.11826  -0.10455
 Alpha virt. eigenvalues --   -0.07338  -0.06150  -0.03726  -0.03429  -0.02932
 Alpha virt. eigenvalues --   -0.02448  -0.02142  -0.01853  -0.00994  -0.00721
 Alpha virt. eigenvalues --   -0.00342   0.00069   0.00259   0.00396   0.00617

  Beta  occ. eigenvalues --  -38.46200 -38.45069 -38.44507 -38.43892 -38.43763
  Beta  occ. eigenvalues --  -38.43330 -38.43108  -2.21988  -2.20953  -2.20251
  Beta  occ. eigenvalues --   -2.19641  -2.19573  -2.19197  -2.19024  -1.15685
  Beta  occ. eigenvalues --   -1.15660  -1.15592  -1.14649  -1.14594  -1.14584
  Beta  occ. eigenvalues --   -1.13938  -1.13913  -1.13878  -1.13388  -1.13373
  Beta  occ. eigenvalues --   -1.13337  -1.13308  -1.13216  -1.13207  -1.12895
  Beta  occ. eigenvalues --   -1.12843  -1.12834  -1.12682  -1.12671  -1.12621
  Beta  occ. eigenvalues --   -0.17283  -0.13381  -0.11515
  Beta virt. eigenvalues --   -0.07217  -0.06835  -0.05969  -0.03415  -0.02970
  Beta virt. eigenvalues --   -0.02750  -0.02067  -0.01944  -0.01441  -0.00794
  Beta virt. eigenvalues --   -0.00448  -0.00161   0.00180   0.00403   0.00503

 Mulliken charges and spin densities:
               1          2
     1  Na   1.283944   0.210535
     2  Na   0.081933  -0.085886
     3  Na  -0.134829   0.143264
     4  Na  -1.581340   0.177994
     5  Na   0.141319   0.405076
     6  Na   0.113936   0.036857
     7  Na   0.095037   0.112161
 Sum of Mulliken charges =  -0.00000   1.00000

 Dipole moment (field-independent basis, Debye):
    X=             -1.9062    Y=             -0.2338    Z=              0.1757  Tot=              1.9286
 Quadrupole moment (field-independent basis, Debye-Ang):
   XX=            -64.9658   YY=            -70.2813   ZZ=            -66.9158
   XY=              0.1651   XZ=              5.1094   YZ=             -3.0664

 Normal termination of Gaussian 16 at Fri Dec  8 17:27:07 2023.
