 Gaussian 16, Revision B.01,
 Gaussian 16:  ES64L-G16RevB.01 20-Dec-2017

 -------------------------
 #P B3LYP/6-311+g(d) force
 -------------------------

 -----
 DPGEN
 -----
 Symbolic Z-matrix:
 Charge =  0 Multiplicity = 2

                         Standard orientation:
 ---------------------------------------------------------------------
 Center     Atomic      Atomic             Coordinates (Angstroms)
 Number     Number       Type             X           Y           Z
 ---------------------------------------------------------------------
      1         11           0        1.498155   -2.350984   -0.270697
      2         11           0       -2.064787   -1.745077   -1.152795
      3         11           0        4.379612   -0.069165   -0.007007
      4         11           0        2.338031    2.015010    0.135705
      5         11           0       -4.101541    0.291097    0.829890
      6         11           0       -0.465303   -0.313006    1.679370
      7         11           0       -1.584167    2.172126   -1.214467
 ---------------------------------------------------------------------

 SCF Done:  E(UB3LYP) =  -1136.11356900     A.U. after   26 cycles

 The electronic state is 2-A.
 Alpha  occ. eigenvalues --  -38.45621 -38.44839 -38.44436 -38.44133 -38.43625
 Alpha  occ. eigenvalues --  -38.43528 -38.43333  -2.21447  -2.20645  -2.20211
 Alpha  occ. eigenvalues --   -2.19963  -2.19456  -2.19395  -2.19138  -1.15121
 Alpha  occ. eigenvalues --   -1.15098  -1.15063  -1.14351  -1.14314  -1.14258
 Alpha  occ. eigenvalues --   -1.13903  -1.13854  -1.13832  -1.13632  -1.13604
 Alpha  occ. eigenvalues --   -1.13573  -1.13288  -1.13132  -1.13101  -1.13022
 Alpha  occ. eigenvalues --   -1.13002  -1.12951  -1.12833  -1.12813  -1.12756
 Alpha  occ. eigenvalues --   -0.17466  -0.14265  -0.11511  -0.10243
 Alpha virt. eigenvalues --   -0.07522  -0.05791  -0.04130  -0.03373  -0.03256
 Alpha virt. eigenvalues --   -0.02384  -0.01933  -0.01703  -0.00897  -0.00611
 Alpha virt. eigenvalues --   -0.00439  -0.00106   0.00225   0.00531   0.00694

  Beta  occ. eigenvalues --  -38.45584 -38.44842 -38.44403 -38.44067 -38.43622
  Beta  occ. eigenvalues --  -38.43463 -38.43335  -2.21381  -2.20654  -2.20152
  Beta  occ. eigenvalues --   -2.19840  -2.19454  -2.19273  -2.19144  -1.15066
  Beta  occ. eigenvalues --   -1.15059  -1.15014  -1.14352  -1.14324  -1.14247
  Beta  occ. eigenvalues --   -1.13866  -1.13814  -1.13777  -1.13546  -1.13516
  Beta  occ. eigenvalues --   -1.13493  -1.13243  -1.13136  -1.13085  -1.12939
  Beta  occ. eigenvalues --   -1.12920  -1.12889  -1.12838  -1.12813  -1.12752
  Beta  occ. eigenvalues --   -0.16943  -0.13604  -0.11222
  Beta virt. eigenvalues --   -0.07329  -0.06818  -0.05717  -0.03650  -0.03159
  Beta virt. eigenvalues --   -0.02816  -0.02192  -0.01708  -0.01265  -0.00581
  Beta virt. eigenvalues --   -0.00415  -0.00092  -0.00010   0.00319   0.00639

 Mulliken charges and spin densities:
               1          2
     1  Na  -0.034870  -0.024426
     2  Na   0.198560   0.054849
     3  Na   0.192311   0.319079
     4  Na  -0.128120   0.130313
     5  Na   0.382807   0.472853
     6  Na  -0.377576   0.025838
     7  Na  -0.233113   0.021494
 Sum of Mulliken charges =  -0.00000   1.00000

 Dipole moment (field-independent basis, Debye):
    X=             -1.1513    Y=             -0.3274    Z=              0.1118  Tot=              1.2021
 Quadrupole moment (field-independent basis, Debye-Ang):
   XX=            -72.3854   YY=            -75.2046   ZZ=            -59.9379
   XY=             -3.3177   XZ=              0.4736   YZ=              1.6588

 Normal termination of Gaussian 16 at Sun Dec  3 22:27:50 2023.
