 Gaussian 16, Revision B.01,
 Gaussian 16:  ES64L-G16RevB.01 20-Dec-2017

 -------------------------
 #P B3LYP/6-311+g(d) force
 -------------------------

 -----
 DPGEN
 -----
 Symbolic Z-matrix:
 Charge =  0 Multiplicity = 2

                         Standard orientation:
 ---------------------------------------------------------------------
 Center     Atomic      Atomic             Coordinates (Angstroms)
 Number     Number       Type             X           Y           Z
 ---------------------------------------------------------------------
      1         11           0       -1.264957    2.448790   -0.458020
      2         11           0        1.829844    2.088836   -0.130372
      3         11           0        3.047910   -1.238287    0.000995
      4         11           0       -0.747312   -2.740591   -0.054393
      5         11           0       -3.069860   -0.357065    0.021289
      6         11           0       -0.001547    0.256082    2.154144
      7         11           0        0.205922   -0.457765   -1.533643
 ---------------------------------------------------------------------

 SCF Done:  E(UB3LYP) =  -1136.13461426     A.U. after   19 cycles

 The electronic state is 2-A.
 Alpha  occ. eigenvalues --  -38.44119 -38.43927 -38.43744 -38.43624 -38.43407
 Alpha  occ. eigenvalues --  -38.43144 -38.43095  -2.19929  -2.19779  -2.19625
 Alpha  occ. eigenvalues --   -2.19514  -2.19315  -2.19179  -2.18998  -1.13610
 Alpha  occ. eigenvalues --   -1.13583  -1.13572  -1.13449  -1.13445  -1.13435
 Alpha  occ. eigenvalues --   -1.13335  -1.13289  -1.13254  -1.13240  -1.13152
 Alpha  occ. eigenvalues --   -1.13109  -1.13033  -1.12974  -1.12956  -1.12837
 Alpha  occ. eigenvalues --   -1.12808  -1.12775  -1.12661  -1.12640  -1.12639
 Alpha  occ. eigenvalues --   -0.18938  -0.13067  -0.12573  -0.10896
 Alpha virt. eigenvalues --   -0.05750  -0.04988  -0.04536  -0.03183  -0.02972
 Alpha virt. eigenvalues --   -0.02650  -0.01612  -0.00989  -0.00270  -0.00103
 Alpha virt. eigenvalues --   -0.00015   0.00347   0.00833   0.00884   0.00937

  Beta  occ. eigenvalues --  -38.44119 -38.43925 -38.43641 -38.43618 -38.43399
  Beta  occ. eigenvalues --  -38.43088 -38.43083  -2.19930  -2.19777  -2.19507
  Beta  occ. eigenvalues --   -2.19436  -2.19305  -2.19077  -2.18980  -1.13603
  Beta  occ. eigenvalues --   -1.13576  -1.13575  -1.13448  -1.13445  -1.13415
  Beta  occ. eigenvalues --   -1.13315  -1.13167  -1.13135  -1.13114  -1.13110
  Beta  occ. eigenvalues --   -1.13106  -1.13021  -1.12954  -1.12933  -1.12770
  Beta  occ. eigenvalues --   -1.12740  -1.12705  -1.12644  -1.12631  -1.12602
  Beta  occ. eigenvalues --   -0.18196  -0.12848  -0.12332
  Beta virt. eigenvalues --   -0.06919  -0.05728  -0.04968  -0.04498  -0.02386
  Beta virt. eigenvalues --   -0.02195  -0.01575  -0.01506  -0.00917  -0.00320
  Beta virt. eigenvalues --   -0.00135   0.00134   0.00372   0.00868   0.00904

 Mulliken charges and spin densities:
               1          2
     1  Na   0.156124   0.060203
     2  Na   0.303021   0.041026
     3  Na   0.161884  -0.052745
     4  Na   0.309971  -0.032232
     5  Na   0.156379   0.034760
     6  Na  -0.690671   0.725674
     7  Na  -0.396707   0.223314
 Sum of Mulliken charges =  -0.00000   1.00000

 Dipole moment (field-independent basis, Debye):
    X=              0.1422    Y=             -0.2586    Z=              0.3037  Tot=              0.4235
 Quadrupole moment (field-independent basis, Debye-Ang):
   XX=            -55.7989   YY=            -64.2991   ZZ=            -73.7152
   XY=             -0.6396   XZ=              0.4446   YZ=             -1.4832

 Normal termination of Gaussian 16 at Thu Dec  7 07:31:19 2023.
