 Gaussian 16, Revision B.01,
 Gaussian 16:  ES64L-G16RevB.01 20-Dec-2017

 -------------------------
 #P B3LYP/6-311+g(d) force
 -------------------------

 -----
 DPGEN
 -----
 Symbolic Z-matrix:
 Charge =  0 Multiplicity = 2

                         Standard orientation:
 ---------------------------------------------------------------------
 Center     Atomic      Atomic             Coordinates (Angstroms)
 Number     Number       Type             X           Y           Z
 ---------------------------------------------------------------------
      1         11           0        2.617557    1.011345   -0.538792
      2         11           0       -0.147892   -0.364805    2.009689
      3         11           0       -3.935893   -0.981978    0.335122
      4         11           0       -0.064156   -1.608948   -1.391466
      5         11           0        2.859890   -2.077047    0.326357
      6         11           0       -1.642741    1.016842   -1.143165
      7         11           0        0.313235    3.004591    0.402255
 ---------------------------------------------------------------------

 SCF Done:  E(UB3LYP) =  -1136.12606469     A.U. after   21 cycles

 The electronic state is 2-A.
 Alpha  occ. eigenvalues --  -38.45151 -38.44309 -38.44230 -38.43983 -38.43662
 Alpha  occ. eigenvalues --  -38.43405 -38.42617  -2.20904  -2.20172  -2.20065
 Alpha  occ. eigenvalues --   -2.19866  -2.19502  -2.19342  -2.18491  -1.14586
 Alpha  occ. eigenvalues --   -1.14566  -1.14532  -1.13847  -1.13838  -1.13827
 Alpha  occ. eigenvalues --   -1.13747  -1.13699  -1.13672  -1.13605  -1.13525
 Alpha  occ. eigenvalues --   -1.13456  -1.13180  -1.13149  -1.13140  -1.13052
 Alpha  occ. eigenvalues --   -1.13001  -1.12938  -1.12165  -1.12151  -1.12128
 Alpha  occ. eigenvalues --   -0.18307  -0.13345  -0.12026  -0.10751
 Alpha virt. eigenvalues --   -0.06807  -0.05011  -0.04131  -0.03502  -0.02708
 Alpha virt. eigenvalues --   -0.02679  -0.02336  -0.01156  -0.00429  -0.00291
 Alpha virt. eigenvalues --    0.00169   0.00200   0.00502   0.00661   0.00774

  Beta  occ. eigenvalues --  -38.45154 -38.44302 -38.44140 -38.43932 -38.43662
  Beta  occ. eigenvalues --  -38.43371 -38.42615  -2.20912  -2.20161  -2.19899
  Beta  occ. eigenvalues --   -2.19776  -2.19503  -2.19283  -2.18489  -1.14593
  Beta  occ. eigenvalues --   -1.14561  -1.14538  -1.13834  -1.13829  -1.13814
  Beta  occ. eigenvalues --   -1.13635  -1.13580  -1.13553  -1.13540  -1.13442
  Beta  occ. eigenvalues --   -1.13395  -1.13184  -1.13143  -1.13132  -1.13007
  Beta  occ. eigenvalues --   -1.12944  -1.12899  -1.12165  -1.12151  -1.12110
  Beta  occ. eigenvalues --   -0.17556  -0.13212  -0.11864
  Beta virt. eigenvalues --   -0.06852  -0.06612  -0.04950  -0.04057  -0.02892
  Beta virt. eigenvalues --   -0.02267  -0.02072  -0.01568  -0.01056  -0.00454
  Beta virt. eigenvalues --   -0.00080   0.00208   0.00247   0.00672   0.00733

 Mulliken charges and spin densities:
               1          2
     1  Na  -0.346101   0.078212
     2  Na  -0.769740   0.783889
     3  Na   0.081251  -0.162489
     4  Na  -0.082820   0.145725
     5  Na   0.541407  -0.021500
     6  Na  -0.002043   0.325554
     7  Na   0.578045  -0.149392
 Sum of Mulliken charges =  -0.00000   1.00000

 Dipole moment (field-independent basis, Debye):
    X=             -0.4851    Y=             -0.6216    Z=              0.2574  Tot=              0.8295
 Quadrupole moment (field-independent basis, Debye-Ang):
   XX=            -50.8567   YY=            -68.5614   ZZ=            -73.4751
   XY=              0.7328   XZ=             -1.1866   YZ=             -0.7038

 Normal termination of Gaussian 16 at Fri Dec  8 06:58:55 2023.
