 Gaussian 16, Revision B.01,
 Gaussian 16:  ES64L-G16RevB.01 20-Dec-2017

 -------------------------
 #P B3LYP/6-311+g(d) force
 -------------------------

 -----
 DPGEN
 -----
 Symbolic Z-matrix:
 Charge =  0 Multiplicity = 2

                         Standard orientation:
 ---------------------------------------------------------------------
 Center     Atomic      Atomic             Coordinates (Angstroms)
 Number     Number       Type             X           Y           Z
 ---------------------------------------------------------------------
      1         11           0       -1.451195    2.954648    0.116793
      2         11           0       -2.292369   -0.076166   -1.819045
      3         11           0        3.413968   -0.814464    1.361164
      4         11           0        1.767225   -1.406795   -0.841165
      5         11           0       -1.433825   -2.923246   -0.199859
      6         11           0       -2.673320    0.161106    2.084475
      7         11           0        2.669516    2.104918   -0.702362
 ---------------------------------------------------------------------

 SCF Done:  E(UB3LYP) =  -1136.11449699     A.U. after   21 cycles

 The electronic state is 2-A.
 Alpha  occ. eigenvalues --  -38.44934 -38.44906 -38.44552 -38.44261 -38.44184
 Alpha  occ. eigenvalues --  -38.43715 -38.43588  -2.20792  -2.20667  -2.20352
 Alpha  occ. eigenvalues --   -2.20141  -2.19981  -2.19472  -2.19384  -1.14596
 Alpha  occ. eigenvalues --   -1.14419  -1.14387  -1.14356  -1.14327  -1.14279
 Alpha  occ. eigenvalues --   -1.14026  -1.14010  -1.13977  -1.13834  -1.13793
 Alpha  occ. eigenvalues --   -1.13730  -1.13640  -1.13606  -1.13600  -1.13156
 Alpha  occ. eigenvalues --   -1.13142  -1.13115  -1.13051  -1.13046  -1.13039
 Alpha  occ. eigenvalues --   -0.16799  -0.14063  -0.11858  -0.10343
 Alpha virt. eigenvalues --   -0.06549  -0.05732  -0.04948  -0.03804  -0.02805
 Alpha virt. eigenvalues --   -0.02605  -0.01638  -0.01184  -0.00858  -0.00644
 Alpha virt. eigenvalues --   -0.00427  -0.00105   0.00230   0.00290   0.00610

  Beta  occ. eigenvalues --  -38.44904 -38.44888 -38.44517 -38.44254 -38.44091
  Beta  occ. eigenvalues --  -38.43722 -38.43592  -2.20735  -2.20633  -2.20288
  Beta  occ. eigenvalues --   -2.20131  -2.19808  -2.19487  -2.19394  -1.14558
  Beta  occ. eigenvalues --   -1.14380  -1.14349  -1.14330  -1.14304  -1.14252
  Beta  occ. eigenvalues --   -1.13976  -1.13965  -1.13930  -1.13811  -1.13778
  Beta  occ. eigenvalues --   -1.13728  -1.13521  -1.13486  -1.13485  -1.13164
  Beta  occ. eigenvalues --   -1.13155  -1.13108  -1.13058  -1.13051  -1.13032
  Beta  occ. eigenvalues --   -0.16343  -0.13679  -0.11646
  Beta virt. eigenvalues --   -0.07003  -0.06071  -0.05576  -0.04541  -0.03640
  Beta virt. eigenvalues --   -0.02293  -0.01905  -0.01546  -0.01020  -0.00787
  Beta virt. eigenvalues --   -0.00556  -0.00006   0.00155   0.00390   0.00446

 Mulliken charges and spin densities:
               1          2
     1  Na   0.206740  -0.041824
     2  Na  -0.154764   0.285924
     3  Na   0.139142   0.037091
     4  Na   0.442173   0.118201
     5  Na   0.006615   0.022967
     6  Na  -0.289907   0.503806
     7  Na  -0.350000   0.073836
 Sum of Mulliken charges =  -0.00000   1.00000

 Dipole moment (field-independent basis, Debye):
    X=              1.1299    Y=             -0.0478    Z=              0.1529  Tot=              1.1412
 Quadrupole moment (field-independent basis, Debye-Ang):
   XX=            -61.8193   YY=            -68.7766   ZZ=            -69.0123
   XY=              3.1661   XZ=              4.2446   YZ=             -2.8476

 Normal termination of Gaussian 16 at Mon Dec  4 00:45:44 2023.
