 Gaussian 16, Revision B.01,
 Gaussian 16:  ES64L-G16RevB.01 20-Dec-2017

 -------------------------
 #P B3LYP/6-311+g(d) force
 -------------------------

 -----
 DPGEN
 -----
 Symbolic Z-matrix:
 Charge =  0 Multiplicity = 2

                         Standard orientation:
 ---------------------------------------------------------------------
 Center     Atomic      Atomic             Coordinates (Angstroms)
 Number     Number       Type             X           Y           Z
 ---------------------------------------------------------------------
      1         11           0        2.561926    2.864093    0.566011
      2         11           0       -0.533191   -2.864906    1.133646
      3         11           0        2.666033   -2.549066   -0.807341
      4         11           0       -0.933362    3.284130   -0.025987
      5         11           0       -3.627591   -1.965361   -0.125470
      6         11           0        4.085267   -0.113113   -0.276769
      7         11           0       -4.219082    1.344224   -0.464090
 ---------------------------------------------------------------------

 SCF Done:  E(UB3LYP) =  -1136.10605872     A.U. after   22 cycles

 The electronic state is 2-A.
 Alpha  occ. eigenvalues --  -38.45268 -38.45003 -38.44687 -38.44680 -38.44375
 Alpha  occ. eigenvalues --  -38.44166 -38.44005  -2.20998  -2.20779  -2.20546
 Alpha  occ. eigenvalues --   -2.20515  -2.20163  -2.19953  -2.19806  -1.14689
 Alpha  occ. eigenvalues --   -1.14679  -1.14622  -1.14459  -1.14448  -1.14440
 Alpha  occ. eigenvalues --   -1.14431  -1.14194  -1.14180  -1.14144  -1.14129
 Alpha  occ. eigenvalues --   -1.14053  -1.13818  -1.13813  -1.13784  -1.13616
 Alpha  occ. eigenvalues --   -1.13608  -1.13588  -1.13458  -1.13447  -1.13437
 Alpha  occ. eigenvalues --   -0.15786  -0.14234  -0.13237  -0.10810
 Alpha virt. eigenvalues --   -0.07768  -0.04888  -0.04356  -0.03687  -0.03445
 Alpha virt. eigenvalues --   -0.02591  -0.02219  -0.01813  -0.01121  -0.00950
 Alpha virt. eigenvalues --   -0.00398  -0.00213   0.00025   0.00418   0.00656

  Beta  occ. eigenvalues --  -38.45262 -38.44998 -38.44663 -38.44649 -38.44312
  Beta  occ. eigenvalues --  -38.44134 -38.43939  -2.20993  -2.20775  -2.20499
  Beta  occ. eigenvalues --   -2.20470  -2.20046  -2.19894  -2.19683  -1.14690
  Beta  occ. eigenvalues --   -1.14679  -1.14588  -1.14463  -1.14451  -1.14387
  Beta  occ. eigenvalues --   -1.14384  -1.14165  -1.14142  -1.14117  -1.14101
  Beta  occ. eigenvalues --   -1.14002  -1.13740  -1.13735  -1.13701  -1.13577
  Beta  occ. eigenvalues --   -1.13570  -1.13542  -1.13373  -1.13367  -1.13355
  Beta  occ. eigenvalues --   -0.15283  -0.13512  -0.12485
  Beta virt. eigenvalues --   -0.07970  -0.07665  -0.04422  -0.03783  -0.03477
  Beta virt. eigenvalues --   -0.03124  -0.02406  -0.02077  -0.01596  -0.01005
  Beta virt. eigenvalues --   -0.00616  -0.00188   0.00066   0.00224   0.00419

 Mulliken charges and spin densities:
               1          2
     1  Na   0.297836   0.097050
     2  Na  -0.418094   0.296475
     3  Na  -0.009371   0.082351
     4  Na  -0.078938   0.062513
     5  Na  -0.063239   0.030150
     6  Na   0.118575   0.092051
     7  Na   0.153231   0.339410
 Sum of Mulliken charges =  -0.00000   1.00000

 Dipole moment (field-independent basis, Debye):
    X=              0.1737    Y=             -0.2483    Z=             -0.0840  Tot=              0.3144
 Quadrupole moment (field-independent basis, Debye-Ang):
   XX=            -61.8222   YY=            -67.9787   ZZ=            -72.0845
   XY=              2.0713   XZ=              1.7910   YZ=              1.3590

 Normal termination of Gaussian 16 at Sun Dec  3 15:49:13 2023.
