 Gaussian 16, Revision B.01,
 Gaussian 16:  ES64L-G16RevB.01 20-Dec-2017

 -------------------------
 #P B3LYP/6-311+g(d) force
 -------------------------

 -----
 DPGEN
 -----
 Symbolic Z-matrix:
 Charge =  0 Multiplicity = 2

                         Standard orientation:
 ---------------------------------------------------------------------
 Center     Atomic      Atomic             Coordinates (Angstroms)
 Number     Number       Type             X           Y           Z
 ---------------------------------------------------------------------
      1         11           0        1.096553   -2.023498   -0.399956
      2         11           0        4.548043   -0.672915   -0.621080
      3         11           0        2.365089    1.710970   -0.607447
      4         11           0       -0.679148    2.525014    0.254145
      5         11           0       -2.400869   -0.809375   -0.242114
      6         11           0        0.284462   -0.509758    2.313255
      7         11           0       -5.214130   -0.220436   -0.696803
 ---------------------------------------------------------------------

 SCF Done:  E(UB3LYP) =  -1136.11432585     A.U. after   24 cycles

 The electronic state is 2-A.
 Alpha  occ. eigenvalues --  -38.45857 -38.44802 -38.44082 -38.44071 -38.43806
 Alpha  occ. eigenvalues --  -38.43317 -38.43083  -2.21685  -2.20634  -2.19950
 Alpha  occ. eigenvalues --   -2.19908  -2.19622  -2.19191  -2.18913  -1.15369
 Alpha  occ. eigenvalues --   -1.15334  -1.15278  -1.14333  -1.14304  -1.14227
 Alpha  occ. eigenvalues --   -1.13643  -1.13634  -1.13602  -1.13582  -1.13530
 Alpha  occ. eigenvalues --   -1.13527  -1.13288  -1.13276  -1.13236  -1.12879
 Alpha  occ. eigenvalues --   -1.12860  -1.12821  -1.12593  -1.12560  -1.12540
 Alpha  occ. eigenvalues --   -0.17673  -0.13840  -0.12106  -0.11422
 Alpha virt. eigenvalues --   -0.06671  -0.05008  -0.04721  -0.03551  -0.02743
 Alpha virt. eigenvalues --   -0.02391  -0.02119  -0.01568  -0.01355  -0.00457
 Alpha virt. eigenvalues --   -0.00331   0.00005   0.00456   0.00539   0.00708

  Beta  occ. eigenvalues --  -38.45796 -38.44768 -38.44033 -38.44018 -38.43779
  Beta  occ. eigenvalues --  -38.43316 -38.43064  -2.21575  -2.20576  -2.19861
  Beta  occ. eigenvalues --   -2.19811  -2.19573  -2.19197  -2.18878  -1.15287
  Beta  occ. eigenvalues --   -1.15258  -1.15199  -1.14283  -1.14270  -1.14176
  Beta  occ. eigenvalues --   -1.13580  -1.13570  -1.13547  -1.13510  -1.13464
  Beta  occ. eigenvalues --   -1.13461  -1.13247  -1.13238  -1.13210  -1.12883
  Beta  occ. eigenvalues --   -1.12847  -1.12802  -1.12565  -1.12536  -1.12520
  Beta  occ. eigenvalues --   -0.16961  -0.13199  -0.11110
  Beta virt. eigenvalues --   -0.08562  -0.06353  -0.04692  -0.04280  -0.03184
  Beta virt. eigenvalues --   -0.02569  -0.01965  -0.01890  -0.01245  -0.01025
  Beta virt. eigenvalues --   -0.00295  -0.00218   0.00119   0.00552   0.00669

 Mulliken charges and spin densities:
               1          2
     1  Na   0.619522  -0.081464
     2  Na   0.086118   0.135184
     3  Na  -0.127363   0.250766
     4  Na   0.176088   0.095346
     5  Na  -0.851127   0.228768
     6  Na   0.422266   0.172773
     7  Na  -0.325505   0.198628
 Sum of Mulliken charges =  -0.00000   1.00000

 Dipole moment (field-independent basis, Debye):
    X=              0.5959    Y=             -0.0650    Z=              1.1525  Tot=              1.2991
 Quadrupole moment (field-independent basis, Debye-Ang):
   XX=            -62.1336   YY=            -73.2872   ZZ=            -65.2388
   XY=             -3.9163   XZ=              1.1784   YZ=             -2.2851

 Normal termination of Gaussian 16 at Wed Nov 29 04:03:35 2023.
