 Gaussian 16, Revision B.01,
 Gaussian 16:  ES64L-G16RevB.01 20-Dec-2017

 -------------------------
 #P B3LYP/6-311+g(d) force
 -------------------------

 -----
 DPGEN
 -----
 Symbolic Z-matrix:
 Charge =  0 Multiplicity = 2

                         Standard orientation:
 ---------------------------------------------------------------------
 Center     Atomic      Atomic             Coordinates (Angstroms)
 Number     Number       Type             X           Y           Z
 ---------------------------------------------------------------------
      1         11           0       -3.255634   -0.075653   -0.151283
      2         11           0       -0.106980    0.229538    1.899670
      3         11           0       -1.066643   -2.410505    0.229920
      4         11           0       -0.636502    2.814672   -0.145012
      5         11           0        2.437708   -2.218132   -0.210468
      6         11           0        2.728389    1.616409    0.075608
      7         11           0       -0.100339    0.043669   -1.698435
 ---------------------------------------------------------------------

 SCF Done:  E(UB3LYP) =  -1136.13736138     A.U. after   19 cycles

 The electronic state is 2-A.
 Alpha  occ. eigenvalues --  -38.44196 -38.44048 -38.43696 -38.43444 -38.43358
 Alpha  occ. eigenvalues --  -38.43212 -38.43187  -2.19997  -2.19889  -2.19488
 Alpha  occ. eigenvalues --   -2.19314  -2.19290  -2.19180  -2.19108  -1.13677
 Alpha  occ. eigenvalues --   -1.13659  -1.13631  -1.13570  -1.13549  -1.13528
 Alpha  occ. eigenvalues --   -1.13161  -1.13145  -1.13137  -1.13044  -1.13010
 Alpha  occ. eigenvalues --   -1.12984  -1.12925  -1.12910  -1.12895  -1.12885
 Alpha  occ. eigenvalues --   -1.12828  -1.12782  -1.12773  -1.12751  -1.12716
 Alpha  occ. eigenvalues --   -0.18725  -0.12949  -0.12485  -0.10622
 Alpha virt. eigenvalues --   -0.05742  -0.05281  -0.04592  -0.03100  -0.02813
 Alpha virt. eigenvalues --   -0.02417  -0.01694  -0.01222  -0.00407  -0.00236
 Alpha virt. eigenvalues --   -0.00002   0.00339   0.00762   0.00856   0.00909

  Beta  occ. eigenvalues --  -38.44194 -38.44044 -38.43696 -38.43436 -38.43269
  Beta  occ. eigenvalues --  -38.43175 -38.43141  -2.19997  -2.19885  -2.19490
  Beta  occ. eigenvalues --   -2.19302  -2.19127  -2.19091  -2.19051  -1.13661
  Beta  occ. eigenvalues --   -1.13657  -1.13634  -1.13571  -1.13529  -1.13521
  Beta  occ. eigenvalues --   -1.13150  -1.13147  -1.13139  -1.13025  -1.12963
  Beta  occ. eigenvalues --   -1.12919  -1.12893  -1.12818  -1.12807  -1.12782
  Beta  occ. eigenvalues --   -1.12753  -1.12723  -1.12715  -1.12688  -1.12684
  Beta  occ. eigenvalues --   -0.17982  -0.12719  -0.12243
  Beta virt. eigenvalues --   -0.06699  -0.05720  -0.05256  -0.04571  -0.02302
  Beta virt. eigenvalues --   -0.02070  -0.01612  -0.01363  -0.01157  -0.00471
  Beta virt. eigenvalues --   -0.00258   0.00130   0.00360   0.00791   0.00867

 Mulliken charges and spin densities:
               1          2
     1  Na   0.230728  -0.070390
     2  Na  -0.248790   0.680270
     3  Na   0.221994   0.018078
     4  Na   0.151444  -0.141316
     5  Na  -0.069874  -0.095535
     6  Na   0.006241  -0.112543
     7  Na  -0.291743   0.721437
 Sum of Mulliken charges =  -0.00000   1.00000

 Dipole moment (field-independent basis, Debye):
    X=              0.0943    Y=              0.2898    Z=              0.0346  Tot=              0.3067
 Quadrupole moment (field-independent basis, Debye-Ang):
   XX=            -54.1757   YY=            -63.0186   ZZ=            -75.1957
   XY=             -0.1889   XZ=              0.1679   YZ=             -0.2398

 Normal termination of Gaussian 16 at Tue Dec  5 21:29:26 2023.
