 Gaussian 16, Revision B.01,
 Gaussian 16:  ES64L-G16RevB.01 20-Dec-2017

 -------------------------
 #P B3LYP/6-311+g(d) force
 -------------------------

 -----
 DPGEN
 -----
 Symbolic Z-matrix:
 Charge =  0 Multiplicity = 2

                         Standard orientation:
 ---------------------------------------------------------------------
 Center     Atomic      Atomic             Coordinates (Angstroms)
 Number     Number       Type             X           Y           Z
 ---------------------------------------------------------------------
      1         11           0        3.160934   -2.147084   -0.149026
      2         11           0        2.721280    1.491907    0.163998
      3         11           0        0.298235   -0.581709    1.791687
      4         11           0        0.131082   -0.016367   -1.149888
      5         11           0       -0.519026    3.431494   -0.543509
      6         11           0       -3.494433    0.269312    0.753299
      7         11           0       -2.298073   -2.447553   -0.866561
 ---------------------------------------------------------------------

 SCF Done:  E(UB3LYP) =  -1136.12108265     A.U. after   22 cycles

 The electronic state is 2-A.
 Alpha  occ. eigenvalues --  -38.44802 -38.44570 -38.44545 -38.44116 -38.43798
 Alpha  occ. eigenvalues --  -38.43336 -38.43304  -2.20577  -2.20376  -2.20336
 Alpha  occ. eigenvalues --   -2.19991  -2.19617  -2.19270  -2.19105  -1.14242
 Alpha  occ. eigenvalues --   -1.14232  -1.14214  -1.14080  -1.14066  -1.14013
 Alpha  occ. eigenvalues --   -1.14005  -1.13976  -1.13949  -1.13759  -1.13621
 Alpha  occ. eigenvalues --   -1.13555  -1.13286  -1.13269  -1.13248  -1.13017
 Alpha  occ. eigenvalues --   -1.12894  -1.12870  -1.12780  -1.12762  -1.12737
 Alpha  occ. eigenvalues --   -0.17818  -0.13433  -0.11742  -0.09881
 Alpha virt. eigenvalues --   -0.06528  -0.05789  -0.04891  -0.03196  -0.02357
 Alpha virt. eigenvalues --   -0.02264  -0.01844  -0.01656  -0.01061  -0.00491
 Alpha virt. eigenvalues --   -0.00088   0.00208   0.00591   0.00627   0.00658

  Beta  occ. eigenvalues --  -38.44783 -38.44576 -38.44541 -38.44046 -38.43765
  Beta  occ. eigenvalues --  -38.43332 -38.43262  -2.20543  -2.20371  -2.20348
  Beta  occ. eigenvalues --   -2.19861  -2.19559  -2.19197  -2.19099  -1.14213
  Beta  occ. eigenvalues --   -1.14203  -1.14193  -1.14077  -1.14047  -1.14020
  Beta  occ. eigenvalues --   -1.14004  -1.13980  -1.13951  -1.13669  -1.13530
  Beta  occ. eigenvalues --   -1.13458  -1.13237  -1.13231  -1.13203  -1.12946
  Beta  occ. eigenvalues --   -1.12843  -1.12819  -1.12770  -1.12754  -1.12731
  Beta  occ. eigenvalues --   -0.17202  -0.13215  -0.11545
  Beta virt. eigenvalues --   -0.06339  -0.06229  -0.05752  -0.04609  -0.02643
  Beta virt. eigenvalues --   -0.02214  -0.01792  -0.01549  -0.01097  -0.00966
  Beta virt. eigenvalues --   -0.00348   0.00078   0.00261   0.00680   0.00694

 Mulliken charges and spin densities:
               1          2
     1  Na  -0.195342  -0.068131
     2  Na   0.413366   0.016822
     3  Na  -0.195262   0.540302
     4  Na   0.081317   0.227223
     5  Na  -0.053321   0.009397
     6  Na   0.053988   0.174819
     7  Na  -0.104746   0.099568
 Sum of Mulliken charges =  -0.00000   1.00000

 Dipole moment (field-independent basis, Debye):
    X=              0.4000    Y=             -0.2902    Z=              0.3000  Tot=              0.5781
 Quadrupole moment (field-independent basis, Debye-Ang):
   XX=            -49.8304   YY=            -63.0539   ZZ=            -77.8887
   XY=             -2.7004   XZ=             -0.6198   YZ=              1.7559

 Normal termination of Gaussian 16 at Tue Dec  5 22:30:37 2023.
