 Gaussian 16, Revision B.01,
 Gaussian 16:  ES64L-G16RevB.01 20-Dec-2017

 -------------------------
 #P B3LYP/6-311+g(d) force
 -------------------------

 -----
 DPGEN
 -----
 Symbolic Z-matrix:
 Charge =  0 Multiplicity = 2

                         Standard orientation:
 ---------------------------------------------------------------------
 Center     Atomic      Atomic             Coordinates (Angstroms)
 Number     Number       Type             X           Y           Z
 ---------------------------------------------------------------------
      1         11           0       -0.286021   -0.204877   -1.793995
      2         11           0        1.805015    2.466876   -0.234718
      3         11           0        0.034942   -0.054149    1.844424
      4         11           0        0.380702   -2.742017    0.036306
      5         11           0        3.098638   -0.800394    0.004887
      6         11           0       -3.328228   -0.794772   -0.037656
      7         11           0       -1.705048    2.129333    0.180752
 ---------------------------------------------------------------------

 SCF Done:  E(UB3LYP) =  -1136.13674254     A.U. after   19 cycles

 The electronic state is 2-A.
 Alpha  occ. eigenvalues --  -38.44494 -38.44295 -38.43366 -38.43357 -38.43350
 Alpha  occ. eigenvalues --  -38.43226 -38.43158  -2.20298  -2.20124  -2.19311
 Alpha  occ. eigenvalues --   -2.19302  -2.19249  -2.19053  -2.19048  -1.13967
 Alpha  occ. eigenvalues --   -1.13963  -1.13937  -1.13795  -1.13782  -1.13774
 Alpha  occ. eigenvalues --   -1.13040  -1.13008  -1.12986  -1.12972  -1.12919
 Alpha  occ. eigenvalues --   -1.12912  -1.12896  -1.12885  -1.12862  -1.12723
 Alpha  occ. eigenvalues --   -1.12720  -1.12713  -1.12710  -1.12699  -1.12659
 Alpha  occ. eigenvalues --   -0.18755  -0.13247  -0.12261  -0.10653
 Alpha virt. eigenvalues --   -0.06103  -0.05035  -0.04432  -0.03254  -0.02756
 Alpha virt. eigenvalues --   -0.02432  -0.01927  -0.01055  -0.00315  -0.00215
 Alpha virt. eigenvalues --   -0.00023   0.00332   0.00769   0.00868   0.00897

  Beta  occ. eigenvalues --  -38.44493 -38.44294 -38.43340 -38.43290 -38.43272
  Beta  occ. eigenvalues --  -38.43223 -38.43149  -2.20299  -2.20124  -2.19235
  Beta  occ. eigenvalues --   -2.19170  -2.19147  -2.19050  -2.19037  -1.13969
  Beta  occ. eigenvalues --   -1.13945  -1.13940  -1.13785  -1.13781  -1.13769
  Beta  occ. eigenvalues --   -1.12982  -1.12928  -1.12908  -1.12871  -1.12863
  Beta  occ. eigenvalues --   -1.12844  -1.12818  -1.12808  -1.12793  -1.12713
  Beta  occ. eigenvalues --   -1.12707  -1.12702  -1.12694  -1.12667  -1.12653
  Beta  occ. eigenvalues --   -0.18014  -0.13026  -0.12007
  Beta virt. eigenvalues --   -0.06745  -0.06058  -0.05037  -0.04411  -0.02462
  Beta virt. eigenvalues --   -0.01976  -0.01839  -0.01381  -0.01002  -0.00367
  Beta virt. eigenvalues --   -0.00249   0.00117   0.00350   0.00817   0.00861

 Mulliken charges and spin densities:
               1          2
     1  Na  -0.345280   0.770818
     2  Na  -0.041523  -0.076743
     3  Na  -0.248273   0.662591
     4  Na   0.194563  -0.170164
     5  Na   0.087334  -0.053188
     6  Na   0.190561  -0.118690
     7  Na   0.162619  -0.014623
 Sum of Mulliken charges =  -0.00000   1.00000

 Dipole moment (field-independent basis, Debye):
    X=             -0.1735    Y=             -0.2471    Z=              0.0030  Tot=              0.3019
 Quadrupole moment (field-independent basis, Debye-Ang):
   XX=            -52.2186   YY=            -65.4647   ZZ=            -74.9176
   XY=              0.8510   XZ=             -0.6139   YZ=             -0.3917

 Normal termination of Gaussian 16 at Tue Dec  5 18:59:30 2023.
