 Gaussian 16, Revision B.01,
 Gaussian 16:  ES64L-G16RevB.01 20-Dec-2017

 -------------------------
 #P B3LYP/6-311+g(d) force
 -------------------------

 -----
 DPGEN
 -----
 Symbolic Z-matrix:
 Charge =  0 Multiplicity = 2

                         Standard orientation:
 ---------------------------------------------------------------------
 Center     Atomic      Atomic             Coordinates (Angstroms)
 Number     Number       Type             X           Y           Z
 ---------------------------------------------------------------------
      1         11           0        2.036846    2.318883   -0.549933
      2         11           0       -2.063139    2.367971    0.086918
      3         11           0        2.922887   -1.038141    0.160683
      4         11           0        0.374027    0.013848    2.139852
      5         11           0       -0.301075   -2.821177   -0.419667
      6         11           0       -0.036752   -0.043355   -1.469312
      7         11           0       -2.932796   -0.798029    0.051460
 ---------------------------------------------------------------------

 SCF Done:  E(UB3LYP) =  -1136.13539287     A.U. after   19 cycles

 The electronic state is 2-A.
 Alpha  occ. eigenvalues --  -38.44086 -38.43840 -38.43815 -38.43780 -38.43656
 Alpha  occ. eigenvalues --  -38.43084 -38.43017  -2.19929  -2.19709  -2.19686
 Alpha  occ. eigenvalues --   -2.19605  -2.19475  -2.19056  -2.18976  -1.13615
 Alpha  occ. eigenvalues --   -1.13595  -1.13563  -1.13379  -1.13369  -1.13347
 Alpha  occ. eigenvalues --   -1.13341  -1.13330  -1.13325  -1.13301  -1.13252
 Alpha  occ. eigenvalues --   -1.13232  -1.13146  -1.13132  -1.13112  -1.12860
 Alpha  occ. eigenvalues --   -1.12723  -1.12671  -1.12616  -1.12587  -1.12579
 Alpha  occ. eigenvalues --   -0.18662  -0.13228  -0.12278  -0.10801
 Alpha virt. eigenvalues --   -0.05605  -0.05358  -0.04508  -0.03310  -0.02752
 Alpha virt. eigenvalues --   -0.02584  -0.01545  -0.01168  -0.00423  -0.00281
 Alpha virt. eigenvalues --   -0.00008   0.00347   0.00792   0.00848   0.00897

  Beta  occ. eigenvalues --  -38.44080 -38.43813 -38.43764 -38.43742 -38.43656
  Beta  occ. eigenvalues --  -38.43074 -38.42961  -2.19921  -2.19685  -2.19578
  Beta  occ. eigenvalues --   -2.19526  -2.19477  -2.18969  -2.18947  -1.13601
  Beta  occ. eigenvalues --   -1.13569  -1.13560  -1.13375  -1.13347  -1.13323
  Beta  occ. eigenvalues --   -1.13273  -1.13250  -1.13228  -1.13217  -1.13203
  Beta  occ. eigenvalues --   -1.13193  -1.13143  -1.13124  -1.13114  -1.12812
  Beta  occ. eigenvalues --   -1.12649  -1.12612  -1.12589  -1.12567  -1.12533
  Beta  occ. eigenvalues --   -0.17962  -0.12994  -0.12020
  Beta virt. eigenvalues --   -0.06886  -0.05519  -0.05334  -0.04484  -0.02525
  Beta virt. eigenvalues --   -0.02042  -0.01519  -0.01443  -0.01080  -0.00464
  Beta virt. eigenvalues --   -0.00308   0.00140   0.00382   0.00851   0.00860

 Mulliken charges and spin densities:
               1          2
     1  Na   0.050846  -0.009411
     2  Na   0.020790  -0.023495
     3  Na   0.304868   0.066051
     4  Na  -0.520662   0.703650
     5  Na   0.370610   0.041420
     6  Na  -0.353532   0.193252
     7  Na   0.127079   0.028533
 Sum of Mulliken charges =  -0.00000   1.00000

 Dipole moment (field-independent basis, Debye):
    X=              0.2074    Y=              0.1302    Z=              0.2915  Tot=              0.3807
 Quadrupole moment (field-independent basis, Debye-Ang):
   XX=            -56.2006   YY=            -62.7623   ZZ=            -74.4596
   XY=             -0.3351   XZ=             -0.9782   YZ=             -0.2753

 Normal termination of Gaussian 16 at Wed Dec  6 01:05:37 2023.
