 Gaussian 16, Revision B.01,
 Gaussian 16:  ES64L-G16RevB.01 20-Dec-2017

 -------------------------
 #P B3LYP/6-311+g(d) force
 -------------------------

 -----
 DPGEN
 -----
 Symbolic Z-matrix:
 Charge =  0 Multiplicity = 2

                         Standard orientation:
 ---------------------------------------------------------------------
 Center     Atomic      Atomic             Coordinates (Angstroms)
 Number     Number       Type             X           Y           Z
 ---------------------------------------------------------------------
      1         11           0       -1.472580   -0.856873    1.862215
      2         11           0       -3.140181   -0.872566   -1.699946
      3         11           0       -2.378378    2.373143    0.484448
      4         11           0        1.281482    2.105637   -0.031186
      5         11           0        0.461096   -1.655349   -1.301840
      6         11           0        3.728995    0.619949   -0.835658
      7         11           0        1.519565   -1.713941    1.521968
 ---------------------------------------------------------------------

 SCF Done:  E(UB3LYP) =  -1136.12247080     A.U. after   21 cycles

 The electronic state is 2-A.
 Alpha  occ. eigenvalues --  -38.44982 -38.44309 -38.44222 -38.44027 -38.43624
 Alpha  occ. eigenvalues --  -38.43598 -38.43487  -2.20766  -2.20164  -2.20055
 Alpha  occ. eigenvalues --   -2.19889  -2.19502  -2.19405  -2.19321  -1.14428
 Alpha  occ. eigenvalues --   -1.14405  -1.14377  -1.13883  -1.13837  -1.13780
 Alpha  occ. eigenvalues --   -1.13773  -1.13709  -1.13669  -1.13601  -1.13529
 Alpha  occ. eigenvalues --   -1.13514  -1.13171  -1.13163  -1.13097  -1.13078
 Alpha  occ. eigenvalues --   -1.13069  -1.13042  -1.12999  -1.12981  -1.12956
 Alpha  occ. eigenvalues --   -0.17735  -0.13527  -0.11812  -0.11516
 Alpha virt. eigenvalues --   -0.06132  -0.05323  -0.04813  -0.03561  -0.02815
 Alpha virt. eigenvalues --   -0.02688  -0.02028  -0.01000  -0.00861  -0.00202
 Alpha virt. eigenvalues --    0.00121   0.00172   0.00287   0.00503   0.00668

  Beta  occ. eigenvalues --  -38.44905 -38.44286 -38.44216 -38.43978 -38.43612
  Beta  occ. eigenvalues --  -38.43570 -38.43487  -2.20622  -2.20122  -2.20044
  Beta  occ. eigenvalues --   -2.19802  -2.19452  -2.19384  -2.19322  -1.14327
  Beta  occ. eigenvalues --   -1.14305  -1.14279  -1.13844  -1.13810  -1.13775
  Beta  occ. eigenvalues --   -1.13739  -1.13698  -1.13663  -1.13533  -1.13464
  Beta  occ. eigenvalues --   -1.13450  -1.13145  -1.13113  -1.13058  -1.13056
  Beta  occ. eigenvalues --   -1.13051  -1.13029  -1.12996  -1.12983  -1.12950
  Beta  occ. eigenvalues --   -0.17163  -0.13191  -0.11579
  Beta virt. eigenvalues --   -0.07724  -0.05830  -0.05226  -0.04239  -0.03385
  Beta virt. eigenvalues --   -0.02288  -0.02009  -0.01776  -0.00876  -0.00544
  Beta virt. eigenvalues --   -0.00089   0.00175   0.00280   0.00370   0.00602

 Mulliken charges and spin densities:
               1          2
     1  Na  -0.224271   0.349777
     2  Na   0.126887   0.304078
     3  Na   0.059439   0.018446
     4  Na  -0.674030  -0.000575
     5  Na  -0.574578   0.245606
     6  Na   0.767180  -0.003696
     7  Na   0.519373   0.086364
 Sum of Mulliken charges =  -0.00000   1.00000

 Dipole moment (field-independent basis, Debye):
    X=              0.0564    Y=             -0.5882    Z=             -0.2460  Tot=              0.6400
 Quadrupole moment (field-independent basis, Debye-Ang):
   XX=            -54.1036   YY=            -75.0127   ZZ=            -67.9875
   XY=             -2.3922   XZ=              0.3281   YZ=              1.1435

 Normal termination of Gaussian 16 at Mon Dec  4 02:19:00 2023.
