 Gaussian 16, Revision B.01,
 Gaussian 16:  ES64L-G16RevB.01 20-Dec-2017

 -------------------------
 #P B3LYP/6-311+g(d) force
 -------------------------

 -----
 DPGEN
 -----
 Symbolic Z-matrix:
 Charge =  0 Multiplicity = 2

                         Standard orientation:
 ---------------------------------------------------------------------
 Center     Atomic      Atomic             Coordinates (Angstroms)
 Number     Number       Type             X           Y           Z
 ---------------------------------------------------------------------
      1         11           0        0.089444   -0.444047    1.470773
      2         11           0        0.455043    2.823189   -0.598188
      3         11           0        3.633529    0.746373    0.054628
      4         11           0       -0.526174   -0.439648   -1.384380
      5         11           0       -3.533113   -1.461971   -0.332682
      6         11           0        2.251852   -2.651180   -0.019313
      7         11           0       -2.370581    1.427285    0.809161
 ---------------------------------------------------------------------

 SCF Done:  E(UB3LYP) =  -1136.11974971     A.U. after   26 cycles

 The electronic state is 2-A.
 Alpha  occ. eigenvalues --  -38.45655 -38.44363 -38.44133 -38.43845 -38.43687
 Alpha  occ. eigenvalues --  -38.43404 -38.42677  -2.21401  -2.20188  -2.20085
 Alpha  occ. eigenvalues --   -2.19646  -2.19619  -2.19377  -2.18506  -1.15090
 Alpha  occ. eigenvalues --   -1.15042  -1.15034  -1.13894  -1.13859  -1.13852
 Alpha  occ. eigenvalues --   -1.13822  -1.13705  -1.13669  -1.13338  -1.13317
 Alpha  occ. eigenvalues --   -1.13310  -1.13286  -1.13265  -1.13237  -1.13100
 Alpha  occ. eigenvalues --   -1.12968  -1.12960  -1.12194  -1.12160  -1.12150
 Alpha  occ. eigenvalues --   -0.18380  -0.13742  -0.11821  -0.09992
 Alpha virt. eigenvalues --   -0.07163  -0.05510  -0.04252  -0.03257  -0.02716
 Alpha virt. eigenvalues --   -0.02283  -0.01741  -0.01491  -0.00822  -0.00311
 Alpha virt. eigenvalues --   -0.00142   0.00092   0.00534   0.00599   0.00650

  Beta  occ. eigenvalues --  -38.45647 -38.44337 -38.44095 -38.43843 -38.43655
  Beta  occ. eigenvalues --  -38.43332 -38.42672  -2.21387  -2.20142  -2.20018
  Beta  occ. eigenvalues --   -2.19644  -2.19565  -2.19248  -2.18498  -1.15076
  Beta  occ. eigenvalues --   -1.15033  -1.15022  -1.13835  -1.13826  -1.13808
  Beta  occ. eigenvalues --   -1.13784  -1.13662  -1.13619  -1.13310  -1.13305
  Beta  occ. eigenvalues --   -1.13287  -1.13283  -1.13217  -1.13194  -1.13012
  Beta  occ. eigenvalues --   -1.12884  -1.12855  -1.12188  -1.12153  -1.12132
  Beta  occ. eigenvalues --   -0.17767  -0.13491  -0.11524
  Beta virt. eigenvalues --   -0.07044  -0.06268  -0.05420  -0.04102  -0.02694
  Beta virt. eigenvalues --   -0.02554  -0.01734  -0.01425  -0.00925  -0.00776
  Beta virt. eigenvalues --   -0.00192   0.00046   0.00157   0.00637   0.00671

 Mulliken charges and spin densities:
               1          2
     1  Na  -0.022947   0.169410
     2  Na  -0.281004  -0.066284
     3  Na  -0.023140   0.073398
     4  Na  -0.284361   0.601193
     5  Na   0.025355   0.093721
     6  Na   0.069657  -0.044976
     7  Na   0.516441   0.173538
 Sum of Mulliken charges =  -0.00000   1.00000

 Dipole moment (field-independent basis, Debye):
    X=              0.5963    Y=             -0.3322    Z=              0.3112  Tot=              0.7502
 Quadrupole moment (field-independent basis, Debye-Ang):
   XX=            -47.9627   YY=            -67.1389   ZZ=            -76.4017
   XY=             -0.5235   XZ=             -1.3778   YZ=              1.2003

 Normal termination of Gaussian 16 at Fri Dec  8 06:22:27 2023.
