 Gaussian 16, Revision B.01,
 Gaussian 16:  ES64L-G16RevB.01 20-Dec-2017

 -------------------------
 #P B3LYP/6-311+g(d) force
 -------------------------

 -----
 DPGEN
 -----
 Symbolic Z-matrix:
 Charge =  0 Multiplicity = 2

                         Standard orientation:
 ---------------------------------------------------------------------
 Center     Atomic      Atomic             Coordinates (Angstroms)
 Number     Number       Type             X           Y           Z
 ---------------------------------------------------------------------
      1         11           0       -2.409970    1.256364    0.768949
      2         11           0        0.793456    2.951636   -0.701717
      3         11           0       -4.123026   -1.200507   -0.539815
      4         11           0        0.924053   -0.067243    2.303403
      5         11           0       -0.380766   -0.554664   -1.035785
      6         11           0        2.080908   -2.918441   -0.133601
      7         11           0        3.115345    0.532856   -0.661434
 ---------------------------------------------------------------------

 SCF Done:  E(UB3LYP) =  -1136.12715402     A.U. after   21 cycles

 The electronic state is 2-A.
 Alpha  occ. eigenvalues --  -38.44465 -38.44454 -38.44195 -38.44190 -38.43999
 Alpha  occ. eigenvalues --  -38.43409 -38.42876  -2.20295  -2.20254  -2.20072
 Alpha  occ. eigenvalues --   -2.20029  -2.19854  -2.19205  -2.18695  -1.13982
 Alpha  occ. eigenvalues --   -1.13960  -1.13927  -1.13912  -1.13903  -1.13888
 Alpha  occ. eigenvalues --   -1.13813  -1.13739  -1.13697  -1.13686  -1.13661
 Alpha  occ. eigenvalues --   -1.13623  -1.13541  -1.13517  -1.13459  -1.12881
 Alpha  occ. eigenvalues --   -1.12867  -1.12842  -1.12368  -1.12360  -1.12333
 Alpha  occ. eigenvalues --   -0.17845  -0.13607  -0.11641  -0.10742
 Alpha virt. eigenvalues --   -0.06639  -0.05311  -0.04481  -0.03295  -0.02597
 Alpha virt. eigenvalues --   -0.02509  -0.02280  -0.01289  -0.00862  -0.00381
 Alpha virt. eigenvalues --   -0.00227   0.00181   0.00394   0.00653   0.00751

  Beta  occ. eigenvalues --  -38.44453 -38.44425 -38.44176 -38.44088 -38.43988
  Beta  occ. eigenvalues --  -38.43409 -38.42867  -2.20245  -2.20231  -2.20048
  Beta  occ. eigenvalues --   -2.19836  -2.19831  -2.19207  -2.18680  -1.13934
  Beta  occ. eigenvalues --   -1.13930  -1.13913  -1.13895  -1.13872  -1.13864
  Beta  occ. eigenvalues --   -1.13775  -1.13723  -1.13672  -1.13560  -1.13532
  Beta  occ. eigenvalues --   -1.13529  -1.13496  -1.13480  -1.13434  -1.12883
  Beta  occ. eigenvalues --   -1.12858  -1.12844  -1.12357  -1.12348  -1.12314
  Beta  occ. eigenvalues --   -0.17198  -0.13392  -0.11429
  Beta virt. eigenvalues --   -0.06959  -0.06361  -0.05179  -0.04260  -0.02862
  Beta virt. eigenvalues --   -0.02319  -0.01916  -0.01580  -0.01187  -0.00775
  Beta virt. eigenvalues --   -0.00159  -0.00055   0.00240   0.00528   0.00697

 Mulliken charges and spin densities:
               1          2
     1  Na   0.340994   0.082350
     2  Na  -0.045370   0.040643
     3  Na   0.137830   0.070901
     4  Na  -0.289289   0.489636
     5  Na  -0.865374   0.141733
     6  Na   0.163157   0.002962
     7  Na   0.558051   0.171775
 Sum of Mulliken charges =  -0.00000   1.00000

 Dipole moment (field-independent basis, Debye):
    X=             -0.3536    Y=             -0.3432    Z=              0.2066  Tot=              0.5343
 Quadrupole moment (field-independent basis, Debye-Ang):
   XX=            -54.0756   YY=            -66.9136   ZZ=            -72.8290
   XY=              0.4350   XZ=              0.6342   YZ=              1.5917

 Normal termination of Gaussian 16 at Tue Dec  5 17:08:00 2023.
