 Gaussian 16, Revision B.01,
 Gaussian 16:  ES64L-G16RevB.01 20-Dec-2017

 -------------------------
 #P B3LYP/6-311+g(d) force
 -------------------------

 -----
 DPGEN
 -----
 Symbolic Z-matrix:
 Charge =  0 Multiplicity = 2

                         Standard orientation:
 ---------------------------------------------------------------------
 Center     Atomic      Atomic             Coordinates (Angstroms)
 Number     Number       Type             X           Y           Z
 ---------------------------------------------------------------------
      1         11           0       -0.663300    0.756852    0.853969
      2         11           0       -2.487066    3.167292   -0.352785
      3         11           0       -3.563529   -0.565844   -0.770866
      4         11           0        0.502232   -1.716922   -1.410473
      5         11           0        2.498647    0.467579    1.187339
      6         11           0       -1.724871   -2.446702    1.116358
      7         11           0        5.437886    0.337745   -0.623542
 ---------------------------------------------------------------------

 SCF Done:  E(UB3LYP) =  -1136.11419381     A.U. after   22 cycles

 The electronic state is 2-A.
 Alpha  occ. eigenvalues --  -38.46084 -38.44466 -38.44282 -38.44050 -38.43533
 Alpha  occ. eigenvalues --  -38.43278 -38.42978  -2.21858  -2.20324  -2.20123
 Alpha  occ. eigenvalues --   -2.19852  -2.19359  -2.19065  -2.18955  -1.15556
 Alpha  occ. eigenvalues --   -1.15512  -1.15465  -1.14021  -1.13992  -1.13953
 Alpha  occ. eigenvalues --   -1.13805  -1.13776  -1.13707  -1.13488  -1.13486
 Alpha  occ. eigenvalues --   -1.13465  -1.13063  -1.13026  -1.13007  -1.12759
 Alpha  occ. eigenvalues --   -1.12734  -1.12701  -1.12650  -1.12612  -1.12548
 Alpha  occ. eigenvalues --   -0.17691  -0.13617  -0.11772  -0.10759
 Alpha virt. eigenvalues --   -0.07235  -0.05366  -0.04394  -0.03441  -0.02839
 Alpha virt. eigenvalues --   -0.02423  -0.01913  -0.01323  -0.01283  -0.00784
 Alpha virt. eigenvalues --   -0.00376   0.00004   0.00224   0.00492   0.00576

  Beta  occ. eigenvalues --  -38.46081 -38.44462 -38.44230 -38.43941 -38.43527
  Beta  occ. eigenvalues --  -38.43281 -38.42936  -2.21854  -2.20320  -2.20027
  Beta  occ. eigenvalues --   -2.19648  -2.19358  -2.19072  -2.18881  -1.15554
  Beta  occ. eigenvalues --   -1.15500  -1.15468  -1.14021  -1.13969  -1.13943
  Beta  occ. eigenvalues --   -1.13741  -1.13717  -1.13637  -1.13349  -1.13348
  Beta  occ. eigenvalues --   -1.13333  -1.13044  -1.13016  -1.12985  -1.12757
  Beta  occ. eigenvalues --   -1.12740  -1.12702  -1.12606  -1.12562  -1.12482
  Beta  occ. eigenvalues --   -0.17206  -0.12729  -0.11684
  Beta virt. eigenvalues --   -0.07217  -0.07124  -0.05018  -0.03986  -0.03179
  Beta virt. eigenvalues --   -0.02576  -0.02305  -0.01432  -0.01072  -0.00950
  Beta virt. eigenvalues --   -0.00603  -0.00076   0.00193   0.00335   0.00575

 Mulliken charges and spin densities:
               1          2
     1  Na  -1.314513   0.000973
     2  Na   0.544130  -0.021750
     3  Na   0.298896   0.341305
     4  Na  -0.032874  -0.094762
     5  Na  -0.092166   0.042412
     6  Na   0.539771   0.138664
     7  Na   0.056757   0.593158
 Sum of Mulliken charges =  -0.00000   1.00000

 Dipole moment (field-independent basis, Debye):
    X=             -0.8801    Y=             -1.5373    Z=             -0.8369  Tot=              1.9592
 Quadrupole moment (field-independent basis, Debye-Ang):
   XX=            -73.7370   YY=            -69.8789   ZZ=            -60.7749
   XY=             -0.4740   XZ=             -1.6191   YZ=             -1.1803

 Normal termination of Gaussian 16 at Tue Nov 28 22:56:28 2023.
