 Gaussian 16, Revision B.01,
 Gaussian 16:  ES64L-G16RevB.01 20-Dec-2017

 -------------------------
 #P B3LYP/6-311+g(d) force
 -------------------------

 -----
 DPGEN
 -----
 Symbolic Z-matrix:
 Charge =  0 Multiplicity = 2

                         Standard orientation:
 ---------------------------------------------------------------------
 Center     Atomic      Atomic             Coordinates (Angstroms)
 Number     Number       Type             X           Y           Z
 ---------------------------------------------------------------------
      1         11           0        1.291859    2.174428   -0.516248
      2         11           0       -0.364000    0.066779    2.154671
      3         11           0        4.217142    0.302533    0.196980
      4         11           0       -2.306170    2.022297   -0.780788
      5         11           0        1.987474   -2.149130   -0.275065
      6         11           0       -3.530361   -0.779779    0.735614
      7         11           0       -1.295943   -1.637128   -1.515163
 ---------------------------------------------------------------------

 SCF Done:  E(UB3LYP) =  -1136.11884476     A.U. after   28 cycles

 The electronic state is 2-A.
 Alpha  occ. eigenvalues --  -38.45710 -38.45301 -38.44468 -38.43760 -38.43693
 Alpha  occ. eigenvalues --  -38.43578 -38.43393  -2.21483  -2.21130  -2.20287
 Alpha  occ. eigenvalues --   -2.19579  -2.19490  -2.19412  -2.19181  -1.15154
 Alpha  occ. eigenvalues --   -1.15141  -1.15123  -1.14795  -1.14791  -1.14780
 Alpha  occ. eigenvalues --   -1.13945  -1.13914  -1.13909  -1.13254  -1.13231
 Alpha  occ. eigenvalues --   -1.13215  -1.13176  -1.13166  -1.13132  -1.13082
 Alpha  occ. eigenvalues --   -1.13069  -1.13032  -1.12871  -1.12865  -1.12803
 Alpha  occ. eigenvalues --   -0.17649  -0.14057  -0.11354  -0.10688
 Alpha virt. eigenvalues --   -0.07559  -0.05744  -0.04151  -0.03292  -0.03200
 Alpha virt. eigenvalues --   -0.02503  -0.02286  -0.01555  -0.00763  -0.00563
 Alpha virt. eigenvalues --   -0.00091   0.00046   0.00217   0.00595   0.00716

  Beta  occ. eigenvalues --  -38.45714 -38.45292 -38.44370 -38.43734 -38.43690
  Beta  occ. eigenvalues --  -38.43535 -38.43392  -2.21490  -2.21118  -2.20105
  Beta  occ. eigenvalues --   -2.19532  -2.19487  -2.19332  -2.19181  -1.15155
  Beta  occ. eigenvalues --   -1.15150  -1.15128  -1.14790  -1.14783  -1.14740
  Beta  occ. eigenvalues --   -1.13821  -1.13790  -1.13777  -1.13214  -1.13200
  Beta  occ. eigenvalues --   -1.13180  -1.13171  -1.13154  -1.13128  -1.13030
  Beta  occ. eigenvalues --   -1.13015  -1.12970  -1.12873  -1.12856  -1.12802
  Beta  occ. eigenvalues --   -0.16997  -0.13963  -0.11115
  Beta virt. eigenvalues --   -0.07409  -0.06779  -0.05722  -0.03699  -0.03093
  Beta virt. eigenvalues --   -0.02841  -0.01976  -0.01493  -0.01426  -0.00591
  Beta virt. eigenvalues --   -0.00415   0.00002   0.00063   0.00426   0.00693

 Mulliken charges and spin densities:
               1          2
     1  Na  -0.340781   0.013667
     2  Na  -0.392829   0.476077
     3  Na   0.475485  -0.060863
     4  Na  -0.087884   0.205911
     5  Na  -0.173341   0.038968
     6  Na   0.858241   0.191467
     7  Na  -0.338891   0.134772
 Sum of Mulliken charges =  -0.00000   1.00000

 Dipole moment (field-independent basis, Debye):
    X=              0.4554    Y=              0.0179    Z=              0.4242  Tot=              0.6226
 Quadrupole moment (field-independent basis, Debye-Ang):
   XX=            -41.5546   YY=            -77.6277   ZZ=            -74.6106
   XY=              1.2755   XZ=              0.4054   YZ=             -1.0918

 Normal termination of Gaussian 16 at Sun Dec  3 18:03:46 2023.
