 Gaussian 16, Revision B.01,
 Gaussian 16:  ES64L-G16RevB.01 20-Dec-2017

 -------------------------
 #P B3LYP/6-311+g(d) force
 -------------------------

 -----
 DPGEN
 -----
 Symbolic Z-matrix:
 Charge =  0 Multiplicity = 2

                         Standard orientation:
 ---------------------------------------------------------------------
 Center     Atomic      Atomic             Coordinates (Angstroms)
 Number     Number       Type             X           Y           Z
 ---------------------------------------------------------------------
      1         11           0       -2.399383   -1.602541   -0.200690
      2         11           0        3.400198   -0.250200   -0.353765
      3         11           0        0.044336   -0.113835   -1.830079
      4         11           0        0.461138   -2.789144    0.428205
      5         11           0        0.736705    3.048120    0.187385
      6         11           0        0.165039    0.063440    1.836966
      7         11           0       -2.408032    1.644159   -0.068021
 ---------------------------------------------------------------------

 SCF Done:  E(UB3LYP) =  -1136.13634558     A.U. after   19 cycles

 The electronic state is 2-A.
 Alpha  occ. eigenvalues --  -38.44193 -38.43894 -38.43544 -38.43478 -38.43461
 Alpha  occ. eigenvalues --  -38.43420 -38.43281  -2.19958  -2.19705  -2.19438
 Alpha  occ. eigenvalues --   -2.19410  -2.19358  -2.19338  -2.19202  -1.13635
 Alpha  occ. eigenvalues --   -1.13607  -1.13600  -1.13387  -1.13369  -1.13339
 Alpha  occ. eigenvalues --   -1.13185  -1.13128  -1.13103  -1.13070  -1.13046
 Alpha  occ. eigenvalues --   -1.13045  -1.13032  -1.13011  -1.12991  -1.12982
 Alpha  occ. eigenvalues --   -1.12970  -1.12959  -1.12856  -1.12842  -1.12828
 Alpha  occ. eigenvalues --   -0.18750  -0.12793  -0.12617  -0.10833
 Alpha virt. eigenvalues --   -0.05733  -0.05107  -0.04643  -0.03079  -0.03050
 Alpha virt. eigenvalues --   -0.02535  -0.01512  -0.01251  -0.00352  -0.00232
 Alpha virt. eigenvalues --   -0.00000   0.00348   0.00804   0.00852   0.00932

  Beta  occ. eigenvalues --  -38.44186 -38.43891 -38.43529 -38.43456 -38.43402
  Beta  occ. eigenvalues --  -38.43341 -38.43273  -2.19947  -2.19701  -2.19415
  Beta  occ. eigenvalues --   -2.19333  -2.19270  -2.19213  -2.19192  -1.13613
  Beta  occ. eigenvalues --   -1.13602  -1.13595  -1.13374  -1.13362  -1.13337
  Beta  occ. eigenvalues --   -1.13155  -1.13090  -1.13056  -1.13040  -1.13004
  Beta  occ. eigenvalues --   -1.12986  -1.12967  -1.12949  -1.12926  -1.12916
  Beta  occ. eigenvalues --   -1.12873  -1.12864  -1.12840  -1.12833  -1.12796
  Beta  occ. eigenvalues --   -0.18012  -0.12532  -0.12353
  Beta virt. eigenvalues --   -0.06954  -0.05696  -0.05019  -0.04641  -0.02318
  Beta virt. eigenvalues --   -0.02302  -0.01546  -0.01369  -0.01157  -0.00393
  Beta virt. eigenvalues --   -0.00271   0.00118   0.00374   0.00818   0.00881

 Mulliken charges and spin densities:
               1          2
     1  Na   0.270698   0.031755
     2  Na  -0.117641  -0.087555
     3  Na  -0.357884   0.673952
     4  Na   0.353177   0.034207
     5  Na  -0.007999  -0.124438
     6  Na  -0.246744   0.513743
     7  Na   0.106393  -0.041664
 Sum of Mulliken charges =  -0.00000   1.00000

 Dipole moment (field-independent basis, Debye):
    X=              0.3961    Y=              0.2152    Z=             -0.0231  Tot=              0.4514
 Quadrupole moment (field-independent basis, Debye-Ang):
   XX=            -58.6537   YY=            -60.8375   ZZ=            -74.0334
   XY=              0.4401   XZ=             -0.2087   YZ=             -0.3760

 Normal termination of Gaussian 16 at Thu Dec  7 19:19:52 2023.
