 Gaussian 16, Revision B.01,
 Gaussian 16:  ES64L-G16RevB.01 20-Dec-2017

 -------------------------
 #P B3LYP/6-311+g(d) force
 -------------------------

 -----
 DPGEN
 -----
 Symbolic Z-matrix:
 Charge =  0 Multiplicity = 2

                         Standard orientation:
 ---------------------------------------------------------------------
 Center     Atomic      Atomic             Coordinates (Angstroms)
 Number     Number       Type             X           Y           Z
 ---------------------------------------------------------------------
      1         11           0        1.705101   -1.682996   -0.149676
      2         11           0       -1.976588   -1.148907    1.698430
      3         11           0        2.897723    2.638375    0.055860
      4         11           0       -1.911377   -1.767191   -1.333945
      5         11           0       -4.814012    1.087171    0.040414
      6         11           0       -0.862369    1.635464   -0.453093
      7         11           0        4.961521   -0.761915    0.142010
 ---------------------------------------------------------------------

 SCF Done:  E(UB3LYP) =  -1136.11022346     A.U. after   26 cycles

 The electronic state is 2-A.
 Alpha  occ. eigenvalues --  -38.46210 -38.45079 -38.44370 -38.44137 -38.43950
 Alpha  occ. eigenvalues --  -38.43697 -38.43686  -2.22021  -2.20918  -2.20105
 Alpha  occ. eigenvalues --   -2.19932  -2.19753  -2.19482  -2.19465  -1.15736
 Alpha  occ. eigenvalues --   -1.15696  -1.15605  -1.14615  -1.14579  -1.14509
 Alpha  occ. eigenvalues --   -1.13793  -1.13760  -1.13737  -1.13650  -1.13602
 Alpha  occ. eigenvalues --   -1.13519  -1.13409  -1.13403  -1.13363  -1.13199
 Alpha  occ. eigenvalues --   -1.13171  -1.13132  -1.13117  -1.13081  -1.13077
 Alpha  occ. eigenvalues --   -0.17182  -0.13937  -0.11273  -0.10723
 Alpha virt. eigenvalues --   -0.06968  -0.06161  -0.04920  -0.03062  -0.02917
 Alpha virt. eigenvalues --   -0.02369  -0.01891  -0.01720  -0.01384  -0.00910
 Alpha virt. eigenvalues --   -0.00706  -0.00030   0.00201   0.00309   0.00530

  Beta  occ. eigenvalues --  -38.46208 -38.45073 -38.44352 -38.44100 -38.43876
  Beta  occ. eigenvalues --  -38.43692 -38.43629  -2.22020  -2.20907  -2.20075
  Beta  occ. eigenvalues --   -2.19867  -2.19615  -2.19477  -2.19360  -1.15735
  Beta  occ. eigenvalues --   -1.15692  -1.15599  -1.14606  -1.14571  -1.14501
  Beta  occ. eigenvalues --   -1.13775  -1.13737  -1.13701  -1.13608  -1.13553
  Beta  occ. eigenvalues --   -1.13462  -1.13313  -1.13309  -1.13276  -1.13200
  Beta  occ. eigenvalues --   -1.13160  -1.13060  -1.13055  -1.13043  -1.13011
  Beta  occ. eigenvalues --   -0.16811  -0.13209  -0.10847
  Beta virt. eigenvalues --   -0.07356  -0.06869  -0.06099  -0.04298  -0.02734
  Beta virt. eigenvalues --   -0.02662  -0.01980  -0.01766  -0.01500  -0.00988
  Beta virt. eigenvalues --   -0.00777  -0.00377   0.00045   0.00346   0.00415

 Mulliken charges and spin densities:
               1          2
     1  Na  -0.578508   0.122555
     2  Na   0.325632   0.023305
     3  Na  -0.102669  -0.035315
     4  Na   0.710296   0.033623
     5  Na   0.152321   0.389950
     6  Na  -0.676462   0.166954
     7  Na   0.169391   0.298928
 Sum of Mulliken charges =  -0.00000   1.00000

 Dipole moment (field-independent basis, Debye):
    X=             -0.6820    Y=             -0.9506    Z=              0.3250  Tot=              1.2142
 Quadrupole moment (field-independent basis, Debye-Ang):
   XX=            -65.6289   YY=            -75.8661   ZZ=            -62.3438
   XY=              7.6574   XZ=              1.8774   YZ=              0.2947

 Normal termination of Gaussian 16 at Sat Dec  9 05:43:56 2023.
