 Gaussian 16, Revision B.01,
 Gaussian 16:  ES64L-G16RevB.01 20-Dec-2017

 -------------------------
 #P B3LYP/6-311+g(d) force
 -------------------------

 -----
 DPGEN
 -----
 Symbolic Z-matrix:
 Charge =  0 Multiplicity = 2

                         Standard orientation:
 ---------------------------------------------------------------------
 Center     Atomic      Atomic             Coordinates (Angstroms)
 Number     Number       Type             X           Y           Z
 ---------------------------------------------------------------------
      1         11           0        1.527711    2.981968   -0.209476
      2         11           0       -0.585288    0.122594    1.975798
      3         11           0        1.808401   -2.150485    0.565673
      4         11           0       -1.475805   -2.388068   -1.248699
      5         11           0       -1.043928    1.440322   -1.111586
      6         11           0        3.793089   -0.337855   -0.311610
      7         11           0       -4.024180    0.331523    0.339900
 ---------------------------------------------------------------------

 SCF Done:  E(UB3LYP) =  -1136.11239974     A.U. after   27 cycles

 The electronic state is 2-A.
 Alpha  occ. eigenvalues --  -38.46078 -38.45677 -38.44225 -38.44196 -38.43479
 Alpha  occ. eigenvalues --  -38.43440 -38.43059  -2.21830  -2.21481  -2.20067
 Alpha  occ. eigenvalues --   -2.19983  -2.19346  -2.19323  -2.18864  -1.15512
 Alpha  occ. eigenvalues --   -1.15487  -1.15459  -1.15236  -1.15128  -1.15084
 Alpha  occ. eigenvalues --   -1.13745  -1.13701  -1.13676  -1.13652  -1.13631
 Alpha  occ. eigenvalues --   -1.13596  -1.13056  -1.13028  -1.12989  -1.12987
 Alpha  occ. eigenvalues --   -1.12972  -1.12961  -1.12540  -1.12517  -1.12502
 Alpha  occ. eigenvalues --   -0.17535  -0.13580  -0.11959  -0.10329
 Alpha virt. eigenvalues --   -0.07670  -0.05326  -0.04244  -0.03512  -0.03116
 Alpha virt. eigenvalues --   -0.02569  -0.02158  -0.01321  -0.00802  -0.00412
 Alpha virt. eigenvalues --   -0.00165  -0.00096   0.00221   0.00507   0.00729

  Beta  occ. eigenvalues --  -38.46078 -38.45684 -38.44137 -38.44130 -38.43474
  Beta  occ. eigenvalues --  -38.43421 -38.43061  -2.21833  -2.21494  -2.19903
  Beta  occ. eigenvalues --   -2.19860  -2.19339  -2.19290  -2.18869  -1.15515
  Beta  occ. eigenvalues --   -1.15469  -1.15464  -1.15247  -1.15132  -1.15095
  Beta  occ. eigenvalues --   -1.13633  -1.13587  -1.13566  -1.13561  -1.13543
  Beta  occ. eigenvalues --   -1.13513  -1.13056  -1.13005  -1.12982  -1.12948
  Beta  occ. eigenvalues --   -1.12945  -1.12942  -1.12540  -1.12516  -1.12505
  Beta  occ. eigenvalues --   -0.16902  -0.13520  -0.11665
  Beta virt. eigenvalues --   -0.07514  -0.06602  -0.05122  -0.04136  -0.02924
  Beta virt. eigenvalues --   -0.02846  -0.02094  -0.01421  -0.01279  -0.00620
  Beta virt. eigenvalues --   -0.00177  -0.00143  -0.00014   0.00386   0.00604

 Mulliken charges and spin densities:
               1          2
     1  Na   0.192573   0.040646
     2  Na  -0.234961   0.384244
     3  Na   0.108282   0.207477
     4  Na  -0.043877   0.254941
     5  Na  -0.356489   0.283464
     6  Na  -0.101517  -0.142149
     7  Na   0.435990  -0.028623
 Sum of Mulliken charges =  -0.00000   1.00000

 Dipole moment (field-independent basis, Debye):
    X=             -0.8744    Y=              0.0534    Z=              0.1077  Tot=              0.8826
 Quadrupole moment (field-independent basis, Debye-Ang):
   XX=            -43.9559   YY=            -73.5449   ZZ=            -76.0060
   XY=              0.0919   XZ=             -1.6705   YZ=              1.1538

 Normal termination of Gaussian 16 at Mon Dec  4 00:03:30 2023.
