 Gaussian 16, Revision B.01,
 Gaussian 16:  ES64L-G16RevB.01 20-Dec-2017

 -------------------------
 #P B3LYP/6-311+g(d) force
 -------------------------

 -----
 DPGEN
 -----
 Symbolic Z-matrix:
 Charge =  0 Multiplicity = 2

                         Standard orientation:
 ---------------------------------------------------------------------
 Center     Atomic      Atomic             Coordinates (Angstroms)
 Number     Number       Type             X           Y           Z
 ---------------------------------------------------------------------
      1         11           0        0.681092    1.293782   -0.836396
      2         11           0        2.273693   -1.584327   -0.119056
      3         11           0       -1.030312   -1.622194   -1.448032
      4         11           0        4.302734    0.801915    0.212527
      5         11           0       -1.965572    2.264041   -0.026721
      6         11           0       -0.644212   -0.713788    2.153814
      7         11           0       -3.617423   -0.439429    0.063864
 ---------------------------------------------------------------------

 SCF Done:  E(UB3LYP) =  -1136.11198789     A.U. after   27 cycles

 The electronic state is 2-A.
 Alpha  occ. eigenvalues --  -38.45902 -38.45402 -38.44865 -38.43677 -38.43591
 Alpha  occ. eigenvalues --  -38.42875 -38.42798  -2.21748  -2.21191  -2.20682
 Alpha  occ. eigenvalues --   -2.19560  -2.19527  -2.18776  -2.18699  -1.15431
 Alpha  occ. eigenvalues --   -1.15404  -1.15382  -1.14875  -1.14846  -1.14820
 Alpha  occ. eigenvalues --   -1.14362  -1.14310  -1.14298  -1.13278  -1.13247
 Alpha  occ. eigenvalues --   -1.13230  -1.13190  -1.13168  -1.13159  -1.12452
 Alpha  occ. eigenvalues --   -1.12436  -1.12397  -1.12386  -1.12340  -1.12323
 Alpha  occ. eigenvalues --   -0.18531  -0.14323  -0.11121  -0.10817
 Alpha virt. eigenvalues --   -0.08015  -0.05111  -0.03964  -0.03425  -0.03193
 Alpha virt. eigenvalues --   -0.02389  -0.02181  -0.01499  -0.00792  -0.00385
 Alpha virt. eigenvalues --   -0.00140   0.00160   0.00264   0.00679   0.00712

  Beta  occ. eigenvalues --  -38.45895 -38.45395 -38.44797 -38.43672 -38.43546
  Beta  occ. eigenvalues --  -38.42823 -38.42790  -2.21737  -2.21179  -2.20554
  Beta  occ. eigenvalues --   -2.19553  -2.19450  -2.18687  -2.18681  -1.15412
  Beta  occ. eigenvalues --   -1.15400  -1.15365  -1.14867  -1.14835  -1.14812
  Beta  occ. eigenvalues --   -1.14272  -1.14222  -1.14207  -1.13264  -1.13216
  Beta  occ. eigenvalues --   -1.13196  -1.13178  -1.13121  -1.13082  -1.12382
  Beta  occ. eigenvalues --   -1.12379  -1.12375  -1.12338  -1.12313  -1.12292
  Beta  occ. eigenvalues --   -0.17822  -0.14122  -0.10860
  Beta virt. eigenvalues --   -0.07795  -0.06966  -0.05109  -0.03561  -0.03019
  Beta virt. eigenvalues --   -0.02973  -0.01738  -0.01468  -0.01403  -0.00509
  Beta virt. eigenvalues --   -0.00227  -0.00143   0.00170   0.00463   0.00727

 Mulliken charges and spin densities:
               1          2
     1  Na  -0.706807   0.266048
     2  Na   0.308226   0.126760
     3  Na   0.018954   0.094250
     4  Na   0.240785   0.005746
     5  Na   0.091368  -0.137085
     6  Na  -0.356680   0.377834
     7  Na   0.404154   0.266446
 Sum of Mulliken charges =  -0.00000   1.00000

 Dipole moment (field-independent basis, Debye):
    X=              0.3690    Y=             -0.4859    Z=              0.3489  Tot=              0.7028
 Quadrupole moment (field-independent basis, Debye-Ang):
   XX=            -42.8635   YY=            -77.8775   ZZ=            -72.3517
   XY=              3.1917   XZ=              2.5516   YZ=              1.7302

 Normal termination of Gaussian 16 at Thu Dec  7 17:24:16 2023.
