 Gaussian 16, Revision B.01,
 Gaussian 16:  ES64L-G16RevB.01 20-Dec-2017

 -------------------------
 #P B3LYP/6-311+g(d) force
 -------------------------

 -----
 DPGEN
 -----
 Symbolic Z-matrix:
 Charge =  0 Multiplicity = 2

                         Standard orientation:
 ---------------------------------------------------------------------
 Center     Atomic      Atomic             Coordinates (Angstroms)
 Number     Number       Type             X           Y           Z
 ---------------------------------------------------------------------
      1         11           0       -0.796495    0.913521    0.675292
      2         11           0       -2.748283    2.926341   -0.375127
      3         11           0       -3.252282   -0.796888   -0.801095
      4         11           0        0.749730   -1.783310   -1.282827
      5         11           0        2.385347    0.540534    1.016604
      6         11           0       -1.680117   -2.256097    1.233209
      7         11           0        5.342099    0.455899   -0.466057
 ---------------------------------------------------------------------

 SCF Done:  E(UB3LYP) =  -1136.11250499     A.U. after   22 cycles

 The electronic state is 2-A.
 Alpha  occ. eigenvalues --  -38.45853 -38.44563 -38.44151 -38.43906 -38.43369
 Alpha  occ. eigenvalues --  -38.43297 -38.42914  -2.21633  -2.20454  -2.20057
 Alpha  occ. eigenvalues --   -2.19721  -2.19226  -2.19124  -2.18935  -1.15335
 Alpha  occ. eigenvalues --   -1.15286  -1.15238  -1.14208  -1.14121  -1.14061
 Alpha  occ. eigenvalues --   -1.13733  -1.13713  -1.13625  -1.13361  -1.13353
 Alpha  occ. eigenvalues --   -1.13340  -1.12937  -1.12892  -1.12878  -1.12870
 Alpha  occ. eigenvalues --   -1.12778  -1.12751  -1.12614  -1.12588  -1.12515
 Alpha  occ. eigenvalues --   -0.18051  -0.13854  -0.11946  -0.10667
 Alpha virt. eigenvalues --   -0.07246  -0.05148  -0.04282  -0.03488  -0.02927
 Alpha virt. eigenvalues --   -0.02392  -0.01727  -0.01327  -0.01239  -0.00618
 Alpha virt. eigenvalues --   -0.00294   0.00037   0.00242   0.00527   0.00632

  Beta  occ. eigenvalues --  -38.45848 -38.44557 -38.44102 -38.43801 -38.43357
  Beta  occ. eigenvalues --  -38.43299 -38.42874  -2.21626  -2.20446  -2.19966
  Beta  occ. eigenvalues --   -2.19524  -2.19214  -2.19128  -2.18866  -1.15331
  Beta  occ. eigenvalues --   -1.15269  -1.15243  -1.14193  -1.14103  -1.14048
  Beta  occ. eigenvalues --   -1.13676  -1.13652  -1.13559  -1.13229  -1.13218
  Beta  occ. eigenvalues --   -1.13210  -1.12902  -1.12882  -1.12876  -1.12830
  Beta  occ. eigenvalues --   -1.12781  -1.12747  -1.12574  -1.12541  -1.12452
  Beta  occ. eigenvalues --   -0.17535  -0.13039  -0.11778
  Beta virt. eigenvalues --   -0.07131  -0.07069  -0.04940  -0.03765  -0.03230
  Beta virt. eigenvalues --   -0.02634  -0.02282  -0.01363  -0.01050  -0.00812
  Beta virt. eigenvalues --   -0.00431  -0.00029   0.00239   0.00357   0.00598

 Mulliken charges and spin densities:
               1          2
     1  Na  -1.793724  -0.104960
     2  Na   0.514097  -0.019534
     3  Na   0.159262   0.344142
     4  Na  -0.053073  -0.105974
     5  Na   0.141002   0.153643
     6  Na   0.719696   0.169369
     7  Na   0.312739   0.563314
 Sum of Mulliken charges =  -0.00000   1.00000

 Dipole moment (field-independent basis, Debye):
    X=             -0.8165    Y=             -1.4684    Z=             -0.7281  Tot=              1.8311
 Quadrupole moment (field-independent basis, Debye-Ang):
   XX=            -73.7392   YY=            -70.1781   ZZ=            -60.6725
   XY=             -2.5961   XZ=             -1.3838   YZ=             -0.2901

 Normal termination of Gaussian 16 at Tue Nov 28 19:46:47 2023.
