 Gaussian 16, Revision B.01,
 Gaussian 16:  ES64L-G16RevB.01 20-Dec-2017

 -------------------------
 #P B3LYP/6-311+g(d) force
 -------------------------

 -----
 DPGEN
 -----
 Symbolic Z-matrix:
 Charge =  0 Multiplicity = 2

                         Standard orientation:
 ---------------------------------------------------------------------
 Center     Atomic      Atomic             Coordinates (Angstroms)
 Number     Number       Type             X           Y           Z
 ---------------------------------------------------------------------
      1         11           0        1.811992   -1.971332   -0.745999
      2         11           0        1.041159    1.804475   -1.070955
      3         11           0       -2.317549    2.237389   -0.125896
      4         11           0        3.687820    0.132059    0.622935
      5         11           0       -1.072239   -0.857662   -1.283391
      6         11           0        0.248822    0.246425    2.015137
      7         11           0       -3.400005   -1.591354    0.588168
 ---------------------------------------------------------------------

 SCF Done:  E(UB3LYP) =  -1136.12323579     A.U. after   24 cycles

 The electronic state is 2-A.
 Alpha  occ. eigenvalues --  -38.44966 -38.44904 -38.44216 -38.43831 -38.43684
 Alpha  occ. eigenvalues --  -38.43046 -38.42920  -2.20804  -2.20728  -2.20019
 Alpha  occ. eigenvalues --   -2.19637  -2.19569  -2.18934  -2.18902  -1.14481
 Alpha  occ. eigenvalues --   -1.14461  -1.14441  -1.14415  -1.14364  -1.14336
 Alpha  occ. eigenvalues --   -1.13718  -1.13665  -1.13653  -1.13320  -1.13292
 Alpha  occ. eigenvalues --   -1.13281  -1.13272  -1.13212  -1.13199  -1.12655
 Alpha  occ. eigenvalues --   -1.12597  -1.12590  -1.12553  -1.12538  -1.12507
 Alpha  occ. eigenvalues --   -0.18508  -0.13853  -0.11323  -0.10989
 Alpha virt. eigenvalues --   -0.06848  -0.05510  -0.04160  -0.03252  -0.02675
 Alpha virt. eigenvalues --   -0.02382  -0.02358  -0.01249  -0.00755  -0.00171
 Alpha virt. eigenvalues --    0.00137   0.00193   0.00370   0.00603   0.00720

  Beta  occ. eigenvalues --  -38.44953 -38.44838 -38.44209 -38.43831 -38.43655
  Beta  occ. eigenvalues --  -38.43015 -38.42876  -2.20781  -2.20606  -2.20006
  Beta  occ. eigenvalues --   -2.19639  -2.19522  -2.18880  -2.18826  -1.14468
  Beta  occ. eigenvalues --   -1.14439  -1.14415  -1.14333  -1.14281  -1.14244
  Beta  occ. eigenvalues --   -1.13711  -1.13655  -1.13640  -1.13313  -1.13295
  Beta  occ. eigenvalues --   -1.13270  -1.13238  -1.13176  -1.13156  -1.12610
  Beta  occ. eigenvalues --   -1.12547  -1.12534  -1.12505  -1.12474  -1.12451
  Beta  occ. eigenvalues --   -0.17749  -0.13681  -0.11061
  Beta virt. eigenvalues --   -0.07193  -0.06549  -0.05500  -0.03622  -0.03020
  Beta virt. eigenvalues --   -0.02317  -0.01907  -0.01533  -0.01195  -0.00451
  Beta virt. eigenvalues --   -0.00111   0.00150   0.00210   0.00532   0.00688

 Mulliken charges and spin densities:
               1          2
     1  Na  -0.245663   0.122204
     2  Na  -0.247973   0.126282
     3  Na   0.160640  -0.056402
     4  Na   0.623890   0.198421
     5  Na   0.094626  -0.008675
     6  Na  -0.451101   0.486178
     7  Na   0.065580   0.131991
 Sum of Mulliken charges =  -0.00000   1.00000

 Dipole moment (field-independent basis, Debye):
    X=              0.4489    Y=              0.4377    Z=              0.6874  Tot=              0.9304
 Quadrupole moment (field-independent basis, Debye-Ang):
   XX=            -48.3324   YY=            -74.0691   ZZ=            -71.2255
   XY=             -1.0771   XZ=             -1.4688   YZ=             -1.2490

 Normal termination of Gaussian 16 at Thu Dec  7 10:22:44 2023.
