 Gaussian 16, Revision B.01,
 Gaussian 16:  ES64L-G16RevB.01 20-Dec-2017

 -------------------------
 #P B3LYP/6-311+g(d) force
 -------------------------

 -----
 DPGEN
 -----
 Symbolic Z-matrix:
 Charge =  0 Multiplicity = 2

                         Standard orientation:
 ---------------------------------------------------------------------
 Center     Atomic      Atomic             Coordinates (Angstroms)
 Number     Number       Type             X           Y           Z
 ---------------------------------------------------------------------
      1         11           0       -0.430953    2.183717    1.560623
      2         11           0        2.813053   -1.786742   -1.058054
      3         11           0        0.609788   -1.040792    1.884954
      4         11           0        3.017504    1.663009   -0.396825
      5         11           0       -3.582183    1.000430   -1.479682
      6         11           0        0.114505    0.012884   -1.092693
      7         11           0       -2.541714   -2.032506    0.581678
 ---------------------------------------------------------------------

 SCF Done:  E(UB3LYP) =  -1136.12141519     A.U. after   24 cycles

 The electronic state is 2-A.
 Alpha  occ. eigenvalues --  -38.44828 -38.44531 -38.44203 -38.44159 -38.43717
 Alpha  occ. eigenvalues --  -38.43453 -38.42899  -2.20601  -2.20330  -2.20105
 Alpha  occ. eigenvalues --   -2.19934  -2.19676  -2.19289  -2.18722  -1.14263
 Alpha  occ. eigenvalues --   -1.14235  -1.14213  -1.14026  -1.13985  -1.13948
 Alpha  occ. eigenvalues --   -1.13821  -1.13728  -1.13710  -1.13611  -1.13594
 Alpha  occ. eigenvalues --   -1.13571  -1.13411  -1.13322  -1.13298  -1.12970
 Alpha  occ. eigenvalues --   -1.12935  -1.12920  -1.12414  -1.12376  -1.12336
 Alpha  occ. eigenvalues --   -0.17946  -0.13502  -0.11523  -0.10981
 Alpha virt. eigenvalues --   -0.06000  -0.05783  -0.04365  -0.03068  -0.02983
 Alpha virt. eigenvalues --   -0.02466  -0.02201  -0.01256  -0.00724  -0.00384
 Alpha virt. eigenvalues --    0.00160   0.00229   0.00356   0.00542   0.00657

  Beta  occ. eigenvalues --  -38.44756 -38.44523 -38.44155 -38.44123 -38.43705
  Beta  occ. eigenvalues --  -38.43446 -38.42873  -2.20466  -2.20316  -2.19960
  Beta  occ. eigenvalues --   -2.19929  -2.19656  -2.19279  -2.18677  -1.14168
  Beta  occ. eigenvalues --   -1.14143  -1.14126  -1.14013  -1.13979  -1.13931
  Beta  occ. eigenvalues --   -1.13729  -1.13630  -1.13606  -1.13602  -1.13583
  Beta  occ. eigenvalues --   -1.13549  -1.13368  -1.13315  -1.13287  -1.12960
  Beta  occ. eigenvalues --   -1.12933  -1.12904  -1.12374  -1.12336  -1.12311
  Beta  occ. eigenvalues --   -0.17322  -0.12930  -0.10825
  Beta virt. eigenvalues --   -0.07868  -0.05896  -0.05326  -0.04013  -0.02823
  Beta virt. eigenvalues --   -0.02409  -0.02026  -0.01763  -0.01124  -0.00488
  Beta virt. eigenvalues --   -0.00178   0.00216   0.00286   0.00415   0.00695

 Mulliken charges and spin densities:
               1          2
     1  Na  -0.305466  -0.036105
     2  Na   0.478349  -0.038532
     3  Na   0.503385   0.560815
     4  Na   0.282770  -0.008081
     5  Na   0.248869   0.346642
     6  Na  -1.199278   0.219404
     7  Na  -0.008629  -0.044144
 Sum of Mulliken charges =  -0.00000   1.00000

 Dipole moment (field-independent basis, Debye):
    X=              0.1272    Y=              0.0699    Z=              0.0193  Tot=              0.1465
 Quadrupole moment (field-independent basis, Debye-Ang):
   XX=            -53.2931   YY=            -71.7869   ZZ=            -68.0746
   XY=              0.5058   XZ=              0.3285   YZ=             -2.6622

 Normal termination of Gaussian 16 at Tue Dec  5 19:02:01 2023.
