 Gaussian 16, Revision B.01,
 Gaussian 16:  ES64L-G16RevB.01 20-Dec-2017

 -------------------------
 #P B3LYP/6-311+g(d) force
 -------------------------

 -----
 DPGEN
 -----
 Symbolic Z-matrix:
 Charge =  0 Multiplicity = 2

                         Standard orientation:
 ---------------------------------------------------------------------
 Center     Atomic      Atomic             Coordinates (Angstroms)
 Number     Number       Type             X           Y           Z
 ---------------------------------------------------------------------
      1         11           0       -1.371562   -0.580746    2.246901
      2         11           0        3.644148   -1.433149   -0.946435
      3         11           0        2.288954    0.569645    1.515746
      4         11           0        0.346951    3.042704   -0.278810
      5         11           0       -2.901185    1.147784   -0.943758
      6         11           0        0.149150   -0.228006   -1.308405
      7         11           0       -2.156456   -2.518232   -0.285240
 ---------------------------------------------------------------------

 SCF Done:  E(UB3LYP) =  -1136.12699619     A.U. after   22 cycles

 The electronic state is 2-A.
 Alpha  occ. eigenvalues --  -38.44549 -38.44376 -38.44055 -38.43981 -38.43729
 Alpha  occ. eigenvalues --  -38.43601 -38.43118  -2.20356  -2.20214  -2.19839
 Alpha  occ. eigenvalues --   -2.19807  -2.19559  -2.19523  -2.18919  -1.14051
 Alpha  occ. eigenvalues --   -1.14019  -1.13958  -1.13873  -1.13850  -1.13835
 Alpha  occ. eigenvalues --   -1.13507  -1.13495  -1.13493  -1.13481  -1.13463
 Alpha  occ. eigenvalues --   -1.13415  -1.13258  -1.13227  -1.13219  -1.13194
 Alpha  occ. eigenvalues --   -1.13164  -1.13140  -1.12602  -1.12582  -1.12551
 Alpha  occ. eigenvalues --   -0.17807  -0.13325  -0.11535  -0.11226
 Alpha virt. eigenvalues --   -0.06167  -0.05196  -0.04888  -0.03272  -0.02829
 Alpha virt. eigenvalues --   -0.02695  -0.01967  -0.01104  -0.00644  -0.00224
 Alpha virt. eigenvalues --   -0.00040   0.00269   0.00386   0.00524   0.00692

  Beta  occ. eigenvalues --  -38.44530 -38.44293 -38.44030 -38.43955 -38.43730
  Beta  occ. eigenvalues --  -38.43565 -38.43119  -2.20323  -2.20060  -2.19792
  Beta  occ. eigenvalues --   -2.19761  -2.19564  -2.19458  -2.18924  -1.14014
  Beta  occ. eigenvalues --   -1.13999  -1.13940  -1.13771  -1.13746  -1.13721
  Beta  occ. eigenvalues --   -1.13474  -1.13463  -1.13461  -1.13443  -1.13433
  Beta  occ. eigenvalues --   -1.13370  -1.13253  -1.13210  -1.13198  -1.13167
  Beta  occ. eigenvalues --   -1.13130  -1.13089  -1.12605  -1.12579  -1.12552
  Beta  occ. eigenvalues --   -0.17139  -0.13102  -0.11315
  Beta virt. eigenvalues --   -0.07483  -0.05978  -0.04920  -0.04384  -0.03036
  Beta virt. eigenvalues --   -0.02279  -0.01984  -0.01756  -0.01024  -0.00329
  Beta virt. eigenvalues --   -0.00189   0.00109   0.00313   0.00483   0.00693

 Mulliken charges and spin densities:
               1          2
     1  Na  -0.354463   0.435993
     2  Na   0.037518   0.197073
     3  Na   0.189376   0.145037
     4  Na  -0.160439   0.066445
     5  Na   0.676456  -0.025183
     6  Na  -0.509723   0.078035
     7  Na   0.121274   0.102600
 Sum of Mulliken charges =  -0.00000   1.00000

 Dipole moment (field-independent basis, Debye):
    X=             -0.5398    Y=             -0.1359    Z=              0.0540  Tot=              0.5592
 Quadrupole moment (field-independent basis, Debye-Ang):
   XX=            -56.4987   YY=            -68.5765   ZZ=            -69.3665
   XY=             -0.0984   XZ=              0.8845   YZ=              3.2537

 Normal termination of Gaussian 16 at Wed Nov 29 16:29:11 2023.
