 Gaussian 16, Revision B.01,
 Gaussian 16:  ES64L-G16RevB.01 20-Dec-2017

 -------------------------
 #P B3LYP/6-311+g(d) force
 -------------------------

 -----
 DPGEN
 -----
 Symbolic Z-matrix:
 Charge =  0 Multiplicity = 2

                         Standard orientation:
 ---------------------------------------------------------------------
 Center     Atomic      Atomic             Coordinates (Angstroms)
 Number     Number       Type             X           Y           Z
 ---------------------------------------------------------------------
      1         11           0       -3.079014   -1.332480   -1.330268
      2         11           0        2.315685    2.519438   -1.133882
      3         11           0        3.025662   -0.101982    0.081292
      4         11           0       -3.227716    0.675488    1.103500
      5         11           0        0.441067   -2.647355   -1.238302
      6         11           0       -0.918220    3.202287    0.525263
      7         11           0        1.442535   -2.315396    1.992396
 ---------------------------------------------------------------------

 SCF Done:  E(UB3LYP) =  -1136.11447248     A.U. after   20 cycles

 The electronic state is 2-A.
 Alpha  occ. eigenvalues --  -38.44977 -38.44750 -38.44422 -38.44185 -38.44108
 Alpha  occ. eigenvalues --  -38.44093 -38.43462  -2.20755  -2.20510  -2.20287
 Alpha  occ. eigenvalues --   -2.20022  -2.19918  -2.19900  -2.19303  -1.14445
 Alpha  occ. eigenvalues --   -1.14429  -1.14374  -1.14190  -1.14177  -1.14133
 Alpha  occ. eigenvalues --   -1.14006  -1.13957  -1.13923  -1.13677  -1.13659
 Alpha  occ. eigenvalues --   -1.13659  -1.13633  -1.13581  -1.13573  -1.13551
 Alpha  occ. eigenvalues --   -1.13536  -1.13490  -1.12993  -1.12940  -1.12915
 Alpha  occ. eigenvalues --   -0.16485  -0.13696  -0.13002  -0.10668
 Alpha virt. eigenvalues --   -0.06849  -0.05470  -0.04233  -0.03862  -0.03375
 Alpha virt. eigenvalues --   -0.02354  -0.01510  -0.01139  -0.01010  -0.00792
 Alpha virt. eigenvalues --   -0.00348  -0.00214   0.00102   0.00479   0.00655

  Beta  occ. eigenvalues --  -38.44963 -38.44725 -38.44400 -38.44121 -38.44100
  Beta  occ. eigenvalues --  -38.44058 -38.43430  -2.20732  -2.20467  -2.20253
  Beta  occ. eigenvalues --   -2.19905  -2.19902  -2.19834  -2.19245  -1.14429
  Beta  occ. eigenvalues --   -1.14417  -1.14335  -1.14161  -1.14149  -1.14093
  Beta  occ. eigenvalues --   -1.13955  -1.13936  -1.13894  -1.13638  -1.13592
  Beta  occ. eigenvalues --   -1.13577  -1.13573  -1.13558  -1.13553  -1.13509
  Beta  occ. eigenvalues --   -1.13489  -1.13453  -1.12947  -1.12901  -1.12879
  Beta  occ. eigenvalues --   -0.15997  -0.13269  -0.12495
  Beta virt. eigenvalues --   -0.07375  -0.06728  -0.04964  -0.03792  -0.03682
  Beta virt. eigenvalues --   -0.03037  -0.01890  -0.01345  -0.01057  -0.00759
  Beta virt. eigenvalues --   -0.00717  -0.00090   0.00005   0.00404   0.00550

 Mulliken charges and spin densities:
               1          2
     1  Na   0.057932   0.130786
     2  Na   0.158809   0.081455
     3  Na  -0.259205   0.129006
     4  Na  -0.153388   0.036132
     5  Na   0.032459   0.152965
     6  Na  -0.017391   0.134291
     7  Na   0.180783   0.335365
 Sum of Mulliken charges =  -0.00000   1.00000

 Dipole moment (field-independent basis, Debye):
    X=             -0.0243    Y=             -0.4671    Z=              0.2267  Tot=              0.5198
 Quadrupole moment (field-independent basis, Debye-Ang):
   XX=            -67.9467   YY=            -67.4118   ZZ=            -66.7781
   XY=             -1.0921   XZ=             -1.3172   YZ=             -0.1736

 Normal termination of Gaussian 16 at Sun Dec  3 13:52:48 2023.
