 Gaussian 16, Revision B.01,
 Gaussian 16:  ES64L-G16RevB.01 20-Dec-2017

 -------------------------
 #P B3LYP/6-311+g(d) force
 -------------------------

 -----
 DPGEN
 -----
 Symbolic Z-matrix:
 Charge =  0 Multiplicity = 2

                         Standard orientation:
 ---------------------------------------------------------------------
 Center     Atomic      Atomic             Coordinates (Angstroms)
 Number     Number       Type             X           Y           Z
 ---------------------------------------------------------------------
      1         11           0        2.830816   -1.561600   -0.435264
      2         11           0       -1.367319    2.590163   -0.273990
      3         11           0        2.592977    1.823992    0.123698
      4         11           0       -0.759576   -2.598261    0.106726
      5         11           0        0.129657    0.082053    2.074748
      6         11           0       -3.211839   -0.392436   -0.002057
      7         11           0       -0.214716    0.056089   -1.593862
 ---------------------------------------------------------------------

 SCF Done:  E(UB3LYP) =  -1136.13574792     A.U. after   19 cycles

 The electronic state is 2-A.
 Alpha  occ. eigenvalues --  -38.44349 -38.44060 -38.44015 -38.43636 -38.43269
 Alpha  occ. eigenvalues --  -38.43266 -38.42935  -2.20197  -2.19868  -2.19824
 Alpha  occ. eigenvalues --   -2.19520  -2.19261  -2.19126  -2.18827  -1.13873
 Alpha  occ. eigenvalues --   -1.13855  -1.13840  -1.13547  -1.13545  -1.13512
 Alpha  occ. eigenvalues --   -1.13496  -1.13468  -1.13455  -1.13191  -1.13145
 Alpha  occ. eigenvalues --   -1.13135  -1.12999  -1.12953  -1.12874  -1.12782
 Alpha  occ. eigenvalues --   -1.12769  -1.12739  -1.12517  -1.12490  -1.12447
 Alpha  occ. eigenvalues --   -0.18642  -0.13270  -0.12137  -0.10742
 Alpha virt. eigenvalues --   -0.05934  -0.05374  -0.04254  -0.03291  -0.02735
 Alpha virt. eigenvalues --   -0.02556  -0.01804  -0.01162  -0.00401  -0.00238
 Alpha virt. eigenvalues --   -0.00026   0.00331   0.00738   0.00848   0.00902

  Beta  occ. eigenvalues --  -38.44347 -38.44058 -38.44006 -38.43537 -38.43262
  Beta  occ. eigenvalues --  -38.43208 -38.42927  -2.20195  -2.19866  -2.19809
  Beta  occ. eigenvalues --   -2.19337  -2.19155  -2.19117  -2.18818  -1.13870
  Beta  occ. eigenvalues --   -1.13846  -1.13832  -1.13547  -1.13522  -1.13513
  Beta  occ. eigenvalues --   -1.13470  -1.13460  -1.13449  -1.13070  -1.13018
  Beta  occ. eigenvalues --   -1.13003  -1.12942  -1.12879  -1.12800  -1.12761
  Beta  occ. eigenvalues --   -1.12740  -1.12725  -1.12511  -1.12457  -1.12439
  Beta  occ. eigenvalues --   -0.17920  -0.13046  -0.11878
  Beta virt. eigenvalues --   -0.06836  -0.05874  -0.05347  -0.04241  -0.02531
  Beta virt. eigenvalues --   -0.01968  -0.01712  -0.01490  -0.01089  -0.00447
  Beta virt. eigenvalues --   -0.00271   0.00116   0.00363   0.00809   0.00847

 Mulliken charges and spin densities:
               1          2
     1  Na   0.056770  -0.002198
     2  Na   0.185514  -0.077221
     3  Na   0.107422  -0.046852
     4  Na   0.201233   0.013368
     5  Na  -0.462537   0.719036
     6  Na   0.231985  -0.026882
     7  Na  -0.320386   0.420750
 Sum of Mulliken charges =  -0.00000   1.00000

 Dipole moment (field-independent basis, Debye):
    X=              0.0464    Y=              0.0986    Z=              0.1585  Tot=              0.1924
 Quadrupole moment (field-independent basis, Debye-Ang):
   XX=            -53.0330   YY=            -65.3766   ZZ=            -74.5496
   XY=              0.2329   XZ=             -0.9257   YZ=              0.3508

 Normal termination of Gaussian 16 at Thu Dec  7 05:32:59 2023.
