 Gaussian 16, Revision B.01,
 Gaussian 16:  ES64L-G16RevB.01 20-Dec-2017

 -------------------------
 #P B3LYP/6-311+g(d) force
 -------------------------

 -----
 DPGEN
 -----
 Symbolic Z-matrix:
 Charge =  0 Multiplicity = 2

                         Standard orientation:
 ---------------------------------------------------------------------
 Center     Atomic      Atomic             Coordinates (Angstroms)
 Number     Number       Type             X           Y           Z
 ---------------------------------------------------------------------
      1         11           0        0.205917    0.890113   -0.588222
      2         11           0       -1.890900    3.628892    0.434659
      3         11           0       -3.387957    0.776470   -0.431421
      4         11           0       -0.449145   -1.657474    1.244967
      5         11           0        2.661155   -1.002218   -0.127634
      6         11           0       -2.646497   -3.157772   -0.406196
      7         11           0        5.507427    0.521987   -0.126154
 ---------------------------------------------------------------------

 SCF Done:  E(UB3LYP) =  -1136.12119994     A.U. after   19 cycles

 The electronic state is 2-A.
 Alpha  occ. eigenvalues --  -38.44568 -38.44243 -38.44241 -38.44048 -38.43899
 Alpha  occ. eigenvalues --  -38.43697 -38.43077  -2.20381  -2.20149  -2.20042
 Alpha  occ. eigenvalues --   -2.19868  -2.19801  -2.19511  -2.18969  -1.14081
 Alpha  occ. eigenvalues --   -1.14058  -1.13979  -1.13859  -1.13820  -1.13766
 Alpha  occ. eigenvalues --   -1.13708  -1.13704  -1.13663  -1.13507  -1.13496
 Alpha  occ. eigenvalues --   -1.13489  -1.13487  -1.13474  -1.13436  -1.13166
 Alpha  occ. eigenvalues --   -1.13157  -1.13134  -1.12666  -1.12629  -1.12616
 Alpha  occ. eigenvalues --   -0.17336  -0.13850  -0.12561  -0.10756
 Alpha virt. eigenvalues --   -0.06067  -0.05429  -0.04870  -0.03495  -0.02560
 Alpha virt. eigenvalues --   -0.02280  -0.02167  -0.01557  -0.01008  -0.00511
 Alpha virt. eigenvalues --   -0.00378  -0.00122   0.00501   0.00535   0.00550

  Beta  occ. eigenvalues --  -38.44542 -38.44243 -38.44206 -38.43941 -38.43878
  Beta  occ. eigenvalues --  -38.43672 -38.43070  -2.20333  -2.20088  -2.20042
  Beta  occ. eigenvalues --   -2.19768  -2.19667  -2.19463  -2.18966  -1.14049
  Beta  occ. eigenvalues --   -1.14026  -1.13939  -1.13810  -1.13783  -1.13725
  Beta  occ. eigenvalues --   -1.13708  -1.13695  -1.13661  -1.13466  -1.13456
  Beta  occ. eigenvalues --   -1.13387  -1.13374  -1.13359  -1.13354  -1.13134
  Beta  occ. eigenvalues --   -1.13125  -1.13099  -1.12668  -1.12636  -1.12546
  Beta  occ. eigenvalues --   -0.16804  -0.13150  -0.12242
  Beta virt. eigenvalues --   -0.07279  -0.05951  -0.05156  -0.04476  -0.03054
  Beta virt. eigenvalues --   -0.02406  -0.02134  -0.01804  -0.01288  -0.00718
  Beta virt. eigenvalues --   -0.00191  -0.00074   0.00049   0.00559   0.00621

 Mulliken charges and spin densities:
               1          2
     1  Na  -0.884351  -0.073294
     2  Na   0.274120  -0.027285
     3  Na   0.215324   0.303996
     4  Na   0.225370   0.013746
     5  Na  -0.289176   0.215937
     6  Na   0.180955   0.163262
     7  Na   0.277759   0.403639
 Sum of Mulliken charges =  -0.00000   1.00000

 Dipole moment (field-independent basis, Debye):
    X=             -1.1106    Y=              0.8584    Z=              0.2554  Tot=              1.4267
 Quadrupole moment (field-independent basis, Debye-Ang):
   XX=            -71.8019   YY=            -61.1308   ZZ=            -68.2015
   XY=             -0.2597   XZ=              1.4972   YZ=              2.6420

 Normal termination of Gaussian 16 at Wed Nov 29 01:08:47 2023.
