 Gaussian 16, Revision B.01,
 Gaussian 16:  ES64L-G16RevB.01 20-Dec-2017

 -------------------------
 #P B3LYP/6-311+g(d) force
 -------------------------

 -----
 DPGEN
 -----
 Symbolic Z-matrix:
 Charge =  0 Multiplicity = 2

                         Standard orientation:
 ---------------------------------------------------------------------
 Center     Atomic      Atomic             Coordinates (Angstroms)
 Number     Number       Type             X           Y           Z
 ---------------------------------------------------------------------
      1         11           0       -1.564333   -2.778887   -0.030570
      2         11           0       -0.892068   -0.928312    2.334098
      3         11           0        5.700245   -0.114788   -1.489266
      4         11           0       -2.994280    2.360229    0.185876
      5         11           0        0.070487    2.404234    0.048920
      6         11           0       -3.917000   -0.767487   -1.976333
      7         11           0        3.596950   -0.174989    0.927274
 ---------------------------------------------------------------------

 SCF Done:  E(UB3LYP) =  -1136.10621444     A.U. after   21 cycles

 The electronic state is 2-A.
 Alpha  occ. eigenvalues --  -38.45380 -38.44902 -38.44644 -38.44364 -38.44111
 Alpha  occ. eigenvalues --  -38.43777 -38.43474  -2.21162  -2.20720  -2.20427
 Alpha  occ. eigenvalues --   -2.20126  -2.19909  -2.19587  -2.19280  -1.14815
 Alpha  occ. eigenvalues --   -1.14787  -1.14772  -1.14395  -1.14362  -1.14331
 Alpha  occ. eigenvalues --   -1.14082  -1.14077  -1.14074  -1.13799  -1.13796
 Alpha  occ. eigenvalues --   -1.13761  -1.13602  -1.13572  -1.13557  -1.13250
 Alpha  occ. eigenvalues --   -1.13235  -1.13223  -1.12974  -1.12944  -1.12920
 Alpha  occ. eigenvalues --   -0.16181  -0.13509  -0.11850  -0.11801
 Alpha virt. eigenvalues --   -0.06513  -0.05706  -0.04370  -0.03547  -0.03254
 Alpha virt. eigenvalues --   -0.02723  -0.02215  -0.01608  -0.01419  -0.00744
 Alpha virt. eigenvalues --   -0.00286  -0.00068   0.00077   0.00338   0.00378

  Beta  occ. eigenvalues --  -38.45272 -38.44837 -38.44609 -38.44374 -38.44103
  Beta  occ. eigenvalues --  -38.43774 -38.43484  -2.20962  -2.20597  -2.20362
  Beta  occ. eigenvalues --   -2.20149  -2.19894  -2.19583  -2.19302  -1.14678
  Beta  occ. eigenvalues --   -1.14650  -1.14636  -1.14317  -1.14278  -1.14244
  Beta  occ. eigenvalues --   -1.14041  -1.14032  -1.14031  -1.13816  -1.13814
  Beta  occ. eigenvalues --   -1.13754  -1.13598  -1.13560  -1.13541  -1.13248
  Beta  occ. eigenvalues --   -1.13235  -1.13205  -1.12981  -1.12963  -1.12916
  Beta  occ. eigenvalues --   -0.15474  -0.13003  -0.11723
  Beta virt. eigenvalues --   -0.08317  -0.06060  -0.05278  -0.03968  -0.03327
  Beta virt. eigenvalues --   -0.02796  -0.02426  -0.02065  -0.01451  -0.00951
  Beta virt. eigenvalues --   -0.00421  -0.00270   0.00056   0.00259   0.00419

 Mulliken charges and spin densities:
               1          2
     1  Na   0.170493  -0.178047
     2  Na  -0.298933   0.469714
     3  Na   0.342060   0.120652
     4  Na   0.037964  -0.061972
     5  Na  -0.016331   0.070328
     6  Na   0.102665   0.566906
     7  Na  -0.337918   0.012419
 Sum of Mulliken charges =  -0.00000   1.00000

 Dipole moment (field-independent basis, Debye):
    X=              0.1089    Y=             -0.0317    Z=             -0.5286  Tot=              0.5407
 Quadrupole moment (field-independent basis, Debye-Ang):
   XX=            -59.3380   YY=            -77.8309   ZZ=            -61.9456
   XY=             -1.0588   XZ=             -4.1291   YZ=              1.7565

 Normal termination of Gaussian 16 at Sun Dec  3 19:01:29 2023.
