 Gaussian 16, Revision B.01,
 Gaussian 16:  ES64L-G16RevB.01 20-Dec-2017

 -------------------------
 #P B3LYP/6-311+g(d) force
 -------------------------

 -----
 DPGEN
 -----
 Symbolic Z-matrix:
 Charge =  0 Multiplicity = 2

                         Standard orientation:
 ---------------------------------------------------------------------
 Center     Atomic      Atomic             Coordinates (Angstroms)
 Number     Number       Type             X           Y           Z
 ---------------------------------------------------------------------
      1         11           0        0.029842   -1.136083   -1.573870
      2         11           0       -3.652848   -0.444797   -1.171155
      3         11           0        1.275706    0.227538    1.386622
      4         11           0       -2.308579   -0.925460    1.839051
      5         11           0       -1.374874    2.079301    0.143653
      6         11           0        2.518093    1.869804   -0.639524
      7         11           0        3.512659   -1.670303    0.015223
 ---------------------------------------------------------------------

 SCF Done:  E(UB3LYP) =  -1136.11890786     A.U. after   26 cycles

 The electronic state is 2-A.
 Alpha  occ. eigenvalues --  -38.44848 -38.44588 -38.44390 -38.44379 -38.43805
 Alpha  occ. eigenvalues --  -38.43438 -38.43157  -2.20642  -2.20406  -2.20251
 Alpha  occ. eigenvalues --   -2.20226  -2.19622  -2.19434  -2.18998  -1.14354
 Alpha  occ. eigenvalues --   -1.14315  -1.14233  -1.14080  -1.14062  -1.14043
 Alpha  occ. eigenvalues --   -1.14021  -1.13904  -1.13885  -1.13864  -1.13843
 Alpha  occ. eigenvalues --   -1.13831  -1.13323  -1.13278  -1.13256  -1.13128
 Alpha  occ. eigenvalues --   -1.13108  -1.13007  -1.12691  -1.12680  -1.12607
 Alpha  occ. eigenvalues --   -0.18290  -0.14423  -0.11018  -0.10723
 Alpha virt. eigenvalues --   -0.06918  -0.05631  -0.04916  -0.03094  -0.02617
 Alpha virt. eigenvalues --   -0.02326  -0.02138  -0.01222  -0.01177  -0.00227
 Alpha virt. eigenvalues --    0.00114   0.00191   0.00265   0.00478   0.00506

  Beta  occ. eigenvalues --  -38.44815 -38.44567 -38.44376 -38.44312 -38.43805
  Beta  occ. eigenvalues --  -38.43409 -38.43149  -2.20584  -2.20370  -2.20224
  Beta  occ. eigenvalues --   -2.20102  -2.19623  -2.19382  -2.18986  -1.14313
  Beta  occ. eigenvalues --   -1.14266  -1.14189  -1.14046  -1.14039  -1.14013
  Beta  occ. eigenvalues --   -1.14004  -1.13879  -1.13814  -1.13797  -1.13780
  Beta  occ. eigenvalues --   -1.13753  -1.13317  -1.13277  -1.13257  -1.13096
  Beta  occ. eigenvalues --   -1.13047  -1.12974  -1.12686  -1.12641  -1.12604
  Beta  occ. eigenvalues --   -0.17650  -0.14218  -0.10619
  Beta virt. eigenvalues --   -0.07167  -0.06711  -0.05379  -0.04354  -0.02887
  Beta virt. eigenvalues --   -0.02499  -0.01735  -0.01530  -0.01110  -0.00669
  Beta virt. eigenvalues --   -0.00142   0.00140   0.00292   0.00385   0.00570

 Mulliken charges and spin densities:
               1          2
     1  Na  -0.583635   0.265767
     2  Na   0.448157   0.110474
     3  Na  -0.444596   0.164094
     4  Na   0.043596   0.182084
     5  Na  -0.218203   0.251403
     6  Na   0.279059   0.115914
     7  Na   0.475622  -0.089735
 Sum of Mulliken charges =  -0.00000   1.00000

 Dipole moment (field-independent basis, Debye):
    X=             -0.2454    Y=              0.1345    Z=             -0.4415  Tot=              0.5227
 Quadrupole moment (field-independent basis, Debye-Ang):
   XX=            -48.6902   YY=            -75.8918   ZZ=            -70.4802
   XY=              0.8351   XZ=             -0.8597   YZ=             -3.5855

 Normal termination of Gaussian 16 at Tue Dec  5 12:42:53 2023.
