 Gaussian 16, Revision B.01,
 Gaussian 16:  ES64L-G16RevB.01 20-Dec-2017

 -------------------------
 #P B3LYP/6-311+g(d) force
 -------------------------

 -----
 DPGEN
 -----
 Symbolic Z-matrix:
 Charge =  0 Multiplicity = 2

                         Standard orientation:
 ---------------------------------------------------------------------
 Center     Atomic      Atomic             Coordinates (Angstroms)
 Number     Number       Type             X           Y           Z
 ---------------------------------------------------------------------
      1         11           0       -2.060124   -1.997910    0.224277
      2         11           0       -3.047228    1.374181   -0.236125
      3         11           0        0.450308   -0.557855    1.953386
      4         11           0        1.082961   -2.107164   -0.529960
      5         11           0        3.303368    0.452196   -0.358498
      6         11           0       -0.204627    0.349163   -1.649539
      7         11           0        0.475343    2.487389    0.596459
 ---------------------------------------------------------------------

 SCF Done:  E(UB3LYP) =  -1136.13175616     A.U. after   19 cycles

 The electronic state is 2-A.
 Alpha  occ. eigenvalues --  -38.44384 -38.43982 -38.43599 -38.43429 -38.43351
 Alpha  occ. eigenvalues --  -38.43241 -38.42970  -2.20206  -2.19794  -2.19565
 Alpha  occ. eigenvalues --   -2.19442  -2.19239  -2.19119  -2.18975  -1.13873
 Alpha  occ. eigenvalues --   -1.13870  -1.13844  -1.13477  -1.13451  -1.13432
 Alpha  occ. eigenvalues --   -1.13286  -1.13219  -1.13173  -1.13167  -1.13127
 Alpha  occ. eigenvalues --   -1.13038  -1.12918  -1.12909  -1.12868  -1.12808
 Alpha  occ. eigenvalues --   -1.12790  -1.12710  -1.12656  -1.12634  -1.12549
 Alpha  occ. eigenvalues --   -0.19132  -0.13175  -0.12281  -0.11124
 Alpha virt. eigenvalues --   -0.05992  -0.04899  -0.04015  -0.03254  -0.02982
 Alpha virt. eigenvalues --   -0.02645  -0.01900  -0.00941  -0.00160   0.00035
 Alpha virt. eigenvalues --    0.00118   0.00319   0.00816   0.00906   0.00934

  Beta  occ. eigenvalues --  -38.44378 -38.43982 -38.43510 -38.43367 -38.43346
  Beta  occ. eigenvalues --  -38.43222 -38.42949  -2.20198  -2.19795  -2.19403
  Beta  occ. eigenvalues --   -2.19329  -2.19232  -2.19088  -2.18943  -1.13869
  Beta  occ. eigenvalues --   -1.13848  -1.13837  -1.13467  -1.13452  -1.13433
  Beta  occ. eigenvalues --   -1.13187  -1.13109  -1.13092  -1.13054  -1.13043
  Beta  occ. eigenvalues --   -1.12957  -1.12909  -1.12888  -1.12853  -1.12785
  Beta  occ. eigenvalues --   -1.12741  -1.12693  -1.12634  -1.12576  -1.12520
  Beta  occ. eigenvalues --   -0.18374  -0.12940  -0.12030
  Beta virt. eigenvalues --   -0.07121  -0.05915  -0.04893  -0.03974  -0.02542
  Beta virt. eigenvalues --   -0.02227  -0.01811  -0.01544  -0.00904  -0.00034
  Beta virt. eigenvalues --    0.00063   0.00111   0.00345   0.00872   0.00901

 Mulliken charges and spin densities:
               1          2
     1  Na   0.211718   0.001672
     2  Na   0.061192  -0.068285
     3  Na  -0.415740   0.548226
     4  Na   0.424733   0.102532
     5  Na   0.082845  -0.077996
     6  Na  -0.419197   0.459076
     7  Na   0.054450   0.034776
 Sum of Mulliken charges =  -0.00000   1.00000

 Dipole moment (field-independent basis, Debye):
    X=              0.1165    Y=              0.2271    Z=              0.1401  Tot=              0.2911
 Quadrupole moment (field-independent basis, Debye-Ang):
   XX=            -52.3174   YY=            -68.4790   ZZ=            -72.2282
   XY=              0.7786   XZ=             -1.3816   YZ=              0.9611

 Normal termination of Gaussian 16 at Thu Dec  7 14:16:23 2023.
