 Gaussian 16, Revision B.01,
 Gaussian 16:  ES64L-G16RevB.01 20-Dec-2017

 -------------------------
 #P B3LYP/6-311+g(d) force
 -------------------------

 -----
 DPGEN
 -----
 Symbolic Z-matrix:
 Charge =  0 Multiplicity = 2

                         Standard orientation:
 ---------------------------------------------------------------------
 Center     Atomic      Atomic             Coordinates (Angstroms)
 Number     Number       Type             X           Y           Z
 ---------------------------------------------------------------------
      1         11           0        1.074011    3.111591   -0.058285
      2         11           0        3.282013   -0.559058    0.154911
      3         11           0       -2.738646   -1.406435    0.537934
      4         11           0        0.347781   -0.114565    2.075031
      5         11           0        0.325038   -2.799518   -0.721504
      6         11           0       -2.583986    1.712572   -0.390693
      7         11           0        0.293789    0.055414   -1.597394
 ---------------------------------------------------------------------

 SCF Done:  E(UB3LYP) =  -1136.13312758     A.U. after   19 cycles

 The electronic state is 2-A.
 Alpha  occ. eigenvalues --  -38.44515 -38.43918 -38.43913 -38.43855 -38.43543
 Alpha  occ. eigenvalues --  -38.43518 -38.43238  -2.20309  -2.19770  -2.19731
 Alpha  occ. eigenvalues --   -2.19629  -2.19390  -2.19380  -2.19210  -1.13989
 Alpha  occ. eigenvalues --   -1.13967  -1.13942  -1.13439  -1.13418  -1.13405
 Alpha  occ. eigenvalues --   -1.13398  -1.13389  -1.13365  -1.13313  -1.13289
 Alpha  occ. eigenvalues --   -1.13264  -1.13187  -1.13046  -1.13042  -1.13037
 Alpha  occ. eigenvalues --   -1.13017  -1.12984  -1.12876  -1.12827  -1.12817
 Alpha  occ. eigenvalues --   -0.18253  -0.12861  -0.12274  -0.10837
 Alpha virt. eigenvalues --   -0.05982  -0.05136  -0.04603  -0.03258  -0.02911
 Alpha virt. eigenvalues --   -0.02642  -0.01678  -0.01253  -0.00478  -0.00358
 Alpha virt. eigenvalues --    0.00001   0.00349   0.00770   0.00775   0.00815

  Beta  occ. eigenvalues --  -38.44510 -38.43915 -38.43856 -38.43823 -38.43534
  Beta  occ. eigenvalues --  -38.43494 -38.43175  -2.20303  -2.19728  -2.19633
  Beta  occ. eigenvalues --   -2.19603  -2.19367  -2.19350  -2.19096  -1.13967
  Beta  occ. eigenvalues --   -1.13966  -1.13937  -1.13417  -1.13387  -1.13366
  Beta  occ. eigenvalues --   -1.13327  -1.13306  -1.13296  -1.13282  -1.13266
  Beta  occ. eigenvalues --   -1.13262  -1.13140  -1.13035  -1.13028  -1.13011
  Beta  occ. eigenvalues --   -1.12982  -1.12963  -1.12799  -1.12749  -1.12733
  Beta  occ. eigenvalues --   -0.17541  -0.12647  -0.12025
  Beta virt. eigenvalues --   -0.06949  -0.05957  -0.05038  -0.04542  -0.02525
  Beta virt. eigenvalues --   -0.02212  -0.01639  -0.01569  -0.01164  -0.00475
  Beta virt. eigenvalues --   -0.00365   0.00120   0.00385   0.00781   0.00869

 Mulliken charges and spin densities:
               1          2
     1  Na  -0.124595  -0.083475
     2  Na   0.060245  -0.038470
     3  Na   0.049556   0.088271
     4  Na  -0.274624   0.725044
     5  Na   0.208379   0.073030
     6  Na  -0.044236  -0.029122
     7  Na   0.125275   0.264721
 Sum of Mulliken charges =  -0.00000   1.00000

 Dipole moment (field-independent basis, Debye):
    X=              0.5009    Y=              0.1072    Z=              0.2288  Tot=              0.5610
 Quadrupole moment (field-independent basis, Debye-Ang):
   XX=            -56.4691   YY=            -62.5250   ZZ=            -74.2834
   XY=              0.0122   XZ=              0.0285   YZ=              0.1401

 Normal termination of Gaussian 16 at Thu Dec  7 06:21:32 2023.
