 Gaussian 16, Revision B.01,
 Gaussian 16:  ES64L-G16RevB.01 20-Dec-2017

 -------------------------
 #P B3LYP/6-311+g(d) force
 -------------------------

 -----
 DPGEN
 -----
 Symbolic Z-matrix:
 Charge =  0 Multiplicity = 2

                         Standard orientation:
 ---------------------------------------------------------------------
 Center     Atomic      Atomic             Coordinates (Angstroms)
 Number     Number       Type             X           Y           Z
 ---------------------------------------------------------------------
      1         11           0       -2.745343    0.129332   -1.096073
      2         11           0        0.115084   -2.037429   -1.002960
      3         11           0        3.644409   -0.427846    0.050648
      4         11           0        1.097849    1.250911   -1.553917
      5         11           0        0.934632    0.629610    1.716048
      6         11           0       -1.346385    2.716744    0.652616
      7         11           0       -1.700245   -2.261321    1.233639
 ---------------------------------------------------------------------

 SCF Done:  E(UB3LYP) =  -1136.13111750     A.U. after   21 cycles

 The electronic state is 2-A.
 Alpha  occ. eigenvalues --  -38.44367 -38.44322 -38.43823 -38.43583 -38.43543
 Alpha  occ. eigenvalues --  -38.43443 -38.42929  -2.20175  -2.20151  -2.19717
 Alpha  occ. eigenvalues --   -2.19466  -2.19458  -2.19353  -2.18777  -1.13853
 Alpha  occ. eigenvalues --   -1.13834  -1.13833  -1.13814  -1.13812  -1.13771
 Alpha  occ. eigenvalues --   -1.13424  -1.13383  -1.13311  -1.13306  -1.13136
 Alpha  occ. eigenvalues --   -1.13101  -1.13092  -1.13088  -1.13079  -1.13022
 Alpha  occ. eigenvalues --   -1.12980  -1.12909  -1.12454  -1.12429  -1.12419
 Alpha  occ. eigenvalues --   -0.18407  -0.13169  -0.12168  -0.11096
 Alpha virt. eigenvalues --   -0.06061  -0.04618  -0.04441  -0.03650  -0.03113
 Alpha virt. eigenvalues --   -0.02698  -0.01854  -0.00724  -0.00510   0.00081
 Alpha virt. eigenvalues --    0.00271   0.00332   0.00433   0.00789   0.00846

  Beta  occ. eigenvalues --  -38.44367 -38.44303 -38.43777 -38.43558 -38.43477
  Beta  occ. eigenvalues --  -38.43424 -38.42921  -2.20178  -2.20117  -2.19633
  Beta  occ. eigenvalues --   -2.19418  -2.19340  -2.19322  -2.18766  -1.13845
  Beta  occ. eigenvalues --   -1.13837  -1.13813  -1.13796  -1.13791  -1.13753
  Beta  occ. eigenvalues --   -1.13371  -1.13306  -1.13277  -1.13250  -1.13067
  Beta  occ. eigenvalues --   -1.13056  -1.13043  -1.13006  -1.12999  -1.12995
  Beta  occ. eigenvalues --   -1.12940  -1.12886  -1.12437  -1.12425  -1.12400
  Beta  occ. eigenvalues --   -0.17659  -0.13024  -0.11957
  Beta virt. eigenvalues --   -0.07230  -0.05925  -0.04409  -0.04239  -0.03170
  Beta virt. eigenvalues --   -0.02504  -0.01889  -0.01613  -0.00677  -0.00175
  Beta virt. eigenvalues --    0.00053   0.00335   0.00368   0.00586   0.00828

 Mulliken charges and spin densities:
               1          2
     1  Na  -0.035730   0.124264
     2  Na  -0.199609   0.194640
     3  Na   0.443275  -0.090708
     4  Na  -0.231643   0.401661
     5  Na  -0.418049   0.529363
     6  Na   0.223427  -0.084129
     7  Na   0.218329  -0.075092
 Sum of Mulliken charges =  -0.00000   1.00000

 Dipole moment (field-independent basis, Debye):
    X=              0.3874    Y=             -0.1234    Z=             -0.1494  Tot=              0.4331
 Quadrupole moment (field-independent basis, Debye-Ang):
   XX=            -54.8833   YY=            -70.7570   ZZ=            -68.7753
   XY=             -1.6014   XZ=             -0.2194   YZ=             -1.2750

 Normal termination of Gaussian 16 at Sun Dec  3 18:58:34 2023.
