 Gaussian 16, Revision B.01,
 Gaussian 16:  ES64L-G16RevB.01 20-Dec-2017

 -------------------------
 #P B3LYP/6-311+g(d) force
 -------------------------

 -----
 DPGEN
 -----
 Symbolic Z-matrix:
 Charge =  0 Multiplicity = 2

                         Standard orientation:
 ---------------------------------------------------------------------
 Center     Atomic      Atomic             Coordinates (Angstroms)
 Number     Number       Type             X           Y           Z
 ---------------------------------------------------------------------
      1         11           0       -1.987471    1.706036   -0.035082
      2         11           0        0.042756   -0.634615    2.180604
      3         11           0        5.401960   -0.100784   -0.855872
      4         11           0        1.140726    2.278364    0.154105
      5         11           0        2.049498   -1.291655   -0.308441
      6         11           0       -5.007406   -0.237680   -0.907183
      7         11           0       -1.640062   -1.719667   -0.228132
 ---------------------------------------------------------------------

 SCF Done:  E(UB3LYP) =  -1136.11530160     A.U. after   25 cycles

 The electronic state is 2-A.
 Alpha  occ. eigenvalues --  -38.45469 -38.44536 -38.44141 -38.43924 -38.43884
 Alpha  occ. eigenvalues --  -38.43812 -38.43728  -2.21360  -2.20403  -2.19907
 Alpha  occ. eigenvalues --   -2.19736  -2.19699  -2.19692  -2.19559  -1.15062
 Alpha  occ. eigenvalues --   -1.15026  -1.14940  -1.14110  -1.14085  -1.13990
 Alpha  occ. eigenvalues --   -1.13562  -1.13560  -1.13523  -1.13455  -1.13386
 Alpha  occ. eigenvalues --   -1.13380  -1.13373  -1.13365  -1.13364  -1.13357
 Alpha  occ. eigenvalues --   -1.13315  -1.13270  -1.13242  -1.13232  -1.13189
 Alpha  occ. eigenvalues --   -0.18097  -0.13470  -0.12193  -0.11301
 Alpha virt. eigenvalues --   -0.06461  -0.05696  -0.04662  -0.03580  -0.02548
 Alpha virt. eigenvalues --   -0.02374  -0.02127  -0.01884  -0.01224  -0.00388
 Alpha virt. eigenvalues --   -0.00338   0.00041   0.00268   0.00470   0.00559

  Beta  occ. eigenvalues --  -38.45420 -38.44505 -38.44087 -38.43902 -38.43841
  Beta  occ. eigenvalues --  -38.43781 -38.43732  -2.21273  -2.20352  -2.19805
  Beta  occ. eigenvalues --   -2.19659  -2.19655  -2.19636  -2.19574  -1.14995
  Beta  occ. eigenvalues --   -1.14967  -1.14873  -1.14075  -1.14058  -1.13922
  Beta  occ. eigenvalues --   -1.13493  -1.13490  -1.13457  -1.13398  -1.13342
  Beta  occ. eigenvalues --   -1.13339  -1.13336  -1.13334  -1.13325  -1.13313
  Beta  occ. eigenvalues --   -1.13290  -1.13285  -1.13249  -1.13194  -1.13149
  Beta  occ. eigenvalues --   -0.17422  -0.13037  -0.10896
  Beta virt. eigenvalues --   -0.08546  -0.06199  -0.05353  -0.04296  -0.03075
  Beta virt. eigenvalues --   -0.02399  -0.01965  -0.01906  -0.01551  -0.00927
  Beta virt. eigenvalues --   -0.00240  -0.00197   0.00182   0.00389   0.00522

 Mulliken charges and spin densities:
               1          2
     1  Na  -0.402107   0.206094
     2  Na   0.421328   0.263732
     3  Na   0.495393   0.193055
     4  Na  -0.057608   0.268259
     5  Na  -0.704668  -0.045761
     6  Na   0.614246   0.041775
     7  Na  -0.366584   0.072845
 Sum of Mulliken charges =  -0.00000   1.00000

 Dipole moment (field-independent basis, Debye):
    X=             -0.5800    Y=              0.3879    Z=              1.1159  Tot=              1.3161
 Quadrupole moment (field-independent basis, Debye-Ang):
   XX=            -63.1802   YY=            -72.0860   ZZ=            -66.4023
   XY=              3.6587   XZ=              0.9573   YZ=             -2.5656

 Normal termination of Gaussian 16 at Fri Dec  8 19:52:18 2023.
