 Gaussian 16, Revision B.01,
 Gaussian 16:  ES64L-G16RevB.01 20-Dec-2017

 -------------------------
 #P B3LYP/6-311+g(d) force
 -------------------------

 -----
 DPGEN
 -----
 Symbolic Z-matrix:
 Charge =  0 Multiplicity = 2

                         Standard orientation:
 ---------------------------------------------------------------------
 Center     Atomic      Atomic             Coordinates (Angstroms)
 Number     Number       Type             X           Y           Z
 ---------------------------------------------------------------------
      1         11           0       -2.546033   -1.147772    1.024813
      2         11           0       -0.194178    1.346905   -0.920692
      3         11           0        3.526360   -0.633332   -0.937330
      4         11           0       -4.066015    1.049582   -0.829254
      5         11           0        0.497334   -1.941600   -1.256667
      6         11           0        0.419973   -0.861020    2.011546
      7         11           0        2.362559    2.187237    0.907585
 ---------------------------------------------------------------------

 SCF Done:  E(UB3LYP) =  -1136.11960754     A.U. after   25 cycles

 The electronic state is 2-A.
 Alpha  occ. eigenvalues --  -38.45487 -38.44572 -38.44101 -38.43942 -38.43728
 Alpha  occ. eigenvalues --  -38.43457 -38.43198  -2.21295  -2.20416  -2.19892
 Alpha  occ. eigenvalues --   -2.19818  -2.19634  -2.19332  -2.19043  -1.14968
 Alpha  occ. eigenvalues --   -1.14945  -1.14914  -1.14132  -1.14109  -1.14006
 Alpha  occ. eigenvalues --   -1.13600  -1.13553  -1.13542  -1.13527  -1.13465
 Alpha  occ. eigenvalues --   -1.13425  -1.13300  -1.13266  -1.13231  -1.13035
 Alpha  occ. eigenvalues --   -1.12984  -1.12941  -1.12717  -1.12693  -1.12677
 Alpha  occ. eigenvalues --   -0.18237  -0.13834  -0.11523  -0.11280
 Alpha virt. eigenvalues --   -0.07207  -0.04949  -0.04312  -0.03379  -0.02973
 Alpha virt. eigenvalues --   -0.02732  -0.02284  -0.01137  -0.00896  -0.00110
 Alpha virt. eigenvalues --   -0.00032   0.00067   0.00343   0.00622   0.00762

  Beta  occ. eigenvalues --  -38.45450 -38.44555 -38.44091 -38.43924 -38.43652
  Beta  occ. eigenvalues --  -38.43433 -38.43174  -2.21228  -2.20387  -2.19872
  Beta  occ. eigenvalues --   -2.19789  -2.19495  -2.19290  -2.19000  -1.14915
  Beta  occ. eigenvalues --   -1.14899  -1.14866  -1.14102  -1.14080  -1.13989
  Beta  occ. eigenvalues --   -1.13581  -1.13536  -1.13512  -1.13503  -1.13452
  Beta  occ. eigenvalues --   -1.13399  -1.13211  -1.13172  -1.13130  -1.13008
  Beta  occ. eigenvalues --   -1.12957  -1.12890  -1.12686  -1.12658  -1.12647
  Beta  occ. eigenvalues --   -0.17590  -0.13542  -0.10977
  Beta virt. eigenvalues --   -0.07753  -0.06984  -0.04691  -0.03881  -0.03007
  Beta virt. eigenvalues --   -0.02686  -0.02322  -0.01607  -0.01037  -0.00573
  Beta virt. eigenvalues --   -0.00054  -0.00001   0.00162   0.00425   0.00782

 Mulliken charges and spin densities:
               1          2
     1  Na   0.275191   0.100098
     2  Na  -1.076591   0.221485
     3  Na   0.104328   0.050810
     4  Na   0.168663   0.015940
     5  Na   0.193948   0.278816
     6  Na  -0.428722   0.324200
     7  Na   0.763185   0.008651
 Sum of Mulliken charges =  -0.00000   1.00000

 Dipole moment (field-independent basis, Debye):
    X=              0.6697    Y=             -0.4935    Z=             -0.0578  Tot=              0.8339
 Quadrupole moment (field-independent basis, Debye-Ang):
   XX=            -50.9792   YY=            -76.3432   ZZ=            -68.7982
   XY=             -0.3347   XZ=              0.1987   YZ=              0.5345

 Normal termination of Gaussian 16 at Tue Dec  5 21:40:32 2023.
