 Gaussian 16, Revision B.01,
 Gaussian 16:  ES64L-G16RevB.01 20-Dec-2017

 -------------------------
 #P B3LYP/6-311+g(d) force
 -------------------------

 -----
 DPGEN
 -----
 Symbolic Z-matrix:
 Charge =  0 Multiplicity = 2

                         Standard orientation:
 ---------------------------------------------------------------------
 Center     Atomic      Atomic             Coordinates (Angstroms)
 Number     Number       Type             X           Y           Z
 ---------------------------------------------------------------------
      1         11           0       -1.618601    2.689271   -0.422387
      2         11           0        0.267728   -0.295692   -1.396898
      3         11           0        0.129352   -0.004668    2.080984
      4         11           0        2.335474    2.366714   -0.080086
      5         11           0       -3.046967   -0.324148    0.183516
      6         11           0        2.787760   -1.611590   -0.039740
      7         11           0       -0.854745   -2.819887   -0.325388
 ---------------------------------------------------------------------

 SCF Done:  E(UB3LYP) =  -1136.13331350     A.U. after   19 cycles

 The electronic state is 2-A.
 Alpha  occ. eigenvalues --  -38.44280 -38.44279 -38.43782 -38.43674 -38.43607
 Alpha  occ. eigenvalues --  -38.43472 -38.43005  -2.20099  -2.20048  -2.19582
 Alpha  occ. eigenvalues --   -2.19524  -2.19493  -2.19343  -2.19026  -1.13803
 Alpha  occ. eigenvalues --   -1.13758  -1.13729  -1.13720  -1.13704  -1.13686
 Alpha  occ. eigenvalues --   -1.13269  -1.13268  -1.13254  -1.13224  -1.13197
 Alpha  occ. eigenvalues --   -1.13187  -1.13162  -1.13129  -1.13089  -1.13017
 Alpha  occ. eigenvalues --   -1.12963  -1.12953  -1.12708  -1.12652  -1.12647
 Alpha  occ. eigenvalues --   -0.18431  -0.12894  -0.12496  -0.10418
 Alpha virt. eigenvalues --   -0.05898  -0.05353  -0.04810  -0.03015  -0.02778
 Alpha virt. eigenvalues --   -0.02324  -0.01573  -0.01436  -0.00606  -0.00515
 Alpha virt. eigenvalues --    0.00006   0.00332   0.00761   0.00798   0.00873

  Beta  occ. eigenvalues --  -38.44280 -38.44275 -38.43775 -38.43670 -38.43597
  Beta  occ. eigenvalues --  -38.43369 -38.42956  -2.20095  -2.20050  -2.19570
  Beta  occ. eigenvalues --   -2.19520  -2.19478  -2.19153  -2.18938  -1.13795
  Beta  occ. eigenvalues --   -1.13741  -1.13720  -1.13715  -1.13706  -1.13688
  Beta  occ. eigenvalues --   -1.13263  -1.13254  -1.13233  -1.13218  -1.13191
  Beta  occ. eigenvalues --   -1.13163  -1.13156  -1.13100  -1.13083  -1.12891
  Beta  occ. eigenvalues --   -1.12831  -1.12817  -1.12639  -1.12589  -1.12581
  Beta  occ. eigenvalues --   -0.17728  -0.12693  -0.12252
  Beta virt. eigenvalues --   -0.06514  -0.05908  -0.05288  -0.04749  -0.02262
  Beta virt. eigenvalues --   -0.02055  -0.01501  -0.01390  -0.01251  -0.00630
  Beta virt. eigenvalues --   -0.00552   0.00158   0.00376   0.00771   0.00843

 Mulliken charges and spin densities:
               1          2
     1  Na  -0.006389   0.007269
     2  Na  -0.429689   0.222233
     3  Na  -0.431471   0.757984
     4  Na  -0.015394  -0.056359
     5  Na   0.202332   0.072698
     6  Na   0.204763  -0.052167
     7  Na   0.475848   0.048342
 Sum of Mulliken charges =  -0.00000   1.00000

 Dipole moment (field-independent basis, Debye):
    X=              0.4589    Y=              0.0448    Z=              0.1828  Tot=              0.4960
 Quadrupole moment (field-independent basis, Debye-Ang):
   XX=            -55.8204   YY=            -59.7538   ZZ=            -76.5358
   XY=              0.1815   XZ=              0.1939   YZ=             -0.6624

 Normal termination of Gaussian 16 at Thu Dec  7 04:37:34 2023.
