 Gaussian 16, Revision B.01,
 Gaussian 16:  ES64L-G16RevB.01 20-Dec-2017

 -------------------------
 #P B3LYP/6-311+g(d) force
 -------------------------

 -----
 DPGEN
 -----
 Symbolic Z-matrix:
 Charge =  0 Multiplicity = 2

                         Standard orientation:
 ---------------------------------------------------------------------
 Center     Atomic      Atomic             Coordinates (Angstroms)
 Number     Number       Type             X           Y           Z
 ---------------------------------------------------------------------
      1         11           0        2.384458   -2.302007    0.148603
      2         11           0       -0.126193   -0.343326   -1.754382
      3         11           0       -0.141953   -0.217116    1.788090
      4         11           0        0.510942    3.159000   -0.022840
      5         11           0       -2.424419   -2.134636   -0.102340
      6         11           0       -3.232412    1.108760    0.061525
      7         11           0        3.029578    0.729324   -0.118656
 ---------------------------------------------------------------------

 SCF Done:  E(UB3LYP) =  -1136.13094037     A.U. after   21 cycles

 The electronic state is 2-A.
 Alpha  occ. eigenvalues --  -38.45088 -38.44166 -38.44127 -38.43781 -38.43523
 Alpha  occ. eigenvalues --  -38.43490 -38.43033  -2.20873  -2.20024  -2.19970
 Alpha  occ. eigenvalues --   -2.19616  -2.19407  -2.19383  -2.18818  -1.14546
 Alpha  occ. eigenvalues --   -1.14527  -1.14519  -1.13715  -1.13691  -1.13670
 Alpha  occ. eigenvalues --   -1.13647  -1.13630  -1.13610  -1.13284  -1.13268
 Alpha  occ. eigenvalues --   -1.13257  -1.13114  -1.13058  -1.13036  -1.13018
 Alpha  occ. eigenvalues --   -1.13011  -1.12997  -1.12490  -1.12481  -1.12469
 Alpha  occ. eigenvalues --   -0.18203  -0.13667  -0.11786  -0.10253
 Alpha virt. eigenvalues --   -0.06379  -0.05622  -0.04550  -0.03436  -0.02392
 Alpha virt. eigenvalues --   -0.02245  -0.02081  -0.01344  -0.00767  -0.00563
 Alpha virt. eigenvalues --   -0.00030   0.00316   0.00650   0.00738   0.00796

  Beta  occ. eigenvalues --  -38.45085 -38.44163 -38.44119 -38.43779 -38.43445
  Beta  occ. eigenvalues --  -38.43414 -38.43035  -2.20871  -2.20021  -2.19960
  Beta  occ. eigenvalues --   -2.19615  -2.19263  -2.19243  -2.18824  -1.14529
  Beta  occ. eigenvalues --   -1.14524  -1.14518  -1.13718  -1.13672  -1.13666
  Beta  occ. eigenvalues --   -1.13639  -1.13608  -1.13594  -1.13287  -1.13258
  Beta  occ. eigenvalues --   -1.13244  -1.13017  -1.12959  -1.12934  -1.12914
  Beta  occ. eigenvalues --   -1.12908  -1.12897  -1.12489  -1.12480  -1.12473
  Beta  occ. eigenvalues --   -0.17492  -0.13467  -0.11596
  Beta virt. eigenvalues --   -0.06420  -0.06288  -0.05587  -0.04532  -0.02639
  Beta virt. eigenvalues --   -0.01969  -0.01736  -0.01295  -0.01207  -0.00835
  Beta virt. eigenvalues --   -0.00576   0.00139   0.00350   0.00709   0.00759

 Mulliken charges and spin densities:
               1          2
     1  Na   0.284927  -0.044132
     2  Na  -0.087045   0.595916
     3  Na  -0.157503   0.649973
     4  Na  -0.260612  -0.105795
     5  Na   0.283436  -0.055919
     6  Na  -0.072597  -0.048418
     7  Na   0.009394   0.008375
 Sum of Mulliken charges =  -0.00000   1.00000

 Dipole moment (field-independent basis, Debye):
    X=             -0.6979    Y=             -0.2973    Z=              0.0072  Tot=              0.7586
 Quadrupole moment (field-independent basis, Debye-Ang):
   XX=            -51.4768   YY=            -63.9265   ZZ=            -77.4076
   XY=             -1.4460   XZ=             -0.1145   YZ=             -0.3790

 Normal termination of Gaussian 16 at Tue Dec  5 23:46:20 2023.
