 Gaussian 16, Revision B.01,
 Gaussian 16:  ES64L-G16RevB.01 20-Dec-2017

 -------------------------
 #P B3LYP/6-311+g(d) force
 -------------------------

 -----
 DPGEN
 -----
 Symbolic Z-matrix:
 Charge =  0 Multiplicity = 2

                         Standard orientation:
 ---------------------------------------------------------------------
 Center     Atomic      Atomic             Coordinates (Angstroms)
 Number     Number       Type             X           Y           Z
 ---------------------------------------------------------------------
      1         11           0        3.368856    0.119648   -0.338761
      2         11           0        0.986659    1.037217    1.895630
      3         11           0       -2.677608    1.227853    0.157918
      4         11           0        1.125569   -2.066182   -0.669710
      5         11           0        0.027611    2.617787   -0.883978
      6         11           0       -1.475402   -1.118261   -2.117900
      7         11           0       -1.355684   -1.818063    1.956801
 ---------------------------------------------------------------------

 SCF Done:  E(UB3LYP) =  -1136.12940197     A.U. after   20 cycles

 The electronic state is 2-A.
 Alpha  occ. eigenvalues --  -38.44533 -38.44161 -38.44086 -38.43871 -38.43754
 Alpha  occ. eigenvalues --  -38.43623 -38.42992  -2.20350  -2.20004  -2.19941
 Alpha  occ. eigenvalues --   -2.19699  -2.19592  -2.19459  -2.18881  -1.14014
 Alpha  occ. eigenvalues --   -1.13992  -1.13957  -1.13701  -1.13636  -1.13625
 Alpha  occ. eigenvalues --   -1.13621  -1.13596  -1.13575  -1.13391  -1.13356
 Alpha  occ. eigenvalues --   -1.13324  -1.13297  -1.13253  -1.13237  -1.13122
 Alpha  occ. eigenvalues --   -1.13118  -1.13073  -1.12575  -1.12531  -1.12518
 Alpha  occ. eigenvalues --   -0.18072  -0.12791  -0.12101  -0.11972
 Alpha virt. eigenvalues --   -0.05600  -0.04879  -0.04482  -0.03653  -0.03501
 Alpha virt. eigenvalues --   -0.03281  -0.01252  -0.00699  -0.00492   0.00020
 Alpha virt. eigenvalues --    0.00154   0.00400   0.00440   0.00679   0.00840

  Beta  occ. eigenvalues --  -38.44454 -38.44109 -38.44048 -38.43869 -38.43752
  Beta  occ. eigenvalues --  -38.43611 -38.42980  -2.20204  -2.19910  -2.19872
  Beta  occ. eigenvalues --   -2.19696  -2.19591  -2.19436  -2.18862  -1.13908
  Beta  occ. eigenvalues --   -1.13892  -1.13857  -1.13633  -1.13580  -1.13571
  Beta  occ. eigenvalues --   -1.13559  -1.13538  -1.13523  -1.13387  -1.13349
  Beta  occ. eigenvalues --   -1.13322  -1.13290  -1.13242  -1.13231  -1.13109
  Beta  occ. eigenvalues --   -1.13095  -1.13058  -1.12553  -1.12510  -1.12502
  Beta  occ. eigenvalues --   -0.17333  -0.12614  -0.11900
  Beta virt. eigenvalues --   -0.08012  -0.05460  -0.04562  -0.04107  -0.03433
  Beta virt. eigenvalues --   -0.02858  -0.02332  -0.01201  -0.00573  -0.00206
  Beta virt. eigenvalues --    0.00089   0.00200   0.00466   0.00584   0.00838

 Mulliken charges and spin densities:
               1          2
     1  Na   0.371200  -0.146996
     2  Na  -0.347196   0.228785
     3  Na   0.028850   0.043146
     4  Na  -0.263632   0.377089
     5  Na   0.117471   0.100262
     6  Na  -0.050753   0.043955
     7  Na   0.144058   0.353760
 Sum of Mulliken charges =  -0.00000   1.00000

 Dipole moment (field-independent basis, Debye):
    X=             -0.1727    Y=              0.1698    Z=              0.0700  Tot=              0.2521
 Quadrupole moment (field-independent basis, Debye-Ang):
   XX=            -61.4844   YY=            -71.9221   ZZ=            -64.1453
   XY=              1.6672   XZ=             -1.8321   YZ=             -2.6963

 Normal termination of Gaussian 16 at Mon Dec  4 03:50:43 2023.
