 Gaussian 16, Revision B.01,
 Gaussian 16:  ES64L-G16RevB.01 20-Dec-2017

 -------------------------
 #P B3LYP/6-311+g(d) force
 -------------------------

 -----
 DPGEN
 -----
 Symbolic Z-matrix:
 Charge =  0 Multiplicity = 2

                         Standard orientation:
 ---------------------------------------------------------------------
 Center     Atomic      Atomic             Coordinates (Angstroms)
 Number     Number       Type             X           Y           Z
 ---------------------------------------------------------------------
      1         11           0        1.368667   -0.477578    1.732381
      2         11           0       -1.593889   -2.377950   -0.053144
      3         11           0       -4.656239    0.358725    0.009127
      4         11           0        0.600627   -0.143880   -1.502824
      5         11           0       -1.556325    1.554626    0.186341
      6         11           0        3.523428   -1.217795   -0.297743
      7         11           0        2.313732    2.303852   -0.074140
 ---------------------------------------------------------------------

 SCF Done:  E(UB3LYP) =  -1136.11405730     A.U. after   31 cycles

 The electronic state is 2-A.
 Alpha  occ. eigenvalues --  -38.45434 -38.44114 -38.44053 -38.43954 -38.43747
 Alpha  occ. eigenvalues --  -38.43567 -38.43292  -2.21346  -2.19988  -2.19953
 Alpha  occ. eigenvalues --   -2.19869  -2.19541  -2.19419  -2.19151  -1.15046
 Alpha  occ. eigenvalues --   -1.15008  -1.14950  -1.13686  -1.13675  -1.13648
 Alpha  occ. eigenvalues --   -1.13597  -1.13588  -1.13554  -1.13519  -1.13508
 Alpha  occ. eigenvalues --   -1.13476  -1.13229  -1.13201  -1.13157  -1.13108
 Alpha  occ. eigenvalues --   -1.13084  -1.13033  -1.12866  -1.12849  -1.12748
 Alpha  occ. eigenvalues --   -0.18505  -0.14159  -0.11375  -0.10518
 Alpha virt. eigenvalues --   -0.07463  -0.05517  -0.03894  -0.03263  -0.03057
 Alpha virt. eigenvalues --   -0.02126  -0.01756  -0.01640  -0.01096  -0.00628
 Alpha virt. eigenvalues --   -0.00346   0.00071   0.00274   0.00588   0.00597

  Beta  occ. eigenvalues --  -38.45399 -38.44094 -38.43954 -38.43908 -38.43730
  Beta  occ. eigenvalues --  -38.43560 -38.43291  -2.21285  -2.19955  -2.19870
  Beta  occ. eigenvalues --   -2.19685  -2.19513  -2.19410  -2.19158  -1.15014
  Beta  occ. eigenvalues --   -1.14944  -1.14901  -1.13665  -1.13635  -1.13594
  Beta  occ. eigenvalues --   -1.13569  -1.13545  -1.13481  -1.13392  -1.13382
  Beta  occ. eigenvalues --   -1.13356  -1.13209  -1.13173  -1.13137  -1.13101
  Beta  occ. eigenvalues --   -1.13082  -1.13010  -1.12870  -1.12830  -1.12741
  Beta  occ. eigenvalues --   -0.18040  -0.13343  -0.11117
  Beta virt. eigenvalues --   -0.07327  -0.06916  -0.05465  -0.03509  -0.02853
  Beta virt. eigenvalues --   -0.02655  -0.01838  -0.01661  -0.01382  -0.00738
  Beta virt. eigenvalues --   -0.00232  -0.00040   0.00162   0.00466   0.00636

 Mulliken charges and spin densities:
               1          2
     1  Na   0.213899   0.196328
     2  Na  -0.191528  -0.026781
     3  Na   0.504228   0.366803
     4  Na   0.148912   0.157654
     5  Na  -0.892271  -0.124239
     6  Na   0.244743   0.330142
     7  Na  -0.027984   0.100094
 Sum of Mulliken charges =  -0.00000   1.00000

 Dipole moment (field-independent basis, Debye):
    X=              1.0298    Y=             -0.5122    Z=             -0.1062  Tot=              1.1551
 Quadrupole moment (field-independent basis, Debye-Ang):
   XX=            -66.1562   YY=            -72.7484   ZZ=            -63.9972
   XY=              5.5976   XZ=             -2.1759   YZ=              0.9133

 Normal termination of Gaussian 16 at Tue Dec  5 15:24:46 2023.
