 Gaussian 16, Revision B.01,
 Gaussian 16:  ES64L-G16RevB.01 20-Dec-2017

 -------------------------
 #P B3LYP/6-311+g(d) force
 -------------------------

 -----
 DPGEN
 -----
 Symbolic Z-matrix:
 Charge =  0 Multiplicity = 2

                         Standard orientation:
 ---------------------------------------------------------------------
 Center     Atomic      Atomic             Coordinates (Angstroms)
 Number     Number       Type             X           Y           Z
 ---------------------------------------------------------------------
      1         11           0       -0.596957   -0.179306    2.172600
      2         11           0        2.638568   -1.799088    0.053163
      3         11           0       -0.620929   -2.657608   -0.129043
      4         11           0       -1.317274    2.336045   -0.516599
      5         11           0        0.753193   -0.017964   -1.845442
      6         11           0        2.152858    2.529141    0.500645
      7         11           0       -3.009458   -0.211219   -0.235325
 ---------------------------------------------------------------------

 SCF Done:  E(UB3LYP) =  -1136.13441815     A.U. after   19 cycles

 The electronic state is 2-A.
 Alpha  occ. eigenvalues --  -38.44038 -38.44016 -38.43980 -38.43604 -38.43480
 Alpha  occ. eigenvalues --  -38.43442 -38.43429  -2.19905  -2.19840  -2.19752
 Alpha  occ. eigenvalues --   -2.19516  -2.19368  -2.19325  -2.19316  -1.13571
 Alpha  occ. eigenvalues --   -1.13541  -1.13539  -1.13525  -1.13497  -1.13478
 Alpha  occ. eigenvalues --   -1.13420  -1.13405  -1.13399  -1.13199  -1.13164
 Alpha  occ. eigenvalues --   -1.13141  -1.13135  -1.13037  -1.13018  -1.12992
 Alpha  occ. eigenvalues --   -1.12987  -1.12981  -1.12967  -1.12926  -1.12906
 Alpha  occ. eigenvalues --   -0.18463  -0.12880  -0.12472  -0.11046
 Alpha virt. eigenvalues --   -0.05613  -0.05166  -0.04595  -0.03380  -0.03219
 Alpha virt. eigenvalues --   -0.02787  -0.01289  -0.01195  -0.00258  -0.00176
 Alpha virt. eigenvalues --   -0.00052   0.00376   0.00795   0.00855   0.00879

  Beta  occ. eigenvalues --  -38.44017 -38.43971 -38.43949 -38.43546 -38.43473
  Beta  occ. eigenvalues --  -38.43428 -38.43421  -2.19844  -2.19741  -2.19735
  Beta  occ. eigenvalues --   -2.19409  -2.19359  -2.19306  -2.19304  -1.13536
  Beta  occ. eigenvalues --   -1.13495  -1.13477  -1.13462  -1.13424  -1.13407
  Beta  occ. eigenvalues --   -1.13397  -1.13395  -1.13389  -1.13139  -1.13124
  Beta  occ. eigenvalues --   -1.13083  -1.13065  -1.13033  -1.12985  -1.12980
  Beta  occ. eigenvalues --   -1.12963  -1.12951  -1.12938  -1.12919  -1.12894
  Beta  occ. eigenvalues --   -0.17720  -0.12660  -0.12268
  Beta virt. eigenvalues --   -0.07191  -0.05565  -0.04940  -0.04573  -0.02686
  Beta virt. eigenvalues --   -0.02486  -0.01795  -0.01194  -0.01095  -0.00282
  Beta virt. eigenvalues --   -0.00179   0.00092   0.00412   0.00844   0.00901

 Mulliken charges and spin densities:
               1          2
     1  Na  -0.578566   0.688693
     2  Na   0.157926  -0.092296
     3  Na   0.197590  -0.021141
     4  Na   0.183042   0.030114
     5  Na  -0.090948   0.352890
     6  Na  -0.079833   0.013951
     7  Na   0.210789   0.027790
 Sum of Mulliken charges =  -0.00000   1.00000

 Dipole moment (field-independent basis, Debye):
    X=              0.3988    Y=             -0.1326    Z=              0.2318  Tot=              0.4800
 Quadrupole moment (field-independent basis, Debye-Ang):
   XX=            -59.7700   YY=            -64.3099   ZZ=            -71.3887
   XY=              0.2223   XZ=              2.8205   YZ=              0.5681

 Normal termination of Gaussian 16 at Tue Dec  5 14:08:54 2023.
