 Gaussian 16, Revision B.01,
 Gaussian 16:  ES64L-G16RevB.01 20-Dec-2017

 -------------------------
 #P B3LYP/6-311+g(d) force
 -------------------------

 -----
 DPGEN
 -----
 Symbolic Z-matrix:
 Charge =  0 Multiplicity = 2

                         Standard orientation:
 ---------------------------------------------------------------------
 Center     Atomic      Atomic             Coordinates (Angstroms)
 Number     Number       Type             X           Y           Z
 ---------------------------------------------------------------------
      1         11           0       -3.349084   -0.516787    0.023188
      2         11           0        3.180705   -1.234455   -0.343623
      3         11           0       -0.547287   -2.781691   -0.120971
      4         11           0        0.178728    0.229867   -1.695859
      5         11           0        2.057747    2.280118    0.328946
      6         11           0        0.190157   -0.314815    2.011757
      7         11           0       -1.710966    2.337764   -0.203438
 ---------------------------------------------------------------------

 SCF Done:  E(UB3LYP) =  -1136.13535546     A.U. after   19 cycles

 The electronic state is 2-A.
 Alpha  occ. eigenvalues --  -38.44606 -38.44400 -38.43733 -38.43547 -38.43377
 Alpha  occ. eigenvalues --  -38.43290 -38.43267  -2.20385  -2.20205  -2.19554
 Alpha  occ. eigenvalues --   -2.19427  -2.19316  -2.19149  -2.19105  -1.14061
 Alpha  occ. eigenvalues --   -1.14033  -1.14025  -1.13881  -1.13868  -1.13844
 Alpha  occ. eigenvalues --   -1.13231  -1.13229  -1.13185  -1.13104  -1.13061
 Alpha  occ. eigenvalues --   -1.13041  -1.13018  -1.12977  -1.12939  -1.12817
 Alpha  occ. eigenvalues --   -1.12807  -1.12785  -1.12780  -1.12771  -1.12720
 Alpha  occ. eigenvalues --   -0.18334  -0.13088  -0.12159  -0.10595
 Alpha virt. eigenvalues --   -0.06187  -0.05341  -0.04351  -0.03200  -0.02809
 Alpha virt. eigenvalues --   -0.02469  -0.01959  -0.01235  -0.00501  -0.00315
 Alpha virt. eigenvalues --   -0.00045   0.00314   0.00718   0.00828   0.00857

  Beta  occ. eigenvalues --  -38.44598 -38.44402 -38.43724 -38.43456 -38.43314
  Beta  occ. eigenvalues --  -38.43285 -38.43262  -2.20372  -2.20209  -2.19541
  Beta  occ. eigenvalues --   -2.19259  -2.19201  -2.19142  -2.19099  -1.14035
  Beta  occ. eigenvalues --   -1.14025  -1.14019  -1.13885  -1.13859  -1.13847
  Beta  occ. eigenvalues --   -1.13223  -1.13194  -1.13181  -1.12996  -1.12947
  Beta  occ. eigenvalues --   -1.12940  -1.12923  -1.12902  -1.12861  -1.12799
  Beta  occ. eigenvalues --   -1.12783  -1.12775  -1.12764  -1.12749  -1.12717
  Beta  occ. eigenvalues --   -0.17621  -0.12883  -0.11917
  Beta virt. eigenvalues --   -0.06726  -0.06122  -0.05319  -0.04309  -0.02479
  Beta virt. eigenvalues --   -0.02050  -0.01856  -0.01434  -0.01161  -0.00535
  Beta virt. eigenvalues --   -0.00354   0.00100   0.00344   0.00777   0.00837

 Mulliken charges and spin densities:
               1          2
     1  Na   0.005876  -0.059299
     2  Na   0.100076  -0.071796
     3  Na   0.092820  -0.107302
     4  Na  -0.149049   0.575218
     5  Na   0.079229  -0.017730
     6  Na  -0.364762   0.716165
     7  Na   0.235809  -0.035256
 Sum of Mulliken charges =  -0.00000   1.00000

 Dipole moment (field-independent basis, Debye):
    X=              0.2615    Y=             -0.1603    Z=              0.0810  Tot=              0.3172
 Quadrupole moment (field-independent basis, Debye-Ang):
   XX=            -52.1103   YY=            -65.3220   ZZ=            -75.1330
   XY=              0.1759   XZ=             -0.2712   YZ=              1.4067

 Normal termination of Gaussian 16 at Thu Dec  7 17:11:51 2023.
