 Gaussian 16, Revision B.01,
 Gaussian 16:  ES64L-G16RevB.01 20-Dec-2017

 -------------------------
 #P B3LYP/6-311+g(d) force
 -------------------------

 -----
 DPGEN
 -----
 Symbolic Z-matrix:
 Charge =  0 Multiplicity = 2

                         Standard orientation:
 ---------------------------------------------------------------------
 Center     Atomic      Atomic             Coordinates (Angstroms)
 Number     Number       Type             X           Y           Z
 ---------------------------------------------------------------------
      1         11           0       -1.996105    2.244309   -0.107482
      2         11           0       -3.729457   -1.181086   -1.048696
      3         11           0        1.766664   -0.039371    1.856214
      4         11           0       -2.075172   -0.363050    1.812223
      5         11           0        2.024394    1.904590   -1.126166
      6         11           0       -0.179834   -1.438048   -1.016768
      7         11           0        4.189509   -1.127344   -0.369325
 ---------------------------------------------------------------------

 SCF Done:  E(UB3LYP) =  -1136.11472756     A.U. after   31 cycles

 The electronic state is 2-A.
 Alpha  occ. eigenvalues --  -38.45167 -38.45097 -38.44385 -38.44327 -38.44041
 Alpha  occ. eigenvalues --  -38.43962 -38.43512  -2.20956  -2.20858  -2.20227
 Alpha  occ. eigenvalues --   -2.20207  -2.19834  -2.19777  -2.19309  -1.14668
 Alpha  occ. eigenvalues --   -1.14631  -1.14551  -1.14544  -1.14525  -1.14493
 Alpha  occ. eigenvalues --   -1.13916  -1.13883  -1.13881  -1.13876  -1.13836
 Alpha  occ. eigenvalues --   -1.13817  -1.13525  -1.13495  -1.13449  -1.13434
 Alpha  occ. eigenvalues --   -1.13427  -1.13410  -1.12997  -1.12972  -1.12931
 Alpha  occ. eigenvalues --   -0.17782  -0.14331  -0.10971  -0.10575
 Alpha virt. eigenvalues --   -0.07216  -0.05631  -0.05311  -0.03136  -0.02885
 Alpha virt. eigenvalues --   -0.02380  -0.02147  -0.01634  -0.01035  -0.00464
 Alpha virt. eigenvalues --   -0.00027   0.00088   0.00183   0.00311   0.00445

  Beta  occ. eigenvalues --  -38.45141 -38.45111 -38.44328 -38.44280 -38.44006
  Beta  occ. eigenvalues --  -38.43949 -38.43502  -2.20912  -2.20885  -2.20127
  Beta  occ. eigenvalues --   -2.20121  -2.19767  -2.19753  -2.19290  -1.14616
  Beta  occ. eigenvalues --   -1.14601  -1.14559  -1.14539  -1.14521  -1.14511
  Beta  occ. eigenvalues --   -1.13844  -1.13830  -1.13812  -1.13801  -1.13759
  Beta  occ. eigenvalues --   -1.13746  -1.13475  -1.13453  -1.13430  -1.13408
  Beta  occ. eigenvalues --   -1.13394  -1.13388  -1.12976  -1.12956  -1.12922
  Beta  occ. eigenvalues --   -0.17114  -0.14212  -0.10350
  Beta virt. eigenvalues --   -0.07225  -0.07036  -0.05522  -0.04617  -0.02867
  Beta virt. eigenvalues --   -0.02765  -0.01864  -0.01550  -0.01485  -0.00560
  Beta virt. eigenvalues --   -0.00366   0.00002   0.00210   0.00238   0.00437

 Mulliken charges and spin densities:
               1          2
     1  Na  -0.450835   0.059916
     2  Na   0.698223  -0.038341
     3  Na  -0.135760   0.197118
     4  Na   0.241063   0.243130
     5  Na  -0.106687   0.232621
     6  Na  -0.855928   0.318484
     7  Na   0.609924  -0.012929
 Sum of Mulliken charges =  -0.00000   1.00000

 Dipole moment (field-independent basis, Debye):
    X=              0.6776    Y=             -0.3211    Z=             -0.0723  Tot=              0.7532
 Quadrupole moment (field-independent basis, Debye-Ang):
   XX=            -47.7271   YY=            -79.3889   ZZ=            -69.2877
   XY=             -2.4324   XZ=             -1.4832   YZ=             -0.8670

 Normal termination of Gaussian 16 at Thu Dec  7 15:17:47 2023.
