 Gaussian 16, Revision B.01,
 Gaussian 16:  ES64L-G16RevB.01 20-Dec-2017

 -------------------------
 #P B3LYP/6-311+g(d) force
 -------------------------

 -----
 DPGEN
 -----
 Symbolic Z-matrix:
 Charge =  0 Multiplicity = 2

                         Standard orientation:
 ---------------------------------------------------------------------
 Center     Atomic      Atomic             Coordinates (Angstroms)
 Number     Number       Type             X           Y           Z
 ---------------------------------------------------------------------
      1         11           0        2.639049   -2.017835   -0.758936
      2         11           0       -3.317107   -1.451207    0.733434
      3         11           0       -2.674651    1.270114   -0.296496
      4         11           0        0.399997    2.351055   -0.525396
      5         11           0       -0.072219   -0.322909    1.731772
      6         11           0        3.515544    0.755967    0.884654
      7         11           0       -0.490613   -0.585185   -1.769032
 ---------------------------------------------------------------------

 SCF Done:  E(UB3LYP) =  -1136.12206703     A.U. after   25 cycles

 The electronic state is 2-A.
 Alpha  occ. eigenvalues --  -38.44982 -38.44963 -38.44133 -38.44016 -38.43939
 Alpha  occ. eigenvalues --  -38.43629 -38.42023  -2.20811  -2.20782  -2.20092
 Alpha  occ. eigenvalues --   -2.19947  -2.19752  -2.19489  -2.17916  -1.14519
 Alpha  occ. eigenvalues --   -1.14468  -1.14455  -1.14429  -1.14422  -1.14402
 Alpha  occ. eigenvalues --   -1.13809  -1.13767  -1.13742  -1.13627  -1.13569
 Alpha  occ. eigenvalues --   -1.13553  -1.13414  -1.13409  -1.13389  -1.13171
 Alpha  occ. eigenvalues --   -1.13130  -1.13115  -1.11608  -1.11589  -1.11545
 Alpha  occ. eigenvalues --   -0.18580  -0.14147  -0.11315  -0.11145
 Alpha virt. eigenvalues --   -0.06901  -0.05349  -0.04438  -0.03132  -0.02663
 Alpha virt. eigenvalues --   -0.02659  -0.02396  -0.01176  -0.00639  -0.00167
 Alpha virt. eigenvalues --    0.00133   0.00163   0.00361   0.00615   0.00713

  Beta  occ. eigenvalues --  -38.44958 -38.44918 -38.44127 -38.43930 -38.43912
  Beta  occ. eigenvalues --  -38.43628 -38.42023  -2.20738  -2.20728  -2.20083
  Beta  occ. eigenvalues --   -2.19790  -2.19704  -2.19488  -2.17919  -1.14459
  Beta  occ. eigenvalues --   -1.14418  -1.14411  -1.14401  -1.14386  -1.14342
  Beta  occ. eigenvalues --   -1.13802  -1.13747  -1.13729  -1.13527  -1.13464
  Beta  occ. eigenvalues --   -1.13432  -1.13385  -1.13366  -1.13348  -1.13172
  Beta  occ. eigenvalues --   -1.13117  -1.13115  -1.11615  -1.11585  -1.11528
  Beta  occ. eigenvalues --   -0.17924  -0.13914  -0.10956
  Beta virt. eigenvalues --   -0.07433  -0.06717  -0.05098  -0.03985  -0.02900
  Beta virt. eigenvalues --   -0.02486  -0.01925  -0.01710  -0.00957  -0.00423
  Beta virt. eigenvalues --   -0.00142   0.00143   0.00224   0.00491   0.00708

 Mulliken charges and spin densities:
               1          2
     1  Na  -0.219817  -0.050430
     2  Na   0.303429  -0.038719
     3  Na   0.594303   0.103104
     4  Na  -0.433619  -0.128592
     5  Na  -0.683933   0.460772
     6  Na   0.580146   0.149730
     7  Na  -0.140508   0.504135
 Sum of Mulliken charges =  -0.00000   1.00000

 Dipole moment (field-independent basis, Debye):
    X=              0.3750    Y=              0.1148    Z=              0.2482  Tot=              0.4641
 Quadrupole moment (field-independent basis, Debye-Ang):
   XX=            -52.1440   YY=            -72.8286   ZZ=            -71.4520
   XY=              0.7199   XZ=              1.8796   YZ=              2.0628

 Normal termination of Gaussian 16 at Thu Dec  7 10:47:20 2023.
