 Gaussian 16, Revision B.01,
 Gaussian 16:  ES64L-G16RevB.01 20-Dec-2017

 -------------------------
 #P B3LYP/6-311+g(d) force
 -------------------------

 -----
 DPGEN
 -----
 Symbolic Z-matrix:
 Charge =  0 Multiplicity = 2

                         Standard orientation:
 ---------------------------------------------------------------------
 Center     Atomic      Atomic             Coordinates (Angstroms)
 Number     Number       Type             X           Y           Z
 ---------------------------------------------------------------------
      1         11           0       -0.173546   -0.121954    2.157423
      2         11           0       -0.032445    0.421998   -1.687297
      3         11           0       -3.201090   -0.675727    0.691273
      4         11           0        2.450493   -1.522495    0.167345
      5         11           0       -0.333427   -2.743182   -1.014805
      6         11           0        3.196649    1.860576    0.232299
      7         11           0       -1.906633    2.780784   -0.546238
 ---------------------------------------------------------------------

 SCF Done:  E(UB3LYP) =  -1136.12709843     A.U. after   21 cycles

 The electronic state is 2-A.
 Alpha  occ. eigenvalues --  -38.44711 -38.44640 -38.44201 -38.43832 -38.43672
 Alpha  occ. eigenvalues --  -38.43630 -38.42946  -2.20542  -2.20430  -2.19958
 Alpha  occ. eigenvalues --   -2.19627  -2.19584  -2.19497  -2.18813  -1.14207
 Alpha  occ. eigenvalues --   -1.14185  -1.14173  -1.14097  -1.14073  -1.14057
 Alpha  occ. eigenvalues --   -1.13634  -1.13620  -1.13602  -1.13357  -1.13280
 Alpha  occ. eigenvalues --   -1.13264  -1.13249  -1.13220  -1.13197  -1.13183
 Alpha  occ. eigenvalues --   -1.13164  -1.13122  -1.12501  -1.12463  -1.12434
 Alpha  occ. eigenvalues --   -0.17961  -0.13019  -0.11821  -0.11317
 Alpha virt. eigenvalues --   -0.06198  -0.05297  -0.04235  -0.03481  -0.02979
 Alpha virt. eigenvalues --   -0.02841  -0.01854  -0.01234  -0.00636  -0.00276
 Alpha virt. eigenvalues --   -0.00006   0.00285   0.00535   0.00727   0.00759

  Beta  occ. eigenvalues --  -38.44627 -38.44619 -38.44207 -38.43815 -38.43627
  Beta  occ. eigenvalues --  -38.43606 -38.42922  -2.20393  -2.20387  -2.19971
  Beta  occ. eigenvalues --   -2.19599  -2.19494  -2.19465  -2.18772  -1.14114
  Beta  occ. eigenvalues --   -1.14085  -1.14073  -1.14051  -1.14034  -1.14020
  Beta  occ. eigenvalues --   -1.13642  -1.13623  -1.13610  -1.13314  -1.13258
  Beta  occ. eigenvalues --   -1.13234  -1.13193  -1.13173  -1.13158  -1.13134
  Beta  occ. eigenvalues --   -1.13117  -1.13107  -1.12462  -1.12440  -1.12399
  Beta  occ. eigenvalues --   -0.17242  -0.12761  -0.11542
  Beta virt. eigenvalues --   -0.07490  -0.06020  -0.05176  -0.04158  -0.02804
  Beta virt. eigenvalues --   -0.02353  -0.01967  -0.01668  -0.01105  -0.00636
  Beta virt. eigenvalues --   -0.00207   0.00070   0.00341   0.00656   0.00770

 Mulliken charges and spin densities:
               1          2
     1  Na  -0.112798   0.480135
     2  Na   0.174961   0.289554
     3  Na  -0.003668   0.127189
     4  Na   0.169175   0.060347
     5  Na   0.104966   0.087859
     6  Na  -0.180826  -0.031497
     7  Na  -0.151810  -0.013588
 Sum of Mulliken charges =  -0.00000   1.00000

 Dipole moment (field-independent basis, Debye):
    X=             -0.3234    Y=              0.1772    Z=              0.4657  Tot=              0.5940
 Quadrupole moment (field-independent basis, Debye-Ang):
   XX=            -57.4516   YY=            -65.5235   ZZ=            -72.1095
   XY=              1.4643   XZ=              0.0364   YZ=              0.7649

 Normal termination of Gaussian 16 at Wed Dec  6 00:40:55 2023.
