 Gaussian 16, Revision B.01,
 Gaussian 16:  ES64L-G16RevB.01 20-Dec-2017

 -------------------------
 #P B3LYP/6-311+g(d) force
 -------------------------

 -----
 DPGEN
 -----
 Symbolic Z-matrix:
 Charge =  0 Multiplicity = 2

                         Standard orientation:
 ---------------------------------------------------------------------
 Center     Atomic      Atomic             Coordinates (Angstroms)
 Number     Number       Type             X           Y           Z
 ---------------------------------------------------------------------
      1         11           0       -3.457156   -2.125768   -0.545167
      2         11           0        2.891839   -2.586614    0.236362
      3         11           0       -0.482578   -3.346285   -0.241823
      4         11           0       -1.164683    3.482875   -0.380294
      5         11           0       -3.747356    1.084705    0.998984
      6         11           0        4.223293    0.231063    0.295128
      7         11           0        1.736642    3.260024   -0.363191
 ---------------------------------------------------------------------

 SCF Done:  E(UB3LYP) =  -1136.10725509     A.U. after   20 cycles

 The electronic state is 2-A.
 Alpha  occ. eigenvalues --  -38.44933 -38.44731 -38.44667 -38.44501 -38.44479
 Alpha  occ. eigenvalues --  -38.44355 -38.44031  -2.20712  -2.20537  -2.20470
 Alpha  occ. eigenvalues --   -2.20324  -2.20270  -2.20184  -2.19848  -1.14397
 Alpha  occ. eigenvalues --   -1.14388  -1.14362  -1.14270  -1.14188  -1.14172
 Alpha  occ. eigenvalues --   -1.14144  -1.14134  -1.14127  -1.14075  -1.13977
 Alpha  occ. eigenvalues --   -1.13963  -1.13920  -1.13904  -1.13893  -1.13820
 Alpha  occ. eigenvalues --   -1.13806  -1.13769  -1.13498  -1.13491  -1.13484
 Alpha  occ. eigenvalues --   -0.15712  -0.13972  -0.13828  -0.10892
 Alpha virt. eigenvalues --   -0.07780  -0.04745  -0.04198  -0.03728  -0.03516
 Alpha virt. eigenvalues --   -0.02394  -0.02285  -0.01793  -0.01493  -0.00856
 Alpha virt. eigenvalues --   -0.00392  -0.00077   0.00122   0.00328   0.00680

  Beta  occ. eigenvalues --  -38.44940 -38.44687 -38.44664 -38.44487 -38.44395
  Beta  occ. eigenvalues --  -38.44316 -38.43973  -2.20731  -2.20471  -2.20456
  Beta  occ. eigenvalues --   -2.20305  -2.20116  -2.20113  -2.19740  -1.14408
  Beta  occ. eigenvalues --   -1.14406  -1.14340  -1.14223  -1.14148  -1.14132
  Beta  occ. eigenvalues --   -1.14125  -1.14111  -1.14096  -1.14032  -1.13969
  Beta  occ. eigenvalues --   -1.13943  -1.13812  -1.13800  -1.13790  -1.13775
  Beta  occ. eigenvalues --   -1.13763  -1.13712  -1.13425  -1.13421  -1.13414
  Beta  occ. eigenvalues --   -0.15181  -0.13199  -0.13148
  Beta virt. eigenvalues --   -0.07873  -0.07727  -0.04299  -0.03663  -0.03518
  Beta virt. eigenvalues --   -0.03173  -0.02206  -0.02071  -0.01681  -0.01363
  Beta virt. eigenvalues --   -0.00488  -0.00108   0.00094   0.00337   0.00368

 Mulliken charges and spin densities:
               1          2
     1  Na  -0.201837  -0.024296
     2  Na   0.673009   0.007916
     3  Na  -0.234168   0.265606
     4  Na  -0.561521  -0.034213
     5  Na  -0.255080   0.401186
     6  Na   0.105418   0.202192
     7  Na   0.474179   0.181609
 Sum of Mulliken charges =  -0.00000   1.00000

 Dipole moment (field-independent basis, Debye):
    X=              0.1999    Y=              0.0088    Z=              0.0145  Tot=              0.2007
 Quadrupole moment (field-independent basis, Debye-Ang):
   XX=            -60.6752   YY=            -67.9322   ZZ=            -72.5895
   XY=              2.0061   XZ=              1.2926   YZ=              0.7331

 Normal termination of Gaussian 16 at Sun Dec  3 14:28:34 2023.
