 Gaussian 16, Revision B.01,
 Gaussian 16:  ES64L-G16RevB.01 20-Dec-2017

 -------------------------
 #P B3LYP/6-311+g(d) force
 -------------------------

 -----
 DPGEN
 -----
 Symbolic Z-matrix:
 Charge =  0 Multiplicity = 2

                         Standard orientation:
 ---------------------------------------------------------------------
 Center     Atomic      Atomic             Coordinates (Angstroms)
 Number     Number       Type             X           Y           Z
 ---------------------------------------------------------------------
      1         11           0        2.343649    1.868232   -0.340117
      2         11           0       -3.355269    0.444317   -0.910935
      3         11           0        1.476409   -0.788067    1.811744
      4         11           0        2.349717   -1.531895   -1.451976
      5         11           0       -0.604630    1.833641    1.181679
      6         11           0       -0.605736    0.054588   -1.275853
      7         11           0       -1.604140   -1.880816    0.985458
 ---------------------------------------------------------------------

 SCF Done:  E(UB3LYP) =  -1136.12495134     A.U. after   22 cycles

 The electronic state is 2-A.
 Alpha  occ. eigenvalues --  -38.44517 -38.43829 -38.43819 -38.43516 -38.43471
 Alpha  occ. eigenvalues --  -38.43373 -38.42930  -2.20413  -2.19744  -2.19667
 Alpha  occ. eigenvalues --   -2.19578  -2.19402  -2.19238  -2.18867  -1.14220
 Alpha  occ. eigenvalues --   -1.14028  -1.14010  -1.13445  -1.13394  -1.13365
 Alpha  occ. eigenvalues --   -1.13361  -1.13308  -1.13299  -1.13282  -1.13217
 Alpha  occ. eigenvalues --   -1.13198  -1.13074  -1.13045  -1.13006  -1.12912
 Alpha  occ. eigenvalues --   -1.12905  -1.12873  -1.12578  -1.12514  -1.12456
 Alpha  occ. eigenvalues --   -0.19113  -0.13807  -0.11871  -0.11263
 Alpha virt. eigenvalues --   -0.05708  -0.04879  -0.04544  -0.03263  -0.02913
 Alpha virt. eigenvalues --   -0.02601  -0.01759  -0.00770  -0.00592   0.00194
 Alpha virt. eigenvalues --    0.00303   0.00499   0.00584   0.00740   0.00856

  Beta  occ. eigenvalues --  -38.44497 -38.43777 -38.43774 -38.43489 -38.43432
  Beta  occ. eigenvalues --  -38.43367 -38.42903  -2.20377  -2.19646  -2.19591
  Beta  occ. eigenvalues --   -2.19510  -2.19357  -2.19231  -2.18820  -1.14185
  Beta  occ. eigenvalues --   -1.14003  -1.13987  -1.13370  -1.13323  -1.13298
  Beta  occ. eigenvalues --   -1.13295  -1.13248  -1.13247  -1.13226  -1.13178
  Beta  occ. eigenvalues --   -1.13147  -1.13032  -1.13002  -1.12972  -1.12905
  Beta  occ. eigenvalues --   -1.12895  -1.12857  -1.12550  -1.12452  -1.12428
  Beta  occ. eigenvalues --   -0.18359  -0.13520  -0.11051
  Beta virt. eigenvalues --   -0.07849  -0.05513  -0.04802  -0.03970  -0.02983
  Beta virt. eigenvalues --   -0.02296  -0.01752  -0.01648  -0.00658  -0.00294
  Beta virt. eigenvalues --    0.00284   0.00355   0.00530   0.00671   0.00837

 Mulliken charges and spin densities:
               1          2
     1  Na   0.098113   0.039544
     2  Na   0.967467   0.111339
     3  Na   0.182748   0.185058
     4  Na   0.090987   0.040254
     5  Na  -0.140326   0.323782
     6  Na  -0.906326   0.152042
     7  Na  -0.292663   0.147981
 Sum of Mulliken charges =  -0.00000   1.00000

 Dipole moment (field-independent basis, Debye):
    X=             -0.2704    Y=             -0.0777    Z=              0.0131  Tot=              0.2817
 Quadrupole moment (field-independent basis, Debye-Ang):
   XX=            -52.4075   YY=            -74.5739   ZZ=            -66.2294
   XY=             -0.1751   XZ=             -0.5351   YZ=             -0.5772

 Normal termination of Gaussian 16 at Thu Dec  7 06:58:49 2023.
