 Gaussian 16, Revision B.01,
 Gaussian 16:  ES64L-G16RevB.01 20-Dec-2017

 -------------------------
 #P B3LYP/6-311+g(d) force
 -------------------------

 -----
 DPGEN
 -----
 Symbolic Z-matrix:
 Charge =  0 Multiplicity = 2

                         Standard orientation:
 ---------------------------------------------------------------------
 Center     Atomic      Atomic             Coordinates (Angstroms)
 Number     Number       Type             X           Y           Z
 ---------------------------------------------------------------------
      1         11           0       -2.461396    2.787447   -0.345557
      2         11           0       -2.831636   -0.420482   -1.254390
      3         11           0       -0.169563    0.505425    0.314550
      4         11           0        3.231924    2.226703    0.701097
      5         11           0       -2.143852   -1.574336    1.646321
      6         11           0        0.788622   -2.796938   -0.258352
      7         11           0        3.585901   -0.727819   -0.803669
 ---------------------------------------------------------------------

 SCF Done:  E(UB3LYP) =  -1136.11923862     A.U. after   22 cycles

 The electronic state is 2-A.
 Alpha  occ. eigenvalues --  -38.45241 -38.44113 -38.43878 -38.43799 -38.43719
 Alpha  occ. eigenvalues --  -38.43689 -38.43475  -2.21124  -2.19922  -2.19835
 Alpha  occ. eigenvalues --   -2.19622  -2.19602  -2.19512  -2.19303  -1.14821
 Alpha  occ. eigenvalues --   -1.14808  -1.14717  -1.13600  -1.13579  -1.13572
 Alpha  occ. eigenvalues --   -1.13570  -1.13517  -1.13472  -1.13284  -1.13264
 Alpha  occ. eigenvalues --   -1.13254  -1.13247  -1.13227  -1.13206  -1.13176
 Alpha  occ. eigenvalues --   -1.13167  -1.13150  -1.12988  -1.12978  -1.12907
 Alpha  occ. eigenvalues --   -0.17804  -0.14016  -0.12154  -0.10029
 Alpha virt. eigenvalues --   -0.06682  -0.05748  -0.04700  -0.03137  -0.02681
 Alpha virt. eigenvalues --   -0.02359  -0.01771  -0.01267  -0.01100  -0.00509
 Alpha virt. eigenvalues --   -0.00436   0.00202   0.00322   0.00528   0.00579

  Beta  occ. eigenvalues --  -38.45225 -38.44092 -38.43872 -38.43753 -38.43684
  Beta  occ. eigenvalues --  -38.43659 -38.43440  -2.21096  -2.19888  -2.19826
  Beta  occ. eigenvalues --   -2.19514  -2.19509  -2.19503  -2.19242  -1.14802
  Beta  occ. eigenvalues --   -1.14777  -1.14693  -1.13581  -1.13558  -1.13532
  Beta  occ. eigenvalues --   -1.13517  -1.13513  -1.13476  -1.13205  -1.13194
  Beta  occ. eigenvalues --   -1.13193  -1.13188  -1.13173  -1.13171  -1.13159
  Beta  occ. eigenvalues --   -1.13138  -1.13137  -1.12951  -1.12938  -1.12841
  Beta  occ. eigenvalues --   -0.17443  -0.13471  -0.11754
  Beta virt. eigenvalues --   -0.06733  -0.06571  -0.05282  -0.04407  -0.02887
  Beta virt. eigenvalues --   -0.02274  -0.02033  -0.01502  -0.01027  -0.00888
  Beta virt. eigenvalues --   -0.00297  -0.00158   0.00303   0.00441   0.00612

 Mulliken charges and spin densities:
               1          2
     1  Na  -0.093232   0.056777
     2  Na   0.887438   0.028223
     3  Na  -2.140162   0.396714
     4  Na   0.074018   0.249772
     5  Na   0.782180  -0.009825
     6  Na   0.370663   0.188710
     7  Na   0.119096   0.089629
 Sum of Mulliken charges =  -0.00000   1.00000

 Dipole moment (field-independent basis, Debye):
    X=             -1.0180    Y=             -0.1474    Z=             -0.1729  Tot=              1.0431
 Quadrupole moment (field-independent basis, Debye-Ang):
   XX=            -57.5411   YY=            -67.3628   ZZ=            -71.0043
   XY=              2.3863   XZ=              0.0004   YZ=              2.9502

 Normal termination of Gaussian 16 at Tue Dec  5 14:58:05 2023.
