 Gaussian 16, Revision B.01,
 Gaussian 16:  ES64L-G16RevB.01 20-Dec-2017

 -------------------------
 #P B3LYP/6-311+g(d) force
 -------------------------

 -----
 DPGEN
 -----
 Symbolic Z-matrix:
 Charge =  0 Multiplicity = 2

                         Standard orientation:
 ---------------------------------------------------------------------
 Center     Atomic      Atomic             Coordinates (Angstroms)
 Number     Number       Type             X           Y           Z
 ---------------------------------------------------------------------
      1         11           0       -0.353773    0.287555   -1.543722
      2         11           0        0.370414   -0.416006    2.096657
      3         11           0        2.018135    2.228174    0.013082
      4         11           0       -0.419572   -2.772879    0.133919
      5         11           0       -3.091013   -0.734003   -0.388354
      6         11           0       -1.750268    2.454165    0.299054
      7         11           0        3.226076   -1.047006   -0.610635
 ---------------------------------------------------------------------

 SCF Done:  E(UB3LYP) =  -1136.13460145     A.U. after   20 cycles

 The electronic state is 2-A.
 Alpha  occ. eigenvalues --  -38.44351 -38.44007 -38.43749 -38.43611 -38.43497
 Alpha  occ. eigenvalues --  -38.43374 -38.43176  -2.20132  -2.19871  -2.19572
 Alpha  occ. eigenvalues --   -2.19494  -2.19355  -2.19341  -2.19046  -1.13803
 Alpha  occ. eigenvalues --   -1.13782  -1.13768  -1.13581  -1.13522  -1.13499
 Alpha  occ. eigenvalues --   -1.13263  -1.13246  -1.13197  -1.13178  -1.13125
 Alpha  occ. eigenvalues --   -1.13106  -1.13103  -1.13026  -1.12998  -1.12986
 Alpha  occ. eigenvalues --   -1.12963  -1.12939  -1.12732  -1.12707  -1.12666
 Alpha  occ. eigenvalues --   -0.18440  -0.13135  -0.12303  -0.10693
 Alpha virt. eigenvalues --   -0.05806  -0.05313  -0.04532  -0.03254  -0.02946
 Alpha virt. eigenvalues --   -0.02429  -0.01723  -0.01165  -0.00415  -0.00339
 Alpha virt. eigenvalues --   -0.00029   0.00318   0.00737   0.00841   0.00871

  Beta  occ. eigenvalues --  -38.44333 -38.43997 -38.43746 -38.43515 -38.43492
  Beta  occ. eigenvalues --  -38.43329 -38.43169  -2.20099  -2.19856  -2.19570
  Beta  occ. eigenvalues --   -2.19335  -2.19316  -2.19272  -2.19037  -1.13773
  Beta  occ. eigenvalues --   -1.13758  -1.13747  -1.13563  -1.13503  -1.13491
  Beta  occ. eigenvalues --   -1.13258  -1.13232  -1.13189  -1.13080  -1.13061
  Beta  occ. eigenvalues --   -1.12999  -1.12990  -1.12983  -1.12968  -1.12956
  Beta  occ. eigenvalues --   -1.12921  -1.12895  -1.12720  -1.12674  -1.12664
  Beta  occ. eigenvalues --   -0.17765  -0.12849  -0.12073
  Beta virt. eigenvalues --   -0.06888  -0.05673  -0.05295  -0.04436  -0.02578
  Beta virt. eigenvalues --   -0.02181  -0.01598  -0.01457  -0.01097  -0.00410
  Beta virt. eigenvalues --   -0.00370   0.00118   0.00373   0.00822   0.00853

 Mulliken charges and spin densities:
               1          2
     1  Na  -0.215357   0.302107
     2  Na  -0.407894   0.602579
     3  Na   0.077868   0.009931
     4  Na   0.218333  -0.014811
     5  Na   0.315761  -0.000349
     6  Na   0.037642   0.041208
     7  Na  -0.026353   0.059335
 Sum of Mulliken charges =  -0.00000   1.00000

 Dipole moment (field-independent basis, Debye):
    X=              0.1012    Y=              0.0368    Z=              0.0842  Tot=              0.1367
 Quadrupole moment (field-independent basis, Debye-Ang):
   XX=            -55.3081   YY=            -64.2766   ZZ=            -73.9836
   XY=             -0.4156   XZ=             -1.3053   YZ=              2.1795

 Normal termination of Gaussian 16 at Thu Dec  7 02:50:25 2023.
