 Gaussian 16, Revision B.01,
 Gaussian 16:  ES64L-G16RevB.01 20-Dec-2017

 -------------------------
 #P B3LYP/6-311+g(d) force
 -------------------------

 -----
 DPGEN
 -----
 Symbolic Z-matrix:
 Charge =  0 Multiplicity = 2

                         Standard orientation:
 ---------------------------------------------------------------------
 Center     Atomic      Atomic             Coordinates (Angstroms)
 Number     Number       Type             X           Y           Z
 ---------------------------------------------------------------------
      1         11           0        0.061286   -3.451441   -0.076952
      2         11           0        4.037676    0.334977   -0.244428
      3         11           0        3.439459   -2.623881    0.384188
      4         11           0       -4.478253    0.950500   -0.270164
      5         11           0       -3.933026   -2.272115   -0.067518
      6         11           0        2.091794    3.567824   -0.444046
      7         11           0       -1.218936    3.494137    0.718920
 ---------------------------------------------------------------------

 SCF Done:  E(UB3LYP) =  -1136.10347037     A.U. after   22 cycles

 The electronic state is 2-A.
 Alpha  occ. eigenvalues --  -38.45092 -38.45054 -38.44784 -38.44716 -38.44435
 Alpha  occ. eigenvalues --  -38.44410 -38.44235  -2.20850  -2.20806  -2.20529
 Alpha  occ. eigenvalues --   -2.20495  -2.20241  -2.20191  -2.20055  -1.14525
 Alpha  occ. eigenvalues --   -1.14518  -1.14502  -1.14472  -1.14462  -1.14429
 Alpha  occ. eigenvalues --   -1.14212  -1.14201  -1.14169  -1.14154  -1.14141
 Alpha  occ. eigenvalues --   -1.14128  -1.13977  -1.13909  -1.13901  -1.13844
 Alpha  occ. eigenvalues --   -1.13833  -1.13795  -1.13701  -1.13688  -1.13666
 Alpha  occ. eigenvalues --   -0.15276  -0.13933  -0.13349  -0.10838
 Alpha virt. eigenvalues --   -0.08001  -0.05041  -0.04643  -0.03486  -0.03329
 Alpha virt. eigenvalues --   -0.02542  -0.02372  -0.01911  -0.01573  -0.00815
 Alpha virt. eigenvalues --   -0.00557  -0.00188   0.00024   0.00164   0.00256

  Beta  occ. eigenvalues --  -38.45088 -38.45011 -38.44795 -38.44680 -38.44443
  Beta  occ. eigenvalues --  -38.44319 -38.44171  -2.20848  -2.20727  -2.20553
  Beta  occ. eigenvalues --   -2.20429  -2.20264  -2.20022  -2.19937  -1.14527
  Beta  occ. eigenvalues --   -1.14519  -1.14473  -1.14419  -1.14410  -1.14371
  Beta  occ. eigenvalues --   -1.14231  -1.14220  -1.14162  -1.14111  -1.14099
  Beta  occ. eigenvalues --   -1.14076  -1.13966  -1.13930  -1.13889  -1.13729
  Beta  occ. eigenvalues --   -1.13719  -1.13690  -1.13621  -1.13613  -1.13595
  Beta  occ. eigenvalues --   -0.14716  -0.13359  -0.12667
  Beta virt. eigenvalues --   -0.08048  -0.07666  -0.04525  -0.04222  -0.03277
  Beta virt. eigenvalues --   -0.02987  -0.02373  -0.02216  -0.01841  -0.01424
  Beta virt. eigenvalues --   -0.00511  -0.00172  -0.00048   0.00132   0.00328

 Mulliken charges and spin densities:
               1          2
     1  Na  -0.253813   0.442073
     2  Na  -0.127098   0.280519
     3  Na   0.516545  -0.059497
     4  Na  -0.122647   0.146787
     5  Na   0.111711   0.023157
     6  Na   0.182678  -0.035857
     7  Na  -0.307376   0.202819
 Sum of Mulliken charges =  -0.00000   1.00000

 Dipole moment (field-independent basis, Debye):
    X=             -0.6293    Y=              0.3776    Z=              0.0229  Tot=              0.7343
 Quadrupole moment (field-independent basis, Debye-Ang):
   XX=            -62.8667   YY=            -64.0078   ZZ=            -73.6442
   XY=             -0.0178   XZ=             -1.0855   YZ=             -1.2906

 Normal termination of Gaussian 16 at Sun Dec  3 20:57:43 2023.
