 Gaussian 16, Revision B.01,
 Gaussian 16:  ES64L-G16RevB.01 20-Dec-2017

 -------------------------
 #P B3LYP/6-311+g(d) force
 -------------------------

 -----
 DPGEN
 -----
 Symbolic Z-matrix:
 Charge =  0 Multiplicity = 2

                         Standard orientation:
 ---------------------------------------------------------------------
 Center     Atomic      Atomic             Coordinates (Angstroms)
 Number     Number       Type             X           Y           Z
 ---------------------------------------------------------------------
      1         11           0        1.632371    2.175217    0.947920
      2         11           0        2.011655    1.237092   -1.686750
      3         11           0       -1.424630   -1.040987    2.057350
      4         11           0        0.255506   -1.812882   -1.240360
      5         11           0       -1.651954    1.651918    0.412218
      6         11           0       -3.756160   -0.321879   -1.078282
      7         11           0        2.933214   -1.888480    0.587904
 ---------------------------------------------------------------------

 SCF Done:  E(UB3LYP) =  -1136.11968740     A.U. after   20 cycles

 The electronic state is 2-A.
 Alpha  occ. eigenvalues --  -38.44628 -38.44521 -38.44430 -38.44190 -38.43662
 Alpha  occ. eigenvalues --  -38.43468 -38.43258  -2.20432  -2.20350  -2.20210
 Alpha  occ. eigenvalues --   -2.20074  -2.19494  -2.19362  -2.19143  -1.14108
 Alpha  occ. eigenvalues --   -1.14077  -1.14050  -1.14039  -1.13985  -1.13956
 Alpha  occ. eigenvalues --   -1.13881  -1.13871  -1.13855  -1.13843  -1.13725
 Alpha  occ. eigenvalues --   -1.13662  -1.13179  -1.13167  -1.13109  -1.13074
 Alpha  occ. eigenvalues --   -1.13030  -1.12984  -1.12828  -1.12773  -1.12760
 Alpha  occ. eigenvalues --   -0.17799  -0.13664  -0.11690  -0.10907
 Alpha virt. eigenvalues --   -0.06419  -0.05250  -0.04709  -0.03349  -0.03011
 Alpha virt. eigenvalues --   -0.02679  -0.01988  -0.01107  -0.00629  -0.00079
 Alpha virt. eigenvalues --    0.00097   0.00206   0.00333   0.00526   0.00632

  Beta  occ. eigenvalues --  -38.44583 -38.44452 -38.44432 -38.44161 -38.43646
  Beta  occ. eigenvalues --  -38.43454 -38.43255  -2.20348  -2.20223  -2.20214
  Beta  occ. eigenvalues --   -2.20019  -2.19467  -2.19342  -2.19139  -1.14050
  Beta  occ. eigenvalues --   -1.14014  -1.13996  -1.13952  -1.13895  -1.13886
  Beta  occ. eigenvalues --   -1.13870  -1.13865  -1.13853  -1.13810  -1.13685
  Beta  occ. eigenvalues --   -1.13625  -1.13161  -1.13128  -1.13093  -1.13044
  Beta  occ. eigenvalues --   -1.12994  -1.12977  -1.12818  -1.12766  -1.12752
  Beta  occ. eigenvalues --   -0.17164  -0.13379  -0.11554
  Beta virt. eigenvalues --   -0.07335  -0.06005  -0.05038  -0.04211  -0.03271
  Beta virt. eigenvalues --   -0.02542  -0.01997  -0.01666  -0.00948  -0.00264
  Beta virt. eigenvalues --    0.00059   0.00159   0.00328   0.00398   0.00654

 Mulliken charges and spin densities:
               1          2
     1  Na   0.282099   0.152929
     2  Na  -0.172209  -0.166461
     3  Na  -0.429993   0.174198
     4  Na  -0.106024   0.361016
     5  Na   0.155124   0.388400
     6  Na   0.222120   0.086683
     7  Na   0.048882   0.003234
 Sum of Mulliken charges =  -0.00000   1.00000

 Dipole moment (field-independent basis, Debye):
    X=             -0.1073    Y=             -0.5483    Z=              0.1478  Tot=              0.5779
 Quadrupole moment (field-independent basis, Debye-Ang):
   XX=            -55.1544   YY=            -75.5133   ZZ=            -66.1727
   XY=              0.6704   XZ=              3.4346   YZ=             -1.5995

 Normal termination of Gaussian 16 at Mon Dec  4 03:21:13 2023.
