 Gaussian 16, Revision B.01,
 Gaussian 16:  ES64L-G16RevB.01 20-Dec-2017

 -------------------------
 #P B3LYP/6-311+g(d) force
 -------------------------

 -----
 DPGEN
 -----
 Symbolic Z-matrix:
 Charge =  0 Multiplicity = 2

                         Standard orientation:
 ---------------------------------------------------------------------
 Center     Atomic      Atomic             Coordinates (Angstroms)
 Number     Number       Type             X           Y           Z
 ---------------------------------------------------------------------
      1         11           0        2.404912   -1.226002    1.053446
      2         11           0       -4.248812   -2.223333   -0.582638
      3         11           0       -5.244620    0.362619    0.281272
      4         11           0       -0.691432   -0.115711    0.217491
      5         11           0        0.247867    3.577188    0.050577
      6         11           0        2.336150    1.264337   -0.666020
      7         11           0        5.195936   -1.639099   -0.354129
 ---------------------------------------------------------------------

 SCF Done:  E(UB3LYP) =  -1136.11458431     A.U. after   19 cycles

 The electronic state is 2-A.
 Alpha  occ. eigenvalues --  -38.44974 -38.44966 -38.44075 -38.43591 -38.43413
 Alpha  occ. eigenvalues --  -38.43383 -38.43370  -2.20804  -2.20774  -2.19980
 Alpha  occ. eigenvalues --   -2.19453  -2.19339  -2.19206  -2.19183  -1.14654
 Alpha  occ. eigenvalues --   -1.14454  -1.14442  -1.14410  -1.14398  -1.14310
 Alpha  occ. eigenvalues --   -1.13726  -1.13672  -1.13574  -1.13139  -1.13123
 Alpha  occ. eigenvalues --   -1.13053  -1.13033  -1.13001  -1.12979  -1.12871
 Alpha  occ. eigenvalues --   -1.12856  -1.12835  -1.12831  -1.12821  -1.12785
 Alpha  occ. eigenvalues --   -0.16764  -0.14351  -0.12179  -0.10340
 Alpha virt. eigenvalues --   -0.06009  -0.05578  -0.04773  -0.03446  -0.02888
 Alpha virt. eigenvalues --   -0.02488  -0.01796  -0.01625  -0.01128  -0.00721
 Alpha virt. eigenvalues --   -0.00437   0.00169   0.00275   0.00538   0.00590

  Beta  occ. eigenvalues --  -38.44970 -38.44955 -38.44061 -38.43521 -38.43385
  Beta  occ. eigenvalues --  -38.43341 -38.43341  -2.20796  -2.20755  -2.19958
  Beta  occ. eigenvalues --   -2.19327  -2.19295  -2.19130  -2.19127  -1.14643
  Beta  occ. eigenvalues --   -1.14449  -1.14429  -1.14398  -1.14383  -1.14300
  Beta  occ. eigenvalues --   -1.13696  -1.13644  -1.13562  -1.13057  -1.13028
  Beta  occ. eigenvalues --   -1.12998  -1.12977  -1.12970  -1.12908  -1.12812
  Beta  occ. eigenvalues --   -1.12802  -1.12797  -1.12790  -1.12774  -1.12742
  Beta  occ. eigenvalues --   -0.16065  -0.14173  -0.11794
  Beta virt. eigenvalues --   -0.06808  -0.05800  -0.05216  -0.04476  -0.03201
  Beta virt. eigenvalues --   -0.02699  -0.02246  -0.01605  -0.01152  -0.01025
  Beta virt. eigenvalues --   -0.00397  -0.00114   0.00256   0.00400   0.00606

 Mulliken charges and spin densities:
               1          2
     1  Na   0.777498  -0.111063
     2  Na  -0.065782  -0.028565
     3  Na   0.253307   0.158521
     4  Na  -1.397191   0.333417
     5  Na   0.896419   0.194238
     6  Na  -0.723598   0.245735
     7  Na   0.259347   0.207716
 Sum of Mulliken charges =  -0.00000   1.00000

 Dipole moment (field-independent basis, Debye):
    X=             -2.0767    Y=             -0.4479    Z=             -0.0438  Tot=              2.1249
 Quadrupole moment (field-independent basis, Debye-Ang):
   XX=            -61.4141   YY=            -63.8635   ZZ=            -70.3598
   XY=             -3.8449   XZ=             -2.6462   YZ=              4.1106

 Normal termination of Gaussian 16 at Fri Dec  8 17:31:50 2023.
