 Gaussian 16, Revision B.01,
 Gaussian 16:  ES64L-G16RevB.01 20-Dec-2017

 -------------------------
 #P B3LYP/6-311+g(d) force
 -------------------------

 -----
 DPGEN
 -----
 Symbolic Z-matrix:
 Charge =  0 Multiplicity = 2

                         Standard orientation:
 ---------------------------------------------------------------------
 Center     Atomic      Atomic             Coordinates (Angstroms)
 Number     Number       Type             X           Y           Z
 ---------------------------------------------------------------------
      1         11           0       -3.663023   -1.900870    0.148566
      2         11           0       -1.039883   -3.193133   -0.271839
      3         11           0       -0.808468    4.039949    0.948670
      4         11           0        2.454773   -2.682404    0.988571
      5         11           0        2.277334    2.681459   -0.373986
      6         11           0       -3.149678    1.509356   -0.722043
      7         11           0        3.928945   -0.454358   -0.717939
 ---------------------------------------------------------------------

 SCF Done:  E(UB3LYP) =  -1136.10668916     A.U. after   32 cycles

 The electronic state is 2-A.
 Alpha  occ. eigenvalues --  -38.46178 -38.45367 -38.44524 -38.44295 -38.44069
 Alpha  occ. eigenvalues --  -38.43803 -38.43634  -2.21910  -2.21173  -2.20298
 Alpha  occ. eigenvalues --   -2.20100  -2.19836  -2.19657  -2.19453  -1.15602
 Alpha  occ. eigenvalues --   -1.15581  -1.15519  -1.14875  -1.14834  -1.14819
 Alpha  occ. eigenvalues --   -1.13979  -1.13967  -1.13913  -1.13785  -1.13768
 Alpha  occ. eigenvalues --   -1.13742  -1.13507  -1.13488  -1.13475  -1.13348
 Alpha  occ. eigenvalues --   -1.13289  -1.13280  -1.13108  -1.13099  -1.13089
 Alpha  occ. eigenvalues --   -0.15743  -0.13939  -0.13397  -0.10323
 Alpha virt. eigenvalues --   -0.07820  -0.05006  -0.04415  -0.03536  -0.03244
 Alpha virt. eigenvalues --   -0.02401  -0.02345  -0.01834  -0.01522  -0.00780
 Alpha virt. eigenvalues --   -0.00372   0.00068   0.00125   0.00415   0.00621

  Beta  occ. eigenvalues --  -38.46155 -38.45349 -38.44479 -38.44284 -38.44049
  Beta  occ. eigenvalues --  -38.43772 -38.43588  -2.21871  -2.21145  -2.20217
  Beta  occ. eigenvalues --   -2.20084  -2.19799  -2.19601  -2.19368  -1.15578
  Beta  occ. eigenvalues --   -1.15558  -1.15469  -1.14851  -1.14819  -1.14772
  Beta  occ. eigenvalues --   -1.13926  -1.13915  -1.13840  -1.13778  -1.13761
  Beta  occ. eigenvalues --   -1.13698  -1.13482  -1.13468  -1.13441  -1.13310
  Beta  occ. eigenvalues --   -1.13249  -1.13242  -1.13057  -1.13042  -1.13022
  Beta  occ. eigenvalues --   -0.15260  -0.13379  -0.12845
  Beta virt. eigenvalues --   -0.07930  -0.06949  -0.04677  -0.04005  -0.03307
  Beta virt. eigenvalues --   -0.02782  -0.02186  -0.02075  -0.01720  -0.01396
  Beta virt. eigenvalues --   -0.00471  -0.00224   0.00254   0.00353   0.00432

 Mulliken charges and spin densities:
               1          2
     1  Na   0.155141   0.165522
     2  Na  -0.225771   0.092341
     3  Na   0.185278   0.150805
     4  Na  -0.038503   0.204382
     5  Na  -0.202709   0.178978
     6  Na  -0.066885   0.153045
     7  Na   0.193450   0.054927
 Sum of Mulliken charges =  -0.00000   1.00000

 Dipole moment (field-independent basis, Debye):
    X=             -1.0708    Y=              0.0599    Z=             -0.2258  Tot=              1.0960
 Quadrupole moment (field-independent basis, Debye-Ang):
   XX=            -63.9602   YY=            -68.2753   ZZ=            -69.5380
   XY=             -0.8627   XZ=              0.6371   YZ=              1.4414

 Normal termination of Gaussian 16 at Mon Dec  4 00:22:04 2023.
