 Gaussian 16, Revision B.01,
 Gaussian 16:  ES64L-G16RevB.01 20-Dec-2017

 -------------------------
 #P B3LYP/6-311+g(d) force
 -------------------------

 -----
 DPGEN
 -----
 Symbolic Z-matrix:
 Charge =  0 Multiplicity = 2

                         Standard orientation:
 ---------------------------------------------------------------------
 Center     Atomic      Atomic             Coordinates (Angstroms)
 Number     Number       Type             X           Y           Z
 ---------------------------------------------------------------------
      1         11           0       -4.024670    0.669561   -0.454979
      2         11           0        2.473768   -2.698732   -0.157768
      3         11           0        0.557882    3.342441    0.310639
      4         11           0       -0.690832    0.435023   -0.621015
      5         11           0        1.721147    0.267224    1.915510
      6         11           0        2.837131    0.271949   -1.434389
      7         11           0       -2.874425   -2.287466    0.442002
 ---------------------------------------------------------------------

 SCF Done:  E(UB3LYP) =  -1136.12138893     A.U. after   20 cycles

 The electronic state is 2-A.
 Alpha  occ. eigenvalues --  -38.45092 -38.44933 -38.43744 -38.43640 -38.43632
 Alpha  occ. eigenvalues --  -38.43514 -38.43306  -2.20901  -2.20718  -2.19611
 Alpha  occ. eigenvalues --   -2.19547  -2.19431  -2.19379  -2.19109  -1.14570
 Alpha  occ. eigenvalues --   -1.14560  -1.14544  -1.14387  -1.14379  -1.14333
 Alpha  occ. eigenvalues --   -1.13292  -1.13274  -1.13260  -1.13238  -1.13223
 Alpha  occ. eigenvalues --   -1.13169  -1.13097  -1.13085  -1.13071  -1.13059
 Alpha  occ. eigenvalues --   -1.13026  -1.12968  -1.12782  -1.12767  -1.12749
 Alpha  occ. eigenvalues --   -0.17352  -0.14112  -0.11705  -0.09817
 Alpha virt. eigenvalues --   -0.06369  -0.05852  -0.05037  -0.03196  -0.02520
 Alpha virt. eigenvalues --   -0.02298  -0.01995  -0.01409  -0.01068  -0.00819
 Alpha virt. eigenvalues --   -0.00187   0.00222   0.00474   0.00525   0.00574

  Beta  occ. eigenvalues --  -38.45084 -38.44923 -38.43685 -38.43632 -38.43625
  Beta  occ. eigenvalues --  -38.43438 -38.43308  -2.20885  -2.20700  -2.19525
  Beta  occ. eigenvalues --   -2.19502  -2.19434  -2.19239  -2.19115  -1.14556
  Beta  occ. eigenvalues --   -1.14548  -1.14534  -1.14375  -1.14363  -1.14320
  Beta  occ. eigenvalues --   -1.13231  -1.13212  -1.13206  -1.13197  -1.13170
  Beta  occ. eigenvalues --   -1.13146  -1.13101  -1.13073  -1.13052  -1.12963
  Beta  occ. eigenvalues --   -1.12929  -1.12869  -1.12787  -1.12761  -1.12746
  Beta  occ. eigenvalues --   -0.16797  -0.13879  -0.11514
  Beta virt. eigenvalues --   -0.06497  -0.05771  -0.05556  -0.04994  -0.02894
  Beta virt. eigenvalues --   -0.02279  -0.01852  -0.01382  -0.01269  -0.00999
  Beta virt. eigenvalues --   -0.00517   0.00141   0.00300   0.00599   0.00637

 Mulliken charges and spin densities:
               1          2
     1  Na   0.501662  -0.006698
     2  Na   0.165518  -0.026992
     3  Na   0.157698  -0.078897
     4  Na  -1.414803   0.367459
     5  Na  -0.289146   0.569360
     6  Na   0.701249   0.177310
     7  Na   0.177823  -0.001543
 Sum of Mulliken charges =  -0.00000   1.00000

 Dipole moment (field-independent basis, Debye):
    X=             -1.8367    Y=             -0.0973    Z=              0.1658  Tot=              1.8468
 Quadrupole moment (field-independent basis, Debye-Ang):
   XX=            -55.9764   YY=            -59.7140   ZZ=            -76.9063
   XY=              0.6604   XZ=              0.7459   YZ=             -1.3740

 Normal termination of Gaussian 16 at Tue Dec  5 13:34:34 2023.
