 Gaussian 16, Revision B.01,
 Gaussian 16:  ES64L-G16RevB.01 20-Dec-2017

 -------------------------
 #P B3LYP/6-311+g(d) force
 -------------------------

 -----
 DPGEN
 -----
 Symbolic Z-matrix:
 Charge =  0 Multiplicity = 2

                         Standard orientation:
 ---------------------------------------------------------------------
 Center     Atomic      Atomic             Coordinates (Angstroms)
 Number     Number       Type             X           Y           Z
 ---------------------------------------------------------------------
      1         11           0        1.894911    2.431252    0.031820
      2         11           0       -0.298991    0.200908   -1.511360
      3         11           0       -2.660023   -1.091012    0.385804
      4         11           0       -0.171652   -2.929168   -0.267923
      5         11           0        0.736400   -0.085834    2.045988
      6         11           0        2.819761   -0.869369   -0.510977
      7         11           0       -2.320407    2.343223   -0.173352
 ---------------------------------------------------------------------

 SCF Done:  E(UB3LYP) =  -1136.13703228     A.U. after   19 cycles

 The electronic state is 2-A.
 Alpha  occ. eigenvalues --  -38.43984 -38.43853 -38.43746 -38.43693 -38.43574
 Alpha  occ. eigenvalues --  -38.43224 -38.42964  -2.19814  -2.19719  -2.19575
 Alpha  occ. eigenvalues --   -2.19559  -2.19464  -2.19101  -2.18966  -1.13495
 Alpha  occ. eigenvalues --   -1.13491  -1.13450  -1.13393  -1.13393  -1.13338
 Alpha  occ. eigenvalues --   -1.13281  -1.13257  -1.13239  -1.13228  -1.13202
 Alpha  occ. eigenvalues --   -1.13179  -1.13124  -1.13097  -1.13074  -1.12789
 Alpha  occ. eigenvalues --   -1.12754  -1.12739  -1.12649  -1.12600  -1.12589
 Alpha  occ. eigenvalues --   -0.18669  -0.13183  -0.12436  -0.10650
 Alpha virt. eigenvalues --   -0.05640  -0.05188  -0.04758  -0.03317  -0.02772
 Alpha virt. eigenvalues --   -0.02438  -0.01410  -0.01238  -0.00463  -0.00263
 Alpha virt. eigenvalues --   -0.00011   0.00354   0.00824   0.00843   0.00901

  Beta  occ. eigenvalues --  -38.43979 -38.43837 -38.43746 -38.43685 -38.43483
  Beta  occ. eigenvalues --  -38.43218 -38.42909  -2.19808  -2.19695  -2.19563
  Beta  occ. eigenvalues --   -2.19561  -2.19296  -2.19094  -2.18866  -1.13492
  Beta  occ. eigenvalues --   -1.13462  -1.13446  -1.13380  -1.13350  -1.13321
  Beta  occ. eigenvalues --   -1.13275  -1.13255  -1.13230  -1.13203  -1.13200
  Beta  occ. eigenvalues --   -1.13178  -1.13013  -1.12981  -1.12952  -1.12782
  Beta  occ. eigenvalues --   -1.12739  -1.12722  -1.12579  -1.12531  -1.12512
  Beta  occ. eigenvalues --   -0.17956  -0.12963  -0.12208
  Beta virt. eigenvalues --   -0.06742  -0.05618  -0.05076  -0.04739  -0.02537
  Beta virt. eigenvalues --   -0.02081  -0.01447  -0.01289  -0.01145  -0.00484
  Beta virt. eigenvalues --   -0.00292   0.00147   0.00391   0.00823   0.00890

 Mulliken charges and spin densities:
               1          2
     1  Na   0.116525  -0.056977
     2  Na  -0.159983   0.321670
     3  Na   0.063854   0.084432
     4  Na   0.117388   0.008967
     5  Na  -0.497601   0.677657
     6  Na   0.271212   0.021684
     7  Na   0.088606  -0.057433
 Sum of Mulliken charges =  -0.00000   1.00000

 Dipole moment (field-independent basis, Debye):
    X=              0.2068    Y=              0.2866    Z=              0.1691  Tot=              0.3918
 Quadrupole moment (field-independent basis, Debye-Ang):
   XX=            -58.3699   YY=            -60.3876   ZZ=            -74.6036
   XY=             -0.1053   XZ=             -2.3225   YZ=              0.5700

 Normal termination of Gaussian 16 at Thu Dec  7 14:14:36 2023.
