 Gaussian 16, Revision B.01,
 Gaussian 16:  ES64L-G16RevB.01 20-Dec-2017

 -------------------------
 #P B3LYP/6-311+g(d) force
 -------------------------

 -----
 DPGEN
 -----
 Symbolic Z-matrix:
 Charge =  0 Multiplicity = 2

                         Standard orientation:
 ---------------------------------------------------------------------
 Center     Atomic      Atomic             Coordinates (Angstroms)
 Number     Number       Type             X           Y           Z
 ---------------------------------------------------------------------
      1         11           0       -1.119446    1.086002   -1.409904
      2         11           0        1.925082    2.313579   -0.837704
      3         11           0        3.424365   -0.516280    1.090332
      4         11           0        1.123362   -1.223129   -1.354786
      5         11           0       -2.513638   -1.845653   -1.153122
      6         11           0        0.334236   -1.182019    1.869101
      7         11           0       -3.173961    1.367499    1.796083
 ---------------------------------------------------------------------

 SCF Done:  E(UB3LYP) =  -1136.12244734     A.U. after   24 cycles

 The electronic state is 2-A.
 Alpha  occ. eigenvalues --  -38.45334 -38.44658 -38.44437 -38.43958 -38.43509
 Alpha  occ. eigenvalues --  -38.42866 -38.42728  -2.21106  -2.20469  -2.20359
 Alpha  occ. eigenvalues --   -2.19796  -2.19334  -2.18688  -2.18636  -1.14750
 Alpha  occ. eigenvalues --   -1.14742  -1.14708  -1.14146  -1.14121  -1.14096
 Alpha  occ. eigenvalues --   -1.14079  -1.13995  -1.13971  -1.13479  -1.13454
 Alpha  occ. eigenvalues --   -1.13424  -1.13033  -1.13011  -1.12940  -1.12386
 Alpha  occ. eigenvalues --   -1.12353  -1.12344  -1.12326  -1.12306  -1.12229
 Alpha  occ. eigenvalues --   -0.17929  -0.13549  -0.11877  -0.11080
 Alpha virt. eigenvalues --   -0.05981  -0.05601  -0.04692  -0.03268  -0.02835
 Alpha virt. eigenvalues --   -0.02629  -0.01967  -0.01281  -0.00731  -0.00069
 Alpha virt. eigenvalues --    0.00175   0.00212   0.00298   0.00463   0.00518

  Beta  occ. eigenvalues --  -38.45228 -38.44623 -38.44400 -38.43956 -38.43508
  Beta  occ. eigenvalues --  -38.42857 -38.42720  -2.20907  -2.20408  -2.20293
  Beta  occ. eigenvalues --   -2.19793  -2.19335  -2.18672  -2.18627  -1.14613
  Beta  occ. eigenvalues --   -1.14604  -1.14579  -1.14104  -1.14070  -1.14049
  Beta  occ. eigenvalues --   -1.14038  -1.13947  -1.13910  -1.13475  -1.13452
  Beta  occ. eigenvalues --   -1.13423  -1.13034  -1.12998  -1.12944  -1.12378
  Beta  occ. eigenvalues --   -1.12340  -1.12326  -1.12315  -1.12272  -1.12232
  Beta  occ. eigenvalues --   -0.17375  -0.13103  -0.10968
  Beta virt. eigenvalues --   -0.07991  -0.05836  -0.04946  -0.04463  -0.03085
  Beta virt. eigenvalues --   -0.02278  -0.02093  -0.01786  -0.00759  -0.00623
  Beta virt. eigenvalues --    0.00203   0.00239   0.00329   0.00358   0.00578

 Mulliken charges and spin densities:
               1          2
     1  Na  -0.072041   0.283376
     2  Na  -0.187278  -0.031911
     3  Na   0.558175  -0.022195
     4  Na  -0.000915   0.184895
     5  Na   0.328933   0.120295
     6  Na  -0.649995   0.079000
     7  Na   0.023121   0.386540
 Sum of Mulliken charges =  -0.00000   1.00000

 Dipole moment (field-independent basis, Debye):
    X=             -0.3466    Y=             -0.4463    Z=              0.2777  Tot=              0.6296
 Quadrupole moment (field-independent basis, Debye-Ang):
   XX=            -53.6419   YY=            -70.2560   ZZ=            -71.6075
   XY=              1.7216   XZ=              0.3301   YZ=              8.7018

 Normal termination of Gaussian 16 at Tue Nov 28 20:10:54 2023.
