 Gaussian 16, Revision B.01,
 Gaussian 16:  ES64L-G16RevB.01 20-Dec-2017

 -------------------------
 #P B3LYP/6-311+g(d) force
 -------------------------

 -----
 DPGEN
 -----
 Symbolic Z-matrix:
 Charge =  0 Multiplicity = 2

                         Standard orientation:
 ---------------------------------------------------------------------
 Center     Atomic      Atomic             Coordinates (Angstroms)
 Number     Number       Type             X           Y           Z
 ---------------------------------------------------------------------
      1         11           0        3.033517   -1.477109   -1.440879
      2         11           0       -2.032157    1.958584   -0.811581
      3         11           0        1.187777    1.529408   -1.532185
      4         11           0       -4.253663   -1.164346    0.233162
      5         11           0       -0.339569    0.875221    1.899437
      6         11           0       -0.950682   -1.803516   -0.147743
      7         11           0        3.354778    0.081759    1.799789
 ---------------------------------------------------------------------

 SCF Done:  E(UB3LYP) =  -1136.11937607     A.U. after   23 cycles

 The electronic state is 2-A.
 Alpha  occ. eigenvalues --  -38.45083 -38.44610 -38.44485 -38.44159 -38.43992
 Alpha  occ. eigenvalues --  -38.43526 -38.43414  -2.20860  -2.20456  -2.20287
 Alpha  occ. eigenvalues --   -2.19928  -2.19794  -2.19374  -2.19263  -1.14528
 Alpha  occ. eigenvalues --   -1.14509  -1.14482  -1.14165  -1.14084  -1.14072
 Alpha  occ. eigenvalues --   -1.13995  -1.13953  -1.13888  -1.13603  -1.13594
 Alpha  occ. eigenvalues --   -1.13560  -1.13460  -1.13449  -1.13424  -1.13071
 Alpha  occ. eigenvalues --   -1.13029  -1.13006  -1.12941  -1.12915  -1.12872
 Alpha  occ. eigenvalues --   -0.17648  -0.13666  -0.11545  -0.11061
 Alpha virt. eigenvalues --   -0.06956  -0.05255  -0.04927  -0.03285  -0.02850
 Alpha virt. eigenvalues --   -0.02621  -0.02384  -0.01227  -0.01146  -0.00199
 Alpha virt. eigenvalues --   -0.00038   0.00086   0.00286   0.00363   0.00530

  Beta  occ. eigenvalues --  -38.45035 -38.44553 -38.44472 -38.44172 -38.43957
  Beta  occ. eigenvalues --  -38.43485 -38.43407  -2.20771  -2.20352  -2.20264
  Beta  occ. eigenvalues --   -2.19953  -2.19730  -2.19301  -2.19250  -1.14469
  Beta  occ. eigenvalues --   -1.14441  -1.14416  -1.14099  -1.14013  -1.13988
  Beta  occ. eigenvalues --   -1.13963  -1.13936  -1.13874  -1.13619  -1.13612
  Beta  occ. eigenvalues --   -1.13575  -1.13408  -1.13403  -1.13385  -1.13022
  Beta  occ. eigenvalues --   -1.12978  -1.12957  -1.12925  -1.12901  -1.12857
  Beta  occ. eigenvalues --   -0.17014  -0.13449  -0.10942
  Beta virt. eigenvalues --   -0.07609  -0.06782  -0.05025  -0.04370  -0.02918
  Beta virt. eigenvalues --   -0.02633  -0.02089  -0.01875  -0.01179  -0.00723
  Beta virt. eigenvalues --   -0.00093   0.00009   0.00220   0.00342   0.00486

 Mulliken charges and spin densities:
               1          2
     1  Na   0.348837   0.227041
     2  Na   0.303628  -0.026567
     3  Na  -0.339552   0.311254
     4  Na   0.429924  -0.098929
     5  Na  -0.060657   0.453174
     6  Na  -0.710155   0.028982
     7  Na   0.027975   0.105046
 Sum of Mulliken charges =  -0.00000   1.00000

 Dipole moment (field-independent basis, Debye):
    X=              0.0489    Y=              0.4078    Z=              0.3236  Tot=              0.5229
 Quadrupole moment (field-independent basis, Debye-Ang):
   XX=            -52.4988   YY=            -76.4982   ZZ=            -68.5426
   XY=             -3.7415   XZ=              0.8982   YZ=              1.4561

 Normal termination of Gaussian 16 at Sun Dec  3 13:14:23 2023.
