 Gaussian 16, Revision B.01,
 Gaussian 16:  ES64L-G16RevB.01 20-Dec-2017

 -------------------------
 #P B3LYP/6-311+g(d) force
 -------------------------

 -----
 DPGEN
 -----
 Symbolic Z-matrix:
 Charge =  0 Multiplicity = 2

                         Standard orientation:
 ---------------------------------------------------------------------
 Center     Atomic      Atomic             Coordinates (Angstroms)
 Number     Number       Type             X           Y           Z
 ---------------------------------------------------------------------
      1         11           0        2.043792   -2.024856    0.002204
      2         11           0        0.044747    0.109755   -1.641232
      3         11           0       -1.305229   -2.465207   -0.107474
      4         11           0       -2.844176    0.298768    0.088876
      5         11           0        0.073439   -0.040596    1.662215
      6         11           0       -0.582064    2.799650   -0.022579
      7         11           0        2.569491    1.322487    0.017989
 ---------------------------------------------------------------------

 SCF Done:  E(UB3LYP) =  -1136.13769729     A.U. after   17 cycles

 The electronic state is 2-A.
 Alpha  occ. eigenvalues --  -38.43577 -38.43479 -38.43445 -38.43387 -38.43306
 Alpha  occ. eigenvalues --  -38.42859 -38.42839  -2.19484  -2.19400  -2.19354
 Alpha  occ. eigenvalues --   -2.19293  -2.19238  -2.18924  -2.18911  -1.13189
 Alpha  occ. eigenvalues --   -1.13156  -1.13122  -1.13118  -1.13074  -1.13059
 Alpha  occ. eigenvalues --   -1.13053  -1.13021  -1.12987  -1.12982  -1.12957
 Alpha  occ. eigenvalues --   -1.12916  -1.12908  -1.12897  -1.12849  -1.12648
 Alpha  occ. eigenvalues --   -1.12555  -1.12538  -1.12534  -1.12525  -1.12521
 Alpha  occ. eigenvalues --   -0.19665  -0.13196  -0.12978  -0.10669
 Alpha virt. eigenvalues --   -0.05189  -0.05024  -0.04847  -0.03016  -0.02890
 Alpha virt. eigenvalues --   -0.02150  -0.01265  -0.01159  -0.00086  -0.00052
 Alpha virt. eigenvalues --    0.00050   0.00372   0.00907   0.00945   0.00961

  Beta  occ. eigenvalues --  -38.43570 -38.43472 -38.43438 -38.43380 -38.43298
  Beta  occ. eigenvalues --  -38.42780 -38.42761  -2.19475  -2.19392  -2.19346
  Beta  occ. eigenvalues --   -2.19285  -2.19229  -2.18780  -2.18769  -1.13185
  Beta  occ. eigenvalues --   -1.13123  -1.13115  -1.13114  -1.13073  -1.13049
  Beta  occ. eigenvalues --   -1.13020  -1.12985  -1.12982  -1.12975  -1.12922
  Beta  occ. eigenvalues --   -1.12912  -1.12906  -1.12855  -1.12848  -1.12555
  Beta  occ. eigenvalues --   -1.12457  -1.12434  -1.12431  -1.12422  -1.12418
  Beta  occ. eigenvalues --   -0.18925  -0.12905  -0.12688
  Beta virt. eigenvalues --   -0.06701  -0.05188  -0.05023  -0.04849  -0.02170
  Beta virt. eigenvalues --   -0.02061  -0.01193  -0.01108  -0.01094  -0.00147
  Beta virt. eigenvalues --   -0.00108   0.00170   0.00398   0.00938   0.00960

 Mulliken charges and spin densities:
               1          2
     1  Na   0.217471  -0.077538
     2  Na  -0.530610   0.674953
     3  Na   0.222841  -0.046807
     4  Na   0.200541  -0.045549
     5  Na  -0.525847   0.691913
     6  Na   0.207689  -0.094062
     7  Na   0.207916  -0.102910
 Sum of Mulliken charges =  -0.00000   1.00000

 Dipole moment (field-independent basis, Debye):
    X=              0.1087    Y=              0.0789    Z=              0.0158  Tot=              0.1352
 Quadrupole moment (field-independent basis, Debye-Ang):
   XX=            -57.8998   YY=            -59.5468   ZZ=            -75.1279
   XY=             -0.1516   XZ=             -0.0882   YZ=              0.3669

 Normal termination of Gaussian 16 at Sat Dec  9 06:10:35 2023.
