 Gaussian 16, Revision B.01,
 Gaussian 16:  ES64L-G16RevB.01 20-Dec-2017

 -------------------------
 #P B3LYP/6-311+g(d) force
 -------------------------

 -----
 DPGEN
 -----
 Symbolic Z-matrix:
 Charge =  0 Multiplicity = 2

                         Standard orientation:
 ---------------------------------------------------------------------
 Center     Atomic      Atomic             Coordinates (Angstroms)
 Number     Number       Type             X           Y           Z
 ---------------------------------------------------------------------
      1         11           0       -0.012685   -0.174903    2.087070
      2         11           0        0.117732    0.307354   -1.487299
      3         11           0       -1.626478   -2.462856   -0.021802
      4         11           0        3.294175    0.969975   -0.033626
      5         11           0        1.865005   -2.327135   -0.314305
      6         11           0       -3.128255    0.389703   -0.284816
      7         11           0       -0.509495    3.297862    0.054777
 ---------------------------------------------------------------------

 SCF Done:  E(UB3LYP) =  -1136.13505953     A.U. after   20 cycles

 The electronic state is 2-A.
 Alpha  occ. eigenvalues --  -38.44603 -38.44108 -38.43984 -38.43652 -38.43461
 Alpha  occ. eigenvalues --  -38.43280 -38.43074  -2.20375  -2.19939  -2.19757
 Alpha  occ. eigenvalues --   -2.19497  -2.19330  -2.19157  -2.19028  -1.14052
 Alpha  occ. eigenvalues --   -1.14027  -1.14019  -1.13624  -1.13603  -1.13573
 Alpha  occ. eigenvalues --   -1.13438  -1.13416  -1.13396  -1.13190  -1.13159
 Alpha  occ. eigenvalues --   -1.13127  -1.13001  -1.12952  -1.12946  -1.12827
 Alpha  occ. eigenvalues --   -1.12813  -1.12804  -1.12726  -1.12664  -1.12654
 Alpha  occ. eigenvalues --   -0.18305  -0.12930  -0.12341  -0.10398
 Alpha virt. eigenvalues --   -0.06136  -0.05153  -0.04890  -0.02993  -0.02752
 Alpha virt. eigenvalues --   -0.02386  -0.01770  -0.01334  -0.00732  -0.00483
 Alpha virt. eigenvalues --   -0.00009   0.00325   0.00734   0.00805   0.00840

  Beta  occ. eigenvalues --  -38.44604 -38.44101 -38.43985 -38.43643 -38.43357
  Beta  occ. eigenvalues --  -38.43274 -38.43025  -2.20378  -2.19928  -2.19761
  Beta  occ. eigenvalues --   -2.19484  -2.19149  -2.19138  -2.18940  -1.14041
  Beta  occ. eigenvalues --   -1.14030  -1.14021  -1.13616  -1.13579  -1.13566
  Beta  occ. eigenvalues --   -1.13433  -1.13413  -1.13400  -1.13179  -1.13131
  Beta  occ. eigenvalues --   -1.13120  -1.12879  -1.12833  -1.12814  -1.12809
  Beta  occ. eigenvalues --   -1.12801  -1.12768  -1.12661  -1.12598  -1.12588
  Beta  occ. eigenvalues --   -0.17589  -0.12709  -0.12148
  Beta virt. eigenvalues --   -0.06482  -0.06128  -0.05063  -0.04886  -0.02269
  Beta virt. eigenvalues --   -0.02036  -0.01690  -0.01356  -0.01201  -0.00763
  Beta virt. eigenvalues --   -0.00529   0.00150   0.00371   0.00743   0.00851

 Mulliken charges and spin densities:
               1          2
     1  Na  -0.513389   0.798026
     2  Na  -0.207834   0.290236
     3  Na   0.297784   0.070487
     4  Na   0.042196  -0.076670
     5  Na   0.231397   0.015487
     6  Na   0.183112  -0.007283
     7  Na  -0.033267  -0.090284
 Sum of Mulliken charges =  -0.00000   1.00000

 Dipole moment (field-independent basis, Debye):
    X=              0.3221    Y=              0.3660    Z=              0.1018  Tot=              0.4981
 Quadrupole moment (field-independent basis, Debye-Ang):
   XX=            -55.2179   YY=            -60.2880   ZZ=            -76.5787
   XY=              0.5464   XZ=              0.4477   YZ=              1.2220

 Normal termination of Gaussian 16 at Fri Dec  8 06:17:28 2023.
