 Gaussian 16, Revision B.01,
 Gaussian 16:  ES64L-G16RevB.01 20-Dec-2017

 -------------------------
 #P B3LYP/6-311+g(d) force
 -------------------------

 -----
 DPGEN
 -----
 Symbolic Z-matrix:
 Charge =  0 Multiplicity = 2

                         Standard orientation:
 ---------------------------------------------------------------------
 Center     Atomic      Atomic             Coordinates (Angstroms)
 Number     Number       Type             X           Y           Z
 ---------------------------------------------------------------------
      1         11           0        0.860057   -1.149410   -0.743392
      2         11           0        6.050587   -0.378359   -0.805581
      3         11           0        3.224533    0.782636    0.794681
      4         11           0       -0.060666    2.247468    0.250441
      5         11           0       -2.371298   -0.566004   -0.875318
      6         11           0       -1.456475   -1.315294    1.984440
      7         11           0       -6.246739    0.378964   -0.605270
 ---------------------------------------------------------------------

 SCF Done:  E(UB3LYP) =  -1136.09977254     A.U. after   28 cycles

 The electronic state is 2-A.
 Alpha  occ. eigenvalues --  -38.46796 -38.45713 -38.44452 -38.44154 -38.44025
 Alpha  occ. eigenvalues --  -38.43676 -38.43623  -2.22610  -2.21569  -2.20321
 Alpha  occ. eigenvalues --   -2.19997  -2.19776  -2.19506  -2.19361  -1.16284
 Alpha  occ. eigenvalues --   -1.16261  -1.16218  -1.15284  -1.15209  -1.15194
 Alpha  occ. eigenvalues --   -1.14039  -1.13995  -1.13931  -1.13659  -1.13633
 Alpha  occ. eigenvalues --   -1.13600  -1.13430  -1.13428  -1.13384  -1.13203
 Alpha  occ. eigenvalues --   -1.13192  -1.13111  -1.13040  -1.13038  -1.12997
 Alpha  occ. eigenvalues --   -0.18017  -0.13453  -0.11422  -0.11058
 Alpha virt. eigenvalues --   -0.07707  -0.06556  -0.04204  -0.03575  -0.02985
 Alpha virt. eigenvalues --   -0.02670  -0.02192  -0.01796  -0.01547  -0.01206
 Alpha virt. eigenvalues --   -0.00573  -0.00080   0.00175   0.00236   0.00302

  Beta  occ. eigenvalues --  -38.46755 -38.45701 -38.44456 -38.44063 -38.43953
  Beta  occ. eigenvalues --  -38.43666 -38.43655  -2.22537  -2.21550  -2.20333
  Beta  occ. eigenvalues --   -2.19828  -2.19642  -2.19489  -2.19422  -1.16241
  Beta  occ. eigenvalues --   -1.16193  -1.16173  -1.15273  -1.15189  -1.15162
  Beta  occ. eigenvalues --   -1.14054  -1.13981  -1.13928  -1.13543  -1.13513
  Beta  occ. eigenvalues --   -1.13495  -1.13339  -1.13337  -1.13296  -1.13192
  Beta  occ. eigenvalues --   -1.13179  -1.13108  -1.13082  -1.13079  -1.13027
  Beta  occ. eigenvalues --   -0.17472  -0.13306  -0.10536
  Beta virt. eigenvalues --   -0.07904  -0.07456  -0.06148  -0.04038  -0.03140
  Beta virt. eigenvalues --   -0.02625  -0.02294  -0.01808  -0.01561  -0.01217
  Beta virt. eigenvalues --   -0.01069  -0.00392   0.00122   0.00214   0.00318

 Mulliken charges and spin densities:
               1          2
     1  Na   0.312440   0.667797
     2  Na   0.029447  -0.140330
     3  Na  -0.101575  -0.097881
     4  Na  -0.066388   0.464393
     5  Na  -0.571058  -0.234545
     6  Na   0.189964   0.063847
     7  Na   0.207170   0.276719
 Sum of Mulliken charges =  -0.00000   1.00000

 Dipole moment (field-independent basis, Debye):
    X=             -0.0682    Y=             -0.6595    Z=              1.3419  Tot=              1.4968
 Quadrupole moment (field-independent basis, Debye-Ang):
   XX=            -85.2924   YY=            -72.9867   ZZ=            -60.0856
   XY=             -2.5023   XZ=             -5.9457   YZ=              0.7419

 Normal termination of Gaussian 16 at Tue Nov 28 23:52:46 2023.
