 Gaussian 16, Revision B.01,
 Gaussian 16:  ES64L-G16RevB.01 20-Dec-2017

 -------------------------
 #P B3LYP/6-311+g(d) force
 -------------------------

 -----
 DPGEN
 -----
 Symbolic Z-matrix:
 Charge =  0 Multiplicity = 2

                         Standard orientation:
 ---------------------------------------------------------------------
 Center     Atomic      Atomic             Coordinates (Angstroms)
 Number     Number       Type             X           Y           Z
 ---------------------------------------------------------------------
      1         11           0        0.438226   -0.093031    2.322693
      2         11           0        2.692236    1.256560    0.169899
      3         11           0       -0.534370    2.063939    0.002138
      4         11           0       -3.432755    0.895814   -1.109612
      5         11           0       -0.054880   -0.924366   -1.126198
      6         11           0       -3.088058   -1.912303    0.610465
      7         11           0        3.979601   -1.286612   -0.869386
 ---------------------------------------------------------------------

 SCF Done:  E(UB3LYP) =  -1136.11758366     A.U. after   26 cycles

 The electronic state is 2-A.
 Alpha  occ. eigenvalues --  -38.45419 -38.44720 -38.44298 -38.44136 -38.43999
 Alpha  occ. eigenvalues --  -38.43108 -38.42618  -2.21256  -2.20568  -2.20110
 Alpha  occ. eigenvalues --   -2.20011  -2.19926  -2.18926  -2.18569  -1.14977
 Alpha  occ. eigenvalues --   -1.14959  -1.14834  -1.14235  -1.14225  -1.14194
 Alpha  occ. eigenvalues --   -1.13778  -1.13754  -1.13744  -1.13677  -1.13667
 Alpha  occ. eigenvalues --   -1.13631  -1.13614  -1.13594  -1.13541  -1.12619
 Alpha  occ. eigenvalues --   -1.12577  -1.12554  -1.12274  -1.12233  -1.12181
 Alpha  occ. eigenvalues --   -0.18433  -0.14198  -0.11448  -0.11005
 Alpha virt. eigenvalues --   -0.06982  -0.05595  -0.04438  -0.03135  -0.02855
 Alpha virt. eigenvalues --   -0.02526  -0.02374  -0.01437  -0.00782  -0.00219
 Alpha virt. eigenvalues --    0.00001   0.00172   0.00399   0.00479   0.00634

  Beta  occ. eigenvalues --  -38.45403 -38.44679 -38.44266 -38.44059 -38.43996
  Beta  occ. eigenvalues --  -38.43115 -38.42595  -2.21232  -2.20493  -2.20052
  Beta  occ. eigenvalues --   -2.19921  -2.19868  -2.18938  -2.18530  -1.14952
  Beta  occ. eigenvalues --   -1.14919  -1.14822  -1.14187  -1.14162  -1.14141
  Beta  occ. eigenvalues --   -1.13737  -1.13710  -1.13700  -1.13626  -1.13603
  Beta  occ. eigenvalues --   -1.13577  -1.13568  -1.13546  -1.13493  -1.12627
  Beta  occ. eigenvalues --   -1.12584  -1.12563  -1.12253  -1.12208  -1.12123
  Beta  occ. eigenvalues --   -0.17786  -0.13959  -0.10912
  Beta virt. eigenvalues --   -0.07543  -0.06798  -0.05098  -0.04008  -0.02844
  Beta virt. eigenvalues --   -0.02776  -0.01879  -0.01874  -0.01121  -0.00504
  Beta virt. eigenvalues --   -0.00152   0.00031   0.00242   0.00517   0.00651

 Mulliken charges and spin densities:
               1          2
     1  Na  -0.117501   0.332878
     2  Na   0.427591   0.052091
     3  Na  -0.343333   0.242441
     4  Na   0.721398  -0.094237
     5  Na  -0.751394   0.321938
     6  Na   0.031977   0.179486
     7  Na   0.031262  -0.034596
 Sum of Mulliken charges =  -0.00000   1.00000

 Dipole moment (field-independent basis, Debye):
    X=             -1.1423    Y=              0.1979    Z=              0.6581  Tot=              1.3331
 Quadrupole moment (field-independent basis, Debye-Ang):
   XX=            -59.8547   YY=            -70.7848   ZZ=            -69.6790
   XY=              1.0019   XZ=              2.5441   YZ=             -3.1048

 Normal termination of Gaussian 16 at Thu Dec  7 06:43:21 2023.
