 Gaussian 16, Revision B.01,
 Gaussian 16:  ES64L-G16RevB.01 20-Dec-2017

 -------------------------
 #P B3LYP/6-311+g(d) force
 -------------------------

 -----
 DPGEN
 -----
 Symbolic Z-matrix:
 Charge =  0 Multiplicity = 2

                         Standard orientation:
 ---------------------------------------------------------------------
 Center     Atomic      Atomic             Coordinates (Angstroms)
 Number     Number       Type             X           Y           Z
 ---------------------------------------------------------------------
      1         11           0        2.967710    0.952874    1.712863
      2         11           0       -2.546167   -2.417995    0.562647
      3         11           0       -1.705118    0.975501   -1.572144
      4         11           0        4.597756   -1.490933   -0.584787
      5         11           0        1.334740   -0.756055   -0.671964
      6         11           0       -4.723788   -0.070452    0.580829
      7         11           0        0.074866    2.807060   -0.027444
 ---------------------------------------------------------------------

 SCF Done:  E(UB3LYP) =  -1136.11506050     A.U. after   24 cycles

 The electronic state is 2-A.
 Alpha  occ. eigenvalues --  -38.44876 -38.44535 -38.44379 -38.44131 -38.43723
 Alpha  occ. eigenvalues --  -38.43589 -38.43212  -2.20646  -2.20319  -2.20189
 Alpha  occ. eigenvalues --   -2.19956  -2.19595  -2.19466  -2.19053  -1.14325
 Alpha  occ. eigenvalues --   -1.14314  -1.14299  -1.13993  -1.13982  -1.13944
 Alpha  occ. eigenvalues --   -1.13844  -1.13834  -1.13811  -1.13639  -1.13611
 Alpha  occ. eigenvalues --   -1.13547  -1.13315  -1.13262  -1.13216  -1.13171
 Alpha  occ. eigenvalues --   -1.13136  -1.13061  -1.12721  -1.12704  -1.12692
 Alpha  occ. eigenvalues --   -0.16860  -0.14223  -0.11788  -0.10289
 Alpha virt. eigenvalues --   -0.07256  -0.04926  -0.04622  -0.03873  -0.02810
 Alpha virt. eigenvalues --   -0.02578  -0.01891  -0.01478  -0.01038  -0.00721
 Alpha virt. eigenvalues --   -0.00141  -0.00033   0.00299   0.00418   0.00570

  Beta  occ. eigenvalues --  -38.44891 -38.44522 -38.44339 -38.44057 -38.43706
  Beta  occ. eigenvalues --  -38.43545 -38.43209  -2.20677  -2.20296  -2.20113
  Beta  occ. eigenvalues --   -2.19819  -2.19565  -2.19389  -2.19049  -1.14349
  Beta  occ. eigenvalues --   -1.14326  -1.14310  -1.13974  -1.13959  -1.13930
  Beta  occ. eigenvalues --   -1.13790  -1.13781  -1.13766  -1.13548  -1.13520
  Beta  occ. eigenvalues --   -1.13443  -1.13305  -1.13221  -1.13199  -1.13118
  Beta  occ. eigenvalues --   -1.13068  -1.12998  -1.12719  -1.12694  -1.12678
  Beta  occ. eigenvalues --   -0.16267  -0.13844  -0.11670
  Beta virt. eigenvalues --   -0.07001  -0.06739  -0.04728  -0.04091  -0.03690
  Beta virt. eigenvalues --   -0.02657  -0.02121  -0.01419  -0.01274  -0.00694
  Beta virt. eigenvalues --   -0.00548  -0.00098   0.00075   0.00510   0.00565

 Mulliken charges and spin densities:
               1          2
     1  Na   0.321875   0.368533
     2  Na   0.488049  -0.156185
     3  Na   1.641429  -0.073945
     4  Na   0.020091   0.132017
     5  Na  -2.133208   0.477818
     6  Na  -0.251167   0.244586
     7  Na  -0.087069   0.007176
 Sum of Mulliken charges =  -0.00000   1.00000

 Dipole moment (field-independent basis, Debye):
    X=              0.0185    Y=             -0.4775    Z=              0.0395  Tot=              0.4795
 Quadrupole moment (field-independent basis, Debye-Ang):
   XX=            -57.2403   YY=            -67.9838   ZZ=            -71.3333
   XY=             -7.7511   XZ=              0.2535   YZ=             -0.4759

 Normal termination of Gaussian 16 at Mon Dec  4 03:49:21 2023.
