 Gaussian 16, Revision B.01,
 Gaussian 16:  ES64L-G16RevB.01 20-Dec-2017

 -------------------------
 #P B3LYP/6-311+g(d) force
 -------------------------

 -----
 DPGEN
 -----
 Symbolic Z-matrix:
 Charge =  0 Multiplicity = 2

                         Standard orientation:
 ---------------------------------------------------------------------
 Center     Atomic      Atomic             Coordinates (Angstroms)
 Number     Number       Type             X           Y           Z
 ---------------------------------------------------------------------
      1         11           0        0.038748    0.078088   -1.431533
      2         11           0       -1.233331   -2.548348   -0.252977
      3         11           0       -0.345453    2.924583   -0.004167
      4         11           0        3.239288    0.998612   -0.474846
      5         11           0       -3.412357    0.306300   -0.384315
      6         11           0        2.018026   -2.092898    0.320996
      7         11           0       -0.304921    0.333663    2.226843
 ---------------------------------------------------------------------

 SCF Done:  E(UB3LYP) =  -1136.13383096     A.U. after   19 cycles

 The electronic state is 2-A.
 Alpha  occ. eigenvalues --  -38.44599 -38.44215 -38.43771 -38.43539 -38.43370
 Alpha  occ. eigenvalues --  -38.43181 -38.43171  -2.20382  -2.20016  -2.19631
 Alpha  occ. eigenvalues --   -2.19370  -2.19234  -2.19182  -2.19047  -1.14058
 Alpha  occ. eigenvalues --   -1.14032  -1.14017  -1.13690  -1.13676  -1.13648
 Alpha  occ. eigenvalues --   -1.13291  -1.13256  -1.13250  -1.13090  -1.13038
 Alpha  occ. eigenvalues --   -1.12980  -1.12949  -1.12895  -1.12885  -1.12880
 Alpha  occ. eigenvalues --   -1.12851  -1.12787  -1.12709  -1.12696  -1.12661
 Alpha  occ. eigenvalues --   -0.18387  -0.12938  -0.12326  -0.10749
 Alpha virt. eigenvalues --   -0.06174  -0.04894  -0.04590  -0.03108  -0.02854
 Alpha virt. eigenvalues --   -0.02585  -0.01994  -0.01053  -0.00543  -0.00226
 Alpha virt. eigenvalues --   -0.00063   0.00287   0.00780   0.00801   0.00888

  Beta  occ. eigenvalues --  -38.44589 -38.44205 -38.43663 -38.43534 -38.43364
  Beta  occ. eigenvalues --  -38.43167 -38.43138  -2.20366  -2.19998  -2.19431
  Beta  occ. eigenvalues --   -2.19365  -2.19226  -2.19106  -2.19042  -1.14036
  Beta  occ. eigenvalues --   -1.14021  -1.14007  -1.13668  -1.13664  -1.13638
  Beta  occ. eigenvalues --   -1.13163  -1.13120  -1.13111  -1.13078  -1.13007
  Beta  occ. eigenvalues --   -1.12980  -1.12935  -1.12886  -1.12860  -1.12849
  Beta  occ. eigenvalues --   -1.12799  -1.12735  -1.12686  -1.12682  -1.12650
  Beta  occ. eigenvalues --   -0.17705  -0.12691  -0.12088
  Beta virt. eigenvalues --   -0.06873  -0.06081  -0.04830  -0.04545  -0.02423
  Beta virt. eigenvalues --   -0.02105  -0.01873  -0.01542  -0.00987  -0.00553
  Beta virt. eigenvalues --   -0.00250   0.00100   0.00339   0.00801   0.00855

 Mulliken charges and spin densities:
               1          2
     1  Na  -0.366950   0.135011
     2  Na   0.190552   0.063629
     3  Na   0.129846  -0.020916
     4  Na   0.182234   0.044288
     5  Na   0.159400   0.002476
     6  Na   0.172702   0.126558
     7  Na  -0.467784   0.648955
 Sum of Mulliken charges =  -0.00000   1.00000

 Dipole moment (field-independent basis, Debye):
    X=             -0.2277    Y=              0.3198    Z=              0.1744  Tot=              0.4296
 Quadrupole moment (field-independent basis, Debye-Ang):
   XX=            -53.6499   YY=            -64.7611   ZZ=            -74.3293
   XY=             -0.0673   XZ=              0.5528   YZ=             -1.0426

 Normal termination of Gaussian 16 at Thu Dec  7 17:03:34 2023.
