 Gaussian 16, Revision B.01,
 Gaussian 16:  ES64L-G16RevB.01 20-Dec-2017

 -------------------------
 #P B3LYP/6-311+g(d) force
 -------------------------

 -----
 DPGEN
 -----
 Symbolic Z-matrix:
 Charge =  0 Multiplicity = 2

                         Standard orientation:
 ---------------------------------------------------------------------
 Center     Atomic      Atomic             Coordinates (Angstroms)
 Number     Number       Type             X           Y           Z
 ---------------------------------------------------------------------
      1         11           0       -1.985579   -2.958336   -0.050920
      2         11           0       -0.002653    3.006532   -0.668297
      3         11           0       -3.184942    2.561581    0.872875
      4         11           0       -4.542439   -0.752166   -0.536511
      5         11           0        1.277979   -2.514026    0.340883
      6         11           0        5.644952    0.089578   -0.109647
      7         11           0        2.792682    0.566837    0.151618
 ---------------------------------------------------------------------

 SCF Done:  E(UB3LYP) =  -1136.10861912     A.U. after   21 cycles

 The electronic state is 2-A.
 Alpha  occ. eigenvalues --  -38.45063 -38.44862 -38.44618 -38.44598 -38.44383
 Alpha  occ. eigenvalues --  -38.44108 -38.43761  -2.20908  -2.20590  -2.20405
 Alpha  occ. eigenvalues --   -2.20403  -2.20152  -2.19967  -2.19544  -1.14619
 Alpha  occ. eigenvalues --   -1.14523  -1.14515  -1.14280  -1.14260  -1.14239
 Alpha  occ. eigenvalues --   -1.14065  -1.14061  -1.14061  -1.14048  -1.14029
 Alpha  occ. eigenvalues --   -1.14024  -1.13814  -1.13806  -1.13771  -1.13657
 Alpha  occ. eigenvalues --   -1.13624  -1.13608  -1.13224  -1.13218  -1.13202
 Alpha  occ. eigenvalues --   -0.15930  -0.14116  -0.12643  -0.11308
 Alpha virt. eigenvalues --   -0.06897  -0.05965  -0.04077  -0.03346  -0.03062
 Alpha virt. eigenvalues --   -0.02597  -0.02406  -0.01632  -0.01005  -0.00849
 Alpha virt. eigenvalues --   -0.00756  -0.00192   0.00036   0.00246   0.00584

  Beta  occ. eigenvalues --  -38.44975 -38.44884 -38.44554 -38.44544 -38.44336
  Beta  occ. eigenvalues --  -38.44106 -38.43772  -2.20745  -2.20634  -2.20305
  Beta  occ. eigenvalues --   -2.20283  -2.20064  -2.19973  -2.19569  -1.14513
  Beta  occ. eigenvalues --   -1.14412  -1.14404  -1.14312  -1.14290  -1.14252
  Beta  occ. eigenvalues --   -1.13997  -1.13994  -1.13978  -1.13972  -1.13964
  Beta  occ. eigenvalues --   -1.13946  -1.13754  -1.13744  -1.13719  -1.13637
  Beta  occ. eigenvalues --   -1.13624  -1.13592  -1.13245  -1.13237  -1.13185
  Beta  occ. eigenvalues --   -0.15332  -0.13436  -0.12251
  Beta virt. eigenvalues --   -0.08146  -0.06662  -0.05295  -0.03897  -0.03035
  Beta virt. eigenvalues --   -0.02842  -0.02300  -0.02113  -0.01375  -0.00806
  Beta virt. eigenvalues --   -0.00559  -0.00469   0.00004   0.00249   0.00344

 Mulliken charges and spin densities:
               1          2
     1  Na   0.128577  -0.099788
     2  Na   0.278506   0.101329
     3  Na   0.028385  -0.110516
     4  Na  -0.252799   0.356280
     5  Na   0.413855   0.224696
     6  Na  -0.027018   0.176419
     7  Na  -0.569506   0.351581
 Sum of Mulliken charges =  -0.00000   1.00000

 Dipole moment (field-independent basis, Debye):
    X=              0.5999    Y=              0.1439    Z=             -0.0320  Tot=              0.6177
 Quadrupole moment (field-independent basis, Debye-Ang):
   XX=            -53.6162   YY=            -70.4104   ZZ=            -71.3293
   XY=             -3.4250   XZ=             -1.4452   YZ=              0.3438

 Normal termination of Gaussian 16 at Sun Dec  3 23:39:02 2023.
