 Gaussian 16, Revision B.01,
 Gaussian 16:  ES64L-G16RevB.01 20-Dec-2017

 -------------------------
 #P B3LYP/6-311+g(d) force
 -------------------------

 -----
 DPGEN
 -----
 Symbolic Z-matrix:
 Charge =  0 Multiplicity = 2

                         Standard orientation:
 ---------------------------------------------------------------------
 Center     Atomic      Atomic             Coordinates (Angstroms)
 Number     Number       Type             X           Y           Z
 ---------------------------------------------------------------------
      1         11           0        2.525447    1.275759   -0.235669
      2         11           0       -0.458195    2.696685   -0.102229
      3         11           0        3.947667   -1.472766   -0.134999
      4         11           0       -0.742268   -0.475679   -1.700063
      5         11           0       -2.547582   -2.481853   -0.077411
      6         11           0       -2.983070    0.915190    0.295720
      7         11           0        0.258001   -0.457336    1.954651
 ---------------------------------------------------------------------

 SCF Done:  E(UB3LYP) =  -1136.12196236     A.U. after   23 cycles

 The electronic state is 2-A.
 Alpha  occ. eigenvalues --  -38.45031 -38.44825 -38.44082 -38.44060 -38.43808
 Alpha  occ. eigenvalues --  -38.43519 -38.42481  -2.20914  -2.20605  -2.19972
 Alpha  occ. eigenvalues --   -2.19917  -2.19690  -2.19361  -2.18380  -1.14611
 Alpha  occ. eigenvalues --   -1.14573  -1.14545  -1.14301  -1.14259  -1.14242
 Alpha  occ. eigenvalues --   -1.13654  -1.13618  -1.13605  -1.13590  -1.13549
 Alpha  occ. eigenvalues --   -1.13526  -1.13359  -1.13355  -1.13335  -1.13038
 Alpha  occ. eigenvalues --   -1.13013  -1.12999  -1.12074  -1.12039  -1.12014
 Alpha  occ. eigenvalues --   -0.18343  -0.13866  -0.11775  -0.10508
 Alpha virt. eigenvalues --   -0.07013  -0.05506  -0.03940  -0.03602  -0.02606
 Alpha virt. eigenvalues --   -0.02376  -0.02311  -0.01431  -0.00829  -0.00214
 Alpha virt. eigenvalues --   -0.00056   0.00170   0.00455   0.00624   0.00694

  Beta  occ. eigenvalues --  -38.45023 -38.44831 -38.44002 -38.43984 -38.43801
  Beta  occ. eigenvalues --  -38.43517 -38.42475  -2.20903  -2.20617  -2.19866
  Beta  occ. eigenvalues --   -2.19738  -2.19679  -2.19361  -2.18373  -1.14604
  Beta  occ. eigenvalues --   -1.14545  -1.14534  -1.14309  -1.14264  -1.14248
  Beta  occ. eigenvalues --   -1.13578  -1.13541  -1.13526  -1.13470  -1.13423
  Beta  occ. eigenvalues --   -1.13398  -1.13350  -1.13338  -1.13321  -1.13033
  Beta  occ. eigenvalues --   -1.13015  -1.12981  -1.12072  -1.12037  -1.11982
  Beta  occ. eigenvalues --   -0.17615  -0.13716  -0.11585
  Beta virt. eigenvalues --   -0.06869  -0.06617  -0.05415  -0.03941  -0.02908
  Beta virt. eigenvalues --   -0.02313  -0.01803  -0.01534  -0.01242  -0.00826
  Beta virt. eigenvalues --   -0.00079   0.00041   0.00212   0.00657   0.00699

 Mulliken charges and spin densities:
               1          2
     1  Na  -0.079728   0.100726
     2  Na  -0.068514   0.015815
     3  Na   0.321288  -0.082657
     4  Na  -0.418508   0.311652
     5  Na   0.280901  -0.015226
     6  Na   0.468333   0.165049
     7  Na  -0.503772   0.504641
 Sum of Mulliken charges =  -0.00000   1.00000

 Dipole moment (field-independent basis, Debye):
    X=             -0.0591    Y=             -0.5530    Z=              0.1572  Tot=              0.5780
 Quadrupole moment (field-independent basis, Debye-Ang):
   XX=            -52.9964   YY=            -66.3375   ZZ=            -75.5028
   XY=             -3.1600   XZ=             -2.4012   YZ=             -0.0070

 Normal termination of Gaussian 16 at Thu Dec  7 08:27:18 2023.
