 Gaussian 16, Revision B.01,
 Gaussian 16:  ES64L-G16RevB.01 20-Dec-2017

 -------------------------
 #P B3LYP/6-311+g(d) force
 -------------------------

 -----
 DPGEN
 -----
 Symbolic Z-matrix:
 Charge =  0 Multiplicity = 2

                         Standard orientation:
 ---------------------------------------------------------------------
 Center     Atomic      Atomic             Coordinates (Angstroms)
 Number     Number       Type             X           Y           Z
 ---------------------------------------------------------------------
      1         11           0        1.874444   -0.024283    1.815372
      2         11           0        0.734500   -0.941707   -1.495842
      3         11           0        3.753256   -0.843097   -0.819957
      4         11           0        1.240746    1.950350   -0.139862
      5         11           0       -2.420306    2.046083   -0.522123
      6         11           0       -1.229602   -0.812518    1.570914
      7         11           0       -3.953037   -1.374828   -0.408502
 ---------------------------------------------------------------------

 SCF Done:  E(UB3LYP) =  -1136.11209435     A.U. after   30 cycles

 The electronic state is 2-A.
 Alpha  occ. eigenvalues --  -38.44946 -38.44662 -38.44197 -38.44092 -38.44014
 Alpha  occ. eigenvalues --  -38.43945 -38.43299  -2.20832  -2.20454  -2.20186
 Alpha  occ. eigenvalues --   -2.19912  -2.19874  -2.19808  -2.19239  -1.14514
 Alpha  occ. eigenvalues --   -1.14513  -1.14456  -1.14135  -1.14100  -1.14067
 Alpha  occ. eigenvalues --   -1.13930  -1.13875  -1.13771  -1.13611  -1.13571
 Alpha  occ. eigenvalues --   -1.13542  -1.13535  -1.13524  -1.13483  -1.13479
 Alpha  occ. eigenvalues --   -1.13459  -1.13446  -1.12929  -1.12926  -1.12812
 Alpha  occ. eigenvalues --   -0.18741  -0.14216  -0.11608  -0.10879
 Alpha virt. eigenvalues --   -0.07086  -0.05612  -0.04470  -0.03245  -0.02742
 Alpha virt. eigenvalues --   -0.02502  -0.02210  -0.01445  -0.00932  -0.00153
 Alpha virt. eigenvalues --   -0.00014   0.00262   0.00320   0.00483   0.00675

  Beta  occ. eigenvalues --  -38.44921 -38.44619 -38.44140 -38.44092 -38.43947
  Beta  occ. eigenvalues --  -38.43946 -38.43287  -2.20787  -2.20373  -2.20083
  Beta  occ. eigenvalues --   -2.19875  -2.19812  -2.19793  -2.19220  -1.14491
  Beta  occ. eigenvalues --   -1.14455  -1.14428  -1.14075  -1.14050  -1.14008
  Beta  occ. eigenvalues --   -1.13869  -1.13780  -1.13705  -1.13551  -1.13537
  Beta  occ. eigenvalues --   -1.13531  -1.13519  -1.13472  -1.13462  -1.13458
  Beta  occ. eigenvalues --   -1.13447  -1.13402  -1.12917  -1.12890  -1.12796
  Beta  occ. eigenvalues --   -0.18066  -0.14032  -0.10610
  Beta virt. eigenvalues --   -0.07629  -0.06916  -0.05328  -0.04003  -0.02873
  Beta virt. eigenvalues --   -0.02586  -0.01988  -0.01698  -0.01196  -0.00516
  Beta virt. eigenvalues --   -0.00083   0.00024   0.00287   0.00473   0.00553

 Mulliken charges and spin densities:
               1          2
     1  Na   0.363040   0.122242
     2  Na  -0.737200   0.296265
     3  Na   0.504390  -0.179845
     4  Na  -0.220447   0.220124
     5  Na  -0.098198   0.213019
     6  Na  -0.249177   0.234770
     7  Na   0.437592   0.093425
 Sum of Mulliken charges =  -0.00000   1.00000

 Dipole moment (field-independent basis, Debye):
    X=             -0.0701    Y=              0.3741    Z=             -0.0768  Tot=              0.3883
 Quadrupole moment (field-independent basis, Debye-Ang):
   XX=            -51.7585   YY=            -74.6950   ZZ=            -71.3696
   XY=             -0.1340   XZ=              4.3924   YZ=             -2.7943

 Normal termination of Gaussian 16 at Tue Dec  5 15:07:50 2023.
