 Gaussian 16, Revision B.01,
 Gaussian 16:  ES64L-G16RevB.01 20-Dec-2017

 -------------------------
 #P B3LYP/6-311+g(d) force
 -------------------------

 -----
 DPGEN
 -----
 Symbolic Z-matrix:
 Charge =  0 Multiplicity = 2

                         Standard orientation:
 ---------------------------------------------------------------------
 Center     Atomic      Atomic             Coordinates (Angstroms)
 Number     Number       Type             X           Y           Z
 ---------------------------------------------------------------------
      1         11           0        1.170071   -0.473841   -1.712683
      2         11           0       -3.689471    0.123327    1.160281
      3         11           0        2.242806    2.192111    0.337766
      4         11           0        0.345503   -1.021573    1.892738
      5         11           0        3.853150   -1.142572    0.227828
      6         11           0       -2.447676   -1.360299   -1.217889
      7         11           0       -1.474383    1.682846   -0.688041
 ---------------------------------------------------------------------

 SCF Done:  E(UB3LYP) =  -1136.11491782     A.U. after   29 cycles

 The electronic state is 2-A.
 Alpha  occ. eigenvalues --  -38.45244 -38.44671 -38.44624 -38.44614 -38.43888
 Alpha  occ. eigenvalues --  -38.43624 -38.42890  -2.20989  -2.20509  -2.20485
 Alpha  occ. eigenvalues --   -2.20463  -2.19701  -2.19517  -2.18777  -1.14690
 Alpha  occ. eigenvalues --   -1.14675  -1.14584  -1.14277  -1.14171  -1.14155
 Alpha  occ. eigenvalues --   -1.14154  -1.14136  -1.14122  -1.14107  -1.14090
 Alpha  occ. eigenvalues --   -1.14054  -1.13380  -1.13350  -1.13317  -1.13219
 Alpha  occ. eigenvalues --   -1.13153  -1.13131  -1.12473  -1.12459  -1.12397
 Alpha  occ. eigenvalues --   -0.18174  -0.14582  -0.11080  -0.10493
 Alpha virt. eigenvalues --   -0.07345  -0.05741  -0.04872  -0.03061  -0.02935
 Alpha virt. eigenvalues --   -0.02321  -0.02214  -0.01278  -0.01196  -0.00453
 Alpha virt. eigenvalues --    0.00049   0.00106   0.00232   0.00476   0.00590

  Beta  occ. eigenvalues --  -38.45229 -38.44674 -38.44600 -38.44574 -38.43851
  Beta  occ. eigenvalues --  -38.43573 -38.42884  -2.20962  -2.20469  -2.20444
  Beta  occ. eigenvalues --   -2.20431  -2.19631  -2.19424  -2.18769  -1.14669
  Beta  occ. eigenvalues --   -1.14646  -1.14566  -1.14236  -1.14151  -1.14124
  Beta  occ. eigenvalues --   -1.14122  -1.14110  -1.14094  -1.14094  -1.14070
  Beta  occ. eigenvalues --   -1.14003  -1.13327  -1.13306  -1.13271  -1.13158
  Beta  occ. eigenvalues --   -1.13071  -1.13065  -1.12470  -1.12419  -1.12397
  Beta  occ. eigenvalues --   -0.17512  -0.14407  -0.10320
  Beta virt. eigenvalues --   -0.07355  -0.07106  -0.05226  -0.04545  -0.02838
  Beta virt. eigenvalues --   -0.02772  -0.01841  -0.01548  -0.01099  -0.00766
  Beta virt. eigenvalues --   -0.00287   0.00079   0.00228   0.00283   0.00548

 Mulliken charges and spin densities:
               1          2
     1  Na  -0.340092   0.300166
     2  Na   0.566642   0.112563
     3  Na   0.057366   0.128915
     4  Na  -0.560330   0.179741
     5  Na   0.621200  -0.051326
     6  Na   0.232289   0.007028
     7  Na  -0.577075   0.322913
 Sum of Mulliken charges =  -0.00000   1.00000

 Dipole moment (field-independent basis, Debye):
    X=              0.0757    Y=             -0.1406    Z=              0.2042  Tot=              0.2592
 Quadrupole moment (field-independent basis, Debye-Ang):
   XX=            -48.2395   YY=            -76.1560   ZZ=            -72.0751
   XY=              0.9627   XZ=             -0.7577   YZ=              6.4170

 Normal termination of Gaussian 16 at Fri Dec  8 04:32:28 2023.
