 Gaussian 16, Revision B.01,
 Gaussian 16:  ES64L-G16RevB.01 20-Dec-2017

 -------------------------
 #P B3LYP/6-311+g(d) force
 -------------------------

 -----
 DPGEN
 -----
 Symbolic Z-matrix:
 Charge =  0 Multiplicity = 2

                         Standard orientation:
 ---------------------------------------------------------------------
 Center     Atomic      Atomic             Coordinates (Angstroms)
 Number     Number       Type             X           Y           Z
 ---------------------------------------------------------------------
      1         11           0        0.439117   -0.045692   -1.612850
      2         11           0       -3.159569    0.078717   -0.144476
      3         11           0        0.283716   -0.431091    2.075368
      4         11           0        2.017085    2.182039   -0.494661
      5         11           0        2.743262   -1.616896    0.212948
      6         11           0       -1.203771   -2.837970   -0.427143
      7         11           0       -1.119840    2.670892    0.390812
 ---------------------------------------------------------------------

 SCF Done:  E(UB3LYP) =  -1136.13453629     A.U. after   19 cycles

 The electronic state is 2-A.
 Alpha  occ. eigenvalues --  -38.44062 -38.43853 -38.43837 -38.43814 -38.43698
 Alpha  occ. eigenvalues --  -38.43324 -38.43307  -2.19894  -2.19711  -2.19667
 Alpha  occ. eigenvalues --   -2.19625  -2.19584  -2.19310  -2.19164  -1.13587
 Alpha  occ. eigenvalues --   -1.13566  -1.13521  -1.13379  -1.13371  -1.13349
 Alpha  occ. eigenvalues --   -1.13345  -1.13329  -1.13324  -1.13304  -1.13300
 Alpha  occ. eigenvalues --   -1.13291  -1.13254  -1.13228  -1.13196  -1.12970
 Alpha  occ. eigenvalues --   -1.12928  -1.12922  -1.12828  -1.12825  -1.12807
 Alpha  occ. eigenvalues --   -0.18481  -0.12825  -0.12670  -0.10875
 Alpha virt. eigenvalues --   -0.05714  -0.05035  -0.04811  -0.03180  -0.03081
 Alpha virt. eigenvalues --   -0.02616  -0.01429  -0.01260  -0.00402  -0.00308
 Alpha virt. eigenvalues --   -0.00010   0.00346   0.00814   0.00867   0.00901

  Beta  occ. eigenvalues --  -38.44054 -38.43842 -38.43815 -38.43745 -38.43683
  Beta  occ. eigenvalues --  -38.43301 -38.43264  -2.19883  -2.19648  -2.19629
  Beta  occ. eigenvalues --   -2.19561  -2.19540  -2.19199  -2.19154  -1.13571
  Beta  occ. eigenvalues --   -1.13537  -1.13516  -1.13346  -1.13331  -1.13317
  Beta  occ. eigenvalues --   -1.13307  -1.13292  -1.13283  -1.13257  -1.13251
  Beta  occ. eigenvalues --   -1.13218  -1.13205  -1.13202  -1.13179  -1.12895
  Beta  occ. eigenvalues --   -1.12853  -1.12845  -1.12819  -1.12815  -1.12788
  Beta  occ. eigenvalues --   -0.17788  -0.12574  -0.12411
  Beta virt. eigenvalues --   -0.07006  -0.05685  -0.04934  -0.04744  -0.02420
  Beta virt. eigenvalues --   -0.02359  -0.01603  -0.01349  -0.01161  -0.00436
  Beta virt. eigenvalues --   -0.00311   0.00126   0.00391   0.00823   0.00895

 Mulliken charges and spin densities:
               1          2
     1  Na  -0.147920   0.335747
     2  Na  -0.091827  -0.007294
     3  Na  -0.379752   0.688269
     4  Na   0.388627   0.047349
     5  Na   0.158866  -0.069372
     6  Na   0.096553  -0.040571
     7  Na  -0.024548   0.045872
 Sum of Mulliken charges =  -0.00000   1.00000

 Dipole moment (field-independent basis, Debye):
    X=              0.2202    Y=             -0.3673    Z=              0.1621  Tot=              0.4579
 Quadrupole moment (field-independent basis, Debye-Ang):
   XX=            -58.8509   YY=            -61.5820   ZZ=            -73.9117
   XY=             -0.3888   XZ=              0.0073   YZ=              0.9083

 Normal termination of Gaussian 16 at Thu Dec  7 14:07:12 2023.
