 Gaussian 16, Revision B.01,
 Gaussian 16:  ES64L-G16RevB.01 20-Dec-2017

 -------------------------
 #P B3LYP/6-311+g(d) force
 -------------------------

 -----
 DPGEN
 -----
 Symbolic Z-matrix:
 Charge =  0 Multiplicity = 2

                         Standard orientation:
 ---------------------------------------------------------------------
 Center     Atomic      Atomic             Coordinates (Angstroms)
 Number     Number       Type             X           Y           Z
 ---------------------------------------------------------------------
      1         11           0        1.294230    2.666905    0.624306
      2         11           0       -2.698319   -1.117866    0.055242
      3         11           0        0.517674    0.319762   -1.607883
      4         11           0        3.098560   -0.677612   -0.264085
      5         11           0        0.090855   -2.872828   -0.326734
      6         11           0       -2.115368    2.052833   -0.677703
      7         11           0       -0.187632   -0.371194    2.196856
 ---------------------------------------------------------------------

 SCF Done:  E(UB3LYP) =  -1136.13687781     A.U. after   18 cycles

 The electronic state is 2-A.
 Alpha  occ. eigenvalues --  -38.44023 -38.43913 -38.43841 -38.43497 -38.43424
 Alpha  occ. eigenvalues --  -38.43422 -38.43220  -2.19892  -2.19746  -2.19665
 Alpha  occ. eigenvalues --   -2.19352  -2.19298  -2.19276  -2.19207  -1.13551
 Alpha  occ. eigenvalues --   -1.13526  -1.13511  -1.13474  -1.13395  -1.13367
 Alpha  occ. eigenvalues --   -1.13340  -1.13332  -1.13291  -1.13059  -1.13020
 Alpha  occ. eigenvalues --   -1.13011  -1.12999  -1.12975  -1.12961  -1.12926
 Alpha  occ. eigenvalues --   -1.12914  -1.12879  -1.12873  -1.12837  -1.12819
 Alpha  occ. eigenvalues --   -0.18572  -0.12825  -0.12559  -0.11128
 Alpha virt. eigenvalues --   -0.05444  -0.04991  -0.04709  -0.03385  -0.03070
 Alpha virt. eigenvalues --   -0.02825  -0.01311  -0.01112  -0.00307  -0.00149
 Alpha virt. eigenvalues --    0.00002   0.00365   0.00845   0.00880   0.00908

  Beta  occ. eigenvalues --  -38.43926 -38.43909 -38.43826 -38.43492 -38.43419
  Beta  occ. eigenvalues --  -38.43409 -38.43168  -2.19741  -2.19713  -2.19638
  Beta  occ. eigenvalues --   -2.19345  -2.19295  -2.19251  -2.19113  -1.13463
  Beta  occ. eigenvalues --   -1.13434  -1.13405  -1.13384  -1.13379  -1.13361
  Beta  occ. eigenvalues --   -1.13324  -1.13293  -1.13275  -1.13055  -1.13006
  Beta  occ. eigenvalues --   -1.12998  -1.12987  -1.12950  -1.12932  -1.12924
  Beta  occ. eigenvalues --   -1.12890  -1.12867  -1.12811  -1.12773  -1.12753
  Beta  occ. eigenvalues --   -0.17855  -0.12599  -0.12307
  Beta virt. eigenvalues --   -0.07215  -0.05413  -0.04862  -0.04653  -0.02623
  Beta virt. eigenvalues --   -0.02376  -0.01779  -0.01230  -0.01014  -0.00273
  Beta virt. eigenvalues --   -0.00181   0.00118   0.00404   0.00867   0.00914

 Mulliken charges and spin densities:
               1          2
     1  Na  -0.040308   0.131609
     2  Na   0.143722   0.060874
     3  Na  -0.103706   0.284123
     4  Na   0.184816  -0.045866
     5  Na   0.086621  -0.047675
     6  Na   0.185446   0.000005
     7  Na  -0.456591   0.616930
 Sum of Mulliken charges =  -0.00000   1.00000

 Dipole moment (field-independent basis, Debye):
    X=              0.3270    Y=              0.0026    Z=              0.2822  Tot=              0.4319
 Quadrupole moment (field-independent basis, Debye-Ang):
   XX=            -60.1223   YY=            -62.4914   ZZ=            -72.0480
   XY=              0.0016   XZ=              1.5675   YZ=              1.3737

 Normal termination of Gaussian 16 at Wed Nov 29 17:10:13 2023.
