 Gaussian 16, Revision B.01,
 Gaussian 16:  ES64L-G16RevB.01 20-Dec-2017

 -------------------------
 #P B3LYP/6-311+g(d) force
 -------------------------

 -----
 DPGEN
 -----
 Symbolic Z-matrix:
 Charge =  0 Multiplicity = 2

                         Standard orientation:
 ---------------------------------------------------------------------
 Center     Atomic      Atomic             Coordinates (Angstroms)
 Number     Number       Type             X           Y           Z
 ---------------------------------------------------------------------
      1         11           0        2.812134   -1.436134   -0.259889
      2         11           0       -3.073425   -0.900077   -0.321276
      3         11           0       -0.241070   -2.556769    0.067687
      4         11           0       -1.989711    2.350808    0.082917
      5         11           0        0.194448    0.137212    2.131766
      6         11           0        2.468944    2.165954   -0.295897
      7         11           0       -0.171320    0.239005   -1.405310
 ---------------------------------------------------------------------

 SCF Done:  E(UB3LYP) =  -1136.13358846     A.U. after   19 cycles

 The electronic state is 2-A.
 Alpha  occ. eigenvalues --  -38.44101 -38.44087 -38.44028 -38.43881 -38.43549
 Alpha  occ. eigenvalues --  -38.43091 -38.42703  -2.19948  -2.19937  -2.19821
 Alpha  occ. eigenvalues --   -2.19720  -2.19432  -2.19118  -2.18637  -1.13631
 Alpha  occ. eigenvalues --   -1.13615  -1.13602  -1.13599  -1.13592  -1.13579
 Alpha  occ. eigenvalues --   -1.13500  -1.13473  -1.13458  -1.13425  -1.13377
 Alpha  occ. eigenvalues --   -1.13341  -1.13105  -1.13050  -1.13044  -1.12825
 Alpha  occ. eigenvalues --   -1.12776  -1.12730  -1.12329  -1.12289  -1.12268
 Alpha  occ. eigenvalues --   -0.18728  -0.13311  -0.12180  -0.10654
 Alpha virt. eigenvalues --   -0.05823  -0.05645  -0.04199  -0.03168  -0.02716
 Alpha virt. eigenvalues --   -0.02451  -0.01779  -0.01319  -0.00531  -0.00150
 Alpha virt. eigenvalues --   -0.00009   0.00310   0.00713   0.00800   0.00920

  Beta  occ. eigenvalues --  -38.44096 -38.44079 -38.44023 -38.43877 -38.43440
  Beta  occ. eigenvalues --  -38.43046 -38.42694  -2.19936  -2.19930  -2.19814
  Beta  occ. eigenvalues --   -2.19715  -2.19233  -2.19038  -2.18625  -1.13620
  Beta  occ. eigenvalues --   -1.13611  -1.13590  -1.13581  -1.13578  -1.13573
  Beta  occ. eigenvalues --   -1.13484  -1.13468  -1.13451  -1.13419  -1.13359
  Beta  occ. eigenvalues --   -1.13337  -1.12973  -1.12910  -1.12902  -1.12766
  Beta  occ. eigenvalues --   -1.12716  -1.12668  -1.12323  -1.12270  -1.12239
  Beta  occ. eigenvalues --   -0.18014  -0.13066  -0.11951
  Beta virt. eigenvalues --   -0.06719  -0.05808  -0.05566  -0.04186  -0.02438
  Beta virt. eigenvalues --   -0.01935  -0.01672  -0.01421  -0.01231  -0.00567
  Beta virt. eigenvalues --   -0.00158   0.00139   0.00359   0.00773   0.00821

 Mulliken charges and spin densities:
               1          2
     1  Na   0.144467   0.018666
     2  Na   0.355040   0.068726
     3  Na   0.381759   0.127594
     4  Na   0.248581   0.012933
     5  Na  -0.583684   0.670223
     6  Na   0.148650   0.003111
     7  Na  -0.694812   0.098747
 Sum of Mulliken charges =  -0.00000   1.00000

 Dipole moment (field-independent basis, Debye):
    X=              0.0485    Y=              0.3211    Z=              0.1693  Tot=              0.3662
 Quadrupole moment (field-independent basis, Debye-Ang):
   XX=            -53.0824   YY=            -64.3504   ZZ=            -75.0502
   XY=             -0.2083   XZ=             -0.4933   YZ=              0.4460

 Normal termination of Gaussian 16 at Thu Dec  7 22:45:18 2023.
