 Gaussian 16, Revision B.01,
 Gaussian 16:  ES64L-G16RevB.01 20-Dec-2017

 -------------------------
 #P B3LYP/6-311+g(d) force
 -------------------------

 -----
 DPGEN
 -----
 Symbolic Z-matrix:
 Charge =  0 Multiplicity = 2

                         Standard orientation:
 ---------------------------------------------------------------------
 Center     Atomic      Atomic             Coordinates (Angstroms)
 Number     Number       Type             X           Y           Z
 ---------------------------------------------------------------------
      1         11           0       -2.850196   -0.214151   -0.487415
      2         11           0       -0.561224    0.040177    2.159429
      3         11           0        0.210564   -0.072402   -2.098166
      4         11           0        2.919708   -1.505927    0.417414
      5         11           0       -0.925071   -2.637284   -0.013927
      6         11           0       -1.160639    2.552778    0.289373
      7         11           0        2.366859    1.836808   -0.266708
 ---------------------------------------------------------------------

 SCF Done:  E(UB3LYP) =  -1136.13503028     A.U. after   20 cycles

 The electronic state is 2-A.
 Alpha  occ. eigenvalues --  -38.44221 -38.44170 -38.44106 -38.43779 -38.43661
 Alpha  occ. eigenvalues --  -38.43129 -38.42918  -2.20113  -2.20055  -2.19882
 Alpha  occ. eigenvalues --   -2.19692  -2.19485  -2.19001  -2.18795  -1.13781
 Alpha  occ. eigenvalues --   -1.13750  -1.13732  -1.13726  -1.13692  -1.13681
 Alpha  occ. eigenvalues --   -1.13558  -1.13537  -1.13526  -1.13374  -1.13356
 Alpha  occ. eigenvalues --   -1.13333  -1.13172  -1.13146  -1.13112  -1.12680
 Alpha  occ. eigenvalues --   -1.12665  -1.12634  -1.12490  -1.12455  -1.12423
 Alpha  occ. eigenvalues --   -0.18572  -0.13015  -0.12124  -0.11502
 Alpha virt. eigenvalues --   -0.05543  -0.05116  -0.04318  -0.03581  -0.03258
 Alpha virt. eigenvalues --   -0.03091  -0.01315  -0.00886  -0.00211  -0.00136
 Alpha virt. eigenvalues --   -0.00033   0.00401   0.00745   0.00785   0.00905

  Beta  occ. eigenvalues --  -38.44134 -38.44102 -38.44089 -38.43767 -38.43659
  Beta  occ. eigenvalues --  -38.43124 -38.42912  -2.19953  -2.19907  -2.19875
  Beta  occ. eigenvalues --   -2.19673  -2.19483  -2.18996  -2.18789  -1.13677
  Beta  occ. eigenvalues --   -1.13634  -1.13630  -1.13618  -1.13582  -1.13575
  Beta  occ. eigenvalues --   -1.13548  -1.13529  -1.13522  -1.13365  -1.13339
  Beta  occ. eigenvalues --   -1.13294  -1.13159  -1.13139  -1.13115  -1.12681
  Beta  occ. eigenvalues --   -1.12640  -1.12624  -1.12479  -1.12440  -1.12413
  Beta  occ. eigenvalues --   -0.17779  -0.12826  -0.11877
  Beta virt. eigenvalues --   -0.07582  -0.05413  -0.05061  -0.04233  -0.02867
  Beta virt. eigenvalues --   -0.02390  -0.02180  -0.01216  -0.00810  -0.00196
  Beta virt. eigenvalues --   -0.00147   0.00059   0.00431   0.00896   0.00917

 Mulliken charges and spin densities:
               1          2
     1  Na   0.482343   0.077617
     2  Na  -0.421683   0.618877
     3  Na  -0.269195   0.478328
     4  Na  -0.056956  -0.041053
     5  Na   0.016935  -0.060653
     6  Na   0.163613  -0.005967
     7  Na   0.084943  -0.067149
 Sum of Mulliken charges =  -0.00000   1.00000

 Dipole moment (field-independent basis, Debye):
    X=              0.2229    Y=             -0.1176    Z=              0.0300  Tot=              0.2538
 Quadrupole moment (field-independent basis, Debye-Ang):
   XX=            -60.2565   YY=            -67.0607   ZZ=            -69.1363
   XY=             -0.4429   XZ=              1.7399   YZ=             -1.0336

 Normal termination of Gaussian 16 at Tue Dec  5 18:49:30 2023.
