 Gaussian 16, Revision B.01,
 Gaussian 16:  ES64L-G16RevB.01 20-Dec-2017

 -------------------------
 #P B3LYP/6-311+g(d) force
 -------------------------

 -----
 DPGEN
 -----
 Symbolic Z-matrix:
 Charge =  0 Multiplicity = 2

                         Standard orientation:
 ---------------------------------------------------------------------
 Center     Atomic      Atomic             Coordinates (Angstroms)
 Number     Number       Type             X           Y           Z
 ---------------------------------------------------------------------
      1         11           0        0.333504   -2.928622   -0.413334
      2         11           0       -2.749599   -3.011841    0.297354
      3         11           0       -3.279164    0.670157    0.817696
      4         11           0       -0.447386    0.679175   -0.985044
      5         11           0        2.828841    0.546390   -1.583714
      6         11           0       -1.446738    4.124842    0.195245
      7         11           0        4.760540   -0.080101    1.671798
 ---------------------------------------------------------------------

 SCF Done:  E(UB3LYP) =  -1136.11357778     A.U. after   21 cycles

 The electronic state is 2-A.
 Alpha  occ. eigenvalues --  -38.45381 -38.44843 -38.44658 -38.44192 -38.43907
 Alpha  occ. eigenvalues --  -38.43751 -38.43734  -2.21109  -2.20634  -2.20446
 Alpha  occ. eigenvalues --   -2.19976  -2.19715  -2.19615  -2.19504  -1.14789
 Alpha  occ. eigenvalues --   -1.14776  -1.14726  -1.14311  -1.14305  -1.14262
 Alpha  occ. eigenvalues --   -1.14148  -1.14128  -1.14028  -1.13613  -1.13611
 Alpha  occ. eigenvalues --   -1.13575  -1.13384  -1.13377  -1.13352  -1.13315
 Alpha  occ. eigenvalues --   -1.13311  -1.13225  -1.13181  -1.13157  -1.13153
 Alpha  occ. eigenvalues --   -0.16426  -0.13151  -0.12640  -0.10589
 Alpha virt. eigenvalues --   -0.07070  -0.05451  -0.04669  -0.03784  -0.02595
 Alpha virt. eigenvalues --   -0.02258  -0.01935  -0.01709  -0.01365  -0.01034
 Alpha virt. eigenvalues --   -0.00343   0.00097   0.00125   0.00259   0.00499

  Beta  occ. eigenvalues --  -38.45384 -38.44834 -38.44630 -38.44062 -38.43901
  Beta  occ. eigenvalues --  -38.43744 -38.43719  -2.21114  -2.20616  -2.20394
  Beta  occ. eigenvalues --   -2.19734  -2.19704  -2.19557  -2.19529  -1.14793
  Beta  occ. eigenvalues --   -1.14776  -1.14730  -1.14298  -1.14294  -1.14248
  Beta  occ. eigenvalues --   -1.14114  -1.14094  -1.13987  -1.13448  -1.13447
  Beta  occ. eigenvalues --   -1.13415  -1.13377  -1.13367  -1.13342  -1.13281
  Beta  occ. eigenvalues --   -1.13270  -1.13203  -1.13188  -1.13166  -1.13126
  Beta  occ. eigenvalues --   -0.16055  -0.12673  -0.12330
  Beta virt. eigenvalues --   -0.07084  -0.06690  -0.05235  -0.04229  -0.03581
  Beta virt. eigenvalues --   -0.02508  -0.01962  -0.01711  -0.01303  -0.01092
  Beta virt. eigenvalues --   -0.00895   0.00092   0.00182   0.00352   0.00513

 Mulliken charges and spin densities:
               1          2
     1  Na   0.234371   0.020404
     2  Na  -0.048824   0.027448
     3  Na   0.874193   0.268018
     4  Na  -1.575358   0.053559
     5  Na  -0.045220  -0.080528
     6  Na   0.549166  -0.004546
     7  Na   0.011671   0.715645
 Sum of Mulliken charges =  -0.00000   1.00000

 Dipole moment (field-independent basis, Debye):
    X=             -1.4684    Y=              0.6665    Z=              0.1011  Tot=              1.6157
 Quadrupole moment (field-independent basis, Debye-Ang):
   XX=            -73.4906   YY=            -53.5307   ZZ=            -71.7015
   XY=             -1.0918   XZ=             -3.6450   YZ=              0.2227

 Normal termination of Gaussian 16 at Wed Nov 29 01:44:26 2023.
