 Gaussian 16, Revision B.01,
 Gaussian 16:  ES64L-G16RevB.01 20-Dec-2017

 -------------------------
 #P B3LYP/6-311+g(d) force
 -------------------------

 -----
 DPGEN
 -----
 Symbolic Z-matrix:
 Charge =  0 Multiplicity = 2

                         Standard orientation:
 ---------------------------------------------------------------------
 Center     Atomic      Atomic             Coordinates (Angstroms)
 Number     Number       Type             X           Y           Z
 ---------------------------------------------------------------------
      1         11           0        1.925390   -1.708231   -1.124999
      2         11           0        0.644413   -0.502680    2.219954
      3         11           0       -2.495852    2.261343   -0.364969
      4         11           0        0.636047    1.578302   -0.802676
      5         11           0       -1.509760   -1.446879   -1.330623
      6         11           0        4.063529    0.747216    0.396639
      7         11           0       -3.263767   -0.929071    1.006674
 ---------------------------------------------------------------------

 SCF Done:  E(UB3LYP) =  -1136.11767457     A.U. after   29 cycles

 The electronic state is 2-A.
 Alpha  occ. eigenvalues --  -38.45678 -38.45211 -38.44828 -38.43899 -38.43590
 Alpha  occ. eigenvalues --  -38.43159 -38.42889  -2.21451  -2.21000  -2.20658
 Alpha  occ. eigenvalues --   -2.19754  -2.19477  -2.19024  -2.18715  -1.15117
 Alpha  occ. eigenvalues --   -1.15109  -1.15068  -1.14675  -1.14645  -1.14596
 Alpha  occ. eigenvalues --   -1.14392  -1.14298  -1.14284  -1.13444  -1.13410
 Alpha  occ. eigenvalues --   -1.13372  -1.13163  -1.13139  -1.13094  -1.12735
 Alpha  occ. eigenvalues --   -1.12710  -1.12650  -1.12381  -1.12372  -1.12356
 Alpha  occ. eigenvalues --   -0.18086  -0.14041  -0.11339  -0.10859
 Alpha virt. eigenvalues --   -0.07373  -0.05243  -0.04681  -0.03295  -0.02896
 Alpha virt. eigenvalues --   -0.02464  -0.02398  -0.01195  -0.01006  -0.00290
 Alpha virt. eigenvalues --    0.00034   0.00149   0.00195   0.00613   0.00747

  Beta  occ. eigenvalues --  -38.45654 -38.45124 -38.44830 -38.43853 -38.43566
  Beta  occ. eigenvalues --  -38.43157 -38.42894  -2.21407  -2.20840  -2.20663
  Beta  occ. eigenvalues --   -2.19675  -2.19437  -2.19022  -2.18722  -1.15085
  Beta  occ. eigenvalues --   -1.15072  -1.15041  -1.14568  -1.14533  -1.14477
  Beta  occ. eigenvalues --   -1.14403  -1.14294  -1.14281  -1.13383  -1.13348
  Beta  occ. eigenvalues --   -1.13306  -1.13122  -1.13112  -1.13059  -1.12734
  Beta  occ. eigenvalues --   -1.12685  -1.12659  -1.12385  -1.12377  -1.12363
  Beta  occ. eigenvalues --   -0.17368  -0.13915  -0.10816
  Beta virt. eigenvalues --   -0.07474  -0.06954  -0.05187  -0.04062  -0.02979
  Beta virt. eigenvalues --   -0.02673  -0.01859  -0.01739  -0.01099  -0.00680
  Beta virt. eigenvalues --   -0.00197   0.00090   0.00201   0.00336   0.00672

 Mulliken charges and spin densities:
               1          2
     1  Na   0.274005   0.087823
     2  Na  -0.431999   0.454970
     3  Na  -0.085294  -0.051997
     4  Na  -0.805144   0.180031
     5  Na  -0.352635   0.003159
     6  Na   0.862781   0.139296
     7  Na   0.538285   0.186718
 Sum of Mulliken charges =  -0.00000   1.00000

 Dipole moment (field-independent basis, Debye):
    X=              1.3484    Y=             -0.3100    Z=              0.7120  Tot=              1.5560
 Quadrupole moment (field-independent basis, Debye-Ang):
   XX=            -44.7827   YY=            -78.9119   ZZ=            -70.3277
   XY=              1.3353   XZ=             -1.4120   YZ=              2.2393

 Normal termination of Gaussian 16 at Fri Dec  8 02:28:36 2023.
