 Gaussian 16, Revision B.01,
 Gaussian 16:  ES64L-G16RevB.01 20-Dec-2017

 -------------------------
 #P B3LYP/6-311+g(d) force
 -------------------------

 -----
 DPGEN
 -----
 Symbolic Z-matrix:
 Charge =  0 Multiplicity = 2

                         Standard orientation:
 ---------------------------------------------------------------------
 Center     Atomic      Atomic             Coordinates (Angstroms)
 Number     Number       Type             X           Y           Z
 ---------------------------------------------------------------------
      1         11           0       -2.111941    2.133249    0.062289
      2         11           0       -0.166679   -0.156536   -2.037578
      3         11           0        1.295125    2.684715    0.120150
      4         11           0        3.120500   -0.041983   -0.161983
      5         11           0        0.917349   -2.927649    0.055536
      6         11           0       -0.173784   -0.389573    2.121086
      7         11           0       -2.880571   -1.302223   -0.159500
 ---------------------------------------------------------------------

 SCF Done:  E(UB3LYP) =  -1136.13848282     A.U. after   18 cycles

 The electronic state is 2-A.
 Alpha  occ. eigenvalues --  -38.44047 -38.43984 -38.43935 -38.43874 -38.43635
 Alpha  occ. eigenvalues --  -38.43612 -38.43218  -2.19860  -2.19840  -2.19804
 Alpha  occ. eigenvalues --   -2.19691  -2.19448  -2.19441  -2.19051  -1.13545
 Alpha  occ. eigenvalues --   -1.13534  -1.13501  -1.13495  -1.13471  -1.13468
 Alpha  occ. eigenvalues --   -1.13461  -1.13436  -1.13425  -1.13366  -1.13360
 Alpha  occ. eigenvalues --   -1.13331  -1.13125  -1.13113  -1.13112  -1.13111
 Alpha  occ. eigenvalues --   -1.13082  -1.13081  -1.12718  -1.12714  -1.12701
 Alpha  occ. eigenvalues --   -0.18204  -0.12799  -0.12357  -0.11049
 Alpha virt. eigenvalues --   -0.05680  -0.05135  -0.04758  -0.03295  -0.03104
 Alpha virt. eigenvalues --   -0.02964  -0.01395  -0.01108  -0.00467  -0.00320
 Alpha virt. eigenvalues --   -0.00082   0.00395   0.00787   0.00845   0.00854

  Beta  occ. eigenvalues --  -38.44042 -38.43896 -38.43872 -38.43853 -38.43632
  Beta  occ. eigenvalues --  -38.43609 -38.43216  -2.19855  -2.19691  -2.19676
  Beta  occ. eigenvalues --   -2.19653  -2.19446  -2.19439  -2.19051  -1.13530
  Beta  occ. eigenvalues --   -1.13509  -1.13497  -1.13395  -1.13374  -1.13366
  Beta  occ. eigenvalues --   -1.13352  -1.13351  -1.13345  -1.13333  -1.13329
  Beta  occ. eigenvalues --   -1.13311  -1.13115  -1.13113  -1.13094  -1.13090
  Beta  occ. eigenvalues --   -1.13084  -1.13080  -1.12719  -1.12706  -1.12695
  Beta  occ. eigenvalues --   -0.17448  -0.12608  -0.12145
  Beta virt. eigenvalues --   -0.07150  -0.05684  -0.05062  -0.04644  -0.02510
  Beta virt. eigenvalues --   -0.02317  -0.01966  -0.01307  -0.01030  -0.00538
  Beta virt. eigenvalues --   -0.00375   0.00077   0.00419   0.00831   0.00888

 Mulliken charges and spin densities:
               1          2
     1  Na   0.064893  -0.044315
     2  Na  -0.224292   0.688373
     3  Na  -0.043116  -0.070332
     4  Na   0.059076  -0.053482
     5  Na   0.180675  -0.141492
     6  Na  -0.326917   0.737654
     7  Na   0.289681  -0.116407
 Sum of Mulliken charges =  -0.00000   1.00000

 Dipole moment (field-independent basis, Debye):
    X=             -0.2160    Y=             -0.3360    Z=             -0.0113  Tot=              0.3996
 Quadrupole moment (field-independent basis, Debye-Ang):
   XX=            -59.4239   YY=            -63.8248   ZZ=            -72.1759
   XY=             -0.0902   XZ=             -0.1300   YZ=              0.5835

 Normal termination of Gaussian 16 at Sun Dec  3 19:08:55 2023.
