 Gaussian 16, Revision B.01,
 Gaussian 16:  ES64L-G16RevB.01 20-Dec-2017

 -------------------------
 #P B3LYP/6-311+g(d) force
 -------------------------

 -----
 DPGEN
 -----
 Symbolic Z-matrix:
 Charge =  0 Multiplicity = 2

                         Standard orientation:
 ---------------------------------------------------------------------
 Center     Atomic      Atomic             Coordinates (Angstroms)
 Number     Number       Type             X           Y           Z
 ---------------------------------------------------------------------
      1         11           0        2.589754   -3.264977   -0.232758
      2         11           0       -3.739442    1.653080   -0.491913
      3         11           0       -1.109156    3.984121    0.197967
      4         11           0       -0.608755   -3.865531    0.659363
      5         11           0        4.098300    0.239521   -0.589429
      6         11           0        2.592065    3.197938    0.552790
      7         11           0       -3.822764   -1.944153   -0.096020
 ---------------------------------------------------------------------

 SCF Done:  E(UB3LYP) =  -1136.10476176     A.U. after   24 cycles

 The electronic state is 2-A.
 Alpha  occ. eigenvalues --  -38.45272 -38.45184 -38.45142 -38.44886 -38.44504
 Alpha  occ. eigenvalues --  -38.44197 -38.44108  -2.21014  -2.20941  -2.20887
 Alpha  occ. eigenvalues --   -2.20648  -2.20282  -2.19975  -2.19888  -1.14704
 Alpha  occ. eigenvalues --   -1.14691  -1.14650  -1.14620  -1.14612  -1.14577
 Alpha  occ. eigenvalues --   -1.14570  -1.14559  -1.14525  -1.14319  -1.14306
 Alpha  occ. eigenvalues --   -1.14272  -1.13948  -1.13939  -1.13914  -1.13636
 Alpha  occ. eigenvalues --   -1.13625  -1.13598  -1.13545  -1.13532  -1.13515
 Alpha  occ. eigenvalues --   -0.15192  -0.13707  -0.13653  -0.10947
 Alpha virt. eigenvalues --   -0.08131  -0.04864  -0.04818  -0.03510  -0.03452
 Alpha virt. eigenvalues --   -0.02252  -0.02250  -0.01783  -0.01741  -0.01089
 Alpha virt. eigenvalues --   -0.00944  -0.00121   0.00052   0.00196   0.00212

  Beta  occ. eigenvalues --  -38.45269 -38.45168 -38.45134 -38.44851 -38.44471
  Beta  occ. eigenvalues --  -38.44137 -38.44043  -2.21013  -2.20917  -2.20878
  Beta  occ. eigenvalues --   -2.20585  -2.20222  -2.19863  -2.19767  -1.14709
  Beta  occ. eigenvalues --   -1.14696  -1.14608  -1.14608  -1.14599  -1.14568
  Beta  occ. eigenvalues --   -1.14556  -1.14530  -1.14493  -1.14277  -1.14266
  Beta  occ. eigenvalues --   -1.14220  -1.13909  -1.13901  -1.13863  -1.13560
  Beta  occ. eigenvalues --   -1.13551  -1.13523  -1.13463  -1.13453  -1.13433
  Beta  occ. eigenvalues --   -0.14636  -0.12943  -0.12887
  Beta virt. eigenvalues --   -0.08401  -0.07883  -0.04311  -0.04247  -0.03343
  Beta virt. eigenvalues --   -0.03263  -0.02045  -0.02021  -0.01643  -0.01596
  Beta virt. eigenvalues --   -0.00727  -0.00648   0.00043   0.00132   0.00169

 Mulliken charges and spin densities:
               1          2
     1  Na   0.062007   0.135697
     2  Na   0.090651   0.061462
     3  Na   0.031985   0.254120
     4  Na  -0.111163   0.061186
     5  Na  -0.098807   0.178443
     6  Na  -0.033179   0.014945
     7  Na   0.058505   0.294147
 Sum of Mulliken charges =  -0.00000   1.00000

 Dipole moment (field-independent basis, Debye):
    X=              0.4764    Y=             -0.0824    Z=              0.0219  Tot=              0.4840
 Quadrupole moment (field-independent basis, Debye-Ang):
   XX=            -63.0889   YY=            -63.9039   ZZ=            -72.8302
   XY=              0.0984   XZ=             -0.5960   YZ=              0.4968

 Normal termination of Gaussian 16 at Mon Dec  4 00:29:50 2023.
