 Gaussian 16, Revision B.01,
 Gaussian 16:  ES64L-G16RevB.01 20-Dec-2017

 -------------------------
 #P B3LYP/6-311+g(d) force
 -------------------------

 -----
 DPGEN
 -----
 Symbolic Z-matrix:
 Charge =  0 Multiplicity = 2

                         Standard orientation:
 ---------------------------------------------------------------------
 Center     Atomic      Atomic             Coordinates (Angstroms)
 Number     Number       Type             X           Y           Z
 ---------------------------------------------------------------------
      1         11           0        3.781090   -0.605573   -1.125599
      2         11           0       -3.608833   -1.669154   -0.311782
      3         11           0        2.444354   -0.533964    1.662401
      4         11           0       -0.194434   -1.250828   -1.151647
      5         11           0       -2.331499    2.060306   -0.418467
      6         11           0       -1.059578   -0.095929    1.693640
      7         11           0        0.968899    2.095142   -0.348546
 ---------------------------------------------------------------------

 SCF Done:  E(UB3LYP) =  -1136.12481688     A.U. after   23 cycles

 The electronic state is 2-A.
 Alpha  occ. eigenvalues --  -38.44867 -38.44503 -38.44156 -38.43705 -38.43685
 Alpha  occ. eigenvalues --  -38.43646 -38.42898  -2.20707  -2.20332  -2.20043
 Alpha  occ. eigenvalues --   -2.19638  -2.19561  -2.19445  -2.18771  -1.14449
 Alpha  occ. eigenvalues --   -1.14376  -1.14290  -1.14039  -1.13974  -1.13960
 Alpha  occ. eigenvalues --   -1.13704  -1.13690  -1.13666  -1.13361  -1.13321
 Alpha  occ. eigenvalues --   -1.13233  -1.13227  -1.13192  -1.13177  -1.13118
 Alpha  occ. eigenvalues --   -1.13108  -1.13075  -1.12473  -1.12443  -1.12376
 Alpha  occ. eigenvalues --   -0.18484  -0.14156  -0.11155  -0.11019
 Alpha virt. eigenvalues --   -0.06907  -0.05215  -0.04794  -0.03155  -0.02677
 Alpha virt. eigenvalues --   -0.02364  -0.02117  -0.01324  -0.00999  -0.00120
 Alpha virt. eigenvalues --    0.00056   0.00291   0.00358   0.00526   0.00662

  Beta  occ. eigenvalues --  -38.44850 -38.44473 -38.44109 -38.43695 -38.43647
  Beta  occ. eigenvalues --  -38.43622 -38.42886  -2.20677  -2.20275  -2.19961
  Beta  occ. eigenvalues --   -2.19542  -2.19524  -2.19447  -2.18751  -1.14416
  Beta  occ. eigenvalues --   -1.14348  -1.14271  -1.14001  -1.13934  -1.13917
  Beta  occ. eigenvalues --   -1.13641  -1.13638  -1.13588  -1.13289  -1.13267
  Beta  occ. eigenvalues --   -1.13209  -1.13169  -1.13147  -1.13138  -1.13113
  Beta  occ. eigenvalues --   -1.13108  -1.13073  -1.12461  -1.12407  -1.12364
  Beta  occ. eigenvalues --   -0.17795  -0.13966  -0.11002
  Beta virt. eigenvalues --   -0.07078  -0.06733  -0.05095  -0.04188  -0.02946
  Beta virt. eigenvalues --   -0.02571  -0.01707  -0.01538  -0.01193  -0.00522
  Beta virt. eigenvalues --   -0.00056   0.00096   0.00355   0.00473   0.00661

 Mulliken charges and spin densities:
               1          2
     1  Na   0.800883   0.235240
     2  Na   0.629529  -0.006769
     3  Na  -0.020238   0.061562
     4  Na  -1.081263   0.231263
     5  Na  -0.041030   0.027822
     6  Na   0.076482   0.249865
     7  Na  -0.364362   0.201018
 Sum of Mulliken charges =  -0.00000   1.00000

 Dipole moment (field-independent basis, Debye):
    X=              0.1612    Y=              0.0928    Z=             -0.1648  Tot=              0.2485
 Quadrupole moment (field-independent basis, Debye-Ang):
   XX=            -49.4678   YY=            -76.6300   ZZ=            -69.2763
   XY=             -1.8178   XZ=             -0.6063   YZ=              0.0470

 Normal termination of Gaussian 16 at Thu Dec  7 03:52:16 2023.
