 Gaussian 16, Revision B.01,
 Gaussian 16:  ES64L-G16RevB.01 20-Dec-2017

 -------------------------
 #P B3LYP/6-311+g(d) force
 -------------------------

 -----
 DPGEN
 -----
 Symbolic Z-matrix:
 Charge =  0 Multiplicity = 2

                         Standard orientation:
 ---------------------------------------------------------------------
 Center     Atomic      Atomic             Coordinates (Angstroms)
 Number     Number       Type             X           Y           Z
 ---------------------------------------------------------------------
      1         11           0        3.421676    2.064082    0.050555
      2         11           0        0.416943   -2.375360   -0.876228
      3         11           0        3.216294   -0.935799   -0.253110
      4         11           0       -3.843548    1.956004   -0.244264
      5         11           0       -3.047633   -1.367697   -0.181817
      6         11           0        0.069968    1.453177   -0.444022
      7         11           0       -0.233699   -0.794408    1.948887
 ---------------------------------------------------------------------

 SCF Done:  E(UB3LYP) =  -1136.11875833     A.U. after   23 cycles

 The electronic state is 2-A.
 Alpha  occ. eigenvalues --  -38.44768 -38.44433 -38.44252 -38.44090 -38.43991
 Alpha  occ. eigenvalues --  -38.43933 -38.43217  -2.20581  -2.20272  -2.20089
 Alpha  occ. eigenvalues --   -2.19982  -2.19888  -2.19712  -2.19098  -1.14281
 Alpha  occ. eigenvalues --   -1.14238  -1.14200  -1.13988  -1.13960  -1.13873
 Alpha  occ. eigenvalues --   -1.13853  -1.13738  -1.13716  -1.13652  -1.13620
 Alpha  occ. eigenvalues --   -1.13571  -1.13551  -1.13521  -1.13497  -1.13379
 Alpha  occ. eigenvalues --   -1.13368  -1.13346  -1.12775  -1.12762  -1.12724
 Alpha  occ. eigenvalues --   -0.18065  -0.14122  -0.11909  -0.10250
 Alpha virt. eigenvalues --   -0.06780  -0.06505  -0.03988  -0.03341  -0.02798
 Alpha virt. eigenvalues --   -0.02428  -0.02061  -0.01672  -0.01241  -0.00253
 Alpha virt. eigenvalues --   -0.00183   0.00057   0.00432   0.00494   0.00679

  Beta  occ. eigenvalues --  -38.44751 -38.44411 -38.44247 -38.44051 -38.43914
  Beta  occ. eigenvalues --  -38.43910 -38.43197  -2.20552  -2.20236  -2.20082
  Beta  occ. eigenvalues --   -2.19910  -2.19738  -2.19678  -2.19063  -1.14257
  Beta  occ. eigenvalues --   -1.14218  -1.14171  -1.13939  -1.13932  -1.13860
  Beta  occ. eigenvalues --   -1.13834  -1.13734  -1.13699  -1.13602  -1.13565
  Beta  occ. eigenvalues --   -1.13529  -1.13447  -1.13424  -1.13390  -1.13357
  Beta  occ. eigenvalues --   -1.13335  -1.13326  -1.12754  -1.12739  -1.12683
  Beta  occ. eigenvalues --   -0.17484  -0.13706  -0.11673
  Beta virt. eigenvalues --   -0.06777  -0.06561  -0.06133  -0.03815  -0.02785
  Beta virt. eigenvalues --   -0.02675  -0.02000  -0.01846  -0.01130  -0.01023
  Beta virt. eigenvalues --   -0.00162   0.00064   0.00211   0.00514   0.00604

 Mulliken charges and spin densities:
               1          2
     1  Na   0.936403  -0.019021
     2  Na   0.179112   0.128539
     3  Na  -0.084071   0.289129
     4  Na   0.390281   0.140937
     5  Na   0.100017   0.295016
     6  Na  -1.591841   0.000141
     7  Na   0.070098   0.165259
 Sum of Mulliken charges =  -0.00000   1.00000

 Dipole moment (field-independent basis, Debye):
    X=              0.0623    Y=              0.1130    Z=              0.8557  Tot=              0.8654
 Quadrupole moment (field-independent basis, Debye-Ang):
   XX=            -63.0656   YY=            -67.8699   ZZ=            -70.1277
   XY=              4.3181   XZ=              0.9038   YZ=             -1.1233

 Normal termination of Gaussian 16 at Wed Nov 29 17:29:37 2023.
