 Gaussian 16, Revision B.01,
 Gaussian 16:  ES64L-G16RevB.01 20-Dec-2017

 -------------------------
 #P B3LYP/6-311+g(d) force
 -------------------------

 -----
 DPGEN
 -----
 Symbolic Z-matrix:
 Charge =  0 Multiplicity = 2

                         Standard orientation:
 ---------------------------------------------------------------------
 Center     Atomic      Atomic             Coordinates (Angstroms)
 Number     Number       Type             X           Y           Z
 ---------------------------------------------------------------------
      1         11           0        0.155996   -0.242823    1.827155
      2         11           0        0.542589   -2.815185    0.076829
      3         11           0       -3.031569   -1.105854   -0.146108
      4         11           0        1.693617    2.594234   -0.055722
      5         11           0        2.930862   -0.703035   -0.250898
      6         11           0       -0.387888    0.135914   -1.783019
      7         11           0       -1.903607    2.136748    0.331762
 ---------------------------------------------------------------------

 SCF Done:  E(UB3LYP) =  -1136.13912245     A.U. after   18 cycles

 The electronic state is 2-A.
 Alpha  occ. eigenvalues --  -38.43998 -38.43828 -38.43661 -38.43415 -38.43336
 Alpha  occ. eigenvalues --  -38.43303 -38.43279  -2.19824  -2.19692  -2.19531
 Alpha  occ. eigenvalues --   -2.19248  -2.19238  -2.19231  -2.19222  -1.13506
 Alpha  occ. eigenvalues --   -1.13483  -1.13465  -1.13374  -1.13359  -1.13338
 Alpha  occ. eigenvalues --   -1.13228  -1.13208  -1.13146  -1.13001  -1.12934
 Alpha  occ. eigenvalues --   -1.12911  -1.12903  -1.12894  -1.12884  -1.12877
 Alpha  occ. eigenvalues --   -1.12866  -1.12855  -1.12847  -1.12832  -1.12813
 Alpha  occ. eigenvalues --   -0.18781  -0.13168  -0.12450  -0.10660
 Alpha virt. eigenvalues --   -0.05539  -0.05237  -0.04721  -0.03272  -0.02818
 Alpha virt. eigenvalues --   -0.02420  -0.01528  -0.01126  -0.00326  -0.00311
 Alpha virt. eigenvalues --    0.00002   0.00364   0.00815   0.00881   0.00899

  Beta  occ. eigenvalues --  -38.43994 -38.43822 -38.43651 -38.43414 -38.43329
  Beta  occ. eigenvalues --  -38.43230 -38.43197  -2.19820  -2.19684  -2.19516
  Beta  occ. eigenvalues --   -2.19237  -2.19216  -2.19114  -2.19080  -1.13494
  Beta  occ. eigenvalues --   -1.13473  -1.13460  -1.13372  -1.13344  -1.13321
  Beta  occ. eigenvalues --   -1.13218  -1.13168  -1.13140  -1.12957  -1.12904
  Beta  occ. eigenvalues --   -1.12894  -1.12879  -1.12862  -1.12846  -1.12830
  Beta  occ. eigenvalues --   -1.12787  -1.12782  -1.12758  -1.12735  -1.12725
  Beta  occ. eigenvalues --   -0.18050  -0.12926  -0.12207
  Beta virt. eigenvalues --   -0.06768  -0.05498  -0.05222  -0.04689  -0.02459
  Beta virt. eigenvalues --   -0.02072  -0.01442  -0.01382  -0.01052  -0.00374
  Beta virt. eigenvalues --   -0.00353   0.00133   0.00387   0.00865   0.00886

 Mulliken charges and spin densities:
               1          2
     1  Na  -0.248132   0.659515
     2  Na   0.255361  -0.088918
     3  Na   0.182720  -0.099829
     4  Na  -0.016878  -0.091375
     5  Na   0.040347  -0.033373
     6  Na  -0.324505   0.712063
     7  Na   0.111087  -0.058083
 Sum of Mulliken charges =  -0.00000   1.00000

 Dipole moment (field-independent basis, Debye):
    X=             -0.1929    Y=             -0.0376    Z=             -0.0198  Tot=              0.1976
 Quadrupole moment (field-independent basis, Debye-Ang):
   XX=            -56.4118   YY=            -62.1505   ZZ=            -74.6904
   XY=              0.7889   XZ=             -1.2263   YZ=              0.9058

 Normal termination of Gaussian 16 at Fri Dec  8 05:42:05 2023.
