 Gaussian 16, Revision B.01,
 Gaussian 16:  ES64L-G16RevB.01 20-Dec-2017

 -------------------------
 #P B3LYP/6-311+g(d) force
 -------------------------

 -----
 DPGEN
 -----
 Symbolic Z-matrix:
 Charge =  0 Multiplicity = 2

                         Standard orientation:
 ---------------------------------------------------------------------
 Center     Atomic      Atomic             Coordinates (Angstroms)
 Number     Number       Type             X           Y           Z
 ---------------------------------------------------------------------
      1         11           0        1.420415   -1.246397    1.450977
      2         11           0        0.043307   -0.985736   -1.194750
      3         11           0        3.847026   -0.547092   -0.823065
      4         11           0       -3.242330   -1.700791   -0.254975
      5         11           0        1.664751    2.015456    0.228867
      6         11           0       -2.225072    1.722784   -1.176618
      7         11           0       -1.508096    0.741776    1.769565
 ---------------------------------------------------------------------

 SCF Done:  E(UB3LYP) =  -1136.12370615     A.U. after   24 cycles

 The electronic state is 2-A.
 Alpha  occ. eigenvalues --  -38.44861 -38.44045 -38.43954 -38.43895 -38.43878
 Alpha  occ. eigenvalues --  -38.43563 -38.43203  -2.20678  -2.19959  -2.19886
 Alpha  occ. eigenvalues --   -2.19751  -2.19679  -2.19466  -2.19040  -1.14347
 Alpha  occ. eigenvalues --   -1.14329  -1.14302  -1.13808  -1.13619  -1.13570
 Alpha  occ. eigenvalues --   -1.13529  -1.13500  -1.13474  -1.13450  -1.13422
 Alpha  occ. eigenvalues --   -1.13358  -1.13351  -1.13328  -1.13315  -1.13142
 Alpha  occ. eigenvalues --   -1.13119  -1.13071  -1.12731  -1.12723  -1.12651
 Alpha  occ. eigenvalues --   -0.18582  -0.14200  -0.11096  -0.10768
 Alpha virt. eigenvalues --   -0.06728  -0.05416  -0.04623  -0.02949  -0.02722
 Alpha virt. eigenvalues --   -0.02297  -0.02207  -0.01214  -0.00791  -0.00185
 Alpha virt. eigenvalues --    0.00134   0.00242   0.00374   0.00607   0.00664

  Beta  occ. eigenvalues --  -38.44837 -38.44026 -38.43897 -38.43882 -38.43860
  Beta  occ. eigenvalues --  -38.43517 -38.43196  -2.20633  -2.19928  -2.19784
  Beta  occ. eigenvalues --   -2.19689  -2.19684  -2.19385  -2.19030  -1.14313
  Beta  occ. eigenvalues --   -1.14296  -1.14274  -1.13755  -1.13598  -1.13538
  Beta  occ. eigenvalues --   -1.13471  -1.13430  -1.13407  -1.13384  -1.13375
  Beta  occ. eigenvalues --   -1.13360  -1.13331  -1.13328  -1.13288  -1.13082
  Beta  occ. eigenvalues --   -1.13044  -1.13017  -1.12728  -1.12695  -1.12643
  Beta  occ. eigenvalues --   -0.17850  -0.13949  -0.10633
  Beta virt. eigenvalues --   -0.07219  -0.06463  -0.05334  -0.04032  -0.02819
  Beta virt. eigenvalues --   -0.02430  -0.01773  -0.01519  -0.01083  -0.00381
  Beta virt. eigenvalues --   -0.00100   0.00181   0.00287   0.00508   0.00668

 Mulliken charges and spin densities:
               1          2
     1  Na  -0.036580   0.082433
     2  Na  -0.303667   0.355275
     3  Na   0.498088   0.163451
     4  Na   0.056345  -0.054161
     5  Na  -0.481263   0.069840
     6  Na  -0.103031   0.142633
     7  Na   0.370108   0.240530
 Sum of Mulliken charges =  -0.00000   1.00000

 Dipole moment (field-independent basis, Debye):
    X=              0.5966    Y=              0.0043    Z=             -0.0700  Tot=              0.6007
 Quadrupole moment (field-independent basis, Debye-Ang):
   XX=            -47.9248   YY=            -76.7323   ZZ=            -68.2882
   XY=             -0.5968   XZ=             -2.0955   YZ=             -2.7105

 Normal termination of Gaussian 16 at Thu Dec  7 02:29:52 2023.
