 Gaussian 16, Revision B.01,
 Gaussian 16:  ES64L-G16RevB.01 20-Dec-2017

 -------------------------
 #P B3LYP/6-311+g(d) force
 -------------------------

 -----
 DPGEN
 -----
 Symbolic Z-matrix:
 Charge =  0 Multiplicity = 2

                         Standard orientation:
 ---------------------------------------------------------------------
 Center     Atomic      Atomic             Coordinates (Angstroms)
 Number     Number       Type             X           Y           Z
 ---------------------------------------------------------------------
      1         11           0       -2.026418   -1.905565   -0.146051
      2         11           0        3.240986    0.130929    0.151000
      3         11           0       -0.039238   -0.171725   -1.592869
      4         11           0       -0.477879    0.159446    2.221650
      5         11           0        1.133341    3.001743   -0.293621
      6         11           0       -2.937924    1.550876   -0.228216
      7         11           0        1.107131   -2.765703   -0.111893
 ---------------------------------------------------------------------

 SCF Done:  E(UB3LYP) =  -1136.13343264     A.U. after   19 cycles

 The electronic state is 2-A.
 Alpha  occ. eigenvalues --  -38.44123 -38.44110 -38.43967 -38.43864 -38.43545
 Alpha  occ. eigenvalues --  -38.43314 -38.43280  -2.19914  -2.19900  -2.19744
 Alpha  occ. eigenvalues --   -2.19708  -2.19473  -2.19296  -2.19154  -1.13587
 Alpha  occ. eigenvalues --   -1.13575  -1.13569  -1.13564  -1.13561  -1.13544
 Alpha  occ. eigenvalues --   -1.13425  -1.13403  -1.13377  -1.13369  -1.13338
 Alpha  occ. eigenvalues --   -1.13322  -1.13263  -1.13131  -1.13087  -1.12980
 Alpha  occ. eigenvalues --   -1.12935  -1.12908  -1.12806  -1.12802  -1.12787
 Alpha  occ. eigenvalues --   -0.18367  -0.12851  -0.12417  -0.10735
 Alpha virt. eigenvalues --   -0.05858  -0.05106  -0.04877  -0.03103  -0.02978
 Alpha virt. eigenvalues --   -0.02606  -0.01567  -0.01171  -0.00644  -0.00369
 Alpha virt. eigenvalues --   -0.00033   0.00339   0.00794   0.00806   0.00874

  Beta  occ. eigenvalues --  -38.44120 -38.44109 -38.43964 -38.43760 -38.43534
  Beta  occ. eigenvalues --  -38.43277 -38.43256  -2.19912  -2.19901  -2.19741
  Beta  occ. eigenvalues --   -2.19517  -2.19457  -2.19191  -2.19151  -1.13573
  Beta  occ. eigenvalues --   -1.13565  -1.13564  -1.13562  -1.13562  -1.13548
  Beta  occ. eigenvalues --   -1.13411  -1.13399  -1.13377  -1.13256  -1.13225
  Beta  occ. eigenvalues --   -1.13202  -1.13187  -1.13097  -1.13071  -1.12923
  Beta  occ. eigenvalues --   -1.12872  -1.12833  -1.12795  -1.12782  -1.12768
  Beta  occ. eigenvalues --   -0.17642  -0.12667  -0.12201
  Beta virt. eigenvalues --   -0.06779  -0.05837  -0.05042  -0.04826  -0.02379
  Beta virt. eigenvalues --   -0.02178  -0.01591  -0.01479  -0.01091  -0.00686
  Beta virt. eigenvalues --   -0.00414   0.00133   0.00375   0.00811   0.00839

 Mulliken charges and spin densities:
               1          2
     1  Na   0.538795   0.119282
     2  Na   0.011416  -0.007411
     3  Na  -0.139448   0.286174
     4  Na  -0.628544   0.737567
     5  Na  -0.030304  -0.083518
     6  Na   0.104317  -0.086880
     7  Na   0.143768   0.034787
 Sum of Mulliken charges =  -0.00000   1.00000

 Dipole moment (field-independent basis, Debye):
    X=             -0.0118    Y=              0.3373    Z=              0.1619  Tot=              0.3743
 Quadrupole moment (field-independent basis, Debye-Ang):
   XX=            -57.5401   YY=            -61.5476   ZZ=            -74.6959
   XY=             -1.5762   XZ=              1.2486   YZ=             -0.7735

 Normal termination of Gaussian 16 at Fri Dec  8 02:42:02 2023.
