 Gaussian 16, Revision B.01,
 Gaussian 16:  ES64L-G16RevB.01 20-Dec-2017

 -------------------------
 #P B3LYP/6-311+g(d) force
 -------------------------

 -----
 DPGEN
 -----
 Symbolic Z-matrix:
 Charge =  0 Multiplicity = 2

                         Standard orientation:
 ---------------------------------------------------------------------
 Center     Atomic      Atomic             Coordinates (Angstroms)
 Number     Number       Type             X           Y           Z
 ---------------------------------------------------------------------
      1         11           0        0.107496   -2.739234    0.051499
      2         11           0        2.895367   -1.041291   -0.108729
      3         11           0       -3.140143   -0.825589   -0.108843
      4         11           0        2.073704    2.108020    0.271608
      5         11           0        0.016260    0.135339   -1.810726
      6         11           0       -0.420987   -0.033919    1.841645
      7         11           0       -1.531697    2.396675   -0.136454
 ---------------------------------------------------------------------

 SCF Done:  E(UB3LYP) =  -1136.13922091     A.U. after   21 cycles

 The electronic state is 2-A.
 Alpha  occ. eigenvalues --  -38.44273 -38.43770 -38.43476 -38.43437 -38.43307
 Alpha  occ. eigenvalues --  -38.43288 -38.43109  -2.20093  -2.19634  -2.19331
 Alpha  occ. eigenvalues --   -2.19319  -2.19259  -2.19248  -2.18994  -1.13769
 Alpha  occ. eigenvalues --   -1.13748  -1.13735  -1.13309  -1.13303  -1.13291
 Alpha  occ. eigenvalues --   -1.13062  -1.13017  -1.13000  -1.12996  -1.12973
 Alpha  occ. eigenvalues --   -1.12946  -1.12923  -1.12911  -1.12887  -1.12868
 Alpha  occ. eigenvalues --   -1.12867  -1.12854  -1.12673  -1.12658  -1.12614
 Alpha  occ. eigenvalues --   -0.18920  -0.13186  -0.12444  -0.10757
 Alpha virt. eigenvalues --   -0.05784  -0.05116  -0.04459  -0.03231  -0.02877
 Alpha virt. eigenvalues --   -0.02485  -0.01659  -0.01026  -0.00257  -0.00187
 Alpha virt. eigenvalues --   -0.00006   0.00361   0.00806   0.00895   0.00925

  Beta  occ. eigenvalues --  -38.44270 -38.43768 -38.43470 -38.43428 -38.43226
  Beta  occ. eigenvalues --  -38.43209 -38.43103  -2.20090  -2.19633  -2.19323
  Beta  occ. eigenvalues --   -2.19308  -2.19112  -2.19102  -2.18986  -1.13754
  Beta  occ. eigenvalues --   -1.13742  -1.13732  -1.13312  -1.13303  -1.13270
  Beta  occ. eigenvalues --   -1.13040  -1.12996  -1.12971  -1.12971  -1.12962
  Beta  occ. eigenvalues --   -1.12919  -1.12855  -1.12814  -1.12793  -1.12774
  Beta  occ. eigenvalues --   -1.12761  -1.12751  -1.12662  -1.12623  -1.12610
  Beta  occ. eigenvalues --   -0.18178  -0.12954  -0.12181
  Beta virt. eigenvalues --   -0.06839  -0.05749  -0.05111  -0.04440  -0.02443
  Beta virt. eigenvalues --   -0.02065  -0.01577  -0.01429  -0.00962  -0.00309
  Beta virt. eigenvalues --   -0.00239   0.00124   0.00379   0.00856   0.00891

 Mulliken charges and spin densities:
               1          2
     1  Na   0.148696  -0.121577
     2  Na   0.052982  -0.044099
     3  Na   0.165199  -0.122392
     4  Na   0.119212  -0.049289
     5  Na  -0.330344   0.688871
     6  Na  -0.364560   0.742612
     7  Na   0.208814  -0.094125
 Sum of Mulliken charges =  -0.00000   1.00000

 Dipole moment (field-independent basis, Debye):
    X=             -0.3176    Y=              0.0020    Z=             -0.0135  Tot=              0.3179
 Quadrupole moment (field-independent basis, Debye-Ang):
   XX=            -54.6677   YY=            -64.3040   ZZ=            -74.2479
   XY=              0.5397   XZ=              0.9098   YZ=              0.5688

 Normal termination of Gaussian 16 at Fri Dec  8 05:44:11 2023.
