 Gaussian 16, Revision B.01,
 Gaussian 16:  ES64L-G16RevB.01 20-Dec-2017

 -------------------------
 #P B3LYP/6-311+g(d) force
 -------------------------

 -----
 DPGEN
 -----
 Symbolic Z-matrix:
 Charge =  0 Multiplicity = 2

                         Standard orientation:
 ---------------------------------------------------------------------
 Center     Atomic      Atomic             Coordinates (Angstroms)
 Number     Number       Type             X           Y           Z
 ---------------------------------------------------------------------
      1         11           0       -0.567945   -2.329350   -0.768987
      2         11           0       -3.383300   -0.583243    0.396415
      3         11           0        0.377625    0.257216   -1.303196
      4         11           0        3.002357   -1.386170   -0.074026
      5         11           0       -1.881709    2.142212   -0.466783
      6         11           0        2.228624    2.181998    0.121334
      7         11           0        0.224348   -0.282663    2.095243
 ---------------------------------------------------------------------

 SCF Done:  E(UB3LYP) =  -1136.12432623     A.U. after   21 cycles

 The electronic state is 2-A.
 Alpha  occ. eigenvalues --  -38.44611 -38.44560 -38.43922 -38.43705 -38.43579
 Alpha  occ. eigenvalues --  -38.43141 -38.43015  -2.20427  -2.20383  -2.19792
 Alpha  occ. eigenvalues --   -2.19553  -2.19439  -2.19152  -2.19054  -1.14104
 Alpha  occ. eigenvalues --   -1.14088  -1.14065  -1.14065  -1.14040  -1.14016
 Alpha  occ. eigenvalues --   -1.13476  -1.13416  -1.13400  -1.13303  -1.13206
 Alpha  occ. eigenvalues --   -1.13186  -1.13166  -1.13089  -1.13069  -1.13051
 Alpha  occ. eigenvalues --   -1.12791  -1.12745  -1.12677  -1.12632  -1.12605
 Alpha  occ. eigenvalues --   -0.18824  -0.13541  -0.11844  -0.10769
 Alpha virt. eigenvalues --   -0.06322  -0.05427  -0.03798  -0.03384  -0.02565
 Alpha virt. eigenvalues --   -0.02485  -0.02101  -0.01235  -0.00380  -0.00035
 Alpha virt. eigenvalues --    0.00027   0.00298   0.00700   0.00809   0.00824

  Beta  occ. eigenvalues --  -38.44608 -38.44557 -38.43829 -38.43702 -38.43570
  Beta  occ. eigenvalues --  -38.43117 -38.42956  -2.20424  -2.20381  -2.19620
  Beta  occ. eigenvalues --   -2.19550  -2.19427  -2.19055  -2.19006  -1.14105
  Beta  occ. eigenvalues --   -1.14071  -1.14063  -1.14055  -1.14032  -1.14012
  Beta  occ. eigenvalues --   -1.13362  -1.13300  -1.13291  -1.13273  -1.13190
  Beta  occ. eigenvalues --   -1.13169  -1.13160  -1.13067  -1.13052  -1.13008
  Beta  occ. eigenvalues --   -1.12707  -1.12678  -1.12629  -1.12602  -1.12550
  Beta  occ. eigenvalues --   -0.18105  -0.13351  -0.11572
  Beta virt. eigenvalues --   -0.06835  -0.06201  -0.05434  -0.03722  -0.02701
  Beta virt. eigenvalues --   -0.01986  -0.01841  -0.01402  -0.01176  -0.00365
  Beta virt. eigenvalues --   -0.00007   0.00120   0.00325   0.00752   0.00824

 Mulliken charges and spin densities:
               1          2
     1  Na   0.473421   0.178618
     2  Na  -0.015983   0.086097
     3  Na  -0.452532  -0.209432
     4  Na   0.281823   0.026067
     5  Na   0.287357   0.081377
     6  Na  -0.029074   0.065389
     7  Na  -0.545012   0.771884
 Sum of Mulliken charges =  -0.00000   1.00000

 Dipole moment (field-independent basis, Debye):
    X=              0.1967    Y=             -0.2038    Z=              0.5503  Tot=              0.6189
 Quadrupole moment (field-independent basis, Debye-Ang):
   XX=            -48.6888   YY=            -68.2768   ZZ=            -74.5783
   XY=             -0.1581   XZ=             -0.3251   YZ=              0.5849

 Normal termination of Gaussian 16 at Thu Dec  7 14:53:49 2023.
