 Gaussian 16, Revision B.01,
 Gaussian 16:  ES64L-G16RevB.01 20-Dec-2017

 -------------------------
 #P B3LYP/6-311+g(d) force
 -------------------------

 -----
 DPGEN
 -----
 Symbolic Z-matrix:
 Charge =  0 Multiplicity = 2

                         Standard orientation:
 ---------------------------------------------------------------------
 Center     Atomic      Atomic             Coordinates (Angstroms)
 Number     Number       Type             X           Y           Z
 ---------------------------------------------------------------------
      1         11           0        0.652760   -1.633928    1.147767
      2         11           0        3.502134   -3.100059   -0.467361
      3         11           0        2.600751    0.058549   -0.738743
      4         11           0        2.204455    3.853919   -0.129901
      5         11           0       -0.119190    1.808268    0.593247
      6         11           0       -3.012411   -0.802677    0.285963
      7         11           0       -5.828498   -0.184072   -0.690973
 ---------------------------------------------------------------------

 SCF Done:  E(UB3LYP) =  -1136.12495692     A.U. after   20 cycles

 The electronic state is 2-A.
 Alpha  occ. eigenvalues --  -38.44531 -38.44257 -38.44190 -38.43967 -38.43957
 Alpha  occ. eigenvalues --  -38.43892 -38.43058  -2.20407  -2.20131  -2.20009
 Alpha  occ. eigenvalues --   -2.19826  -2.19782  -2.19722  -2.18883  -1.14150
 Alpha  occ. eigenvalues --   -1.14102  -1.13994  -1.13827  -1.13802  -1.13713
 Alpha  occ. eigenvalues --   -1.13669  -1.13663  -1.13619  -1.13519  -1.13515
 Alpha  occ. eigenvalues --   -1.13509  -1.13434  -1.13423  -1.13392  -1.13355
 Alpha  occ. eigenvalues --   -1.13347  -1.13346  -1.12564  -1.12559  -1.12537
 Alpha  occ. eigenvalues --   -0.17254  -0.13584  -0.12964  -0.11017
 Alpha virt. eigenvalues --   -0.05905  -0.05202  -0.04830  -0.03768  -0.02286
 Alpha virt. eigenvalues --   -0.02191  -0.02131  -0.01876  -0.01302  -0.00923
 Alpha virt. eigenvalues --   -0.00197  -0.00002   0.00199   0.00489   0.00610

  Beta  occ. eigenvalues --  -38.44518 -38.44209 -38.44161 -38.43945 -38.43939
  Beta  occ. eigenvalues --  -38.43813 -38.43058  -2.20385  -2.20046  -2.19956
  Beta  occ. eigenvalues --   -2.19797  -2.19740  -2.19574  -2.18893  -1.14121
  Beta  occ. eigenvalues --   -1.14088  -1.13974  -1.13774  -1.13749  -1.13640
  Beta  occ. eigenvalues --   -1.13627  -1.13621  -1.13583  -1.13501  -1.13496
  Beta  occ. eigenvalues --   -1.13476  -1.13405  -1.13390  -1.13320  -1.13297
  Beta  occ. eigenvalues --   -1.13246  -1.13245  -1.12578  -1.12575  -1.12477
  Beta  occ. eigenvalues --   -0.16647  -0.12920  -0.12593
  Beta virt. eigenvalues --   -0.07679  -0.05704  -0.04820  -0.04435  -0.03484
  Beta virt. eigenvalues --   -0.02151  -0.02025  -0.01883  -0.01418  -0.01027
  Beta virt. eigenvalues --   -0.00574   0.00100   0.00123   0.00364   0.00572

 Mulliken charges and spin densities:
               1          2
     1  Na  -0.452332  -0.194648
     2  Na   0.803605   0.099825
     3  Na  -0.490804   0.190593
     4  Na   0.582321   0.128044
     5  Na  -0.464472   0.045210
     6  Na  -0.553488   0.419035
     7  Na   0.575170   0.311942
 Sum of Mulliken charges =  -0.00000   1.00000

 Dipole moment (field-independent basis, Debye):
    X=              1.6784    Y=             -0.0628    Z=             -0.0146  Tot=              1.6796
 Quadrupole moment (field-independent basis, Debye-Ang):
   XX=            -64.9933   YY=            -58.8529   ZZ=            -70.5980
   XY=             -3.7222   XZ=              0.2936   YZ=             -0.6765

 Normal termination of Gaussian 16 at Tue Nov 28 21:26:24 2023.
