 Gaussian 16, Revision B.01,
 Gaussian 16:  ES64L-G16RevB.01 20-Dec-2017

 -------------------------
 #P B3LYP/6-311+g(d) force
 -------------------------

 -----
 DPGEN
 -----
 Symbolic Z-matrix:
 Charge =  0 Multiplicity = 2

                         Standard orientation:
 ---------------------------------------------------------------------
 Center     Atomic      Atomic             Coordinates (Angstroms)
 Number     Number       Type             X           Y           Z
 ---------------------------------------------------------------------
      1         11           0       -1.144182    2.824228   -0.256232
      2         11           0       -2.942201    0.000387    0.347870
      3         11           0       -0.869205   -2.647585   -0.656800
      4         11           0       -0.401246   -0.457183    1.664162
      5         11           0        2.392942   -1.769269    0.190191
      6         11           0        0.224256    0.251683   -1.552042
      7         11           0        2.739635    1.797739    0.262850
 ---------------------------------------------------------------------

 SCF Done:  E(UB3LYP) =  -1136.13377518     A.U. after   20 cycles

 The electronic state is 2-A.
 Alpha  occ. eigenvalues --  -38.44085 -38.43741 -38.43727 -38.43697 -38.43282
 Alpha  occ. eigenvalues --  -38.43272 -38.42855  -2.19878  -2.19648  -2.19603
 Alpha  occ. eigenvalues --   -2.19539  -2.19288  -2.19201  -2.18877  -1.13557
 Alpha  occ. eigenvalues --   -1.13535  -1.13519  -1.13455  -1.13290  -1.13286
 Alpha  occ. eigenvalues --   -1.13277  -1.13276  -1.13237  -1.13228  -1.13189
 Alpha  occ. eigenvalues --   -1.13156  -1.12986  -1.12915  -1.12899  -1.12888
 Alpha  occ. eigenvalues --   -1.12821  -1.12815  -1.12565  -1.12506  -1.12490
 Alpha  occ. eigenvalues --   -0.19016  -0.13134  -0.12673  -0.10518
 Alpha virt. eigenvalues --   -0.05597  -0.05184  -0.04772  -0.03085  -0.02892
 Alpha virt. eigenvalues --   -0.02077  -0.01422  -0.01271  -0.00425  -0.00270
 Alpha virt. eigenvalues --    0.00069   0.00347   0.00843   0.00862   0.00901

  Beta  occ. eigenvalues --  -38.44083 -38.43734 -38.43712 -38.43691 -38.43258
  Beta  occ. eigenvalues --  -38.43202 -38.42788  -2.19876  -2.19625  -2.19593
  Beta  occ. eigenvalues --   -2.19530  -2.19164  -2.19159  -2.18756  -1.13550
  Beta  occ. eigenvalues --   -1.13533  -1.13514  -1.13421  -1.13283  -1.13271
  Beta  occ. eigenvalues --   -1.13252  -1.13246  -1.13219  -1.13217  -1.13175
  Beta  occ. eigenvalues --   -1.13151  -1.12925  -1.12846  -1.12826  -1.12809
  Beta  occ. eigenvalues --   -1.12795  -1.12755  -1.12483  -1.12416  -1.12398
  Beta  occ. eigenvalues --   -0.18324  -0.12844  -0.12425
  Beta virt. eigenvalues --   -0.06638  -0.05553  -0.05126  -0.04725  -0.02334
  Beta virt. eigenvalues --   -0.02166  -0.01333  -0.01244  -0.01041  -0.00434
  Beta virt. eigenvalues --   -0.00278   0.00180   0.00395   0.00846   0.00911

 Mulliken charges and spin densities:
               1          2
     1  Na  -0.131222  -0.109252
     2  Na   0.386823   0.064604
     3  Na   0.123666   0.071731
     4  Na  -0.187264   0.603474
     5  Na   0.045336  -0.013233
     6  Na  -0.003510   0.427902
     7  Na  -0.233828  -0.045226
 Sum of Mulliken charges =  -0.00000   1.00000

 Dipole moment (field-independent basis, Debye):
    X=              0.2553    Y=              0.1776    Z=              0.0547  Tot=              0.3158
 Quadrupole moment (field-independent basis, Debye-Ang):
   XX=            -57.1046   YY=            -59.5851   ZZ=            -75.5679
   XY=              0.0644   XZ=              1.5554   YZ=              1.5527

 Normal termination of Gaussian 16 at Wed Nov 29 02:59:17 2023.
