 Gaussian 16, Revision B.01,
 Gaussian 16:  ES64L-G16RevB.01 20-Dec-2017

 -------------------------
 #P B3LYP/6-311+g(d) force
 -------------------------

 -----
 DPGEN
 -----
 Symbolic Z-matrix:
 Charge =  0 Multiplicity = 2

                         Standard orientation:
 ---------------------------------------------------------------------
 Center     Atomic      Atomic             Coordinates (Angstroms)
 Number     Number       Type             X           Y           Z
 ---------------------------------------------------------------------
      1         11           0       -2.457044   -2.000922    0.115485
      2         11           0        0.295522   -0.242808    2.483677
      3         11           0        0.975663   -2.148617   -1.165219
      4         11           0       -2.502794    1.846942    0.393131
      5         11           0        3.039983   -0.335636    0.484016
      6         11           0        1.245384    2.504605   -0.640521
      7         11           0       -0.596715    0.376436   -1.670570
 ---------------------------------------------------------------------

 SCF Done:  E(UB3LYP) =  -1136.12762303     A.U. after   20 cycles

 The electronic state is 2-A.
 Alpha  occ. eigenvalues --  -38.45036 -38.44005 -38.43721 -38.43712 -38.43507
 Alpha  occ. eigenvalues --  -38.43449 -38.43448  -2.20852  -2.19816  -2.19577
 Alpha  occ. eigenvalues --   -2.19529  -2.19509  -2.19346  -2.19298  -1.14495
 Alpha  occ. eigenvalues --   -1.14482  -1.14475  -1.13529  -1.13483  -1.13433
 Alpha  occ. eigenvalues --   -1.13281  -1.13272  -1.13256  -1.13250  -1.13213
 Alpha  occ. eigenvalues --   -1.13190  -1.13181  -1.13151  -1.13142  -1.13005
 Alpha  occ. eigenvalues --   -1.12970  -1.12960  -1.12938  -1.12934  -1.12895
 Alpha  occ. eigenvalues --   -0.18439  -0.12884  -0.11960  -0.11882
 Alpha virt. eigenvalues --   -0.05469  -0.05245  -0.04096  -0.03726  -0.03379
 Alpha virt. eigenvalues --   -0.03130  -0.01321  -0.00982  -0.00335   0.00064
 Alpha virt. eigenvalues --    0.00153   0.00406   0.00648   0.00758   0.00869

  Beta  occ. eigenvalues --  -38.44931 -38.44000 -38.43717 -38.43714 -38.43452
  Beta  occ. eigenvalues --  -38.43436 -38.43417  -2.20658  -2.19810  -2.19572
  Beta  occ. eigenvalues --   -2.19515  -2.19430  -2.19291  -2.19279  -1.14367
  Beta  occ. eigenvalues --   -1.14349  -1.14334  -1.13520  -1.13470  -1.13427
  Beta  occ. eigenvalues --   -1.13268  -1.13231  -1.13215  -1.13211  -1.13198
  Beta  occ. eigenvalues --   -1.13179  -1.13173  -1.13149  -1.13083  -1.12953
  Beta  occ. eigenvalues --   -1.12933  -1.12920  -1.12918  -1.12903  -1.12882
  Beta  occ. eigenvalues --   -0.17679  -0.12700  -0.11744
  Beta virt. eigenvalues --   -0.07861  -0.05378  -0.05041  -0.03894  -0.03067
  Beta virt. eigenvalues --   -0.02482  -0.02414  -0.01204  -0.00925  -0.00191
  Beta virt. eigenvalues --    0.00109   0.00169   0.00435   0.00830   0.00858

 Mulliken charges and spin densities:
               1          2
     1  Na  -0.129352   0.066920
     2  Na  -0.377531   0.572860
     3  Na   0.055684   0.018065
     4  Na  -0.213161   0.119019
     5  Na   0.054953   0.189814
     6  Na  -0.110128  -0.005768
     7  Na   0.719535   0.039090
 Sum of Mulliken charges =  -0.00000   1.00000

 Dipole moment (field-independent basis, Debye):
    X=             -0.2397    Y=              0.0287    Z=              0.7812  Tot=              0.8176
 Quadrupole moment (field-independent basis, Debye-Ang):
   XX=            -59.4970   YY=            -68.5035   ZZ=            -68.1431
   XY=              0.3007   XZ=             -2.0292   YZ=              0.9770

 Normal termination of Gaussian 16 at Fri Dec  8 01:33:01 2023.
