 Gaussian 16, Revision B.01,
 Gaussian 16:  ES64L-G16RevB.01 20-Dec-2017

 -------------------------
 #P B3LYP/6-311+g(d) force
 -------------------------

 -----
 DPGEN
 -----
 Symbolic Z-matrix:
 Charge =  0 Multiplicity = 2

                         Standard orientation:
 ---------------------------------------------------------------------
 Center     Atomic      Atomic             Coordinates (Angstroms)
 Number     Number       Type             X           Y           Z
 ---------------------------------------------------------------------
      1         11           0        0.654342   -2.428995   -0.691190
      2         11           0       -2.325135    2.662121    0.795404
      3         11           0        0.082207    1.137641   -1.191669
      4         11           0        2.447637   -0.183241    1.539258
      5         11           0       -1.476711   -1.485125    1.590381
      6         11           0        3.357036    1.108243   -0.756783
      7         11           0       -2.739375   -0.810644   -1.285401
 ---------------------------------------------------------------------

 SCF Done:  E(UB3LYP) =  -1136.12209424     A.U. after   21 cycles

 The electronic state is 2-A.
 Alpha  occ. eigenvalues --  -38.44707 -38.44492 -38.44387 -38.43791 -38.43624
 Alpha  occ. eigenvalues --  -38.43605 -38.43146  -2.20548  -2.20383  -2.20272
 Alpha  occ. eigenvalues --   -2.19653  -2.19471  -2.19380  -2.19047  -1.14303
 Alpha  occ. eigenvalues --   -1.14245  -1.14220  -1.14141  -1.14026  -1.13997
 Alpha  occ. eigenvalues --   -1.13902  -1.13884  -1.13801  -1.13334  -1.13319
 Alpha  occ. eigenvalues --   -1.13281  -1.13153  -1.13128  -1.13088  -1.13049
 Alpha  occ. eigenvalues --   -1.13037  -1.13009  -1.12733  -1.12717  -1.12673
 Alpha  occ. eigenvalues --   -0.18118  -0.13855  -0.11646  -0.10640
 Alpha virt. eigenvalues --   -0.06277  -0.05273  -0.04926  -0.03370  -0.02899
 Alpha virt. eigenvalues --   -0.02232  -0.01916  -0.00983  -0.00766  -0.00150
 Alpha virt. eigenvalues --    0.00042   0.00236   0.00319   0.00497   0.00800

  Beta  occ. eigenvalues --  -38.44684 -38.44487 -38.44357 -38.43757 -38.43611
  Beta  occ. eigenvalues --  -38.43580 -38.43112  -2.20507  -2.20372  -2.20217
  Beta  occ. eigenvalues --   -2.19591  -2.19451  -2.19334  -2.18989  -1.14282
  Beta  occ. eigenvalues --   -1.14210  -1.14187  -1.14110  -1.14010  -1.13986
  Beta  occ. eigenvalues --   -1.13865  -1.13849  -1.13769  -1.13296  -1.13265
  Beta  occ. eigenvalues --   -1.13236  -1.13140  -1.13088  -1.13072  -1.13018
  Beta  occ. eigenvalues --   -1.13000  -1.12981  -1.12695  -1.12659  -1.12627
  Beta  occ. eigenvalues --   -0.17463  -0.13662  -0.11418
  Beta virt. eigenvalues --   -0.07030  -0.06172  -0.04920  -0.04402  -0.03174
  Beta virt. eigenvalues --   -0.02383  -0.01900  -0.01398  -0.00860  -0.00400
  Beta virt. eigenvalues --   -0.00082   0.00159   0.00334   0.00384   0.00621

 Mulliken charges and spin densities:
               1          2
     1  Na   0.036332   0.113492
     2  Na  -0.159325   0.002004
     3  Na  -0.362611   0.381616
     4  Na  -0.167635   0.174959
     5  Na  -0.054873   0.384486
     6  Na   0.235579  -0.102865
     7  Na   0.472532   0.046307
 Sum of Mulliken charges =  -0.00000   1.00000

 Dipole moment (field-independent basis, Debye):
    X=              0.2178    Y=             -0.3790    Z=             -0.1717  Tot=              0.4696
 Quadrupole moment (field-independent basis, Debye-Ang):
   XX=            -54.4207   YY=            -71.6447   ZZ=            -68.8012
   XY=              2.4732   XZ=             -0.5439   YZ=              2.6922

 Normal termination of Gaussian 16 at Tue Dec  5 21:38:43 2023.
