 Gaussian 16, Revision B.01,
 Gaussian 16:  ES64L-G16RevB.01 20-Dec-2017

 -------------------------
 #P B3LYP/6-311+g(d) force
 -------------------------

 -----
 DPGEN
 -----
 Symbolic Z-matrix:
 Charge =  0 Multiplicity = 2

                         Standard orientation:
 ---------------------------------------------------------------------
 Center     Atomic      Atomic             Coordinates (Angstroms)
 Number     Number       Type             X           Y           Z
 ---------------------------------------------------------------------
      1         11           0       -2.770133    1.159340    0.085735
      2         11           0       -0.256820    0.155998    2.004438
      3         11           0        1.653272   -2.430372    0.228531
      4         11           0        0.221089    2.953422   -0.407571
      5         11           0        2.941063    0.763935    0.157261
      6         11           0       -2.029438   -2.200919   -0.220428
      7         11           0        0.240966   -0.401404   -1.847966
 ---------------------------------------------------------------------

 SCF Done:  E(UB3LYP) =  -1136.14114837     A.U. after   19 cycles

 The electronic state is 2-A.
 Alpha  occ. eigenvalues --  -38.43711 -38.43661 -38.43629 -38.43557 -38.43551
 Alpha  occ. eigenvalues --  -38.43450 -38.43405  -2.19560  -2.19548  -2.19479
 Alpha  occ. eigenvalues --   -2.19413  -2.19406  -2.19387  -2.19236  -1.13251
 Alpha  occ. eigenvalues --   -1.13234  -1.13223  -1.13203  -1.13199  -1.13182
 Alpha  occ. eigenvalues --   -1.13151  -1.13144  -1.13131  -1.13124  -1.13104
 Alpha  occ. eigenvalues --   -1.13076  -1.13062  -1.13042  -1.13037  -1.13021
 Alpha  occ. eigenvalues --   -1.12995  -1.12990  -1.12907  -1.12894  -1.12873
 Alpha  occ. eigenvalues --   -0.18645  -0.12900  -0.12553  -0.10932
 Alpha virt. eigenvalues --   -0.05267  -0.05198  -0.04832  -0.03269  -0.03080
 Alpha virt. eigenvalues --   -0.02687  -0.01268  -0.01109  -0.00319  -0.00272
 Alpha virt. eigenvalues --   -0.00025   0.00388   0.00846   0.00902   0.00910

  Beta  occ. eigenvalues --  -38.43708 -38.43625 -38.43576 -38.43551 -38.43544
  Beta  occ. eigenvalues --  -38.43397 -38.43377  -2.19546  -2.19476  -2.19406
  Beta  occ. eigenvalues --   -2.19403  -2.19396  -2.19254  -2.19224  -1.13226
  Beta  occ. eigenvalues --   -1.13203  -1.13191  -1.13190  -1.13137  -1.13127
  Beta  occ. eigenvalues --   -1.13122  -1.13107  -1.13083  -1.13075  -1.13058
  Beta  occ. eigenvalues --   -1.13048  -1.13039  -1.13032  -1.13019  -1.12960
  Beta  occ. eigenvalues --   -1.12915  -1.12907  -1.12883  -1.12877  -1.12864
  Beta  occ. eigenvalues --   -0.17900  -0.12671  -0.12314
  Beta virt. eigenvalues --   -0.07036  -0.05273  -0.05170  -0.04721  -0.02470
  Beta virt. eigenvalues --   -0.02309  -0.01655  -0.01184  -0.01032  -0.00360
  Beta virt. eigenvalues --   -0.00329   0.00110   0.00405   0.00885   0.00901

 Mulliken charges and spin densities:
               1          2
     1  Na   0.154046  -0.049265
     2  Na  -0.360977   0.687952
     3  Na   0.178183  -0.071542
     4  Na   0.003721  -0.054233
     5  Na   0.067847  -0.054170
     6  Na   0.187409  -0.102003
     7  Na  -0.230229   0.643260
 Sum of Mulliken charges =  -0.00000   1.00000

 Dipole moment (field-independent basis, Debye):
    X=              0.0244    Y=             -0.0743    Z=              0.0770  Tot=              0.1098
 Quadrupole moment (field-independent basis, Debye-Ang):
   XX=            -59.4141   YY=            -62.1053   ZZ=            -72.8900
   XY=              0.1213   XZ=              1.0817   YZ=             -1.2076

 Normal termination of Gaussian 16 at Wed Nov 29 15:47:16 2023.
