 Gaussian 16, Revision B.01,
 Gaussian 16:  ES64L-G16RevB.01 20-Dec-2017

 -------------------------
 #P B3LYP/6-311+g(d) force
 -------------------------

 -----
 DPGEN
 -----
 Symbolic Z-matrix:
 Charge =  0 Multiplicity = 2

                         Standard orientation:
 ---------------------------------------------------------------------
 Center     Atomic      Atomic             Coordinates (Angstroms)
 Number     Number       Type             X           Y           Z
 ---------------------------------------------------------------------
      1         11           0        0.740053    2.023349    1.742923
      2         11           0       -1.828322   -1.277107    1.567978
      3         11           0        2.324157   -0.834581    1.328801
      4         11           0       -0.345867   -2.356307   -0.994925
      5         11           0        2.667090   -0.383814   -1.594314
      6         11           0        0.327821    2.208633   -1.322004
      7         11           0       -3.884932    0.619828   -0.728460
 ---------------------------------------------------------------------

 SCF Done:  E(UB3LYP) =  -1136.11700759     A.U. after   22 cycles

 The electronic state is 2-A.
 Alpha  occ. eigenvalues --  -38.45311 -38.44369 -38.44144 -38.44137 -38.43915
 Alpha  occ. eigenvalues --  -38.43640 -38.43513  -2.21039  -2.20255  -2.20022
 Alpha  occ. eigenvalues --   -2.19955  -2.19730  -2.19470  -2.19375  -1.14715
 Alpha  occ. eigenvalues --   -1.14688  -1.14669  -1.14021  -1.13917  -1.13867
 Alpha  occ. eigenvalues --   -1.13683  -1.13680  -1.13653  -1.13619  -1.13609
 Alpha  occ. eigenvalues --   -1.13574  -1.13408  -1.13403  -1.13330  -1.13209
 Alpha  occ. eigenvalues --   -1.13130  -1.13095  -1.13035  -1.13003  -1.12982
 Alpha  occ. eigenvalues --   -0.17791  -0.13058  -0.11721  -0.11540
 Alpha virt. eigenvalues --   -0.06721  -0.04921  -0.04053  -0.03762  -0.03390
 Alpha virt. eigenvalues --   -0.03011  -0.01934  -0.00909  -0.00395  -0.00165
 Alpha virt. eigenvalues --    0.00010   0.00040   0.00349   0.00659   0.00775

  Beta  occ. eigenvalues --  -38.45295 -38.44337 -38.44118 -38.44105 -38.43903
  Beta  occ. eigenvalues --  -38.43614 -38.43475  -2.21009  -2.20198  -2.19951
  Beta  occ. eigenvalues --   -2.19922  -2.19711  -2.19422  -2.19307  -1.14693
  Beta  occ. eigenvalues --   -1.14667  -1.14650  -1.13975  -1.13868  -1.13824
  Beta  occ. eigenvalues --   -1.13661  -1.13620  -1.13609  -1.13585  -1.13568
  Beta  occ. eigenvalues --   -1.13540  -1.13395  -1.13374  -1.13319  -1.13175
  Beta  occ. eigenvalues --   -1.13092  -1.13059  -1.12980  -1.12959  -1.12931
  Beta  occ. eigenvalues --   -0.17055  -0.12878  -0.11531
  Beta virt. eigenvalues --   -0.07792  -0.06522  -0.04441  -0.03685  -0.03346
  Beta virt. eigenvalues --   -0.03194  -0.02111  -0.01810  -0.00607  -0.00349
  Beta virt. eigenvalues --   -0.00012   0.00062   0.00136   0.00393   0.00773

 Mulliken charges and spin densities:
               1          2
     1  Na  -0.097891  -0.076092
     2  Na   0.040168   0.152547
     3  Na   0.307452   0.273915
     4  Na  -0.181640   0.071171
     5  Na   0.086972   0.161057
     6  Na  -0.263219   0.445829
     7  Na   0.108158  -0.028428
 Sum of Mulliken charges =  -0.00000   1.00000

 Dipole moment (field-independent basis, Debye):
    X=             -0.6403    Y=             -0.1820    Z=             -0.2396  Tot=              0.7075
 Quadrupole moment (field-independent basis, Debye-Ang):
   XX=            -58.0075   YY=            -75.3564   ZZ=            -63.8655
   XY=             -2.2320   XZ=              1.6692   YZ=             -1.0221

 Normal termination of Gaussian 16 at Sun Dec  3 21:14:04 2023.
