 Gaussian 16, Revision B.01,
 Gaussian 16:  ES64L-G16RevB.01 20-Dec-2017

 -------------------------
 #P B3LYP/6-311+g(d) force
 -------------------------

 -----
 DPGEN
 -----
 Symbolic Z-matrix:
 Charge =  0 Multiplicity = 2

                         Standard orientation:
 ---------------------------------------------------------------------
 Center     Atomic      Atomic             Coordinates (Angstroms)
 Number     Number       Type             X           Y           Z
 ---------------------------------------------------------------------
      1         11           0        1.548360   -0.283224    2.010454
      2         11           0       -1.393637    1.736489    0.168208
      3         11           0        2.782286   -1.731075   -0.824410
      4         11           0       -0.773614    0.443827   -1.967734
      5         11           0       -0.537805   -2.375663    0.056376
      6         11           0       -3.836635   -0.306727    0.547066
      7         11           0        2.211046    2.516374    0.010041
 ---------------------------------------------------------------------

 SCF Done:  E(UB3LYP) =  -1136.11810393     A.U. after   20 cycles

 The electronic state is 2-A.
 Alpha  occ. eigenvalues --  -38.44653 -38.44590 -38.44494 -38.43966 -38.43806
 Alpha  occ. eigenvalues --  -38.43512 -38.43445  -2.20459  -2.20448  -2.20382
 Alpha  occ. eigenvalues --   -2.19820  -2.19773  -2.19295  -2.19280  -1.14494
 Alpha  occ. eigenvalues --   -1.14142  -1.14106  -1.14080  -1.14051  -1.14046
 Alpha  occ. eigenvalues --   -1.14036  -1.14025  -1.13977  -1.13495  -1.13467
 Alpha  occ. eigenvalues --   -1.13429  -1.13400  -1.13388  -1.13304  -1.12979
 Alpha  occ. eigenvalues --   -1.12972  -1.12970  -1.12957  -1.12936  -1.12878
 Alpha  occ. eigenvalues --   -0.18112  -0.13494  -0.11830  -0.10731
 Alpha virt. eigenvalues --   -0.06413  -0.05286  -0.04284  -0.03579  -0.02817
 Alpha virt. eigenvalues --   -0.02580  -0.02058  -0.01310  -0.00265  -0.00173
 Alpha virt. eigenvalues --    0.00082   0.00220   0.00455   0.00621   0.00802

  Beta  occ. eigenvalues --  -38.44627 -38.44584 -38.44412 -38.43909 -38.43794
  Beta  occ. eigenvalues --  -38.43516 -38.43436  -2.20410  -2.20373  -2.20299
  Beta  occ. eigenvalues --   -2.19757  -2.19714  -2.19306  -2.19268  -1.14404
  Beta  occ. eigenvalues --   -1.14108  -1.14068  -1.14049  -1.14036  -1.14027
  Beta  occ. eigenvalues --   -1.14019  -1.13939  -1.13875  -1.13423  -1.13397
  Beta  occ. eigenvalues --   -1.13381  -1.13353  -1.13335  -1.13297  -1.12975
  Beta  occ. eigenvalues --   -1.12973  -1.12960  -1.12938  -1.12935  -1.12872
  Beta  occ. eigenvalues --   -0.17442  -0.13223  -0.11611
  Beta virt. eigenvalues --   -0.07121  -0.06110  -0.05219  -0.03885  -0.03228
  Beta virt. eigenvalues --   -0.02282  -0.01899  -0.01680  -0.01154  -0.00186
  Beta virt. eigenvalues --   -0.00039   0.00084   0.00301   0.00685   0.00734

 Mulliken charges and spin densities:
               1          2
     1  Na  -0.277236   0.135001
     2  Na   0.276309   0.568795
     3  Na   0.164926   0.016673
     4  Na  -0.340471   0.116737
     5  Na  -0.088612   0.331072
     6  Na   0.118051  -0.114342
     7  Na   0.147033  -0.053937
 Sum of Mulliken charges =  -0.00000   1.00000

 Dipole moment (field-independent basis, Debye):
    X=              0.0906    Y=             -0.4556    Z=             -0.1463  Tot=              0.4870
 Quadrupole moment (field-independent basis, Debye-Ang):
   XX=            -52.0779   YY=            -71.8894   ZZ=            -70.4354
   XY=              1.1833   XZ=             -4.0982   YZ=              0.5188

 Normal termination of Gaussian 16 at Thu Dec  7 10:02:02 2023.
