 Gaussian 16, Revision B.01,
 Gaussian 16:  ES64L-G16RevB.01 20-Dec-2017

 -------------------------
 #P B3LYP/6-311+g(d) force
 -------------------------

 -----
 DPGEN
 -----
 Symbolic Z-matrix:
 Charge =  0 Multiplicity = 2

                         Standard orientation:
 ---------------------------------------------------------------------
 Center     Atomic      Atomic             Coordinates (Angstroms)
 Number     Number       Type             X           Y           Z
 ---------------------------------------------------------------------
      1         11           0        0.988076    2.674014   -0.318931
      2         11           0       -0.119253   -0.108085    1.847776
      3         11           0        3.331051   -0.177221    0.341497
      4         11           0       -2.283226    1.691453    0.294669
      5         11           0       -2.611630   -1.643572    0.014047
      6         11           0       -0.246910    0.168331   -1.816835
      7         11           0        0.941893   -2.604922   -0.362223
 ---------------------------------------------------------------------

 SCF Done:  E(UB3LYP) =  -1136.13849969     A.U. after   19 cycles

 The electronic state is 2-A.
 Alpha  occ. eigenvalues --  -38.44191 -38.43666 -38.43535 -38.43503 -38.43304
 Alpha  occ. eigenvalues --  -38.43295 -38.43196  -2.19984  -2.19526  -2.19479
 Alpha  occ. eigenvalues --   -2.19420  -2.19284  -2.19154  -2.19061  -1.13657
 Alpha  occ. eigenvalues --   -1.13638  -1.13629  -1.13238  -1.13201  -1.13182
 Alpha  occ. eigenvalues --   -1.13172  -1.13137  -1.13101  -1.13087  -1.13052
 Alpha  occ. eigenvalues --   -1.13029  -1.12965  -1.12945  -1.12906  -1.12825
 Alpha  occ. eigenvalues --   -1.12821  -1.12768  -1.12733  -1.12714  -1.12679
 Alpha  occ. eigenvalues --   -0.18904  -0.13043  -0.12445  -0.10925
 Alpha virt. eigenvalues --   -0.05693  -0.05029  -0.04491  -0.03224  -0.02942
 Alpha virt. eigenvalues --   -0.02598  -0.01589  -0.01033  -0.00294  -0.00109
 Alpha virt. eigenvalues --    0.00005   0.00353   0.00811   0.00909   0.00916

  Beta  occ. eigenvalues --  -38.44188 -38.43661 -38.43492 -38.43458 -38.43286
  Beta  occ. eigenvalues --  -38.43221 -38.43188  -2.19980  -2.19522  -2.19403
  Beta  occ. eigenvalues --   -2.19337  -2.19140  -2.19132  -2.19050  -1.13642
  Beta  occ. eigenvalues --   -1.13637  -1.13627  -1.13221  -1.13183  -1.13156
  Beta  occ. eigenvalues --   -1.13138  -1.13064  -1.13048  -1.13023  -1.12999
  Beta  occ. eigenvalues --   -1.12968  -1.12877  -1.12865  -1.12813  -1.12800
  Beta  occ. eigenvalues --   -1.12777  -1.12757  -1.12703  -1.12689  -1.12671
  Beta  occ. eigenvalues --   -0.18159  -0.12800  -0.12170
  Beta virt. eigenvalues --   -0.07006  -0.05623  -0.05040  -0.04453  -0.02469
  Beta virt. eigenvalues --   -0.02149  -0.01554  -0.01481  -0.00973  -0.00308
  Beta virt. eigenvalues --   -0.00153   0.00116   0.00373   0.00860   0.00900

 Mulliken charges and spin densities:
               1          2
     1  Na   0.085863  -0.064758
     2  Na  -0.342215   0.675719
     3  Na  -0.090060  -0.042629
     4  Na   0.330237  -0.010881
     5  Na   0.127169  -0.100361
     6  Na  -0.132699   0.616934
     7  Na   0.021704  -0.074024
 Sum of Mulliken charges =  -0.00000   1.00000

 Dipole moment (field-independent basis, Debye):
    X=              0.1056    Y=             -0.0805    Z=              0.1113  Tot=              0.1732
 Quadrupole moment (field-independent basis, Debye-Ang):
   XX=            -55.5785   YY=            -64.4093   ZZ=            -73.4647
   XY=              0.8697   XZ=              0.1470   YZ=              0.6846

 Normal termination of Gaussian 16 at Thu Dec  7 10:58:01 2023.
