 Gaussian 16, Revision B.01,
 Gaussian 16:  ES64L-G16RevB.01 20-Dec-2017

 -------------------------
 #P B3LYP/6-311+g(d) force
 -------------------------

 -----
 DPGEN
 -----
 Symbolic Z-matrix:
 Charge =  0 Multiplicity = 2

                         Standard orientation:
 ---------------------------------------------------------------------
 Center     Atomic      Atomic             Coordinates (Angstroms)
 Number     Number       Type             X           Y           Z
 ---------------------------------------------------------------------
      1         11           0       -1.429701    0.370265    1.820914
      2         11           0        0.651028   -1.984686    2.012538
      3         11           0       -1.777031   -2.339150   -1.163843
      4         11           0       -3.268767    2.059371   -0.529213
      5         11           0        1.087481    2.512290   -0.370765
      6         11           0        3.624432    0.936316   -0.052908
      7         11           0        1.112557   -1.554405   -1.716723
 ---------------------------------------------------------------------

 SCF Done:  E(UB3LYP) =  -1136.12102340     A.U. after   20 cycles

 The electronic state is 2-A.
 Alpha  occ. eigenvalues --  -38.44537 -38.44373 -38.44147 -38.44092 -38.43884
 Alpha  occ. eigenvalues --  -38.43827 -38.43766  -2.20381  -2.20200  -2.19987
 Alpha  occ. eigenvalues --   -2.19900  -2.19649  -2.19646  -2.19622  -1.14084
 Alpha  occ. eigenvalues --   -1.14008  -1.13973  -1.13947  -1.13825  -1.13821
 Alpha  occ. eigenvalues --   -1.13660  -1.13628  -1.13624  -1.13588  -1.13574
 Alpha  occ. eigenvalues --   -1.13551  -1.13327  -1.13309  -1.13299  -1.13296
 Alpha  occ. eigenvalues --   -1.13295  -1.13285  -1.13273  -1.13272  -1.13230
 Alpha  occ. eigenvalues --   -0.17323  -0.12837  -0.12266  -0.11704
 Alpha virt. eigenvalues --   -0.05747  -0.05355  -0.04497  -0.03535  -0.03344
 Alpha virt. eigenvalues --   -0.03007  -0.01540  -0.01335  -0.00766  -0.00239
 Alpha virt. eigenvalues --   -0.00077   0.00237   0.00428   0.00694   0.00788

  Beta  occ. eigenvalues --  -38.44450 -38.44334 -38.44110 -38.44092 -38.43871
  Beta  occ. eigenvalues --  -38.43829 -38.43722  -2.20223  -2.20128  -2.19922
  Beta  occ. eigenvalues --   -2.19900  -2.19651  -2.19624  -2.19548  -1.13963
  Beta  occ. eigenvalues --   -1.13902  -1.13888  -1.13863  -1.13777  -1.13768
  Beta  occ. eigenvalues --   -1.13626  -1.13612  -1.13585  -1.13571  -1.13552
  Beta  occ. eigenvalues --   -1.13533  -1.13303  -1.13296  -1.13289  -1.13287
  Beta  occ. eigenvalues --   -1.13276  -1.13275  -1.13253  -1.13231  -1.13152
  Beta  occ. eigenvalues --   -0.16630  -0.12648  -0.12026
  Beta virt. eigenvalues --   -0.07677  -0.05599  -0.05224  -0.04201  -0.03169
  Beta virt. eigenvalues --   -0.02863  -0.02136  -0.01471  -0.01136  -0.00507
  Beta virt. eigenvalues --   -0.00067  -0.00021   0.00361   0.00522   0.00743

 Mulliken charges and spin densities:
               1          2
     1  Na  -0.075336   0.294569
     2  Na   0.083772   0.199722
     3  Na  -0.122117   0.175310
     4  Na   0.204112   0.051724
     5  Na  -0.351292  -0.018808
     6  Na   0.298843  -0.005682
     7  Na  -0.037983   0.303165
 Sum of Mulliken charges =  -0.00000   1.00000

 Dipole moment (field-independent basis, Debye):
    X=              0.2121    Y=             -0.5746    Z=             -0.2289  Tot=              0.6539
 Quadrupole moment (field-independent basis, Debye-Ang):
   XX=            -59.6915   YY=            -69.0899   ZZ=            -69.6352
   XY=             -1.0719   XZ=              4.5068   YZ=             -2.6182

 Normal termination of Gaussian 16 at Mon Dec  4 01:22:55 2023.
