 Gaussian 16, Revision B.01,
 Gaussian 16:  ES64L-G16RevB.01 20-Dec-2017

 -------------------------
 #P B3LYP/6-311+g(d) force
 -------------------------

 -----
 DPGEN
 -----
 Symbolic Z-matrix:
 Charge =  0 Multiplicity = 2

                         Standard orientation:
 ---------------------------------------------------------------------
 Center     Atomic      Atomic             Coordinates (Angstroms)
 Number     Number       Type             X           Y           Z
 ---------------------------------------------------------------------
      1         11           0        0.071224    0.126606   -1.863108
      2         11           0       -1.520280    2.492187    0.019319
      3         11           0        1.751678    2.011803   -0.003463
      4         11           0        2.960341   -0.904881    0.185524
      5         11           0       -0.290675   -0.083586    1.887282
      6         11           0       -2.869930   -0.916844   -0.052182
      7         11           0       -0.102358   -2.725285   -0.173372
 ---------------------------------------------------------------------

 SCF Done:  E(UB3LYP) =  -1136.13955525     A.U. after   19 cycles

 The electronic state is 2-A.
 Alpha  occ. eigenvalues --  -38.43779 -38.43654 -38.43434 -38.43407 -38.43269
 Alpha  occ. eigenvalues --  -38.43254 -38.43232  -2.19646  -2.19509  -2.19394
 Alpha  occ. eigenvalues --   -2.19385  -2.19195  -2.19149  -2.19128  -1.13335
 Alpha  occ. eigenvalues --   -1.13313  -1.13285  -1.13212  -1.13165  -1.13156
 Alpha  occ. eigenvalues --   -1.13102  -1.13068  -1.13042  -1.13036  -1.13012
 Alpha  occ. eigenvalues --   -1.13000  -1.12869  -1.12848  -1.12840  -1.12810
 Alpha  occ. eigenvalues --   -1.12803  -1.12798  -1.12792  -1.12757  -1.12745
 Alpha  occ. eigenvalues --   -0.19204  -0.13079  -0.12652  -0.11034
 Alpha virt. eigenvalues --   -0.05384  -0.04927  -0.04613  -0.03265  -0.03013
 Alpha virt. eigenvalues --   -0.02674  -0.01362  -0.01001  -0.00093  -0.00027
 Alpha virt. eigenvalues --    0.00006   0.00375   0.00859   0.00949   0.00963

  Beta  occ. eigenvalues --  -38.43774 -38.43652 -38.43352 -38.43323 -38.43264
  Beta  occ. eigenvalues --  -38.43246 -38.43224  -2.19642  -2.19507  -2.19244
  Beta  occ. eigenvalues --   -2.19232  -2.19185  -2.19144  -2.19117  -1.13330
  Beta  occ. eigenvalues --   -1.13287  -1.13284  -1.13212  -1.13156  -1.13142
  Beta  occ. eigenvalues --   -1.13021  -1.12973  -1.12944  -1.12932  -1.12907
  Beta  occ. eigenvalues --   -1.12897  -1.12853  -1.12829  -1.12799  -1.12795
  Beta  occ. eigenvalues --   -1.12785  -1.12775  -1.12757  -1.12749  -1.12743
  Beta  occ. eigenvalues --   -0.18438  -0.12826  -0.12388
  Beta virt. eigenvalues --   -0.07081  -0.05355  -0.04933  -0.04591  -0.02427
  Beta virt. eigenvalues --   -0.02197  -0.01601  -0.01284  -0.00941  -0.00143
  Beta virt. eigenvalues --   -0.00064   0.00110   0.00384   0.00900   0.00941

 Mulliken charges and spin densities:
               1          2
     1  Na  -0.433605   0.644774
     2  Na   0.209988  -0.108442
     3  Na   0.321550  -0.014318
     4  Na   0.020700  -0.068254
     5  Na  -0.513797   0.726599
     6  Na   0.210492  -0.109487
     7  Na   0.184673  -0.070872
 Sum of Mulliken charges =  -0.00000   1.00000

 Dipole moment (field-independent basis, Debye):
    X=             -0.1769    Y=             -0.1142    Z=              0.0407  Tot=              0.2145
 Quadrupole moment (field-independent basis, Debye-Ang):
   XX=            -57.8304   YY=            -63.6889   ZZ=            -72.7105
   XY=             -0.8788   XZ=              0.8510   YZ=              0.3564

 Normal termination of Gaussian 16 at Thu Dec  7 08:53:10 2023.
