 Gaussian 16, Revision B.01,
 Gaussian 16:  ES64L-G16RevB.01 20-Dec-2017

 -------------------------
 #P B3LYP/6-311+g(d) force
 -------------------------

 -----
 DPGEN
 -----
 Symbolic Z-matrix:
 Charge =  0 Multiplicity = 2

                         Standard orientation:
 ---------------------------------------------------------------------
 Center     Atomic      Atomic             Coordinates (Angstroms)
 Number     Number       Type             X           Y           Z
 ---------------------------------------------------------------------
      1         11           0       -3.872094    0.319001    1.135384
      2         11           0       -2.201103    3.204767   -0.130117
      3         11           0        1.269556    2.761083   -0.717416
      4         11           0        0.364652   -3.098906   -0.322787
      5         11           0        3.477943   -2.050242    0.447035
      6         11           0        4.348145    1.189075    0.282839
      7         11           0       -3.387100   -2.324778   -0.694938
 ---------------------------------------------------------------------

 SCF Done:  E(UB3LYP) =  -1136.10950785     A.U. after   24 cycles

 The electronic state is 2-A.
 Alpha  occ. eigenvalues --  -38.45252 -38.45152 -38.44813 -38.44559 -38.44219
 Alpha  occ. eigenvalues --  -38.43836 -38.43826  -2.20999  -2.20941  -2.20608
 Alpha  occ. eigenvalues --   -2.20346  -2.20001  -2.19645  -2.19624  -1.14690
 Alpha  occ. eigenvalues --   -1.14679  -1.14621  -1.14614  -1.14605  -1.14582
 Alpha  occ. eigenvalues --   -1.14283  -1.14276  -1.14257  -1.14010  -1.14005
 Alpha  occ. eigenvalues --   -1.13984  -1.13668  -1.13663  -1.13617  -1.13292
 Alpha  occ. eigenvalues --   -1.13290  -1.13288  -1.13277  -1.13276  -1.13263
 Alpha  occ. eigenvalues --   -0.15657  -0.14201  -0.13175  -0.10729
 Alpha virt. eigenvalues --   -0.07745  -0.04865  -0.04375  -0.03625  -0.03537
 Alpha virt. eigenvalues --   -0.02432  -0.02205  -0.01764  -0.01067  -0.00933
 Alpha virt. eigenvalues --   -0.00659  -0.00245   0.00239   0.00317   0.00691

  Beta  occ. eigenvalues --  -38.45234 -38.45131 -38.44795 -38.44539 -38.44168
  Beta  occ. eigenvalues --  -38.43801 -38.43763  -2.20972  -2.20905  -2.20580
  Beta  occ. eigenvalues --   -2.20313  -2.19910  -2.19560  -2.19527  -1.14676
  Beta  occ. eigenvalues --   -1.14666  -1.14590  -1.14582  -1.14564  -1.14541
  Beta  occ. eigenvalues --   -1.14271  -1.14260  -1.14196  -1.13989  -1.13981
  Beta  occ. eigenvalues --   -1.13952  -1.13608  -1.13603  -1.13545  -1.13245
  Beta  occ. eigenvalues --   -1.13235  -1.13213  -1.13212  -1.13211  -1.13199
  Beta  occ. eigenvalues --   -0.15133  -0.13518  -0.12367
  Beta virt. eigenvalues --   -0.07972  -0.07549  -0.04498  -0.03817  -0.03425
  Beta virt. eigenvalues --   -0.03239  -0.02179  -0.01975  -0.01595  -0.00871
  Beta virt. eigenvalues --   -0.00702  -0.00388  -0.00041   0.00295   0.00358

 Mulliken charges and spin densities:
               1          2
     1  Na  -0.214401   0.138334
     2  Na   0.079265   0.090371
     3  Na  -0.243349   0.146042
     4  Na  -0.271412   0.224668
     5  Na   0.350856  -0.046555
     6  Na   0.324282   0.291536
     7  Na  -0.025241   0.155605
 Sum of Mulliken charges =  -0.00000   1.00000

 Dipole moment (field-independent basis, Debye):
    X=             -0.4901    Y=             -0.1265    Z=              0.0852  Tot=              0.5133
 Quadrupole moment (field-independent basis, Debye-Ang):
   XX=            -60.4171   YY=            -70.8290   ZZ=            -69.5587
   XY=             -1.3748   XZ=              0.0266   YZ=              1.0721

 Normal termination of Gaussian 16 at Mon Dec  4 04:21:27 2023.
