 Gaussian 16, Revision B.01,
 Gaussian 16:  ES64L-G16RevB.01 20-Dec-2017

 -------------------------
 #P B3LYP/6-311+g(d) force
 -------------------------

 -----
 DPGEN
 -----
 Symbolic Z-matrix:
 Charge =  0 Multiplicity = 2

                         Standard orientation:
 ---------------------------------------------------------------------
 Center     Atomic      Atomic             Coordinates (Angstroms)
 Number     Number       Type             X           Y           Z
 ---------------------------------------------------------------------
      1         11           0        0.086162    0.037860   -1.492527
      2         11           0       -0.605110    0.754279    1.702861
      3         11           0        1.901135    1.760682    0.390045
      4         11           0        2.772288   -0.919843   -0.519282
      5         11           0       -1.974449    1.533394   -0.736930
      6         11           0        0.293528   -1.860679    0.731564
      7         11           0       -2.473554   -1.305694   -0.075730
 ---------------------------------------------------------------------

 SCF Done:  E(UB3LYP) =  -1136.09737887     A.U. after   20 cycles

 The electronic state is 2-A.
 Alpha  occ. eigenvalues --  -38.44203 -38.44073 -38.43828 -38.43821 -38.43702
 Alpha  occ. eigenvalues --  -38.43544 -38.42971  -2.20198  -2.20168  -2.20068
 Alpha  occ. eigenvalues --   -2.19843  -2.19837  -2.19527  -2.19089  -1.14274
 Alpha  occ. eigenvalues --   -1.13983  -1.13893  -1.13872  -1.13839  -1.13791
 Alpha  occ. eigenvalues --   -1.13757  -1.13645  -1.13582  -1.13542  -1.13503
 Alpha  occ. eigenvalues --   -1.13486  -1.13455  -1.13430  -1.13409  -1.13181
 Alpha  occ. eigenvalues --   -1.13165  -1.13120  -1.12766  -1.12714  -1.12682
 Alpha  occ. eigenvalues --   -0.20845  -0.14353  -0.12109  -0.11877
 Alpha virt. eigenvalues --   -0.05742  -0.04750  -0.03987  -0.03516  -0.02777
 Alpha virt. eigenvalues --   -0.02615  -0.01582  -0.00661  -0.00126   0.00307
 Alpha virt. eigenvalues --    0.00527   0.00621   0.00905   0.00976   0.01054

  Beta  occ. eigenvalues --  -38.44193 -38.44045 -38.43812 -38.43757 -38.43619
  Beta  occ. eigenvalues --  -38.43532 -38.42943  -2.20181  -2.20110  -2.19953
  Beta  occ. eigenvalues --   -2.19831  -2.19688  -2.19510  -2.19044  -1.14205
  Beta  occ. eigenvalues --   -1.13953  -1.13865  -1.13847  -1.13805  -1.13743
  Beta  occ. eigenvalues --   -1.13687  -1.13584  -1.13529  -1.13457  -1.13444
  Beta  occ. eigenvalues --   -1.13427  -1.13423  -1.13358  -1.13316  -1.13166
  Beta  occ. eigenvalues --   -1.13112  -1.13109  -1.12740  -1.12667  -1.12623
  Beta  occ. eigenvalues --   -0.20075  -0.14023  -0.11830
  Beta virt. eigenvalues --   -0.07694  -0.05693  -0.04752  -0.03472  -0.03048
  Beta virt. eigenvalues --   -0.02022  -0.01548  -0.01451  -0.00631   0.00065
  Beta virt. eigenvalues --    0.00347   0.00525   0.00604   0.00956   0.00977

 Mulliken charges and spin densities:
               1          2
     1  Na  -1.083208   0.219975
     2  Na  -0.295686   0.335097
     3  Na  -0.140568   0.071192
     4  Na   0.629071   0.024860
     5  Na   0.527170   0.064597
     6  Na   0.197687   0.203699
     7  Na   0.165533   0.080579
 Sum of Mulliken charges =  -0.00000   1.00000

 Dipole moment (field-independent basis, Debye):
    X=              0.1003    Y=              0.1274    Z=              0.0959  Tot=              0.1883
 Quadrupole moment (field-independent basis, Debye-Ang):
   XX=            -53.8721   YY=            -71.7248   ZZ=            -69.9377
   XY=              0.4774   XZ=              0.1632   YZ=              0.0155

 Normal termination of Gaussian 16 at Thu Dec  7 03:28:50 2023.
