 Gaussian 16, Revision B.01,
 Gaussian 16:  ES64L-G16RevB.01 20-Dec-2017

 -------------------------
 #P B3LYP/6-311+g(d) force
 -------------------------

 -----
 DPGEN
 -----
 Symbolic Z-matrix:
 Charge =  0 Multiplicity = 2

                         Standard orientation:
 ---------------------------------------------------------------------
 Center     Atomic      Atomic             Coordinates (Angstroms)
 Number     Number       Type             X           Y           Z
 ---------------------------------------------------------------------
      1         11           0        0.927780   -0.167441    2.362424
      2         11           0       -1.115815    0.211593   -1.802776
      3         11           0       -2.163017    2.102316    0.168926
      4         11           0        1.229579    2.524522   -0.126996
      5         11           0       -2.560969   -1.797033    0.615864
      6         11           0        0.525037   -2.395864   -0.660749
      7         11           0        3.157405   -0.478093   -0.556694
 ---------------------------------------------------------------------

 SCF Done:  E(UB3LYP) =  -1136.13262755     A.U. after   19 cycles

 The electronic state is 2-A.
 Alpha  occ. eigenvalues --  -38.44398 -38.43937 -38.43908 -38.43785 -38.43737
 Alpha  occ. eigenvalues --  -38.43519 -38.43123  -2.20215  -2.19754  -2.19735
 Alpha  occ. eigenvalues --   -2.19730  -2.19600  -2.19346  -2.19015  -1.13868
 Alpha  occ. eigenvalues --   -1.13851  -1.13834  -1.13553  -1.13429  -1.13415
 Alpha  occ. eigenvalues --   -1.13413  -1.13405  -1.13394  -1.13389  -1.13374
 Alpha  occ. eigenvalues --   -1.13320  -1.13243  -1.13217  -1.13208  -1.13027
 Alpha  occ. eigenvalues --   -1.13020  -1.12968  -1.12710  -1.12670  -1.12639
 Alpha  occ. eigenvalues --   -0.18255  -0.12979  -0.12366  -0.11166
 Alpha virt. eigenvalues --   -0.05439  -0.05350  -0.04514  -0.03680  -0.03165
 Alpha virt. eigenvalues --   -0.02909  -0.01319  -0.00960  -0.00217  -0.00190
 Alpha virt. eigenvalues --   -0.00015   0.00373   0.00694   0.00762   0.00833

  Beta  occ. eigenvalues --  -38.44308 -38.43926 -38.43899 -38.43739 -38.43736
  Beta  occ. eigenvalues --  -38.43515 -38.43106  -2.20047  -2.19734  -2.19720
  Beta  occ. eigenvalues --   -2.19648  -2.19599  -2.19342  -2.18987  -1.13755
  Beta  occ. eigenvalues --   -1.13733  -1.13713  -1.13512  -1.13412  -1.13403
  Beta  occ. eigenvalues --   -1.13393  -1.13384  -1.13378  -1.13356  -1.13338
  Beta  occ. eigenvalues --   -1.13268  -1.13234  -1.13208  -1.13184  -1.13020
  Beta  occ. eigenvalues --   -1.13004  -1.12968  -1.12686  -1.12633  -1.12619
  Beta  occ. eigenvalues --   -0.17554  -0.12799  -0.12168
  Beta virt. eigenvalues --   -0.07316  -0.05326  -0.05170  -0.04338  -0.03101
  Beta virt. eigenvalues --   -0.02458  -0.01933  -0.01213  -0.00893  -0.00217
  Beta virt. eigenvalues --   -0.00066   0.00054   0.00432   0.00859   0.00876

 Mulliken charges and spin densities:
               1          2
     1  Na  -0.591941   0.597919
     2  Na   0.182443   0.235975
     3  Na   0.239798   0.017619
     4  Na  -0.061718  -0.037178
     5  Na  -0.023586   0.085209
     6  Na   0.081263   0.103532
     7  Na   0.173740  -0.003077
 Sum of Mulliken charges =  -0.00000   1.00000

 Dipole moment (field-independent basis, Debye):
    X=             -0.0688    Y=              0.0859    Z=              0.3324  Tot=              0.3502
 Quadrupole moment (field-independent basis, Debye-Ang):
   XX=            -59.0223   YY=            -67.9894   ZZ=            -69.3589
   XY=              0.7841   XZ=             -3.3022   YZ=             -0.0212

 Normal termination of Gaussian 16 at Thu Dec  7 23:46:57 2023.
