 Gaussian 16, Revision B.01,
 Gaussian 16:  ES64L-G16RevB.01 20-Dec-2017

 -------------------------
 #P B3LYP/6-311+g(d) force
 -------------------------

 -----
 DPGEN
 -----
 Symbolic Z-matrix:
 Charge =  0 Multiplicity = 2

                         Standard orientation:
 ---------------------------------------------------------------------
 Center     Atomic      Atomic             Coordinates (Angstroms)
 Number     Number       Type             X           Y           Z
 ---------------------------------------------------------------------
      1         11           0        1.011311   -0.082245    2.384408
      2         11           0       -1.100435    0.125745   -1.771190
      3         11           0       -2.399813    1.942224    0.209935
      4         11           0        1.033565    2.653338   -0.187464
      5         11           0       -2.326555   -1.989936    0.603870
      6         11           0        0.631228   -2.324707   -0.653912
      7         11           0        3.150699   -0.324419   -0.585646
 ---------------------------------------------------------------------

 SCF Done:  E(UB3LYP) =  -1136.13200680     A.U. after   19 cycles

 The electronic state is 2-A.
 Alpha  occ. eigenvalues --  -38.44401 -38.43892 -38.43842 -38.43817 -38.43725
 Alpha  occ. eigenvalues --  -38.43655 -38.43058  -2.20214  -2.19720  -2.19693
 Alpha  occ. eigenvalues --   -2.19671  -2.19653  -2.19466  -2.18978  -1.13864
 Alpha  occ. eigenvalues --   -1.13849  -1.13834  -1.13525  -1.13407  -1.13377
 Alpha  occ. eigenvalues --   -1.13374  -1.13357  -1.13339  -1.13325  -1.13318
 Alpha  occ. eigenvalues --   -1.13306  -1.13293  -1.13254  -1.13246  -1.13149
 Alpha  occ. eigenvalues --   -1.13139  -1.13086  -1.12671  -1.12629  -1.12602
 Alpha  occ. eigenvalues --   -0.18267  -0.12944  -0.12398  -0.11166
 Alpha virt. eigenvalues --   -0.05501  -0.05267  -0.04516  -0.03695  -0.03164
 Alpha virt. eigenvalues --   -0.02906  -0.01279  -0.00981  -0.00243  -0.00195
 Alpha virt. eigenvalues --    0.00004   0.00372   0.00707   0.00788   0.00810

  Beta  occ. eigenvalues --  -38.44310 -38.43883 -38.43842 -38.43805 -38.43680
  Beta  occ. eigenvalues --  -38.43652 -38.43040  -2.20043  -2.19705  -2.19690
  Beta  occ. eigenvalues --   -2.19633  -2.19593  -2.19462  -2.18949  -1.13750
  Beta  occ. eigenvalues --   -1.13731  -1.13712  -1.13499  -1.13396  -1.13359
  Beta  occ. eigenvalues --   -1.13345  -1.13340  -1.13329  -1.13312  -1.13292
  Beta  occ. eigenvalues --   -1.13279  -1.13276  -1.13210  -1.13202  -1.13138
  Beta  occ. eigenvalues --   -1.13126  -1.13087  -1.12648  -1.12589  -1.12581
  Beta  occ. eigenvalues --   -0.17568  -0.12762  -0.12211
  Beta virt. eigenvalues --   -0.07298  -0.05451  -0.05005  -0.04371  -0.03104
  Beta virt. eigenvalues --   -0.02465  -0.01926  -0.01190  -0.00904  -0.00246
  Beta virt. eigenvalues --   -0.00045   0.00060   0.00433   0.00853   0.00877

 Mulliken charges and spin densities:
               1          2
     1  Na  -0.598857   0.596728
     2  Na   0.254491   0.224731
     3  Na   0.161322   0.010258
     4  Na  -0.090483  -0.051038
     5  Na  -0.039214   0.109213
     6  Na   0.133311   0.105544
     7  Na   0.179431   0.004565
 Sum of Mulliken charges =  -0.00000   1.00000

 Dipole moment (field-independent basis, Debye):
    X=             -0.0864    Y=              0.2219    Z=              0.3565  Tot=              0.4287
 Quadrupole moment (field-independent basis, Debye-Ang):
   XX=            -59.4318   YY=            -67.5540   ZZ=            -69.3646
   XY=              0.9265   XZ=             -3.4260   YZ=             -0.2214

 Normal termination of Gaussian 16 at Thu Dec  7 22:00:11 2023.
