 Gaussian 16, Revision B.01,
 Gaussian 16:  ES64L-G16RevB.01 20-Dec-2017

 -------------------------
 #P B3LYP/6-311+g(d) force
 -------------------------

 -----
 DPGEN
 -----
 Symbolic Z-matrix:
 Charge =  0 Multiplicity = 2

                         Standard orientation:
 ---------------------------------------------------------------------
 Center     Atomic      Atomic             Coordinates (Angstroms)
 Number     Number       Type             X           Y           Z
 ---------------------------------------------------------------------
      1         11           0       -0.329198    3.079260    0.861673
      2         11           0       -2.601211    1.369887    0.159599
      3         11           0       -4.749179   -1.203067   -0.691039
      4         11           0       -1.422041   -2.284473    0.117412
      5         11           0        2.066551   -1.942806    1.064037
      6         11           0        4.981538   -0.814607   -0.515942
      7         11           0        2.053539    1.795806   -0.995742
 ---------------------------------------------------------------------

 SCF Done:  E(UB3LYP) =  -1136.11879051     A.U. after   22 cycles

 The electronic state is 2-A.
 Alpha  occ. eigenvalues --  -38.45634 -38.44618 -38.44073 -38.44071 -38.44069
 Alpha  occ. eigenvalues --  -38.43828 -38.43435  -2.21390  -2.20471  -2.19871
 Alpha  occ. eigenvalues --   -2.19863  -2.19859  -2.19643  -2.19305  -1.15094
 Alpha  occ. eigenvalues --   -1.15070  -1.14991  -1.14182  -1.14142  -1.14115
 Alpha  occ. eigenvalues --   -1.13560  -1.13557  -1.13545  -1.13534  -1.13523
 Alpha  occ. eigenvalues --   -1.13519  -1.13496  -1.13471  -1.13447  -1.13299
 Alpha  occ. eigenvalues --   -1.13297  -1.13256  -1.13003  -1.12936  -1.12929
 Alpha  occ. eigenvalues --   -0.16424  -0.13912  -0.12843  -0.10723
 Alpha virt. eigenvalues --   -0.06900  -0.04947  -0.04545  -0.03822  -0.03057
 Alpha virt. eigenvalues --   -0.02469  -0.01865  -0.01596  -0.01179  -0.00724
 Alpha virt. eigenvalues --   -0.00357  -0.00059   0.00251   0.00547   0.00672

  Beta  occ. eigenvalues --  -38.45626 -38.44610 -38.44031 -38.44027 -38.44026
  Beta  occ. eigenvalues --  -38.43782 -38.43433  -2.21377  -2.20458  -2.19799
  Beta  occ. eigenvalues --   -2.19792  -2.19773  -2.19556  -2.19300  -1.15087
  Beta  occ. eigenvalues --   -1.15059  -1.14974  -1.14157  -1.14130  -1.14112
  Beta  occ. eigenvalues --   -1.13512  -1.13507  -1.13505  -1.13491  -1.13464
  Beta  occ. eigenvalues --   -1.13458  -1.13430  -1.13396  -1.13368  -1.13238
  Beta  occ. eigenvalues --   -1.13235  -1.13204  -1.13000  -1.12933  -1.12926
  Beta  occ. eigenvalues --   -0.15994  -0.13460  -0.12385
  Beta virt. eigenvalues --   -0.07114  -0.06849  -0.04634  -0.04133  -0.03649
  Beta virt. eigenvalues --   -0.02614  -0.02315  -0.01645  -0.01139  -0.01051
  Beta virt. eigenvalues --   -0.00421  -0.00163   0.00142   0.00432   0.00599

 Mulliken charges and spin densities:
               1          2
     1  Na   0.000741   0.109178
     2  Na  -0.769005   0.104475
     3  Na   1.150025   0.224592
     4  Na  -0.333236   0.243878
     5  Na  -0.211278  -0.018715
     6  Na   0.421743   0.260484
     7  Na  -0.258991   0.076108
 Sum of Mulliken charges =  -0.00000   1.00000

 Dipole moment (field-independent basis, Debye):
    X=              0.0954    Y=              0.3227    Z=             -0.2738  Tot=              0.4338
 Quadrupole moment (field-independent basis, Debye-Ang):
   XX=            -60.4319   YY=            -68.8881   ZZ=            -68.9816
   XY=              0.8912   XZ=              0.0854   YZ=              0.7386

 Normal termination of Gaussian 16 at Mon Dec  4 03:14:18 2023.
