 Gaussian 16, Revision B.01,
 Gaussian 16:  ES64L-G16RevB.01 20-Dec-2017

 -------------------------
 #P B3LYP/6-311+g(d) force
 -------------------------

 -----
 DPGEN
 -----
 Symbolic Z-matrix:
 Charge =  0 Multiplicity = 2

                         Standard orientation:
 ---------------------------------------------------------------------
 Center     Atomic      Atomic             Coordinates (Angstroms)
 Number     Number       Type             X           Y           Z
 ---------------------------------------------------------------------
      1         11           0        0.356338   -1.133712   -0.753853
      2         11           0       -2.168277    1.753539   -1.115279
      3         11           0       -3.250112   -1.816953   -0.147504
      4         11           0        0.970752    2.231781   -0.285411
      5         11           0       -1.448041    0.166155    1.790962
      6         11           0        3.114265   -1.034571   -1.448048
      7         11           0        2.425076   -0.166239    1.959133
 ---------------------------------------------------------------------

 SCF Done:  E(UB3LYP) =  -1136.12604682     A.U. after   28 cycles

 The electronic state is 2-A.
 Alpha  occ. eigenvalues --  -38.44668 -38.44225 -38.44198 -38.43716 -38.43551
 Alpha  occ. eigenvalues --  -38.43468 -38.42624  -2.20510  -2.20125  -2.20079
 Alpha  occ. eigenvalues --   -2.19575  -2.19530  -2.19281  -2.18499  -1.14178
 Alpha  occ. eigenvalues --   -1.14157  -1.14124  -1.13879  -1.13833  -1.13778
 Alpha  occ. eigenvalues --   -1.13728  -1.13693  -1.13678  -1.13254  -1.13236
 Alpha  occ. eigenvalues --   -1.13228  -1.13189  -1.13170  -1.13131  -1.12956
 Alpha  occ. eigenvalues --   -1.12937  -1.12922  -1.12196  -1.12163  -1.12121
 Alpha  occ. eigenvalues --   -0.18545  -0.13955  -0.11515  -0.11156
 Alpha virt. eigenvalues --   -0.05947  -0.05221  -0.04978  -0.03264  -0.02681
 Alpha virt. eigenvalues --   -0.02328  -0.01985  -0.01099  -0.00826   0.00081
 Alpha virt. eigenvalues --    0.00217   0.00339   0.00371   0.00503   0.00660

  Beta  occ. eigenvalues --  -38.44606 -38.44183 -38.44159 -38.43692 -38.43522
  Beta  occ. eigenvalues --  -38.43473 -38.42616  -2.20396  -2.20049  -2.20009
  Beta  occ. eigenvalues --   -2.19532  -2.19484  -2.19292  -2.18488  -1.14095
  Beta  occ. eigenvalues --   -1.14082  -1.14037  -1.13823  -1.13784  -1.13713
  Beta  occ. eigenvalues --   -1.13672  -1.13643  -1.13631  -1.13216  -1.13211
  Beta  occ. eigenvalues --   -1.13166  -1.13159  -1.13130  -1.13105  -1.12958
  Beta  occ. eigenvalues --   -1.12944  -1.12929  -1.12188  -1.12129  -1.12119
  Beta  occ. eigenvalues --   -0.17850  -0.13755  -0.10950
  Beta virt. eigenvalues --   -0.07581  -0.05726  -0.05022  -0.04447  -0.02974
  Beta virt. eigenvalues --   -0.02111  -0.01850  -0.01731  -0.00811  -0.00486
  Beta virt. eigenvalues --    0.00157   0.00255   0.00457   0.00516   0.00587

 Mulliken charges and spin densities:
               1          2
     1  Na  -2.776896   0.609058
     2  Na  -0.004405   0.012186
     3  Na   1.080991  -0.017341
     4  Na  -0.126713   0.132357
     5  Na   0.083057   0.299008
     6  Na   1.565095  -0.261314
     7  Na   0.178872   0.226046
 Sum of Mulliken charges =  -0.00000   1.00000

 Dipole moment (field-independent basis, Debye):
    X=              0.3320    Y=              0.1739    Z=              0.2360  Tot=              0.4429
 Quadrupole moment (field-independent basis, Debye-Ang):
   XX=            -51.8034   YY=            -76.7381   ZZ=            -65.7490
   XY=              0.2222   XZ=              2.3445   YZ=              0.1529

 Normal termination of Gaussian 16 at Tue Dec  5 12:09:19 2023.
