 Gaussian 16, Revision B.01,
 Gaussian 16:  ES64L-G16RevB.01 20-Dec-2017

 -------------------------
 #P B3LYP/6-311+g(d) force
 -------------------------

 -----
 DPGEN
 -----
 Symbolic Z-matrix:
 Charge =  0 Multiplicity = 2

                         Standard orientation:
 ---------------------------------------------------------------------
 Center     Atomic      Atomic             Coordinates (Angstroms)
 Number     Number       Type             X           Y           Z
 ---------------------------------------------------------------------
      1         11           0        3.826372    1.947164    0.633413
      2         11           0        4.766423   -1.192416    0.256417
      3         11           0        0.237228    1.973908   -0.603603
      4         11           0       -2.065637   -1.757752   -0.343676
      5         11           0        1.164793   -2.440637   -0.431999
      6         11           0       -5.153495   -0.444188    0.988657
      7         11           0       -2.775685    1.913921   -0.499209
 ---------------------------------------------------------------------

 SCF Done:  E(UB3LYP) =  -1136.11384485     A.U. after   23 cycles

 The electronic state is 2-A.
 Alpha  occ. eigenvalues --  -38.45064 -38.45036 -38.44853 -38.44354 -38.44052
 Alpha  occ. eigenvalues --  -38.43668 -38.43552  -2.20871  -2.20813  -2.20626
 Alpha  occ. eigenvalues --   -2.20201  -2.19867  -2.19458  -2.19376  -1.14513
 Alpha  occ. eigenvalues --   -1.14512  -1.14485  -1.14481  -1.14478  -1.14448
 Alpha  occ. eigenvalues --   -1.14301  -1.14278  -1.14259  -1.13922  -1.13866
 Alpha  occ. eigenvalues --   -1.13818  -1.13557  -1.13550  -1.13498  -1.13128
 Alpha  occ. eigenvalues --   -1.13125  -1.13079  -1.13044  -1.13023  -1.13016
 Alpha  occ. eigenvalues --   -0.16571  -0.14433  -0.11921  -0.11798
 Alpha virt. eigenvalues --   -0.06838  -0.05420  -0.03986  -0.03882  -0.03351
 Alpha virt. eigenvalues --   -0.02622  -0.02276  -0.01489  -0.00963  -0.00767
 Alpha virt. eigenvalues --   -0.00378  -0.00094   0.00123   0.00397   0.00669

  Beta  occ. eigenvalues --  -38.45016 -38.44968 -38.44847 -38.44327 -38.44026
  Beta  occ. eigenvalues --  -38.43633 -38.43520  -2.20778  -2.20692  -2.20616
  Beta  occ. eigenvalues --   -2.20158  -2.19826  -2.19397  -2.19320  -1.14460
  Beta  occ. eigenvalues --   -1.14454  -1.14426  -1.14391  -1.14387  -1.14362
  Beta  occ. eigenvalues --   -1.14295  -1.14276  -1.14242  -1.13867  -1.13841
  Beta  occ. eigenvalues --   -1.13778  -1.13536  -1.13508  -1.13438  -1.13090
  Beta  occ. eigenvalues --   -1.13081  -1.13027  -1.13006  -1.12979  -1.12976
  Beta  occ. eigenvalues --   -0.15809  -0.13851  -0.11339
  Beta virt. eigenvalues --   -0.08320  -0.06997  -0.04876  -0.03709  -0.03477
  Beta virt. eigenvalues --   -0.03023  -0.02372  -0.01767  -0.01288  -0.00848
  Beta virt. eigenvalues --   -0.00476  -0.00070  -0.00040   0.00295   0.00433

 Mulliken charges and spin densities:
               1          2
     1  Na   0.609079   0.128995
     2  Na  -0.358723   0.232104
     3  Na  -1.074737  -0.019343
     4  Na  -0.306341   0.070275
     5  Na  -0.527880   0.013029
     6  Na   1.112306   0.454842
     7  Na   0.546297   0.120098
 Sum of Mulliken charges =  -0.00000   1.00000

 Dipole moment (field-independent basis, Debye):
    X=             -0.0332    Y=              0.1310    Z=              0.5865  Tot=              0.6018
 Quadrupole moment (field-independent basis, Debye-Ang):
   XX=            -47.0863   YY=            -73.1316   ZZ=            -71.9673
   XY=             -1.9979   XZ=             -0.9300   YZ=              0.7438

 Normal termination of Gaussian 16 at Sun Dec  3 20:18:09 2023.
