 Gaussian 16, Revision B.01,
 Gaussian 16:  ES64L-G16RevB.01 20-Dec-2017

 -------------------------
 #P B3LYP/6-311+g(d) force
 -------------------------

 -----
 DPGEN
 -----
 Symbolic Z-matrix:
 Charge =  0 Multiplicity = 2

                         Standard orientation:
 ---------------------------------------------------------------------
 Center     Atomic      Atomic             Coordinates (Angstroms)
 Number     Number       Type             X           Y           Z
 ---------------------------------------------------------------------
      1         11           0        2.593353   -1.856587   -0.058434
      2         11           0       -0.111626   -0.005069   -1.800749
      3         11           0       -0.983710    2.880223    0.078220
      4         11           0       -1.122347   -2.486245   -0.038822
      5         11           0       -3.325501   -0.252034   -0.017364
      6         11           0        0.465130    0.125780    2.296828
      7         11           0        2.484702    1.593932   -0.459679
 ---------------------------------------------------------------------

 SCF Done:  E(UB3LYP) =  -1136.13607635     A.U. after   19 cycles

 The electronic state is 2-A.
 Alpha  occ. eigenvalues --  -38.44198 -38.44165 -38.43873 -38.43705 -38.43656
 Alpha  occ. eigenvalues --  -38.43372 -38.43215  -2.20015  -2.19999  -2.19717
 Alpha  occ. eigenvalues --   -2.19589  -2.19520  -2.19170  -2.19096  -1.13703
 Alpha  occ. eigenvalues --   -1.13677  -1.13651  -1.13648  -1.13632  -1.13615
 Alpha  occ. eigenvalues --   -1.13424  -1.13379  -1.13343  -1.13280  -1.13232
 Alpha  occ. eigenvalues --   -1.13206  -1.13185  -1.13172  -1.13169  -1.12846
 Alpha  occ. eigenvalues --   -1.12837  -1.12807  -1.12787  -1.12758  -1.12716
 Alpha  occ. eigenvalues --   -0.18312  -0.13032  -0.12121  -0.11079
 Alpha virt. eigenvalues --   -0.05715  -0.05249  -0.04478  -0.03368  -0.02990
 Alpha virt. eigenvalues --   -0.02947  -0.01557  -0.01105  -0.00406  -0.00202
 Alpha virt. eigenvalues --   -0.00085   0.00359   0.00724   0.00868   0.00873

  Beta  occ. eigenvalues --  -38.44199 -38.44061 -38.43861 -38.43704 -38.43591
  Beta  occ. eigenvalues --  -38.43371 -38.43209  -2.20019  -2.19808  -2.19700
  Beta  occ. eigenvalues --   -2.19521  -2.19471  -2.19171  -2.19090  -1.13708
  Beta  occ. eigenvalues --   -1.13667  -1.13654  -1.13523  -1.13500  -1.13477
  Beta  occ. eigenvalues --   -1.13399  -1.13352  -1.13333  -1.13205  -1.13177
  Beta  occ. eigenvalues --   -1.13174  -1.13164  -1.13151  -1.13112  -1.12840
  Beta  occ. eigenvalues --   -1.12826  -1.12811  -1.12779  -1.12737  -1.12710
  Beta  occ. eigenvalues --   -0.17571  -0.12838  -0.11923
  Beta virt. eigenvalues --   -0.07114  -0.05647  -0.05243  -0.04396  -0.02614
  Beta virt. eigenvalues --   -0.02178  -0.01927  -0.01468  -0.01040  -0.00452
  Beta virt. eigenvalues --   -0.00247   0.00083   0.00389   0.00820   0.00861

 Mulliken charges and spin densities:
               1          2
     1  Na   0.185231  -0.015758
     2  Na  -0.070968   0.405553
     3  Na  -0.002286  -0.069052
     4  Na   0.167875  -0.009158
     5  Na   0.045540  -0.059950
     6  Na  -0.611956   0.767436
     7  Na   0.286565  -0.019071
 Sum of Mulliken charges =  -0.00000   1.00000

 Dipole moment (field-independent basis, Debye):
    X=             -0.0092    Y=              0.0874    Z=              0.1414  Tot=              0.1665
 Quadrupole moment (field-independent basis, Debye-Ang):
   XX=            -56.6430   YY=            -65.9479   ZZ=            -72.3354
   XY=             -1.0794   XZ=             -1.1225   YZ=             -0.2096

 Normal termination of Gaussian 16 at Thu Dec  7 16:47:14 2023.
