 Gaussian 16, Revision B.01,
 Gaussian 16:  ES64L-G16RevB.01 20-Dec-2017

 -------------------------
 #P B3LYP/6-311+g(d) force
 -------------------------

 -----
 DPGEN
 -----
 Symbolic Z-matrix:
 Charge =  0 Multiplicity = 2

                         Standard orientation:
 ---------------------------------------------------------------------
 Center     Atomic      Atomic             Coordinates (Angstroms)
 Number     Number       Type             X           Y           Z
 ---------------------------------------------------------------------
      1         11           0       -2.032639   -1.802584    0.601829
      2         11           0        2.488492    1.634998    0.107787
      3         11           0        0.954770   -1.013546    1.595332
      4         11           0       -1.193210    1.779384    1.279412
      5         11           0        3.660442   -1.150092   -0.926756
      6         11           0       -0.189222    0.458242   -1.558002
      7         11           0       -3.688632    0.093597   -1.099604
 ---------------------------------------------------------------------

 SCF Done:  E(UB3LYP) =  -1136.12122258     A.U. after   35 cycles

 The electronic state is 2-A.
 Alpha  occ. eigenvalues --  -38.44927 -38.44469 -38.44149 -38.44037 -38.43712
 Alpha  occ. eigenvalues --  -38.43548 -38.42543  -2.20823  -2.20330  -2.20076
 Alpha  occ. eigenvalues --   -2.19934  -2.19625  -2.19365  -2.18420  -1.14526
 Alpha  occ. eigenvalues --   -1.14461  -1.14453  -1.14024  -1.13978  -1.13953
 Alpha  occ. eigenvalues --   -1.13788  -1.13725  -1.13674  -1.13631  -1.13600
 Alpha  occ. eigenvalues --   -1.13529  -1.13303  -1.13264  -1.13261  -1.13041
 Alpha  occ. eigenvalues --   -1.13025  -1.13002  -1.12102  -1.12093  -1.12038
 Alpha  occ. eigenvalues --   -0.18799  -0.14383  -0.11818  -0.10627
 Alpha virt. eigenvalues --   -0.06713  -0.05136  -0.04814  -0.03265  -0.02662
 Alpha virt. eigenvalues --   -0.02466  -0.02255  -0.01017  -0.00960  -0.00159
 Alpha virt. eigenvalues --    0.00116   0.00270   0.00367   0.00624   0.00715

  Beta  occ. eigenvalues --  -38.44891 -38.44444 -38.44063 -38.44024 -38.43676
  Beta  occ. eigenvalues --  -38.43550 -38.42530  -2.20759  -2.20281  -2.19923
  Beta  occ. eigenvalues --   -2.19911  -2.19564  -2.19371  -2.18400  -1.14476
  Beta  occ. eigenvalues --   -1.14416  -1.14401  -1.13998  -1.13939  -1.13916
  Beta  occ. eigenvalues --   -1.13679  -1.13639  -1.13605  -1.13564  -1.13556
  Beta  occ. eigenvalues --   -1.13514  -1.13257  -1.13227  -1.13186  -1.13043
  Beta  occ. eigenvalues --   -1.13023  -1.13007  -1.12094  -1.12049  -1.12031
  Beta  occ. eigenvalues --   -0.18021  -0.14176  -0.10471
  Beta virt. eigenvalues --   -0.07767  -0.06460  -0.05058  -0.04252  -0.02752
  Beta virt. eigenvalues --   -0.02489  -0.01942  -0.01613  -0.00936  -0.00583
  Beta virt. eigenvalues --   -0.00108   0.00147   0.00347   0.00434   0.00698

 Mulliken charges and spin densities:
               1          2
     1  Na  -0.302667   0.038783
     2  Na   0.610705   0.097179
     3  Na  -0.065019   0.348012
     4  Na  -0.347758   0.080610
     5  Na   0.035587  -0.094591
     6  Na  -0.612597   0.360368
     7  Na   0.681749   0.169640
 Sum of Mulliken charges =  -0.00000   1.00000

 Dipole moment (field-independent basis, Debye):
    X=             -0.2490    Y=              0.7766    Z=             -0.1664  Tot=              0.8324
 Quadrupole moment (field-independent basis, Debye-Ang):
   XX=            -56.3490   YY=            -74.5689   ZZ=            -67.6854
   XY=             -0.9369   XZ=              0.2601   YZ=             -2.3061

 Normal termination of Gaussian 16 at Thu Dec  7 12:07:35 2023.
