 Gaussian 16, Revision B.01,
 Gaussian 16:  ES64L-G16RevB.01 20-Dec-2017

 -------------------------
 #P B3LYP/6-311+g(d) force
 -------------------------

 -----
 DPGEN
 -----
 Symbolic Z-matrix:
 Charge =  0 Multiplicity = 2

                         Standard orientation:
 ---------------------------------------------------------------------
 Center     Atomic      Atomic             Coordinates (Angstroms)
 Number     Number       Type             X           Y           Z
 ---------------------------------------------------------------------
      1         11           0        0.178793   -2.128056   -0.439031
      2         11           0       -0.304839   -0.159138    1.951058
      3         11           0       -2.245918   -0.942892   -0.055781
      4         11           0        2.362527   -0.704587    0.275746
      5         11           0        0.211609    0.408171   -1.889653
      6         11           0       -1.542512    1.711558   -0.029508
      7         11           0        1.340339    1.814945    0.187169
 ---------------------------------------------------------------------

 SCF Done:  E(UB3LYP) =  -1136.07997615     A.U. after   20 cycles

 The electronic state is 2-A.
 Alpha  occ. eigenvalues --  -38.44527 -38.44392 -38.43913 -38.43849 -38.43586
 Alpha  occ. eigenvalues --  -38.43567 -38.43484  -2.20727  -2.20549  -2.20028
 Alpha  occ. eigenvalues --   -2.19984  -2.19747  -2.19721  -2.19632  -1.14538
 Alpha  occ. eigenvalues --   -1.14413  -1.14357  -1.14316  -1.14219  -1.14175
 Alpha  occ. eigenvalues --   -1.13985  -1.13888  -1.13814  -1.13777  -1.13606
 Alpha  occ. eigenvalues --   -1.13567  -1.13501  -1.13354  -1.13328  -1.13275
 Alpha  occ. eigenvalues --   -1.13269  -1.13254  -1.13211  -1.13205  -1.13098
 Alpha  occ. eigenvalues --   -0.21761  -0.13674  -0.13007  -0.12765
 Alpha virt. eigenvalues --   -0.04981  -0.04179  -0.04043  -0.03873  -0.03479
 Alpha virt. eigenvalues --   -0.03327  -0.00756  -0.00428  -0.00217   0.00348
 Alpha virt. eigenvalues --    0.00935   0.00943   0.01103   0.01192   0.01262

  Beta  occ. eigenvalues --  -38.44432 -38.44296 -38.43901 -38.43838 -38.43570
  Beta  occ. eigenvalues --  -38.43547 -38.43470  -2.20556  -2.20375  -2.20012
  Beta  occ. eigenvalues --   -2.19969  -2.19726  -2.19692  -2.19614  -1.14439
  Beta  occ. eigenvalues --   -1.14290  -1.14239  -1.14210  -1.14095  -1.14053
  Beta  occ. eigenvalues --   -1.13978  -1.13877  -1.13802  -1.13759  -1.13548
  Beta  occ. eigenvalues --   -1.13505  -1.13490  -1.13290  -1.13284  -1.13256
  Beta  occ. eigenvalues --   -1.13227  -1.13208  -1.13197  -1.13172  -1.13092
  Beta  occ. eigenvalues --   -0.20867  -0.13301  -0.12632
  Beta virt. eigenvalues --   -0.08545  -0.04983  -0.04171  -0.03990  -0.02927
  Beta virt. eigenvalues --   -0.02580  -0.02207  -0.00687  -0.00390  -0.00035
  Beta virt. eigenvalues --    0.00370   0.00921   0.00925   0.01160   0.01202

 Mulliken charges and spin densities:
               1          2
     1  Na   0.094382   0.079617
     2  Na  -0.226833   0.439463
     3  Na   0.168599   0.037819
     4  Na  -0.001779   0.006680
     5  Na  -0.086390   0.412569
     6  Na   0.022272  -0.007231
     7  Na   0.029750   0.031083
 Sum of Mulliken charges =  -0.00000   1.00000

 Dipole moment (field-independent basis, Debye):
    X=              0.0142    Y=             -0.0200    Z=              0.1470  Tot=              0.1490
 Quadrupole moment (field-independent basis, Debye-Ang):
   XX=            -64.2585   YY=            -70.0709   ZZ=            -65.3018
   XY=             -0.0959   XZ=              0.8901   YZ=              0.7212

 Normal termination of Gaussian 16 at Fri Dec  8 19:29:52 2023.
