 Gaussian 16, Revision B.01,
 Gaussian 16:  ES64L-G16RevB.01 20-Dec-2017

 -------------------------
 #P B3LYP/6-311+g(d) force
 -------------------------

 -----
 DPGEN
 -----
 Symbolic Z-matrix:
 Charge =  0 Multiplicity = 2

                         Standard orientation:
 ---------------------------------------------------------------------
 Center     Atomic      Atomic             Coordinates (Angstroms)
 Number     Number       Type             X           Y           Z
 ---------------------------------------------------------------------
      1         11           0        0.307817    3.256366   -0.265212
      2         11           0       -2.642738   -2.257657   -0.253371
      3         11           0        0.267908    0.402323   -1.613046
      4         11           0       -0.214425    0.084375    2.076370
      5         11           0       -2.605028    1.163802    0.053228
      6         11           0        1.587189   -2.753221   -0.246118
      7         11           0        3.299276    0.104013    0.248149
 ---------------------------------------------------------------------

 SCF Done:  E(UB3LYP) =  -1136.13298712     A.U. after   19 cycles

 The electronic state is 2-A.
 Alpha  occ. eigenvalues --  -38.44325 -38.44087 -38.43863 -38.43748 -38.43709
 Alpha  occ. eigenvalues --  -38.43636 -38.43352  -2.20126  -2.19879  -2.19635
 Alpha  occ. eigenvalues --   -2.19625  -2.19570  -2.19465  -2.19283  -1.13796
 Alpha  occ. eigenvalues --   -1.13788  -1.13773  -1.13556  -1.13540  -1.13511
 Alpha  occ. eigenvalues --   -1.13349  -1.13323  -1.13303  -1.13300  -1.13280
 Alpha  occ. eigenvalues --   -1.13227  -1.13222  -1.13190  -1.13182  -1.13178
 Alpha  occ. eigenvalues --   -1.13111  -1.13101  -1.12962  -1.12915  -1.12897
 Alpha  occ. eigenvalues --   -0.18090  -0.13039  -0.12238  -0.10480
 Alpha virt. eigenvalues --   -0.05702  -0.05319  -0.05209  -0.03196  -0.02763
 Alpha virt. eigenvalues --   -0.02415  -0.01557  -0.01442  -0.00740  -0.00557
 Alpha virt. eigenvalues --   -0.00028   0.00328   0.00745   0.00808   0.00828

  Beta  occ. eigenvalues --  -38.44322 -38.44084 -38.43862 -38.43740 -38.43630
  Beta  occ. eigenvalues --  -38.43611 -38.43296  -2.20121  -2.19875  -2.19634
  Beta  occ. eigenvalues --   -2.19614  -2.19458  -2.19388  -2.19181  -1.13789
  Beta  occ. eigenvalues --   -1.13775  -1.13771  -1.13543  -1.13535  -1.13510
  Beta  occ. eigenvalues --   -1.13336  -1.13309  -1.13290  -1.13281  -1.13268
  Beta  occ. eigenvalues --   -1.13221  -1.13164  -1.13110  -1.13101  -1.13091
  Beta  occ. eigenvalues --   -1.13065  -1.13052  -1.12891  -1.12842  -1.12823
  Beta  occ. eigenvalues --   -0.17384  -0.12851  -0.12026
  Beta virt. eigenvalues --   -0.06622  -0.05660  -0.05267  -0.05098  -0.02445
  Beta virt. eigenvalues --   -0.02085  -0.01476  -0.01409  -0.01355  -0.00775
  Beta virt. eigenvalues --   -0.00577   0.00130   0.00367   0.00766   0.00829

 Mulliken charges and spin densities:
               1          2
     1  Na   0.250039  -0.051365
     2  Na  -0.208414  -0.074496
     3  Na  -0.053555   0.525248
     4  Na  -0.291086   0.662378
     5  Na   0.316344   0.051744
     6  Na  -0.072341  -0.067864
     7  Na   0.059013  -0.045644
 Sum of Mulliken charges =  -0.00000   1.00000

 Dipole moment (field-independent basis, Debye):
    X=              0.4355    Y=             -0.0105    Z=              0.1122  Tot=              0.4499
 Quadrupole moment (field-independent basis, Debye-Ang):
   XX=            -58.4380   YY=            -59.0180   ZZ=            -76.0685
   XY=              0.9088   XZ=              1.1929   YZ=              1.0288

 Normal termination of Gaussian 16 at Fri Dec  8 07:53:32 2023.
