 Gaussian 16, Revision B.01,
 Gaussian 16:  ES64L-G16RevB.01 20-Dec-2017

 -------------------------
 #P B3LYP/6-311+g(d) force
 -------------------------

 -----
 DPGEN
 -----
 Symbolic Z-matrix:
 Charge =  0 Multiplicity = 2

                         Standard orientation:
 ---------------------------------------------------------------------
 Center     Atomic      Atomic             Coordinates (Angstroms)
 Number     Number       Type             X           Y           Z
 ---------------------------------------------------------------------
      1         11           0        0.735515   -1.958105   -0.744368
      2         11           0        2.311895    0.973810   -0.122547
      3         11           0       -1.522584    1.055564   -0.977128
      4         11           0       -2.977590   -2.077034   -0.724963
      5         11           0       -2.710612   -0.268865    1.935033
      6         11           0        0.352225    4.274808   -0.003864
      7         11           0        3.811150   -2.000180    0.637836
 ---------------------------------------------------------------------

 SCF Done:  E(UB3LYP) =  -1136.12596166     A.U. after   20 cycles

 The electronic state is 2-A.
 Alpha  occ. eigenvalues --  -38.44401 -38.44201 -38.44192 -38.43913 -38.43854
 Alpha  occ. eigenvalues --  -38.43790 -38.43724  -2.20246  -2.20041  -2.20012
 Alpha  occ. eigenvalues --   -2.19678  -2.19659  -2.19652  -2.19587  -1.13928
 Alpha  occ. eigenvalues --   -1.13910  -1.13888  -1.13759  -1.13745  -1.13732
 Alpha  occ. eigenvalues --   -1.13717  -1.13623  -1.13590  -1.13347  -1.13336
 Alpha  occ. eigenvalues --   -1.13332  -1.13331  -1.13306  -1.13294  -1.13292
 Alpha  occ. eigenvalues --   -1.13285  -1.13284  -1.13269  -1.13265  -1.13158
 Alpha  occ. eigenvalues --   -0.17329  -0.13980  -0.12233  -0.10108
 Alpha virt. eigenvalues --   -0.06151  -0.05560  -0.05285  -0.03526  -0.02368
 Alpha virt. eigenvalues --   -0.02165  -0.02030  -0.01604  -0.01136  -0.00633
 Alpha virt. eigenvalues --   -0.00083   0.00121   0.00317   0.00610   0.00620

  Beta  occ. eigenvalues --  -38.44390 -38.44189 -38.44185 -38.43920 -38.43828
  Beta  occ. eigenvalues --  -38.43697 -38.43689  -2.20233  -2.20016  -2.20007
  Beta  occ. eigenvalues --   -2.19672  -2.19630  -2.19524  -2.19478  -1.13923
  Beta  occ. eigenvalues --   -1.13902  -1.13836  -1.13744  -1.13727  -1.13711
  Beta  occ. eigenvalues --   -1.13687  -1.13610  -1.13583  -1.13344  -1.13340
  Beta  occ. eigenvalues --   -1.13312  -1.13298  -1.13292  -1.13276  -1.13251
  Beta  occ. eigenvalues --   -1.13229  -1.13173  -1.13163  -1.13155  -1.13096
  Beta  occ. eigenvalues --   -0.16718  -0.13590  -0.12151
  Beta virt. eigenvalues --   -0.06411  -0.05915  -0.05320  -0.05117  -0.03062
  Beta virt. eigenvalues --   -0.02144  -0.02001  -0.01694  -0.01158  -0.01058
  Beta virt. eigenvalues --   -0.00362   0.00200   0.00239   0.00570   0.00661

 Mulliken charges and spin densities:
               1          2
     1  Na  -0.751827   0.029647
     2  Na  -0.607535   0.024696
     3  Na  -0.716956   0.357221
     4  Na   0.970983   0.162209
     5  Na  -0.193010   0.351798
     6  Na   0.291009  -0.088318
     7  Na   1.007335   0.162749
 Sum of Mulliken charges =  -0.00000   1.00000

 Dipole moment (field-independent basis, Debye):
    X=              0.2230    Y=             -0.5585    Z=             -0.1285  Tot=              0.6149
 Quadrupole moment (field-independent basis, Debye-Ang):
   XX=            -62.7436   YY=            -59.3528   ZZ=            -73.1767
   XY=              1.4735   XZ=              6.2153   YZ=              0.4618

 Normal termination of Gaussian 16 at Wed Nov 29 00:23:07 2023.
