 Gaussian 16, Revision B.01,
 Gaussian 16:  ES64L-G16RevB.01 20-Dec-2017

 -------------------------
 #P B3LYP/6-311+g(d) force
 -------------------------

 -----
 DPGEN
 -----
 Symbolic Z-matrix:
 Charge =  0 Multiplicity = 2

                         Standard orientation:
 ---------------------------------------------------------------------
 Center     Atomic      Atomic             Coordinates (Angstroms)
 Number     Number       Type             X           Y           Z
 ---------------------------------------------------------------------
      1         11           0       -0.856319    1.414605   -0.195604
      2         11           0        0.356909    4.233792    0.331329
      3         11           0        2.650500    1.056902   -0.458354
      4         11           0        4.930613   -2.354669    0.069964
      5         11           0        1.185194   -1.712018   -0.035221
      6         11           0       -2.675290   -1.445689    0.766599
      7         11           0       -5.591608   -1.192922   -0.478712
 ---------------------------------------------------------------------

 SCF Done:  E(UB3LYP) =  -1136.11977320     A.U. after   21 cycles

 The electronic state is 2-A.
 Alpha  occ. eigenvalues --  -38.45466 -38.44747 -38.44111 -38.43927 -38.43925
 Alpha  occ. eigenvalues --  -38.43908 -38.43253  -2.21265  -2.20507  -2.19920
 Alpha  occ. eigenvalues --   -2.19790  -2.19778  -2.19741  -2.19081  -1.15005
 Alpha  occ. eigenvalues --   -1.14970  -1.14824  -1.14170  -1.14169  -1.14105
 Alpha  occ. eigenvalues --   -1.13567  -1.13556  -1.13550  -1.13523  -1.13498
 Alpha  occ. eigenvalues --   -1.13478  -1.13461  -1.13458  -1.13391  -1.13378
 Alpha  occ. eigenvalues --   -1.13349  -1.13314  -1.12769  -1.12755  -1.12726
 Alpha  occ. eigenvalues --   -0.16913  -0.13548  -0.12857  -0.10654
 Alpha virt. eigenvalues --   -0.06798  -0.05057  -0.04568  -0.03815  -0.02859
 Alpha virt. eigenvalues --   -0.02354  -0.01904  -0.01597  -0.01477  -0.00955
 Alpha virt. eigenvalues --   -0.00311   0.00001   0.00173   0.00348   0.00591

  Beta  occ. eigenvalues --  -38.45473 -38.44695 -38.44032 -38.43903 -38.43897
  Beta  occ. eigenvalues --  -38.43890 -38.43253  -2.21278  -2.20409  -2.19774
  Beta  occ. eigenvalues --   -2.19773  -2.19713  -2.19699  -2.19089  -1.15000
  Beta  occ. eigenvalues --   -1.14981  -1.14838  -1.14103  -1.14100  -1.14043
  Beta  occ. eigenvalues --   -1.13498  -1.13471  -1.13468  -1.13462  -1.13455
  Beta  occ. eigenvalues --   -1.13451  -1.13440  -1.13421  -1.13361  -1.13346
  Beta  occ. eigenvalues --   -1.13289  -1.13271  -1.12783  -1.12767  -1.12673
  Beta  occ. eigenvalues --   -0.16390  -0.13024  -0.12419
  Beta virt. eigenvalues --   -0.07414  -0.06351  -0.04752  -0.04269  -0.03599
  Beta virt. eigenvalues --   -0.02665  -0.02110  -0.01688  -0.01316  -0.01045
  Beta virt. eigenvalues --   -0.00666  -0.00108   0.00230   0.00317   0.00476

 Mulliken charges and spin densities:
               1          2
     1  Na  -1.388934  -0.112150
     2  Na   0.794072   0.157943
     3  Na   0.368716   0.119971
     4  Na   0.857703   0.316604
     5  Na  -1.017741   0.201275
     6  Na   0.025502  -0.071104
     7  Na   0.360683   0.387462
 Sum of Mulliken charges =  -0.00000   1.00000

 Dipole moment (field-independent basis, Debye):
    X=              1.3554    Y=              0.3410    Z=             -0.0793  Tot=              1.3998
 Quadrupole moment (field-independent basis, Debye-Ang):
   XX=            -61.3123   YY=            -62.2614   ZZ=            -71.8460
   XY=             -3.7403   XZ=              2.1791   YZ=             -0.0759

 Normal termination of Gaussian 16 at Wed Nov 29 01:36:23 2023.
