 Gaussian 16, Revision B.01,
 Gaussian 16:  ES64L-G16RevB.01 20-Dec-2017

 -------------------------
 #P B3LYP/6-311+g(d) force
 -------------------------

 -----
 DPGEN
 -----
 Symbolic Z-matrix:
 Charge =  0 Multiplicity = 2

                         Standard orientation:
 ---------------------------------------------------------------------
 Center     Atomic      Atomic             Coordinates (Angstroms)
 Number     Number       Type             X           Y           Z
 ---------------------------------------------------------------------
      1         11           0        2.072918   -1.477029    1.284882
      2         11           0        1.188502    0.546867   -1.012124
      3         11           0       -2.396333    1.593661   -0.352129
      4         11           0       -1.212381   -2.058049    0.509924
      5         11           0       -4.242874   -1.088002   -0.660016
      6         11           0       -0.026622    2.657973    1.194356
      7         11           0        4.616791   -0.175422   -0.964893
 ---------------------------------------------------------------------

 SCF Done:  E(UB3LYP) =  -1136.12528033     A.U. after   20 cycles

 The electronic state is 2-A.
 Alpha  occ. eigenvalues --  -38.44514 -38.44334 -38.44200 -38.43608 -38.43541
 Alpha  occ. eigenvalues --  -38.43382 -38.43279  -2.20408  -2.20154  -2.20063
 Alpha  occ. eigenvalues --   -2.19505  -2.19381  -2.19222  -2.19145  -1.14133
 Alpha  occ. eigenvalues --   -1.14098  -1.14015  -1.13805  -1.13795  -1.13759
 Alpha  occ. eigenvalues --   -1.13744  -1.13720  -1.13675  -1.13231  -1.13181
 Alpha  occ. eigenvalues --   -1.13148  -1.13072  -1.13054  -1.13006  -1.12880
 Alpha  occ. eigenvalues --   -1.12869  -1.12838  -1.12803  -1.12786  -1.12771
 Alpha  occ. eigenvalues --   -0.17675  -0.14186  -0.12027  -0.11112
 Alpha virt. eigenvalues --   -0.06234  -0.05017  -0.04772  -0.03501  -0.02779
 Alpha virt. eigenvalues --   -0.02508  -0.01766  -0.01387  -0.01024  -0.00300
 Alpha virt. eigenvalues --   -0.00143   0.00145   0.00379   0.00453   0.00818

  Beta  occ. eigenvalues --  -38.44508 -38.44249 -38.44166 -38.43596 -38.43507
  Beta  occ. eigenvalues --  -38.43348 -38.43278  -2.20399  -2.20007  -2.19993
  Beta  occ. eigenvalues --   -2.19484  -2.19324  -2.19159  -2.19143  -1.14124
  Beta  occ. eigenvalues --   -1.14079  -1.14001  -1.13707  -1.13693  -1.13689
  Beta  occ. eigenvalues --   -1.13683  -1.13660  -1.13597  -1.13210  -1.13165
  Beta  occ. eigenvalues --   -1.13134  -1.13039  -1.13016  -1.12939  -1.12833
  Beta  occ. eigenvalues --   -1.12826  -1.12803  -1.12798  -1.12779  -1.12767
  Beta  occ. eigenvalues --   -0.17119  -0.13574  -0.11765
  Beta virt. eigenvalues --   -0.07463  -0.06070  -0.04869  -0.04139  -0.03288
  Beta virt. eigenvalues --   -0.02566  -0.02061  -0.01364  -0.01111  -0.00667
  Beta virt. eigenvalues --   -0.00161   0.00002   0.00271   0.00561   0.00594

 Mulliken charges and spin densities:
               1          2
     1  Na   0.302615  -0.050959
     2  Na  -0.709460  -0.083223
     3  Na   0.154203   0.055129
     4  Na  -0.443674   0.202424
     5  Na   0.263012   0.278166
     6  Na   0.089072   0.193697
     7  Na   0.344233   0.404765
 Sum of Mulliken charges =  -0.00000   1.00000

 Dipole moment (field-independent basis, Debye):
    X=              0.8539    Y=              0.0967    Z=              0.4725  Tot=              0.9807
 Quadrupole moment (field-independent basis, Debye-Ang):
   XX=            -60.8664   YY=            -73.1235   ZZ=            -65.2421
   XY=             -0.6640   XZ=              2.9858   YZ=              0.6341

 Normal termination of Gaussian 16 at Tue Nov 28 23:17:32 2023.
