 Gaussian 16, Revision B.01,
 Gaussian 16:  ES64L-G16RevB.01 20-Dec-2017

 -------------------------
 #P B3LYP/6-311+g(d) force
 -------------------------

 -----
 DPGEN
 -----
 Symbolic Z-matrix:
 Charge =  0 Multiplicity = 2

                         Standard orientation:
 ---------------------------------------------------------------------
 Center     Atomic      Atomic             Coordinates (Angstroms)
 Number     Number       Type             X           Y           Z
 ---------------------------------------------------------------------
      1         11           0       -0.128389   -0.313991   -1.690363
      2         11           0        3.276106    0.320344   -0.148748
      3         11           0        1.370812   -2.391284    0.149652
      4         11           0       -2.531304    1.350002   -0.487907
      5         11           0       -2.109788   -1.842414    0.094777
      6         11           0       -0.546866    0.170851    1.943677
      7         11           0        0.669429    2.706492    0.138912
 ---------------------------------------------------------------------

 SCF Done:  E(UB3LYP) =  -1136.13521237     A.U. after   20 cycles

 The electronic state is 2-A.
 Alpha  occ. eigenvalues --  -38.44138 -38.43672 -38.43503 -38.43420 -38.43353
 Alpha  occ. eigenvalues --  -38.43259 -38.43155  -2.19948  -2.19596  -2.19467
 Alpha  occ. eigenvalues --   -2.19385  -2.19372  -2.19148  -2.19011  -1.13621
 Alpha  occ. eigenvalues --   -1.13609  -1.13594  -1.13335  -1.13273  -1.13227
 Alpha  occ. eigenvalues --   -1.13186  -1.13148  -1.13114  -1.13075  -1.13045
 Alpha  occ. eigenvalues --   -1.13018  -1.12998  -1.12981  -1.12942  -1.12818
 Alpha  occ. eigenvalues --   -1.12808  -1.12766  -1.12694  -1.12678  -1.12636
 Alpha  occ. eigenvalues --   -0.19239  -0.13261  -0.12491  -0.11045
 Alpha virt. eigenvalues --   -0.05674  -0.05015  -0.04414  -0.03250  -0.02938
 Alpha virt. eigenvalues --   -0.02629  -0.01460  -0.00941  -0.00223  -0.00056
 Alpha virt. eigenvalues --    0.00017   0.00351   0.00849   0.00931   0.00943

  Beta  occ. eigenvalues --  -38.44140 -38.43654 -38.43412 -38.43407 -38.43282
  Beta  occ. eigenvalues --  -38.43254 -38.43150  -2.19954  -2.19568  -2.19360
  Beta  occ. eigenvalues --   -2.19300  -2.19252  -2.19143  -2.19005  -1.13623
  Beta  occ. eigenvalues --   -1.13607  -1.13599  -1.13309  -1.13228  -1.13199
  Beta  occ. eigenvalues --   -1.13139  -1.13066  -1.13007  -1.12983  -1.12960
  Beta  occ. eigenvalues --   -1.12958  -1.12934  -1.12925  -1.12869  -1.12801
  Beta  occ. eigenvalues --   -1.12782  -1.12760  -1.12686  -1.12654  -1.12637
  Beta  occ. eigenvalues --   -0.18479  -0.13027  -0.12230
  Beta virt. eigenvalues --   -0.07033  -0.05619  -0.05017  -0.04393  -0.02495
  Beta virt. eigenvalues --   -0.02128  -0.01564  -0.01355  -0.00881  -0.00230
  Beta virt. eigenvalues --   -0.00092   0.00131   0.00389   0.00901   0.00937

 Mulliken charges and spin densities:
               1          2
     1  Na  -0.387067   0.507544
     2  Na  -0.136327  -0.091493
     3  Na   0.096282  -0.057595
     4  Na   0.319733   0.003900
     5  Na   0.568818   0.038880
     6  Na  -0.451837   0.683890
     7  Na  -0.009601  -0.085127
 Sum of Mulliken charges =  -0.00000   1.00000

 Dipole moment (field-independent basis, Debye):
    X=              0.1583    Y=              0.0671    Z=              0.0858  Tot=              0.1922
 Quadrupole moment (field-independent basis, Debye-Ang):
   XX=            -56.2265   YY=            -65.1077   ZZ=            -72.9245
   XY=              0.1630   XZ=              0.6639   YZ=             -1.1902

 Normal termination of Gaussian 16 at Sun Dec  3 23:56:01 2023.
