 Gaussian 16, Revision B.01,
 Gaussian 16:  ES64L-G16RevB.01 20-Dec-2017

 -------------------------
 #P B3LYP/6-311+g(d) force
 -------------------------

 -----
 DPGEN
 -----
 Symbolic Z-matrix:
 Charge =  0 Multiplicity = 2

                         Standard orientation:
 ---------------------------------------------------------------------
 Center     Atomic      Atomic             Coordinates (Angstroms)
 Number     Number       Type             X           Y           Z
 ---------------------------------------------------------------------
      1         11           0        1.436489    2.163590    0.160393
      2         11           0       -0.932737   -0.259142    1.163596
      3         11           0       -1.142616   -2.767451   -0.198029
      4         11           0        1.964356   -1.381155   -0.911984
      5         11           0        4.506352    0.027705    0.306402
      6         11           0       -3.603207   -0.739203    0.087568
      7         11           0       -2.228638    2.955656   -0.607944
 ---------------------------------------------------------------------

 SCF Done:  E(UB3LYP) =  -1136.11815414     A.U. after   21 cycles

 The electronic state is 2-A.
 Alpha  occ. eigenvalues --  -38.44436 -38.44364 -38.44166 -38.43927 -38.43646
 Alpha  occ. eigenvalues --  -38.43592 -38.43492  -2.20439  -2.20108  -2.19970
 Alpha  occ. eigenvalues --   -2.19796  -2.19565  -2.19528  -2.19344  -1.14222
 Alpha  occ. eigenvalues --   -1.14123  -1.14061  -1.13799  -1.13766  -1.13747
 Alpha  occ. eigenvalues --   -1.13678  -1.13658  -1.13554  -1.13499  -1.13458
 Alpha  occ. eigenvalues --   -1.13445  -1.13263  -1.13229  -1.13209  -1.13171
 Alpha  occ. eigenvalues --   -1.13161  -1.13093  -1.12997  -1.12978  -1.12949
 Alpha  occ. eigenvalues --   -0.17853  -0.14266  -0.12481  -0.10090
 Alpha virt. eigenvalues --   -0.06639  -0.05373  -0.04711  -0.03296  -0.02948
 Alpha virt. eigenvalues --   -0.02383  -0.01835  -0.00882  -0.00784  -0.00578
 Alpha virt. eigenvalues --   -0.00296  -0.00086   0.00545   0.00596   0.00723

  Beta  occ. eigenvalues --  -38.44417 -38.44377 -38.44150 -38.43907 -38.43578
  Beta  occ. eigenvalues --  -38.43576 -38.43410  -2.20412  -2.20133  -2.19944
  Beta  occ. eigenvalues --   -2.19767  -2.19506  -2.19438  -2.19191  -1.14204
  Beta  occ. eigenvalues --   -1.14067  -1.14044  -1.13819  -1.13778  -1.13755
  Beta  occ. eigenvalues --   -1.13660  -1.13635  -1.13527  -1.13474  -1.13440
  Beta  occ. eigenvalues --   -1.13385  -1.13227  -1.13178  -1.13156  -1.13120
  Beta  occ. eigenvalues --   -1.13090  -1.13024  -1.12894  -1.12872  -1.12851
  Beta  occ. eigenvalues --   -0.17274  -0.13579  -0.12173
  Beta virt. eigenvalues --   -0.06630  -0.06513  -0.05204  -0.04408  -0.02771
  Beta virt. eigenvalues --   -0.02506  -0.02297  -0.01324  -0.00741  -0.00720
  Beta virt. eigenvalues --   -0.00425   0.00057   0.00248   0.00688   0.00729

 Mulliken charges and spin densities:
               1          2
     1  Na  -0.148860   0.025640
     2  Na   0.143337   0.100370
     3  Na   0.095586  -0.009178
     4  Na  -0.394073   0.077674
     5  Na   0.340320   0.462421
     6  Na   0.086157   0.438259
     7  Na  -0.122466  -0.095185
 Sum of Mulliken charges =  -0.00000   1.00000

 Dipole moment (field-independent basis, Debye):
    X=             -0.5258    Y=              0.1494    Z=             -0.4344  Tot=              0.6982
 Quadrupole moment (field-independent basis, Debye-Ang):
   XX=            -72.0681   YY=            -64.2694   ZZ=            -66.7908
   XY=             -1.0125   XZ=              3.4709   YZ=              0.4746

 Normal termination of Gaussian 16 at Wed Nov 29 04:01:54 2023.
