 Gaussian 16, Revision B.01,
 Gaussian 16:  ES64L-G16RevB.01 20-Dec-2017

 -------------------------
 #P B3LYP/6-311+g(d) force
 -------------------------

 -----
 DPGEN
 -----
 Symbolic Z-matrix:
 Charge =  0 Multiplicity = 2

                         Standard orientation:
 ---------------------------------------------------------------------
 Center     Atomic      Atomic             Coordinates (Angstroms)
 Number     Number       Type             X           Y           Z
 ---------------------------------------------------------------------
      1         11           0       -3.261516    0.077766   -0.605850
      2         11           0       -1.362830    2.645217   -1.161410
      3         11           0        2.953452   -1.836351   -1.387738
      4         11           0        3.453399    0.333654    0.737617
      5         11           0        0.759881    1.896901    1.602045
      6         11           0       -2.708749   -2.506726    1.168812
      7         11           0        0.166363   -0.610462   -0.353477
 ---------------------------------------------------------------------

 SCF Done:  E(UB3LYP) =  -1136.12259867     A.U. after   24 cycles

 The electronic state is 2-A.
 Alpha  occ. eigenvalues --  -38.44708 -38.44160 -38.44070 -38.43742 -38.43531
 Alpha  occ. eigenvalues --  -38.43375 -38.43364  -2.20591  -2.20038  -2.19998
 Alpha  occ. eigenvalues --   -2.19622  -2.19416  -2.19218  -2.19202  -1.14273
 Alpha  occ. eigenvalues --   -1.14250  -1.14248  -1.13750  -1.13726  -1.13708
 Alpha  occ. eigenvalues --   -1.13692  -1.13661  -1.13613  -1.13274  -1.13257
 Alpha  occ. eigenvalues --   -1.13243  -1.13103  -1.13064  -1.13021  -1.12886
 Alpha  occ. eigenvalues --   -1.12876  -1.12858  -1.12848  -1.12833  -1.12828
 Alpha  occ. eigenvalues --   -0.17786  -0.14387  -0.12145  -0.10803
 Alpha virt. eigenvalues --   -0.06482  -0.04873  -0.04255  -0.03645  -0.03301
 Alpha virt. eigenvalues --   -0.02457  -0.01599  -0.01128  -0.00587  -0.00374
 Alpha virt. eigenvalues --   -0.00215   0.00096   0.00323   0.00693   0.00797

  Beta  occ. eigenvalues --  -38.44692 -38.44149 -38.44063 -38.43692 -38.43482
  Beta  occ. eigenvalues --  -38.43337 -38.43327  -2.20567  -2.20023  -2.19987
  Beta  occ. eigenvalues --   -2.19528  -2.19328  -2.19150  -2.19130  -1.14241
  Beta  occ. eigenvalues --   -1.14240  -1.14206  -1.13718  -1.13712  -1.13699
  Beta  occ. eigenvalues --   -1.13659  -1.13646  -1.13612  -1.13210  -1.13200
  Beta  occ. eigenvalues --   -1.13179  -1.13045  -1.13004  -1.12952  -1.12836
  Beta  occ. eigenvalues --   -1.12825  -1.12811  -1.12797  -1.12791  -1.12782
  Beta  occ. eigenvalues --   -0.17310  -0.13865  -0.11636
  Beta virt. eigenvalues --   -0.07416  -0.06261  -0.04555  -0.03953  -0.03198
  Beta virt. eigenvalues --   -0.02826  -0.02385  -0.01213  -0.00985  -0.00310
  Beta virt. eigenvalues --   -0.00095  -0.00011   0.00203   0.00487   0.00777

 Mulliken charges and spin densities:
               1          2
     1  Na   0.860311   0.166442
     2  Na   0.391756   0.088890
     3  Na   0.962547   0.103348
     4  Na   0.210217  -0.043091
     5  Na   0.546925   0.244346
     6  Na   0.540071   0.118105
     7  Na  -3.511827   0.321960
 Sum of Mulliken charges =  -0.00000   1.00000

 Dipole moment (field-independent basis, Debye):
    X=              0.6496    Y=              0.3060    Z=              0.1043  Tot=              0.7256
 Quadrupole moment (field-independent basis, Debye-Ang):
   XX=            -57.4516   YY=            -69.4664   ZZ=            -69.0077
   XY=             -1.2829   XZ=              1.2154   YZ=             -1.1934

 Normal termination of Gaussian 16 at Tue Dec  5 14:26:09 2023.
