 Gaussian 16, Revision B.01,
 Gaussian 16:  ES64L-G16RevB.01 20-Dec-2017

 -------------------------
 #P B3LYP/6-311+g(d) force
 -------------------------

 -----
 DPGEN
 -----
 Symbolic Z-matrix:
 Charge =  0 Multiplicity = 2

                         Standard orientation:
 ---------------------------------------------------------------------
 Center     Atomic      Atomic             Coordinates (Angstroms)
 Number     Number       Type             X           Y           Z
 ---------------------------------------------------------------------
      1         11           0        1.973357   -0.274035   -1.835627
      2         11           0       -3.838348   -0.750638    0.131611
      3         11           0        2.405868    1.626919    0.839268
      4         11           0       -0.840448    2.223969   -1.265168
      5         11           0       -1.142840    0.765743    2.139952
      6         11           0        2.341650   -2.079791    1.074284
      7         11           0       -0.899240   -1.512167   -1.084320
 ---------------------------------------------------------------------

 SCF Done:  E(UB3LYP) =  -1136.12627173     A.U. after   22 cycles

 The electronic state is 2-A.
 Alpha  occ. eigenvalues --  -38.44443 -38.44420 -38.44060 -38.44029 -38.43872
 Alpha  occ. eigenvalues --  -38.43856 -38.43087  -2.20235  -2.20214  -2.19863
 Alpha  occ. eigenvalues --   -2.19829  -2.19770  -2.19670  -2.18961  -1.13909
 Alpha  occ. eigenvalues --   -1.13900  -1.13893  -1.13877  -1.13860  -1.13820
 Alpha  occ. eigenvalues --   -1.13529  -1.13520  -1.13513  -1.13500  -1.13476
 Alpha  occ. eigenvalues --   -1.13473  -1.13456  -1.13443  -1.13366  -1.13344
 Alpha  occ. eigenvalues --   -1.13325  -1.13288  -1.12657  -1.12634  -1.12577
 Alpha  occ. eigenvalues --   -0.17936  -0.13387  -0.11610  -0.11138
 Alpha virt. eigenvalues --   -0.06214  -0.05212  -0.04768  -0.03234  -0.03024
 Alpha virt. eigenvalues --   -0.02784  -0.01946  -0.00925  -0.00723  -0.00182
 Alpha virt. eigenvalues --    0.00115   0.00222   0.00315   0.00528   0.00747

  Beta  occ. eigenvalues --  -38.44444 -38.44374 -38.44026 -38.43988 -38.43847
  Beta  occ. eigenvalues --  -38.43836 -38.43066  -2.20237  -2.20128  -2.19799
  Beta  occ. eigenvalues --   -2.19757  -2.19706  -2.19656  -2.18926  -1.13910
  Beta  occ. eigenvalues --   -1.13895  -1.13873  -1.13835  -1.13805  -1.13760
  Beta  occ. eigenvalues --   -1.13483  -1.13479  -1.13457  -1.13451  -1.13424
  Beta  occ. eigenvalues --   -1.13418  -1.13411  -1.13403  -1.13319  -1.13312
  Beta  occ. eigenvalues --   -1.13304  -1.13273  -1.12627  -1.12587  -1.12560
  Beta  occ. eigenvalues --   -0.17162  -0.13201  -0.10981
  Beta virt. eigenvalues --   -0.07784  -0.06058  -0.04727  -0.04383  -0.02998
  Beta virt. eigenvalues --   -0.02537  -0.02027  -0.01816  -0.00773  -0.00442
  Beta virt. eigenvalues --   -0.00044   0.00237   0.00247   0.00371   0.00662

 Mulliken charges and spin densities:
               1          2
     1  Na   0.534708   0.221885
     2  Na   0.359788  -0.119342
     3  Na  -0.058726   0.167174
     4  Na  -0.064462   0.086847
     5  Na  -0.245937   0.337712
     6  Na   0.003494   0.169189
     7  Na  -0.528864   0.136536
 Sum of Mulliken charges =  -0.00000   1.00000

 Dipole moment (field-independent basis, Debye):
    X=             -0.4438    Y=              0.2272    Z=              0.4099  Tot=              0.6455
 Quadrupole moment (field-independent basis, Debye-Ang):
   XX=            -54.6822   YY=            -74.8670   ZZ=            -65.6642
   XY=             -0.4485   XZ=              0.6245   YZ=             -4.7046

 Normal termination of Gaussian 16 at Fri Dec  8 03:44:20 2023.
