 Gaussian 16, Revision B.01,
 Gaussian 16:  ES64L-G16RevB.01 20-Dec-2017

 -------------------------
 #P B3LYP/6-311+g(d) force
 -------------------------

 -----
 DPGEN
 -----
 Symbolic Z-matrix:
 Charge =  0 Multiplicity = 2

                         Standard orientation:
 ---------------------------------------------------------------------
 Center     Atomic      Atomic             Coordinates (Angstroms)
 Number     Number       Type             X           Y           Z
 ---------------------------------------------------------------------
      1         11           0       -2.748932   -1.370530    1.717955
      2         11           0        2.459816    1.481372   -0.437892
      3         11           0        0.398857   -0.945156   -0.376571
      4         11           0        3.357270   -2.491488   -0.301539
      5         11           0       -3.076627   -0.872213   -1.511639
      6         11           0        0.511095    1.721063    2.216902
      7         11           0       -0.901478    2.476952   -1.307215
 ---------------------------------------------------------------------

 SCF Done:  E(UB3LYP) =  -1136.12427542     A.U. after   20 cycles

 The electronic state is 2-A.
 Alpha  occ. eigenvalues --  -38.44524 -38.44411 -38.44321 -38.44284 -38.44058
 Alpha  occ. eigenvalues --  -38.43084 -38.43073  -2.20323  -2.20271  -2.20148
 Alpha  occ. eigenvalues --   -2.20093  -2.19863  -2.18988  -2.18860  -1.13992
 Alpha  occ. eigenvalues --   -1.13985  -1.13976  -1.13968  -1.13966  -1.13851
 Alpha  occ. eigenvalues --   -1.13804  -1.13796  -1.13766  -1.13743  -1.13739
 Alpha  occ. eigenvalues --   -1.13724  -1.13542  -1.13519  -1.13469  -1.12701
 Alpha  occ. eigenvalues --   -1.12681  -1.12612  -1.12528  -1.12523  -1.12479
 Alpha  occ. eigenvalues --   -0.17608  -0.13341  -0.11541  -0.11155
 Alpha virt. eigenvalues --   -0.05706  -0.05488  -0.05385  -0.03260  -0.02850
 Alpha virt. eigenvalues --   -0.02512  -0.01733  -0.01266  -0.00801  -0.00188
 Alpha virt. eigenvalues --   -0.00069   0.00025   0.00249   0.00478   0.00744

  Beta  occ. eigenvalues --  -38.44484 -38.44409 -38.44270 -38.44254 -38.44011
  Beta  occ. eigenvalues --  -38.43092 -38.43061  -2.20270  -2.20248  -2.20068
  Beta  occ. eigenvalues --   -2.20022  -2.19778  -2.18969  -2.18874  -1.13991
  Beta  occ. eigenvalues --   -1.13953  -1.13934  -1.13922  -1.13910  -1.13851
  Beta  occ. eigenvalues --   -1.13748  -1.13720  -1.13719  -1.13709  -1.13695
  Beta  occ. eigenvalues --   -1.13661  -1.13477  -1.13464  -1.13406  -1.12674
  Beta  occ. eigenvalues --   -1.12655  -1.12608  -1.12536  -1.12532  -1.12485
  Beta  occ. eigenvalues --   -0.16963  -0.13164  -0.11395
  Beta virt. eigenvalues --   -0.07460  -0.05508  -0.05188  -0.04650  -0.03127
  Beta virt. eigenvalues --   -0.02176  -0.02046  -0.01670  -0.01151  -0.00298
  Beta virt. eigenvalues --   -0.00189   0.00145   0.00196   0.00325   0.00617

 Mulliken charges and spin densities:
               1          2
     1  Na   0.066485   0.183833
     2  Na   0.658506   0.054028
     3  Na  -2.017058   0.371777
     4  Na   0.033005  -0.206350
     5  Na   1.354702   0.067931
     6  Na  -0.241529   0.279139
     7  Na   0.145890   0.249643
 Sum of Mulliken charges =  -0.00000   1.00000

 Dipole moment (field-independent basis, Debye):
    X=             -0.6577    Y=              0.7682    Z=              0.2699  Tot=              1.0467
 Quadrupole moment (field-independent basis, Debye-Ang):
   XX=            -58.8893   YY=            -69.1430   ZZ=            -66.2841
   XY=              3.4633   XZ=              1.0775   YZ=             -1.7615

 Normal termination of Gaussian 16 at Tue Dec  5 21:57:17 2023.
