 Gaussian 16, Revision B.01,
 Gaussian 16:  ES64L-G16RevB.01 20-Dec-2017

 -------------------------
 #P B3LYP/6-311+g(d) force
 -------------------------

 -----
 DPGEN
 -----
 Symbolic Z-matrix:
 Charge =  0 Multiplicity = 2

                         Standard orientation:
 ---------------------------------------------------------------------
 Center     Atomic      Atomic             Coordinates (Angstroms)
 Number     Number       Type             X           Y           Z
 ---------------------------------------------------------------------
      1         11           0       -3.354747    2.530622   -0.820376
      2         11           0        3.280631    2.146417    0.490472
      3         11           0       -0.077840    3.567303    0.456376
      4         11           0        4.132023   -0.791424   -0.359663
      5         11           0        1.469499   -3.141028   -0.810374
      6         11           0       -1.686710   -3.185437    1.097265
      7         11           0       -3.762855   -1.126454   -0.053698
 ---------------------------------------------------------------------

 SCF Done:  E(UB3LYP) =  -1136.10692818     A.U. after   24 cycles

 The electronic state is 2-A.
 Alpha  occ. eigenvalues --  -38.45377 -38.45303 -38.45052 -38.44736 -38.44106
 Alpha  occ. eigenvalues --  -38.43952 -38.43799  -2.21110  -2.21091  -2.20819
 Alpha  occ. eigenvalues --   -2.20527  -2.19921  -2.19764  -2.19584  -1.14803
 Alpha  occ. eigenvalues --   -1.14792  -1.14773  -1.14757  -1.14736  -1.14726
 Alpha  occ. eigenvalues --   -1.14492  -1.14480  -1.14437  -1.14212  -1.14200
 Alpha  occ. eigenvalues --   -1.14172  -1.13590  -1.13572  -1.13556  -1.13420
 Alpha  occ. eigenvalues --   -1.13416  -1.13400  -1.13241  -1.13228  -1.13215
 Alpha  occ. eigenvalues --   -0.15569  -0.14017  -0.13419  -0.10735
 Alpha virt. eigenvalues --   -0.07946  -0.04794  -0.04536  -0.03626  -0.03473
 Alpha virt. eigenvalues --   -0.02354  -0.02175  -0.01772  -0.01379  -0.00999
 Alpha virt. eigenvalues --   -0.00742  -0.00152   0.00028   0.00355   0.00667

  Beta  occ. eigenvalues --  -38.45373 -38.45273 -38.45005 -38.44737 -38.44076
  Beta  occ. eigenvalues --  -38.43910 -38.43740  -2.21108  -2.21043  -2.20734
  Beta  occ. eigenvalues --   -2.20532  -2.19869  -2.19686  -2.19473  -1.14806
  Beta  occ. eigenvalues --   -1.14795  -1.14737  -1.14729  -1.14698  -1.14664
  Beta  occ. eigenvalues --   -1.14436  -1.14424  -1.14367  -1.14215  -1.14207
  Beta  occ. eigenvalues --   -1.14151  -1.13548  -1.13538  -1.13517  -1.13369
  Beta  occ. eigenvalues --   -1.13365  -1.13346  -1.13165  -1.13154  -1.13142
  Beta  occ. eigenvalues --   -0.15056  -0.13411  -0.12675
  Beta virt. eigenvalues --   -0.08114  -0.07535  -0.04332  -0.03938  -0.03465
  Beta virt. eigenvalues --   -0.03200  -0.02196  -0.01983  -0.01552  -0.01265
  Beta virt. eigenvalues --   -0.00661  -0.00523   0.00117   0.00200   0.00379

 Mulliken charges and spin densities:
               1          2
     1  Na   0.220657   0.273415
     2  Na   0.016281   0.181285
     3  Na  -0.027775   0.019393
     4  Na   0.186650   0.053746
     5  Na  -0.262553   0.217200
     6  Na  -0.088970   0.074657
     7  Na  -0.044291   0.180305
 Sum of Mulliken charges =  -0.00000   1.00000

 Dipole moment (field-independent basis, Debye):
    X=             -0.0080    Y=             -0.5281    Z=              0.0151  Tot=              0.5284
 Quadrupole moment (field-independent basis, Debye-Ang):
   XX=            -62.1202   YY=            -67.6764   ZZ=            -71.5420
   XY=              0.2281   XZ=              1.2103   YZ=              0.7334

 Normal termination of Gaussian 16 at Sun Dec  3 14:10:22 2023.
