 Gaussian 16, Revision B.01,
 Gaussian 16:  ES64L-G16RevB.01 20-Dec-2017

 -------------------------
 #P B3LYP/6-311+g(d) force
 -------------------------

 -----
 DPGEN
 -----
 Symbolic Z-matrix:
 Charge =  0 Multiplicity = 2

                         Standard orientation:
 ---------------------------------------------------------------------
 Center     Atomic      Atomic             Coordinates (Angstroms)
 Number     Number       Type             X           Y           Z
 ---------------------------------------------------------------------
      1         11           0        0.054656   -0.226804    1.487729
      2         11           0       -0.299702   -2.813466   -0.138610
      3         11           0       -1.872983    1.013666   -1.017049
      4         11           0        0.211245    3.308204    0.690481
      5         11           0        1.887004    1.299192   -1.021974
      6         11           0        3.463675   -1.588204   -0.035780
      7         11           0       -3.443896   -0.992589    0.035203
 ---------------------------------------------------------------------

 SCF Done:  E(UB3LYP) =  -1136.12355521     A.U. after   19 cycles

 The electronic state is 2-A.
 Alpha  occ. eigenvalues --  -38.44483 -38.44145 -38.43897 -38.43870 -38.43709
 Alpha  occ. eigenvalues --  -38.43651 -38.43306  -2.20310  -2.20037  -2.19731
 Alpha  occ. eigenvalues --   -2.19684  -2.19657  -2.19542  -2.19262  -1.14036
 Alpha  occ. eigenvalues --   -1.13977  -1.13926  -1.13901  -1.13665  -1.13627
 Alpha  occ. eigenvalues --   -1.13440  -1.13378  -1.13376  -1.13359  -1.13352
 Alpha  occ. eigenvalues --   -1.13310  -1.13309  -1.13296  -1.13229  -1.13218
 Alpha  occ. eigenvalues --   -1.13209  -1.13131  -1.12960  -1.12885  -1.12874
 Alpha  occ. eigenvalues --   -0.18310  -0.13542  -0.12869  -0.09916
 Alpha virt. eigenvalues --   -0.06130  -0.05496  -0.05095  -0.03084  -0.02843
 Alpha virt. eigenvalues --   -0.01964  -0.01703  -0.01521  -0.00737  -0.00576
 Alpha virt. eigenvalues --    0.00027   0.00253   0.00647   0.00726   0.00783

  Beta  occ. eigenvalues --  -38.44469 -38.44127 -38.43878 -38.43854 -38.43673
  Beta  occ. eigenvalues --  -38.43626 -38.43239  -2.20288  -2.20007  -2.19703
  Beta  occ. eigenvalues --   -2.19651  -2.19594  -2.19497  -2.19140  -1.14011
  Beta  occ. eigenvalues --   -1.13949  -1.13898  -1.13893  -1.13644  -1.13590
  Beta  occ. eigenvalues --   -1.13421  -1.13359  -1.13340  -1.13338  -1.13320
  Beta  occ. eigenvalues --   -1.13285  -1.13268  -1.13248  -1.13199  -1.13172
  Beta  occ. eigenvalues --   -1.13166  -1.13092  -1.12877  -1.12800  -1.12786
  Beta  occ. eigenvalues --   -0.17805  -0.13139  -0.12526
  Beta virt. eigenvalues --   -0.06464  -0.05774  -0.05399  -0.04980  -0.02499
  Beta virt. eigenvalues --   -0.02285  -0.01819  -0.01507  -0.01010  -0.00562
  Beta virt. eigenvalues --   -0.00435   0.00207   0.00375   0.00686   0.00808

 Mulliken charges and spin densities:
               1          2
     1  Na  -0.108464   0.178752
     2  Na  -0.134365   0.019868
     3  Na  -0.401987   0.217932
     4  Na   0.507940   0.057357
     5  Na  -0.337332   0.231107
     6  Na   0.108512   0.162552
     7  Na   0.365696   0.132432
 Sum of Mulliken charges =  -0.00000   1.00000

 Dipole moment (field-independent basis, Debye):
    X=             -0.0916    Y=             -0.2491    Z=              0.5156  Tot=              0.5799
 Quadrupole moment (field-independent basis, Debye-Ang):
   XX=            -64.3840   YY=            -57.6459   ZZ=            -73.8089
   XY=              1.4184   XZ=             -0.9921   YZ=              2.4427

 Normal termination of Gaussian 16 at Wed Dec  6 01:26:16 2023.
