 Gaussian 16, Revision B.01,
 Gaussian 16:  ES64L-G16RevB.01 20-Dec-2017

 -------------------------
 #P B3LYP/6-311+g(d) force
 -------------------------

 -----
 DPGEN
 -----
 Symbolic Z-matrix:
 Charge =  0 Multiplicity = 2

                         Standard orientation:
 ---------------------------------------------------------------------
 Center     Atomic      Atomic             Coordinates (Angstroms)
 Number     Number       Type             X           Y           Z
 ---------------------------------------------------------------------
      1         11           0        4.195914    0.059761    0.056863
      2         11           0       -2.494991    0.763340    1.782078
      3         11           0        0.671596   -1.204372   -1.448869
      4         11           0       -2.612412   -1.961749   -0.335261
      5         11           0        0.718050    2.211469   -0.114620
      6         11           0       -1.863881    1.364016   -1.324567
      7         11           0        1.385724   -1.232466    1.384375
 ---------------------------------------------------------------------

 SCF Done:  E(UB3LYP) =  -1136.12051998     A.U. after   23 cycles

 The electronic state is 2-A.
 Alpha  occ. eigenvalues --  -38.45691 -38.44622 -38.44116 -38.43687 -38.43439
 Alpha  occ. eigenvalues --  -38.43288 -38.42789  -2.21460  -2.20490  -2.19971
 Alpha  occ. eigenvalues --   -2.19612  -2.19262  -2.19232  -2.18659  -1.15137
 Alpha  occ. eigenvalues --   -1.15114  -1.15084  -1.14266  -1.14139  -1.14069
 Alpha  occ. eigenvalues --   -1.13643  -1.13616  -1.13579  -1.13330  -1.13246
 Alpha  occ. eigenvalues --   -1.13191  -1.12967  -1.12942  -1.12927  -1.12901
 Alpha  occ. eigenvalues --   -1.12882  -1.12845  -1.12354  -1.12325  -1.12260
 Alpha  occ. eigenvalues --   -0.18340  -0.14023  -0.11213  -0.10970
 Alpha virt. eigenvalues --   -0.06975  -0.04766  -0.04630  -0.03204  -0.02833
 Alpha virt. eigenvalues --   -0.02523  -0.02453  -0.00895  -0.00665  -0.00167
 Alpha virt. eigenvalues --    0.00086   0.00222   0.00297   0.00743   0.00780

  Beta  occ. eigenvalues --  -38.45686 -38.44607 -38.44042 -38.43632 -38.43433
  Beta  occ. eigenvalues --  -38.43263 -38.42779  -2.21449  -2.20464  -2.19832
  Beta  occ. eigenvalues --   -2.19512  -2.19256  -2.19191  -2.18645  -1.15123
  Beta  occ. eigenvalues --   -1.15108  -1.15079  -1.14240  -1.14119  -1.14051
  Beta  occ. eigenvalues --   -1.13551  -1.13522  -1.13480  -1.13266  -1.13161
  Beta  occ. eigenvalues --   -1.13122  -1.12944  -1.12934  -1.12910  -1.12883
  Beta  occ. eigenvalues --   -1.12838  -1.12805  -1.12341  -1.12294  -1.12256
  Beta  occ. eigenvalues --   -0.17657  -0.13714  -0.11009
  Beta virt. eigenvalues --   -0.07219  -0.06783  -0.04746  -0.03934  -0.03115
  Beta virt. eigenvalues --   -0.02614  -0.01907  -0.01651  -0.00825  -0.00311
  Beta virt. eigenvalues --   -0.00099   0.00171   0.00229   0.00431   0.00811

 Mulliken charges and spin densities:
               1          2
     1  Na   0.485806  -0.004092
     2  Na  -0.218507   0.468404
     3  Na  -0.068845   0.271115
     4  Na   0.170053  -0.029036
     5  Na  -0.440551  -0.117188
     6  Na   0.407803   0.204668
     7  Na  -0.335760   0.206128
 Sum of Mulliken charges =  -0.00000   1.00000

 Dipole moment (field-independent basis, Debye):
    X=              1.6820    Y=             -0.1929    Z=              0.1092  Tot=              1.6965
 Quadrupole moment (field-independent basis, Debye-Ang):
   XX=            -47.4595   YY=            -78.0282   ZZ=            -68.0136
   XY=              1.6501   XZ=             -0.1385   YZ=              0.2535

 Normal termination of Gaussian 16 at Thu Dec  7 15:56:48 2023.
