 Gaussian 16, Revision B.01,
 Gaussian 16:  ES64L-G16RevB.01 20-Dec-2017

 -------------------------
 #P B3LYP/6-311+g(d) force
 -------------------------

 -----
 DPGEN
 -----
 Symbolic Z-matrix:
 Charge =  0 Multiplicity = 2

                         Standard orientation:
 ---------------------------------------------------------------------
 Center     Atomic      Atomic             Coordinates (Angstroms)
 Number     Number       Type             X           Y           Z
 ---------------------------------------------------------------------
      1         11           0        2.487191    1.918305   -0.741399
      2         11           0       -3.838284    0.019752   -0.757103
      3         11           0       -0.403810   -0.509327   -1.491905
      4         11           0        1.614580   -0.086637    1.809856
      5         11           0       -1.082290    1.858543    0.672322
      6         11           0        2.649805   -1.794853   -0.768602
      7         11           0       -1.427192   -1.405783    1.276832
 ---------------------------------------------------------------------

 SCF Done:  E(UB3LYP) =  -1136.12592041     A.U. after   25 cycles

 The electronic state is 2-A.
 Alpha  occ. eigenvalues --  -38.45126 -38.44017 -38.43860 -38.43813 -38.43590
 Alpha  occ. eigenvalues --  -38.43274 -38.42745  -2.20943  -2.19964  -2.19800
 Alpha  occ. eigenvalues --   -2.19752  -2.19417  -2.19120  -2.18645  -1.14614
 Alpha  occ. eigenvalues --   -1.14591  -1.14567  -1.13744  -1.13617  -1.13569
 Alpha  occ. eigenvalues --   -1.13512  -1.13447  -1.13420  -1.13412  -1.13388
 Alpha  occ. eigenvalues --   -1.13356  -1.13097  -1.13069  -1.13035  -1.12800
 Alpha  occ. eigenvalues --   -1.12778  -1.12747  -1.12370  -1.12326  -1.12227
 Alpha  occ. eigenvalues --   -0.18923  -0.14109  -0.11527  -0.10759
 Alpha virt. eigenvalues --   -0.06599  -0.05014  -0.04603  -0.03042  -0.02589
 Alpha virt. eigenvalues --   -0.02406  -0.02276  -0.00923  -0.00774  -0.00012
 Alpha virt. eigenvalues --    0.00194   0.00320   0.00399   0.00692   0.00789

  Beta  occ. eigenvalues --  -38.45106 -38.43983 -38.43807 -38.43758 -38.43571
  Beta  occ. eigenvalues --  -38.43266 -38.42732  -2.20908  -2.19905  -2.19708
  Beta  occ. eigenvalues --   -2.19656  -2.19381  -2.19107  -2.18625  -1.14583
  Beta  occ. eigenvalues --   -1.14567  -1.14545  -1.13693  -1.13575  -1.13521
  Beta  occ. eigenvalues --   -1.13437  -1.13371  -1.13353  -1.13340  -1.13312
  Beta  occ. eigenvalues --   -1.13284  -1.13069  -1.13043  -1.13008  -1.12786
  Beta  occ. eigenvalues --   -1.12768  -1.12731  -1.12361  -1.12276  -1.12221
  Beta  occ. eigenvalues --   -0.18148  -0.13861  -0.10596
  Beta virt. eigenvalues --   -0.07524  -0.06395  -0.04906  -0.04047  -0.02765
  Beta virt. eigenvalues --   -0.02320  -0.01861  -0.01597  -0.00753  -0.00468
  Beta virt. eigenvalues --    0.00091   0.00244   0.00342   0.00511   0.00730

 Mulliken charges and spin densities:
               1          2
     1  Na  -0.173534   0.082234
     2  Na   0.693554   0.122537
     3  Na  -0.325155   0.412859
     4  Na   0.514120   0.156490
     5  Na  -0.546117   0.061050
     6  Na  -0.101320   0.030490
     7  Na  -0.061548   0.134340
 Sum of Mulliken charges =  -0.00000   1.00000

 Dipole moment (field-independent basis, Debye):
    X=             -1.1107    Y=             -0.0052    Z=             -0.1915  Tot=              1.1271
 Quadrupole moment (field-independent basis, Debye-Ang):
   XX=            -46.8424   YY=            -77.7355   ZZ=            -67.5374
   XY=              0.1617   XZ=              0.9305   YZ=             -2.8398

 Normal termination of Gaussian 16 at Tue Dec  5 13:17:09 2023.
