 Gaussian 16, Revision B.01,
 Gaussian 16:  ES64L-G16RevB.01 20-Dec-2017

 -------------------------
 #P B3LYP/6-311+g(d) force
 -------------------------

 -----
 DPGEN
 -----
 Symbolic Z-matrix:
 Charge =  0 Multiplicity = 2

                         Standard orientation:
 ---------------------------------------------------------------------
 Center     Atomic      Atomic             Coordinates (Angstroms)
 Number     Number       Type             X           Y           Z
 ---------------------------------------------------------------------
      1         11           0        0.506992    0.490582    2.082486
      2         11           0        0.032759   -0.374211   -1.603629
      3         11           0        0.801176   -2.830636    0.233460
      4         11           0       -2.569378   -1.674733   -0.024027
      5         11           0        3.681504    0.112940   -0.341722
      6         11           0        0.328608    2.960229   -0.308021
      7         11           0       -2.781660    1.315829   -0.038546
 ---------------------------------------------------------------------

 SCF Done:  E(UB3LYP) =  -1136.12962123     A.U. after   22 cycles

 The electronic state is 2-A.
 Alpha  occ. eigenvalues --  -38.45219 -38.43861 -38.43714 -38.43688 -38.43635
 Alpha  occ. eigenvalues --  -38.43504 -38.43384  -2.20950  -2.19726  -2.19569
 Alpha  occ. eigenvalues --   -2.19547  -2.19453  -2.19356  -2.19325  -1.14628
 Alpha  occ. eigenvalues --   -1.14604  -1.14584  -1.13505  -1.13382  -1.13361
 Alpha  occ. eigenvalues --   -1.13283  -1.13233  -1.13215  -1.13203  -1.13189
 Alpha  occ. eigenvalues --   -1.13150  -1.13137  -1.13131  -1.13081  -1.13022
 Alpha  occ. eigenvalues --   -1.13003  -1.12980  -1.12971  -1.12960  -1.12934
 Alpha  occ. eigenvalues --   -0.18239  -0.12924  -0.12397  -0.10425
 Alpha virt. eigenvalues --   -0.06558  -0.04890  -0.04750  -0.03153  -0.02913
 Alpha virt. eigenvalues --   -0.02353  -0.02144  -0.01073  -0.00588  -0.00429
 Alpha virt. eigenvalues --   -0.00057   0.00295   0.00693   0.00732   0.00850

  Beta  occ. eigenvalues --  -38.45212 -38.43858 -38.43707 -38.43685 -38.43630
  Beta  occ. eigenvalues --  -38.43411 -38.43331  -2.20940  -2.19724  -2.19566
  Beta  occ. eigenvalues --   -2.19537  -2.19447  -2.19229  -2.19183  -1.14607
  Beta  occ. eigenvalues --   -1.14599  -1.14578  -1.13508  -1.13369  -1.13350
  Beta  occ. eigenvalues --   -1.13272  -1.13224  -1.13197  -1.13189  -1.13177
  Beta  occ. eigenvalues --   -1.13148  -1.13131  -1.13100  -1.13080  -1.12943
  Beta  occ. eigenvalues --   -1.12900  -1.12893  -1.12864  -1.12860  -1.12850
  Beta  occ. eigenvalues --   -0.17555  -0.12708  -0.12188
  Beta virt. eigenvalues --   -0.06631  -0.06455  -0.04845  -0.04682  -0.02454
  Beta virt. eigenvalues --   -0.02162  -0.02047  -0.01344  -0.00998  -0.00622
  Beta virt. eigenvalues --   -0.00467   0.00109   0.00340   0.00736   0.00814

 Mulliken charges and spin densities:
               1          2
     1  Na  -0.512880   0.653581
     2  Na  -0.206590   0.429909
     3  Na   0.157531  -0.005869
     4  Na   0.215088   0.042758
     5  Na   0.011357  -0.076926
     6  Na   0.173142  -0.052427
     7  Na   0.162351   0.008975
 Sum of Mulliken charges =  -0.00000   1.00000

 Dipole moment (field-independent basis, Debye):
    X=              0.7145    Y=              0.0192    Z=              0.0368  Tot=              0.7157
 Quadrupole moment (field-independent basis, Debye-Ang):
   XX=            -53.5656   YY=            -63.5715   ZZ=            -75.7425
   XY=              0.1536   XZ=             -0.9621   YZ=             -1.8271

 Normal termination of Gaussian 16 at Wed Dec  6 00:47:54 2023.
