 Gaussian 16, Revision B.01,
 Gaussian 16:  ES64L-G16RevB.01 20-Dec-2017

 -------------------------
 #P B3LYP/6-311+g(d) force
 -------------------------

 -----
 DPGEN
 -----
 Symbolic Z-matrix:
 Charge =  0 Multiplicity = 2

                         Standard orientation:
 ---------------------------------------------------------------------
 Center     Atomic      Atomic             Coordinates (Angstroms)
 Number     Number       Type             X           Y           Z
 ---------------------------------------------------------------------
      1         11           0        1.479125    3.368004   -0.101173
      2         11           0       -5.186362    0.202232   -0.182336
      3         11           0        4.422699    1.134978   -0.456550
      4         11           0        3.268828   -2.286865    0.461956
      5         11           0        0.428382   -3.300264   -0.037445
      6         11           0       -2.693127   -1.492556   -0.279128
      7         11           0       -1.719545    2.374471    0.594675
 ---------------------------------------------------------------------

 SCF Done:  E(UB3LYP) =  -1136.11205445     A.U. after   21 cycles

 The electronic state is 2-A.
 Alpha  occ. eigenvalues --  -38.45126 -38.44862 -38.44768 -38.44682 -38.44465
 Alpha  occ. eigenvalues --  -38.43909 -38.43497  -2.20900  -2.20685  -2.20555
 Alpha  occ. eigenvalues --   -2.20518  -2.20241  -2.19675  -2.19328  -1.14578
 Alpha  occ. eigenvalues --   -1.14574  -1.14496  -1.14425  -1.14360  -1.14342
 Alpha  occ. eigenvalues --   -1.14252  -1.14230  -1.14201  -1.14151  -1.14149
 Alpha  occ. eigenvalues --   -1.14108  -1.13903  -1.13884  -1.13862  -1.13358
 Alpha  occ. eigenvalues --   -1.13350  -1.13316  -1.12991  -1.12971  -1.12967
 Alpha  occ. eigenvalues --   -0.15932  -0.14106  -0.13132  -0.11090
 Alpha virt. eigenvalues --   -0.07239  -0.05486  -0.03880  -0.03794  -0.03247
 Alpha virt. eigenvalues --   -0.02486  -0.02396  -0.01634  -0.01210  -0.00815
 Alpha virt. eigenvalues --   -0.00614  -0.00152   0.00080   0.00498   0.00579

  Beta  occ. eigenvalues --  -38.45070 -38.44849 -38.44779 -38.44625 -38.44400
  Beta  occ. eigenvalues --  -38.43908 -38.43464  -2.20800  -2.20668  -2.20578
  Beta  occ. eigenvalues --   -2.20413  -2.20119  -2.19679  -2.19264  -1.14512
  Beta  occ. eigenvalues --   -1.14508  -1.14411  -1.14364  -1.14352  -1.14336
  Beta  occ. eigenvalues --   -1.14263  -1.14248  -1.14198  -1.14080  -1.14074
  Beta  occ. eigenvalues --   -1.14046  -1.13820  -1.13803  -1.13782  -1.13364
  Beta  occ. eigenvalues --   -1.13353  -1.13291  -1.12958  -1.12927  -1.12921
  Beta  occ. eigenvalues --   -0.15386  -0.13555  -0.12544
  Beta virt. eigenvalues --   -0.07812  -0.07118  -0.04981  -0.03638  -0.03439
  Beta virt. eigenvalues --   -0.02832  -0.02299  -0.02198  -0.01482  -0.01014
  Beta virt. eigenvalues --   -0.00472  -0.00303   0.00029   0.00324   0.00555

 Mulliken charges and spin densities:
               1          2
     1  Na  -0.071972  -0.129969
     2  Na   1.537032   0.338502
     3  Na   0.071778   0.341102
     4  Na  -0.170296  -0.016036
     5  Na   0.268346  -0.206142
     6  Na  -1.466400   0.397340
     7  Na  -0.168488   0.275204
 Sum of Mulliken charges =  -0.00000   1.00000

 Dipole moment (field-independent basis, Debye):
    X=             -1.2331    Y=              0.3037    Z=              0.0519  Tot=              1.2710
 Quadrupole moment (field-independent basis, Debye-Ang):
   XX=            -54.8823   YY=            -69.4822   ZZ=            -73.0660
   XY=             -2.9792   XZ=             -0.2821   YZ=             -0.2262

 Normal termination of Gaussian 16 at Sun Dec  3 22:59:10 2023.
