 Gaussian 16, Revision B.01,
 Gaussian 16:  ES64L-G16RevB.01 20-Dec-2017

 -------------------------
 #P B3LYP/6-311+g(d) force
 -------------------------

 -----
 DPGEN
 -----
 Symbolic Z-matrix:
 Charge =  0 Multiplicity = 2

                         Standard orientation:
 ---------------------------------------------------------------------
 Center     Atomic      Atomic             Coordinates (Angstroms)
 Number     Number       Type             X           Y           Z
 ---------------------------------------------------------------------
      1         11           0        1.680144   -0.401798    1.880336
      2         11           0       -3.851989   -0.745163   -0.703319
      3         11           0       -1.960577   -0.467679    1.523961
      4         11           0        1.610622    1.953377   -0.476791
      5         11           0       -1.423072    2.040529   -0.311957
      6         11           0        0.120900   -1.551066   -1.284269
      7         11           0        3.823971   -0.828199   -0.627962
 ---------------------------------------------------------------------

 SCF Done:  E(UB3LYP) =  -1136.11751273     A.U. after   27 cycles

 The electronic state is 2-A.
 Alpha  occ. eigenvalues --  -38.45504 -38.44818 -38.44653 -38.44112 -38.44111
 Alpha  occ. eigenvalues --  -38.42764 -38.42585  -2.21282  -2.20659  -2.20467
 Alpha  occ. eigenvalues --   -2.20062  -2.20003  -2.18672  -2.18494  -1.14986
 Alpha  occ. eigenvalues --   -1.14961  -1.14872  -1.14408  -1.14294  -1.14285
 Alpha  occ. eigenvalues --   -1.14146  -1.14129  -1.14100  -1.13730  -1.13723
 Alpha  occ. eigenvalues --   -1.13682  -1.13666  -1.13656  -1.13608  -1.12408
 Alpha  occ. eigenvalues --   -1.12340  -1.12308  -1.12172  -1.12150  -1.12087
 Alpha  occ. eigenvalues --   -0.18551  -0.14520  -0.11056  -0.10983
 Alpha virt. eigenvalues --   -0.07354  -0.05183  -0.04785  -0.03231  -0.02936
 Alpha virt. eigenvalues --   -0.02349  -0.02157  -0.01439  -0.00755  -0.00196
 Alpha virt. eigenvalues --    0.00044   0.00202   0.00356   0.00612   0.00705

  Beta  occ. eigenvalues --  -38.45472 -38.44815 -38.44650 -38.44070 -38.44040
  Beta  occ. eigenvalues --  -38.42750 -38.42579  -2.21225  -2.20654  -2.20462
  Beta  occ. eigenvalues --   -2.19987  -2.19875  -2.18648  -2.18483  -1.14938
  Beta  occ. eigenvalues --   -1.14913  -1.14832  -1.14404  -1.14287  -1.14278
  Beta  occ. eigenvalues --   -1.14140  -1.14120  -1.14095  -1.13685  -1.13657
  Beta  occ. eigenvalues --   -1.13613  -1.13583  -1.13562  -1.13511  -1.12399
  Beta  occ. eigenvalues --   -1.12313  -1.12287  -1.12160  -1.12136  -1.12080
  Beta  occ. eigenvalues --   -0.17857  -0.14430  -0.10811
  Beta virt. eigenvalues --   -0.07157  -0.07101  -0.04997  -0.04259  -0.02976
  Beta virt. eigenvalues --   -0.02834  -0.01722  -0.01439  -0.01177  -0.00430
  Beta virt. eigenvalues --   -0.00142   0.00073   0.00274   0.00466   0.00692

 Mulliken charges and spin densities:
               1          2
     1  Na  -0.213929   0.131480
     2  Na   1.138817   0.086382
     3  Na  -0.276544   0.141650
     4  Na  -0.409320   0.219187
     5  Na  -0.529916   0.045517
     6  Na  -0.732841   0.276087
     7  Na   1.023732   0.099697
 Sum of Mulliken charges =  -0.00000   1.00000

 Dipole moment (field-independent basis, Debye):
    X=              0.0626    Y=             -0.5950    Z=             -0.3983  Tot=              0.7187
 Quadrupole moment (field-independent basis, Debye-Ang):
   XX=            -46.9087   YY=            -79.6137   ZZ=            -69.3141
   XY=              0.0513   XZ=              1.1717   YZ=              1.2918

 Normal termination of Gaussian 16 at Thu Dec  7 19:54:39 2023.
