 Gaussian 16, Revision B.01,
 Gaussian 16:  ES64L-G16RevB.01 20-Dec-2017

 -------------------------
 #P B3LYP/6-311+g(d) force
 -------------------------

 -----
 DPGEN
 -----
 Symbolic Z-matrix:
 Charge =  0 Multiplicity = 2

                         Standard orientation:
 ---------------------------------------------------------------------
 Center     Atomic      Atomic             Coordinates (Angstroms)
 Number     Number       Type             X           Y           Z
 ---------------------------------------------------------------------
      1         11           0        2.424448    1.242945   -0.542633
      2         11           0        0.141550   -1.424358   -1.479823
      3         11           0       -2.867236   -2.293787    0.124958
      4         11           0        3.329809   -1.815843    0.308085
      5         11           0       -0.132328   -0.432267    1.796314
      6         11           0       -0.027218    3.572317    0.176496
      7         11           0       -2.869026    1.150993   -0.383397
 ---------------------------------------------------------------------

 SCF Done:  E(UB3LYP) =  -1136.12789636     A.U. after   21 cycles

 The electronic state is 2-A.
 Alpha  occ. eigenvalues --  -38.44948 -38.44710 -38.44330 -38.43960 -38.43880
 Alpha  occ. eigenvalues --  -38.43361 -38.43225  -2.20724  -2.20505  -2.20139
 Alpha  occ. eigenvalues --   -2.19803  -2.19735  -2.19223  -2.19003  -1.14410
 Alpha  occ. eigenvalues --   -1.14394  -1.14347  -1.14189  -1.14159  -1.14141
 Alpha  occ. eigenvalues --   -1.13811  -1.13797  -1.13780  -1.13497  -1.13477
 Alpha  occ. eigenvalues --   -1.13438  -1.13423  -1.13405  -1.13321  -1.12910
 Alpha  occ. eigenvalues --   -1.12850  -1.12829  -1.12673  -1.12669  -1.12648
 Alpha  occ. eigenvalues --   -0.17745  -0.13545  -0.12159  -0.09826
 Alpha virt. eigenvalues --   -0.06460  -0.05885  -0.05004  -0.03347  -0.02421
 Alpha virt. eigenvalues --   -0.02245  -0.02021  -0.01503  -0.01055  -0.00611
 Alpha virt. eigenvalues --   -0.00036   0.00246   0.00583   0.00661   0.00712

  Beta  occ. eigenvalues --  -38.44942 -38.44711 -38.44328 -38.43948 -38.43832
  Beta  occ. eigenvalues --  -38.43269 -38.43228  -2.20714  -2.20509  -2.20138
  Beta  occ. eigenvalues --   -2.19785  -2.19647  -2.19052  -2.19009  -1.14393
  Beta  occ. eigenvalues --   -1.14383  -1.14343  -1.14195  -1.14146  -1.14141
  Beta  occ. eigenvalues --   -1.13813  -1.13783  -1.13772  -1.13481  -1.13447
  Beta  occ. eigenvalues --   -1.13415  -1.13374  -1.13334  -1.13258  -1.12792
  Beta  occ. eigenvalues --   -1.12729  -1.12707  -1.12678  -1.12667  -1.12652
  Beta  occ. eigenvalues --   -0.17086  -0.13358  -0.12028
  Beta virt. eigenvalues --   -0.06369  -0.06051  -0.05794  -0.04931  -0.02625
  Beta virt. eigenvalues --   -0.02107  -0.01886  -0.01479  -0.01144  -0.01103
  Beta virt. eigenvalues --   -0.00469   0.00169   0.00305   0.00635   0.00699

 Mulliken charges and spin densities:
               1          2
     1  Na  -0.170925   0.060864
     2  Na  -0.216999   0.315827
     3  Na   0.470398   0.052288
     4  Na   0.468126  -0.011794
     5  Na  -0.397446   0.653536
     6  Na  -0.016713  -0.076813
     7  Na  -0.136441   0.006093
 Sum of Mulliken charges =  -0.00000   1.00000

 Dipole moment (field-independent basis, Debye):
    X=             -0.1455    Y=             -0.8950    Z=              0.0243  Tot=              0.9071
 Quadrupole moment (field-independent basis, Debye-Ang):
   XX=            -50.8017   YY=            -62.5830   ZZ=            -78.8516
   XY=             -1.3462   XZ=              0.8949   YZ=             -1.0110

 Normal termination of Gaussian 16 at Tue Dec  5 17:30:23 2023.
