 Gaussian 16, Revision B.01,
 Gaussian 16:  ES64L-G16RevB.01 20-Dec-2017

 -------------------------
 #P B3LYP/6-311+g(d) force
 -------------------------

 -----
 DPGEN
 -----
 Symbolic Z-matrix:
 Charge =  0 Multiplicity = 2

                         Standard orientation:
 ---------------------------------------------------------------------
 Center     Atomic      Atomic             Coordinates (Angstroms)
 Number     Number       Type             X           Y           Z
 ---------------------------------------------------------------------
      1         11           0       -2.112875   -1.447944    0.800002
      2         11           0        2.595451    2.117939    0.534417
      3         11           0        1.585009   -1.123952    1.942982
      4         11           0       -1.180054    1.526155   -0.145004
      5         11           0        0.524050   -1.500182   -1.612943
      6         11           0        3.571968   -0.240180   -1.130793
      7         11           0       -4.983549    0.668164   -0.388661
 ---------------------------------------------------------------------

 SCF Done:  E(UB3LYP) =  -1136.11372603     A.U. after   28 cycles

 The electronic state is 2-A.
 Alpha  occ. eigenvalues --  -38.45505 -38.44844 -38.44641 -38.44257 -38.43899
 Alpha  occ. eigenvalues --  -38.43529 -38.43166  -2.21286  -2.20597  -2.20452
 Alpha  occ. eigenvalues --   -2.20144  -2.19745  -2.19388  -2.19018  -1.14999
 Alpha  occ. eigenvalues --   -1.14972  -1.14882  -1.14270  -1.14265  -1.14208
 Alpha  occ. eigenvalues --   -1.14131  -1.14105  -1.14064  -1.13814  -1.13796
 Alpha  occ. eigenvalues --   -1.13783  -1.13460  -1.13429  -1.13328  -1.13073
 Alpha  occ. eigenvalues --   -1.13044  -1.12990  -1.12693  -1.12670  -1.12661
 Alpha  occ. eigenvalues --   -0.17849  -0.14147  -0.11152  -0.10855
 Alpha virt. eigenvalues --   -0.07697  -0.05335  -0.04407  -0.03410  -0.03110
 Alpha virt. eigenvalues --   -0.02482  -0.02217  -0.01515  -0.01165  -0.00424
 Alpha virt. eigenvalues --   -0.00358   0.00064   0.00219   0.00612   0.00653

  Beta  occ. eigenvalues --  -38.45506 -38.44822 -38.44595 -38.44205 -38.43894
  Beta  occ. eigenvalues --  -38.43479 -38.43152  -2.21289  -2.20557  -2.20369
  Beta  occ. eigenvalues --   -2.20049  -2.19737  -2.19298  -2.18993  -1.14993
  Beta  occ. eigenvalues --   -1.14977  -1.14878  -1.14242  -1.14237  -1.14182
  Beta  occ. eigenvalues --   -1.14059  -1.14053  -1.14005  -1.13755  -1.13727
  Beta  occ. eigenvalues --   -1.13703  -1.13454  -1.13418  -1.13318  -1.13017
  Beta  occ. eigenvalues --   -1.12983  -1.12911  -1.12675  -1.12656  -1.12628
  Beta  occ. eigenvalues --   -0.17252  -0.13842  -0.10820
  Beta virt. eigenvalues --   -0.07544  -0.07106  -0.05260  -0.03951  -0.03070
  Beta virt. eigenvalues --   -0.02924  -0.02000  -0.01606  -0.01354  -0.00742
  Beta virt. eigenvalues --   -0.00337  -0.00277   0.00137   0.00346   0.00669

 Mulliken charges and spin densities:
               1          2
     1  Na   0.099798   0.031284
     2  Na   0.178471   0.115852
     3  Na  -0.231496   0.348510
     4  Na  -0.646297  -0.015390
     5  Na  -0.019674   0.307083
     6  Na   0.217855   0.069575
     7  Na   0.401343   0.143086
 Sum of Mulliken charges =  -0.00000   1.00000

 Dipole moment (field-independent basis, Debye):
    X=             -0.8377    Y=             -0.6466    Z=              0.4280  Tot=              1.1415
 Quadrupole moment (field-independent basis, Debye-Ang):
   XX=            -55.2193   YY=            -74.2996   ZZ=            -69.8946
   XY=             -0.6645   XZ=              2.3227   YZ=             -2.9318

 Normal termination of Gaussian 16 at Fri Dec  8 05:09:11 2023.
