 Gaussian 16, Revision B.01,
 Gaussian 16:  ES64L-G16RevB.01 20-Dec-2017

 -------------------------
 #P B3LYP/6-311+g(d) force
 -------------------------

 -----
 DPGEN
 -----
 Symbolic Z-matrix:
 Charge =  0 Multiplicity = 2

                         Standard orientation:
 ---------------------------------------------------------------------
 Center     Atomic      Atomic             Coordinates (Angstroms)
 Number     Number       Type             X           Y           Z
 ---------------------------------------------------------------------
      1         11           0        0.132049   -0.225590    1.791281
      2         11           0       -3.166820    0.448809   -0.299857
      3         11           0        2.096747   -2.143987   -0.150684
      4         11           0        2.954809    1.344994   -0.160580
      5         11           0       -0.501965    2.932857    0.295954
      6         11           0       -0.035987   -0.028595   -1.684216
      7         11           0       -1.478834   -2.328488    0.208102
 ---------------------------------------------------------------------

 SCF Done:  E(UB3LYP) =  -1136.13807963     A.U. after   19 cycles

 The electronic state is 2-A.
 Alpha  occ. eigenvalues --  -38.44172 -38.43988 -38.43583 -38.43459 -38.43245
 Alpha  occ. eigenvalues --  -38.43175 -38.43153  -2.19972  -2.19827  -2.19449
 Alpha  occ. eigenvalues --   -2.19275  -2.19174  -2.19147  -2.19125  -1.13650
 Alpha  occ. eigenvalues --   -1.13629  -1.13611  -1.13502  -1.13492  -1.13466
 Alpha  occ. eigenvalues --   -1.13138  -1.13127  -1.13076  -1.12958  -1.12957
 Alpha  occ. eigenvalues --   -1.12947  -1.12902  -1.12874  -1.12822  -1.12790
 Alpha  occ. eigenvalues --   -1.12776  -1.12764  -1.12750  -1.12731  -1.12712
 Alpha  occ. eigenvalues --   -0.18839  -0.13107  -0.12451  -0.10566
 Alpha virt. eigenvalues --   -0.05758  -0.05203  -0.04630  -0.03102  -0.02808
 Alpha virt. eigenvalues --   -0.02287  -0.01658  -0.01173  -0.00445  -0.00256
 Alpha virt. eigenvalues --    0.00020   0.00348   0.00789   0.00871   0.00893

  Beta  occ. eigenvalues --  -38.44169 -38.43981 -38.43576 -38.43453 -38.43233
  Beta  occ. eigenvalues --  -38.43106 -38.43068  -2.19970  -2.19818  -2.19441
  Beta  occ. eigenvalues --   -2.19266  -2.19158  -2.19022  -2.18970  -1.13635
  Beta  occ. eigenvalues --   -1.13630  -1.13608  -1.13496  -1.13474  -1.13456
  Beta  occ. eigenvalues --   -1.13133  -1.13097  -1.13066  -1.12947  -1.12926
  Beta  occ. eigenvalues --   -1.12918  -1.12899  -1.12813  -1.12781  -1.12749
  Beta  occ. eigenvalues --   -1.12683  -1.12675  -1.12661  -1.12626  -1.12609
  Beta  occ. eigenvalues --   -0.18116  -0.12848  -0.12191
  Beta virt. eigenvalues --   -0.06678  -0.05718  -0.05196  -0.04595  -0.02341
  Beta virt. eigenvalues --   -0.02034  -0.01558  -0.01264  -0.01111  -0.00474
  Beta virt. eigenvalues --   -0.00303   0.00145   0.00377   0.00829   0.00880

 Mulliken charges and spin densities:
               1          2
     1  Na  -0.241973   0.687323
     2  Na   0.065920  -0.020827
     3  Na   0.173136  -0.094715
     4  Na  -0.067451  -0.109195
     5  Na  -0.083539  -0.093179
     6  Na  -0.290669   0.641790
     7  Na   0.444576  -0.011198
 Sum of Mulliken charges =  -0.00000   1.00000

 Dipole moment (field-independent basis, Debye):
    X=              0.1906    Y=              0.1592    Z=             -0.0419  Tot=              0.2518
 Quadrupole moment (field-independent basis, Debye-Ang):
   XX=            -54.3446   YY=            -62.4664   ZZ=            -75.4042
   XY=             -0.2384   XZ=             -0.1967   YZ=              0.3927

 Normal termination of Gaussian 16 at Sun Dec  3 12:57:43 2023.
