 Gaussian 16, Revision B.01,
 Gaussian 16:  ES64L-G16RevB.01 20-Dec-2017

 -------------------------
 #P B3LYP/6-311+g(d) force
 -------------------------

 -----
 DPGEN
 -----
 Symbolic Z-matrix:
 Charge =  0 Multiplicity = 2

                         Standard orientation:
 ---------------------------------------------------------------------
 Center     Atomic      Atomic             Coordinates (Angstroms)
 Number     Number       Type             X           Y           Z
 ---------------------------------------------------------------------
      1         11           0        0.664862   -2.620192    0.191556
      2         11           0       -3.069674   -1.289750   -0.074904
      3         11           0       -0.020487   -0.229823    1.839497
      4         11           0       -1.962194    2.180187   -0.108041
      5         11           0       -0.012241   -0.117299   -1.830989
      6         11           0        1.334430    2.490935    0.289760
      7         11           0        3.065303   -0.414059   -0.306878
 ---------------------------------------------------------------------

 SCF Done:  E(UB3LYP) =  -1136.13746016     A.U. after   19 cycles

 The electronic state is 2-A.
 Alpha  occ. eigenvalues --  -38.44168 -38.43899 -38.43551 -38.43435 -38.43405
 Alpha  occ. eigenvalues --  -38.43330 -38.43077  -2.19956  -2.19765  -2.19403
 Alpha  occ. eigenvalues --   -2.19383  -2.19373  -2.19253  -2.18955  -1.13633
 Alpha  occ. eigenvalues --   -1.13610  -1.13600  -1.13440  -1.13423  -1.13419
 Alpha  occ. eigenvalues --   -1.13170  -1.13104  -1.13083  -1.13067  -1.13037
 Alpha  occ. eigenvalues --   -1.13019  -1.13016  -1.12988  -1.12970  -1.12896
 Alpha  occ. eigenvalues --   -1.12877  -1.12844  -1.12630  -1.12612  -1.12594
 Alpha  occ. eigenvalues --   -0.18923  -0.13053  -0.12480  -0.10862
 Alpha virt. eigenvalues --   -0.05735  -0.05092  -0.04448  -0.03203  -0.02934
 Alpha virt. eigenvalues --   -0.02563  -0.01671  -0.01035  -0.00242  -0.00147
 Alpha virt. eigenvalues --    0.00004   0.00350   0.00805   0.00892   0.00920

  Beta  occ. eigenvalues --  -38.44168 -38.43891 -38.43548 -38.43358 -38.43319
  Beta  occ. eigenvalues --  -38.43318 -38.43070  -2.19959  -2.19754  -2.19400
  Beta  occ. eigenvalues --   -2.19241  -2.19240  -2.19213  -2.18945  -1.13624
  Beta  occ. eigenvalues --   -1.13611  -1.13602  -1.13430  -1.13418  -1.13390
  Beta  occ. eigenvalues --   -1.13097  -1.13091  -1.13054  -1.13036  -1.12984
  Beta  occ. eigenvalues --   -1.12933  -1.12912  -1.12885  -1.12867  -1.12855
  Beta  occ. eigenvalues --   -1.12833  -1.12804  -1.12620  -1.12593  -1.12580
  Beta  occ. eigenvalues --   -0.18174  -0.12811  -0.12217
  Beta virt. eigenvalues --   -0.06931  -0.05704  -0.05086  -0.04426  -0.02418
  Beta virt. eigenvalues --   -0.02129  -0.01613  -0.01468  -0.00974  -0.00285
  Beta virt. eigenvalues --   -0.00183   0.00119   0.00369   0.00845   0.00900

 Mulliken charges and spin densities:
               1          2
     1  Na   0.325502  -0.108025
     2  Na   0.002971  -0.142351
     3  Na  -0.267406   0.662261
     4  Na  -0.003240  -0.096258
     5  Na  -0.339342   0.692141
     6  Na   0.080337  -0.034108
     7  Na   0.201176   0.026340
 Sum of Mulliken charges =  -0.00000   1.00000

 Dipole moment (field-independent basis, Debye):
    X=             -0.2300    Y=             -0.1407    Z=             -0.0937  Tot=              0.2854
 Quadrupole moment (field-independent basis, Debye-Ang):
   XX=            -54.9491   YY=            -64.5149   ZZ=            -73.8721
   XY=              0.4770   XZ=             -0.1731   YZ=              0.3374

 Normal termination of Gaussian 16 at Thu Dec  7 14:42:49 2023.
