 Gaussian 16, Revision B.01,
 Gaussian 16:  ES64L-G16RevB.01 20-Dec-2017

 -------------------------
 #P B3LYP/6-311+g(d) force
 -------------------------

 -----
 DPGEN
 -----
 Symbolic Z-matrix:
 Charge =  0 Multiplicity = 2

                         Standard orientation:
 ---------------------------------------------------------------------
 Center     Atomic      Atomic             Coordinates (Angstroms)
 Number     Number       Type             X           Y           Z
 ---------------------------------------------------------------------
      1         11           0       -1.780206   -2.151567   -0.223339
      2         11           0       -0.047588    2.899098   -0.025576
      3         11           0        2.805751    0.939910    0.060098
      4         11           0        0.170150   -0.436536    2.007396
      5         11           0        1.756939   -2.219199   -0.207477
      6         11           0       -0.085541    0.136785   -1.860659
      7         11           0       -2.819507    0.831510    0.249556
 ---------------------------------------------------------------------

 SCF Done:  E(UB3LYP) =  -1136.14074270     A.U. after   18 cycles

 The electronic state is 2-A.
 Alpha  occ. eigenvalues --  -38.43685 -38.43644 -38.43606 -38.43427 -38.43336
 Alpha  occ. eigenvalues --  -38.43301 -38.43229  -2.19609  -2.19507  -2.19478
 Alpha  occ. eigenvalues --   -2.19398  -2.19235  -2.19211  -2.19084  -1.13291
 Alpha  occ. eigenvalues --   -1.13245  -1.13242  -1.13184  -1.13174  -1.13168
 Alpha  occ. eigenvalues --   -1.13152  -1.13137  -1.13131  -1.13080  -1.13049
 Alpha  occ. eigenvalues --   -1.13021  -1.12905  -1.12895  -1.12878  -1.12867
 Alpha  occ. eigenvalues --   -1.12864  -1.12822  -1.12759  -1.12743  -1.12717
 Alpha  occ. eigenvalues --   -0.19076  -0.13053  -0.12593  -0.11146
 Alpha virt. eigenvalues --   -0.05253  -0.04989  -0.04660  -0.03337  -0.03091
 Alpha virt. eigenvalues --   -0.02798  -0.01213  -0.00970  -0.00136  -0.00059
 Alpha virt. eigenvalues --   -0.00024   0.00390   0.00879   0.00948   0.00959

  Beta  occ. eigenvalues --  -38.43640 -38.43600 -38.43599 -38.43348 -38.43328
  Beta  occ. eigenvalues --  -38.43293 -38.43226  -2.19503  -2.19471  -2.19450
  Beta  occ. eigenvalues --   -2.19253  -2.19225  -2.19200  -2.19082  -1.13206
  Beta  occ. eigenvalues --   -1.13182  -1.13166  -1.13163  -1.13146  -1.13137
  Beta  occ. eigenvalues --   -1.13123  -1.13112  -1.13099  -1.12996  -1.12950
  Beta  occ. eigenvalues --   -1.12931  -1.12888  -1.12870  -1.12858  -1.12849
  Beta  occ. eigenvalues --   -1.12823  -1.12817  -1.12750  -1.12725  -1.12720
  Beta  occ. eigenvalues --   -0.18305  -0.12808  -0.12348
  Beta virt. eigenvalues --   -0.07189  -0.05233  -0.04992  -0.04599  -0.02501
  Beta virt. eigenvalues --   -0.02291  -0.01729  -0.01134  -0.00904  -0.00173
  Beta virt. eigenvalues --   -0.00120   0.00103   0.00403   0.00927   0.00941

 Mulliken charges and spin densities:
               1          2
     1  Na   0.359420  -0.031901
     2  Na   0.079113  -0.081009
     3  Na   0.106597  -0.079426
     4  Na  -0.583982   0.688135
     5  Na   0.369558  -0.059110
     6  Na  -0.388126   0.590924
     7  Na   0.057421  -0.027612
 Sum of Mulliken charges =  -0.00000   1.00000

 Dipole moment (field-independent basis, Debye):
    X=              0.0692    Y=              0.0102    Z=              0.1200  Tot=              0.1389
 Quadrupole moment (field-independent basis, Debye-Ang):
   XX=            -59.6718   YY=            -63.4777   ZZ=            -71.8076
   XY=             -0.0918   XZ=             -0.5893   YZ=              1.3003

 Normal termination of Gaussian 16 at Tue Dec  5 16:55:37 2023.
