 Gaussian 16, Revision B.01,
 Gaussian 16:  ES64L-G16RevB.01 20-Dec-2017

 -------------------------
 #P B3LYP/6-311+g(d) force
 -------------------------

 -----
 DPGEN
 -----
 Symbolic Z-matrix:
 Charge =  0 Multiplicity = 2

                         Standard orientation:
 ---------------------------------------------------------------------
 Center     Atomic      Atomic             Coordinates (Angstroms)
 Number     Number       Type             X           Y           Z
 ---------------------------------------------------------------------
      1         11           0        0.611337    2.234288   -0.125814
      2         11           0        1.793022   -1.424412   -0.135760
      3         11           0        5.028367   -1.723455    0.746076
      4         11           0        7.025722    0.393400   -0.638973
      5         11           0       -7.182054   -1.704411   -0.377210
      6         11           0       -2.605292    2.536759    0.402952
      7         11           0       -4.671102   -0.312170    0.128728
 ---------------------------------------------------------------------

 SCF Done:  E(UB3LYP) =  -1136.10552985     A.U. after   19 cycles

 The electronic state is 2-A.
 Alpha  occ. eigenvalues --  -38.44872 -38.44862 -38.44803 -38.44459 -38.44297
 Alpha  occ. eigenvalues --  -38.44201 -38.43677  -2.20680  -2.20666  -2.20565
 Alpha  occ. eigenvalues --   -2.20266  -2.20101  -2.20019  -2.19512  -1.14320
 Alpha  occ. eigenvalues --   -1.14314  -1.14314  -1.14308  -1.14303  -1.14286
 Alpha  occ. eigenvalues --   -1.14245  -1.14235  -1.14224  -1.13922  -1.13921
 Alpha  occ. eigenvalues --   -1.13885  -1.13775  -1.13769  -1.13762  -1.13757
 Alpha  occ. eigenvalues --   -1.13654  -1.13654  -1.13168  -1.13163  -1.13151
 Alpha  occ. eigenvalues --   -0.15448  -0.14400  -0.12696  -0.11312
 Alpha virt. eigenvalues --   -0.07089  -0.05463  -0.03870  -0.03436  -0.03344
 Alpha virt. eigenvalues --   -0.02698  -0.02294  -0.01956  -0.01650  -0.01135
 Alpha virt. eigenvalues --   -0.00630  -0.00432  -0.00187   0.00307   0.00428

  Beta  occ. eigenvalues --  -38.44820 -38.44777 -38.44770 -38.44420 -38.44306
  Beta  occ. eigenvalues --  -38.44183 -38.43679  -2.20599  -2.20502  -2.20495
  Beta  occ. eigenvalues --   -2.20192  -2.20125  -2.19985  -2.19518  -1.14271
  Beta  occ. eigenvalues --   -1.14259  -1.14229  -1.14202  -1.14197  -1.14192
  Beta  occ. eigenvalues --   -1.14189  -1.14188  -1.14171  -1.13872  -1.13870
  Beta  occ. eigenvalues --   -1.13843  -1.13799  -1.13788  -1.13736  -1.13725
  Beta  occ. eigenvalues --   -1.13631  -1.13630  -1.13170  -1.13169  -1.13140
  Beta  occ. eigenvalues --   -0.14864  -0.13828  -0.12290
  Beta virt. eigenvalues --   -0.08013  -0.06720  -0.05030  -0.03538  -0.03179
  Beta virt. eigenvalues --   -0.03128  -0.02525  -0.01985  -0.01827  -0.01490
  Beta virt. eigenvalues --   -0.00697  -0.00399  -0.00140   0.00070   0.00380

 Mulliken charges and spin densities:
               1          2
     1  Na  -0.347904  -0.057495
     2  Na  -0.132783   0.355526
     3  Na   0.092309   0.004276
     4  Na   0.078645   0.450638
     5  Na   0.326660   0.096495
     6  Na   0.876034   0.134219
     7  Na  -0.892962   0.016340
 Sum of Mulliken charges =  -0.00000   1.00000

 Dipole moment (field-independent basis, Debye):
    X=              0.7509    Y=              0.2707    Z=             -0.2844  Tot=              0.8473
 Quadrupole moment (field-independent basis, Debye-Ang):
   XX=            -60.5393   YY=            -65.0126   ZZ=            -72.9940
   XY=              6.7325   XZ=             -0.7726   YZ=             -1.2677

 Normal termination of Gaussian 16 at Sun Dec  3 13:33:47 2023.
