 Gaussian 16, Revision B.01,
 Gaussian 16:  ES64L-G16RevB.01 20-Dec-2017

 -------------------------
 #P B3LYP/6-311+g(d) force
 -------------------------

 -----
 DPGEN
 -----
 Symbolic Z-matrix:
 Charge =  0 Multiplicity = 2

                         Standard orientation:
 ---------------------------------------------------------------------
 Center     Atomic      Atomic             Coordinates (Angstroms)
 Number     Number       Type             X           Y           Z
 ---------------------------------------------------------------------
      1         11           0        3.517233   -1.997243   -1.159591
      2         11           0        2.564216   -1.473986    1.903839
      3         11           0       -4.060377   -1.833644   -1.487857
      4         11           0       -2.939483   -0.903309    1.312242
      5         11           0       -0.243884    1.620568    2.213381
      6         11           0        1.192412    1.012031   -2.070484
      7         11           0       -0.030117    3.575582   -0.711530
 ---------------------------------------------------------------------

 SCF Done:  E(UB3LYP) =  -1136.11117974     A.U. after   19 cycles

 The electronic state is 2-A.
 Alpha  occ. eigenvalues --  -38.44921 -38.44832 -38.44808 -38.44105 -38.44044
 Alpha  occ. eigenvalues --  -38.43752 -38.43698  -2.20722  -2.20604  -2.20600
 Alpha  occ. eigenvalues --   -2.19900  -2.19830  -2.19567  -2.19479  -1.14388
 Alpha  occ. eigenvalues --   -1.14372  -1.14348  -1.14273  -1.14260  -1.14258
 Alpha  occ. eigenvalues --   -1.14253  -1.14241  -1.14217  -1.13559  -1.13544
 Alpha  occ. eigenvalues --   -1.13543  -1.13494  -1.13485  -1.13478  -1.13247
 Alpha  occ. eigenvalues --   -1.13224  -1.13208  -1.13151  -1.13148  -1.13125
 Alpha  occ. eigenvalues --   -0.16127  -0.13116  -0.12415  -0.11664
 Alpha virt. eigenvalues --   -0.06336  -0.05611  -0.04853  -0.03573  -0.03208
 Alpha virt. eigenvalues --   -0.02638  -0.01496  -0.01306  -0.01201  -0.00818
 Alpha virt. eigenvalues --   -0.00423  -0.00244   0.00035   0.00190   0.00514

  Beta  occ. eigenvalues --  -38.44860 -38.44810 -38.44734 -38.44062 -38.44040
  Beta  occ. eigenvalues --  -38.43754 -38.43709  -2.20610  -2.20561  -2.20463
  Beta  occ. eigenvalues --   -2.19824  -2.19819  -2.19574  -2.19502  -1.14312
  Beta  occ. eigenvalues --   -1.14299  -1.14265  -1.14246  -1.14230  -1.14206
  Beta  occ. eigenvalues --   -1.14166  -1.14159  -1.14121  -1.13510  -1.13491
  Beta  occ. eigenvalues --   -1.13489  -1.13488  -1.13476  -1.13472  -1.13240
  Beta  occ. eigenvalues --   -1.13232  -1.13208  -1.13171  -1.13166  -1.13110
  Beta  occ. eigenvalues --   -0.15404  -0.12871  -0.12147
  Beta virt. eigenvalues --   -0.08271  -0.05746  -0.05152  -0.04360  -0.03358
  Beta virt. eigenvalues --   -0.02730  -0.02601  -0.01415  -0.01115  -0.00843
  Beta virt. eigenvalues --   -0.00518  -0.00306   0.00062   0.00227   0.00323

 Mulliken charges and spin densities:
               1          2
     1  Na   0.263421   0.002580
     2  Na  -0.081657   0.117018
     3  Na   0.318554   0.201765
     4  Na  -0.384913  -0.091237
     5  Na   0.120312   0.410599
     6  Na  -0.564208   0.421114
     7  Na   0.328491  -0.061839
 Sum of Mulliken charges =  -0.00000   1.00000

 Dipole moment (field-independent basis, Debye):
    X=              0.6067    Y=              0.1977    Z=             -0.4481  Tot=              0.7797
 Quadrupole moment (field-independent basis, Debye-Ang):
   XX=            -72.4046   YY=            -67.9487   ZZ=            -60.1430
   XY=             -3.5778   XZ=              2.3426   YZ=              3.7792

 Normal termination of Gaussian 16 at Sun Dec  3 16:34:42 2023.
