 Gaussian 16, Revision B.01,
 Gaussian 16:  ES64L-G16RevB.01 20-Dec-2017

 -------------------------
 #P B3LYP/6-311+g(d) force
 -------------------------

 -----
 DPGEN
 -----
 Symbolic Z-matrix:
 Charge =  0 Multiplicity = 2

                         Standard orientation:
 ---------------------------------------------------------------------
 Center     Atomic      Atomic             Coordinates (Angstroms)
 Number     Number       Type             X           Y           Z
 ---------------------------------------------------------------------
      1         11           0       -1.013683   -1.978848   -0.895283
      2         11           0        3.308642    1.111345   -0.280455
      3         11           0       -4.384736   -0.492024   -0.140898
      4         11           0        2.216853   -2.916253   -0.691300
      5         11           0       -1.360544    1.448818    0.637402
      6         11           0        0.323922    3.373381   -0.948996
      7         11           0        0.909546   -0.546418    2.319530
 ---------------------------------------------------------------------

 SCF Done:  E(UB3LYP) =  -1136.11608359     A.U. after   21 cycles

 The electronic state is 2-A.
 Alpha  occ. eigenvalues --  -38.45664 -38.44909 -38.44161 -38.43976 -38.43958
 Alpha  occ. eigenvalues --  -38.43900 -38.43594  -2.21389  -2.20658  -2.19954
 Alpha  occ. eigenvalues --   -2.19812  -2.19742  -2.19713  -2.19470  -1.15079
 Alpha  occ. eigenvalues --   -1.15044  -1.15015  -1.14329  -1.14323  -1.14284
 Alpha  occ. eigenvalues --   -1.13653  -1.13639  -1.13572  -1.13478  -1.13469
 Alpha  occ. eigenvalues --   -1.13445  -1.13412  -1.13409  -1.13395  -1.13370
 Alpha  occ. eigenvalues --   -1.13362  -1.13324  -1.13154  -1.13144  -1.13062
 Alpha  occ. eigenvalues --   -0.17036  -0.12823  -0.12587  -0.10587
 Alpha virt. eigenvalues --   -0.07317  -0.05441  -0.04506  -0.03324  -0.02933
 Alpha virt. eigenvalues --   -0.02548  -0.02138  -0.01472  -0.01097  -0.00582
 Alpha virt. eigenvalues --   -0.00341   0.00141   0.00194   0.00474   0.00738

  Beta  occ. eigenvalues --  -38.45650 -38.44906 -38.44150 -38.43939 -38.43887
  Beta  occ. eigenvalues --  -38.43863 -38.43580  -2.21365  -2.20653  -2.19934
  Beta  occ. eigenvalues --   -2.19708  -2.19687  -2.19602  -2.19448  -1.15053
  Beta  occ. eigenvalues --   -1.15027  -1.14997  -1.14324  -1.14320  -1.14281
  Beta  occ. eigenvalues --   -1.13641  -1.13615  -1.13554  -1.13459  -1.13380
  Beta  occ. eigenvalues --   -1.13372  -1.13349  -1.13343  -1.13328  -1.13305
  Beta  occ. eigenvalues --   -1.13304  -1.13264  -1.13142  -1.13093  -1.13053
  Beta  occ. eigenvalues --   -0.16410  -0.12692  -0.12298
  Beta virt. eigenvalues --   -0.07171  -0.06819  -0.05310  -0.04119  -0.02918
  Beta virt. eigenvalues --   -0.02471  -0.02395  -0.01388  -0.01366  -0.01004
  Beta virt. eigenvalues --   -0.00485  -0.00072   0.00196   0.00343   0.00540

 Mulliken charges and spin densities:
               1          2
     1  Na  -0.567254   0.078155
     2  Na  -0.371416   0.243797
     3  Na   0.567463  -0.030952
     4  Na   0.349474   0.075848
     5  Na  -1.100867   0.424456
     6  Na   0.676055  -0.124240
     7  Na   0.446545   0.332935
 Sum of Mulliken charges =  -0.00000   1.00000

 Dipole moment (field-independent basis, Debye):
    X=              0.0525    Y=             -0.1749    Z=             -0.1116  Tot=              0.2140
 Quadrupole moment (field-independent basis, Debye-Ang):
   XX=            -50.6867   YY=            -69.3323   ZZ=            -74.1438
   XY=             -0.5445   XZ=              0.1237   YZ=             -1.0352

 Normal termination of Gaussian 16 at Mon Dec  4 02:26:41 2023.
