 Gaussian 16, Revision B.01,
 Gaussian 16:  ES64L-G16RevB.01 20-Dec-2017

 -------------------------
 #P B3LYP/6-311+g(d) force
 -------------------------

 -----
 DPGEN
 -----
 Symbolic Z-matrix:
 Charge =  0 Multiplicity = 2

                         Standard orientation:
 ---------------------------------------------------------------------
 Center     Atomic      Atomic             Coordinates (Angstroms)
 Number     Number       Type             X           Y           Z
 ---------------------------------------------------------------------
      1         11           0       -2.442153   -0.387371    2.288450
      2         11           0       -2.278747    1.022005   -0.671981
      3         11           0       -2.497417   -2.213367   -1.093658
      4         11           0        4.271528   -1.106508    0.396879
      5         11           0        0.988819    1.612062    1.619550
      6         11           0        0.412531    2.357579   -1.724470
      7         11           0        1.545439   -1.284400   -0.814769
 ---------------------------------------------------------------------

 SCF Done:  E(UB3LYP) =  -1136.11973209     A.U. after   20 cycles

 The electronic state is 2-A.
 Alpha  occ. eigenvalues --  -38.44745 -38.44710 -38.44029 -38.43974 -38.43877
 Alpha  occ. eigenvalues --  -38.43802 -38.43197  -2.20561  -2.20499  -2.19832
 Alpha  occ. eigenvalues --   -2.19786  -2.19778  -2.19640  -2.19049  -1.14242
 Alpha  occ. eigenvalues --   -1.14211  -1.14184  -1.14155  -1.14146  -1.14120
 Alpha  occ. eigenvalues --   -1.13587  -1.13511  -1.13483  -1.13482  -1.13471
 Alpha  occ. eigenvalues --   -1.13453  -1.13431  -1.13413  -1.13363  -1.13316
 Alpha  occ. eigenvalues --   -1.13282  -1.13241  -1.12723  -1.12694  -1.12671
 Alpha  occ. eigenvalues --   -0.17536  -0.13367  -0.11614  -0.11541
 Alpha virt. eigenvalues --   -0.06293  -0.05412  -0.04565  -0.03443  -0.02920
 Alpha virt. eigenvalues --   -0.02759  -0.02039  -0.01007  -0.00837  -0.00363
 Alpha virt. eigenvalues --   -0.00114   0.00085   0.00313   0.00445   0.00627

  Beta  occ. eigenvalues --  -38.44677 -38.44672 -38.44036 -38.43949 -38.43858
  Beta  occ. eigenvalues --  -38.43792 -38.43168  -2.20438  -2.20426  -2.19845
  Beta  occ. eigenvalues --   -2.19758  -2.19731  -2.19621  -2.18997  -1.14153
  Beta  occ. eigenvalues --   -1.14144  -1.14118  -1.14093  -1.14077  -1.14054
  Beta  occ. eigenvalues --   -1.13592  -1.13492  -1.13478  -1.13478  -1.13436
  Beta  occ. eigenvalues --   -1.13426  -1.13400  -1.13376  -1.13343  -1.13299
  Beta  occ. eigenvalues --   -1.13271  -1.13226  -1.12680  -1.12658  -1.12639
  Beta  occ. eigenvalues --   -0.16823  -0.13266  -0.11432
  Beta virt. eigenvalues --   -0.07730  -0.05988  -0.04912  -0.04228  -0.03113
  Beta virt. eigenvalues --   -0.02569  -0.02156  -0.01862  -0.00946  -0.00383
  Beta virt. eigenvalues --   -0.00213   0.00060   0.00181   0.00372   0.00603

 Mulliken charges and spin densities:
               1          2
     1  Na   0.088269   0.382158
     2  Na  -0.091071   0.431598
     3  Na   0.166740  -0.162815
     4  Na   0.540811  -0.050160
     5  Na  -0.350435   0.214052
     6  Na   0.547252   0.054485
     7  Na  -0.901566   0.130682
 Sum of Mulliken charges =  -0.00000   1.00000

 Dipole moment (field-independent basis, Debye):
    X=              0.1506    Y=              0.1611    Z=              0.5754  Tot=              0.6162
 Quadrupole moment (field-independent basis, Debye-Ang):
   XX=            -59.9985   YY=            -72.2570   ZZ=            -64.9718
   XY=              3.4224   XZ=              1.7293   YZ=              0.7596

 Normal termination of Gaussian 16 at Sun Dec  3 21:41:41 2023.
