 Gaussian 16, Revision B.01,
 Gaussian 16:  ES64L-G16RevB.01 20-Dec-2017

 -------------------------
 #P B3LYP/6-311+g(d) force
 -------------------------

 -----
 DPGEN
 -----
 Symbolic Z-matrix:
 Charge =  0 Multiplicity = 2

                         Standard orientation:
 ---------------------------------------------------------------------
 Center     Atomic      Atomic             Coordinates (Angstroms)
 Number     Number       Type             X           Y           Z
 ---------------------------------------------------------------------
      1         11           0       -1.511981   -2.439034    0.474796
      2         11           0       -0.284485   -0.047823    1.866431
      3         11           0        2.836999    1.347167    0.533126
      4         11           0        2.215066   -2.026307   -0.456079
      5         11           0       -3.262213    0.257474   -0.603309
      6         11           0       -0.743907    2.929457   -0.094130
      7         11           0        0.750522   -0.020934   -1.720835
 ---------------------------------------------------------------------

 SCF Done:  E(UB3LYP) =  -1136.13001315     A.U. after   20 cycles

 The electronic state is 2-A.
 Alpha  occ. eigenvalues --  -38.44353 -38.44288 -38.43794 -38.43742 -38.43568
 Alpha  occ. eigenvalues --  -38.43391 -38.43301  -2.20152  -2.20115  -2.19727
 Alpha  occ. eigenvalues --   -2.19674  -2.19498  -2.19193  -2.19174  -1.13825
 Alpha  occ. eigenvalues --   -1.13805  -1.13792  -1.13791  -1.13785  -1.13742
 Alpha  occ. eigenvalues --   -1.13686  -1.13366  -1.13330  -1.13291  -1.13263
 Alpha  occ. eigenvalues --   -1.13221  -1.13198  -1.13145  -1.13111  -1.12875
 Alpha  occ. eigenvalues --   -1.12864  -1.12851  -1.12822  -1.12818  -1.12786
 Alpha  occ. eigenvalues --   -0.18491  -0.13278  -0.12210  -0.10814
 Alpha virt. eigenvalues --   -0.05914  -0.05120  -0.04503  -0.03542  -0.02882
 Alpha virt. eigenvalues --   -0.02492  -0.01663  -0.01070  -0.00394  -0.00329
 Alpha virt. eigenvalues --    0.00017   0.00334   0.00778   0.00838   0.00876

  Beta  occ. eigenvalues --  -38.44339 -38.44275 -38.43779 -38.43681 -38.43487
  Beta  occ. eigenvalues --  -38.43391 -38.43290  -2.20127  -2.20092  -2.19675
  Beta  occ. eigenvalues --   -2.19591  -2.19351  -2.19195  -2.19156  -1.13803
  Beta  occ. eigenvalues --   -1.13785  -1.13775  -1.13773  -1.13758  -1.13724
  Beta  occ. eigenvalues --   -1.13633  -1.13303  -1.13289  -1.13241  -1.13217
  Beta  occ. eigenvalues --   -1.13141  -1.13126  -1.13041  -1.13010  -1.12867
  Beta  occ. eigenvalues --   -1.12865  -1.12819  -1.12816  -1.12793  -1.12777
  Beta  occ. eigenvalues --   -0.17814  -0.13018  -0.11932
  Beta virt. eigenvalues --   -0.07030  -0.05798  -0.05023  -0.04464  -0.02815
  Beta virt. eigenvalues --   -0.02168  -0.01550  -0.01529  -0.00984  -0.00388
  Beta virt. eigenvalues --   -0.00310   0.00122   0.00384   0.00846   0.00866

 Mulliken charges and spin densities:
               1          2
     1  Na   0.160459   0.005649
     2  Na  -0.010898   0.517119
     3  Na   0.004901  -0.015961
     4  Na   0.324055  -0.004088
     5  Na  -0.173361   0.067278
     6  Na  -0.150706  -0.052515
     7  Na  -0.154449   0.482519
 Sum of Mulliken charges =  -0.00000   1.00000

 Dipole moment (field-independent basis, Debye):
    X=              0.1314    Y=              0.1693    Z=              0.0345  Tot=              0.2171
 Quadrupole moment (field-independent basis, Debye-Ang):
   XX=            -55.6854   YY=            -64.7451   ZZ=            -73.6980
   XY=              0.6039   XZ=              3.1057   YZ=              0.2155

 Normal termination of Gaussian 16 at Fri Dec  8 03:54:29 2023.
