 Gaussian 16, Revision B.01,
 Gaussian 16:  ES64L-G16RevB.01 20-Dec-2017

 -------------------------
 #P B3LYP/6-311+g(d) force
 -------------------------

 -----
 DPGEN
 -----
 Symbolic Z-matrix:
 Charge =  0 Multiplicity = 2

                         Standard orientation:
 ---------------------------------------------------------------------
 Center     Atomic      Atomic             Coordinates (Angstroms)
 Number     Number       Type             X           Y           Z
 ---------------------------------------------------------------------
      1         11           0        2.188057   -2.286640   -0.198995
      2         11           0       -5.921897    1.470251   -0.984080
      3         11           0       -5.281258   -1.142000    0.626762
      4         11           0        4.174770    2.346464   -0.117481
      5         11           0       -1.318577   -1.039040   -0.030355
      6         11           0        5.540722   -0.790170   -0.419901
      7         11           0        0.618182    1.441136    1.124050
 ---------------------------------------------------------------------

 SCF Done:  E(UB3LYP) =  -1136.11197081     A.U. after   20 cycles

 The electronic state is 2-A.
 Alpha  occ. eigenvalues --  -38.45022 -38.44715 -38.44703 -38.44436 -38.44032
 Alpha  occ. eigenvalues --  -38.43580 -38.43487  -2.20794  -2.20496  -2.20493
 Alpha  occ. eigenvalues --   -2.20228  -2.19811  -2.19363  -2.19282  -1.14471
 Alpha  occ. eigenvalues --   -1.14454  -1.14449  -1.14177  -1.14155  -1.14145
 Alpha  occ. eigenvalues --   -1.14142  -1.14125  -1.14088  -1.13905  -1.13879
 Alpha  occ. eigenvalues --   -1.13843  -1.13482  -1.13464  -1.13440  -1.13035
 Alpha  occ. eigenvalues --   -1.13021  -1.13002  -1.12968  -1.12962  -1.12901
 Alpha  occ. eigenvalues --   -0.15666  -0.14011  -0.11682  -0.11321
 Alpha virt. eigenvalues --   -0.06732  -0.05238  -0.05051  -0.03356  -0.02976
 Alpha virt. eigenvalues --   -0.02828  -0.02214  -0.01437  -0.01081  -0.00835
 Alpha virt. eigenvalues --   -0.00390  -0.00188   0.00102   0.00170   0.00442

  Beta  occ. eigenvalues --  -38.45024 -38.44703 -38.44637 -38.44379 -38.43990
  Beta  occ. eigenvalues --  -38.43567 -38.43488  -2.20797  -2.20492  -2.20352
  Beta  occ. eigenvalues --   -2.20122  -2.19733  -2.19340  -2.19285  -1.14472
  Beta  occ. eigenvalues --   -1.14456  -1.14451  -1.14154  -1.14141  -1.14125
  Beta  occ. eigenvalues --   -1.14081  -1.14051  -1.13977  -1.13835  -1.13810
  Beta  occ. eigenvalues --   -1.13759  -1.13431  -1.13410  -1.13381  -1.13022
  Beta  occ. eigenvalues --   -1.13002  -1.12978  -1.12970  -1.12957  -1.12902
  Beta  occ. eigenvalues --   -0.15034  -0.13760  -0.11670
  Beta virt. eigenvalues --   -0.07437  -0.06615  -0.04783  -0.04509  -0.03062
  Beta virt. eigenvalues --   -0.02722  -0.02396  -0.02057  -0.01407  -0.01018
  Beta virt. eigenvalues --   -0.00442  -0.00147   0.00065   0.00200   0.00327

 Mulliken charges and spin densities:
               1          2
     1  Na   0.332573   0.620054
     2  Na   0.240307  -0.018160
     3  Na   0.228483   0.005471
     4  Na   0.148332   0.194864
     5  Na  -0.864354  -0.158667
     6  Na   0.016720  -0.068109
     7  Na  -0.102061   0.424546
 Sum of Mulliken charges =  -0.00000   1.00000

 Dipole moment (field-independent basis, Debye):
    X=             -1.9456    Y=              0.3361    Z=             -0.1242  Tot=              1.9783
 Quadrupole moment (field-independent basis, Debye-Ang):
   XX=            -64.1448   YY=            -61.8510   ZZ=            -70.9161
   XY=             -2.9732   XZ=              0.7063   YZ=             -3.8302

 Normal termination of Gaussian 16 at Sun Dec  3 18:50:16 2023.
