 Gaussian 16, Revision B.01,
 Gaussian 16:  ES64L-G16RevB.01 20-Dec-2017

 -------------------------
 #P B3LYP/6-311+g(d) force
 -------------------------

 -----
 DPGEN
 -----
 Symbolic Z-matrix:
 Charge =  0 Multiplicity = 2

                         Standard orientation:
 ---------------------------------------------------------------------
 Center     Atomic      Atomic             Coordinates (Angstroms)
 Number     Number       Type             X           Y           Z
 ---------------------------------------------------------------------
      1         11           0       -1.150978   -0.511725    1.586322
      2         11           0        2.374287   -0.545000    1.861845
      3         11           0        2.176553    1.711929   -1.241740
      4         11           0       -0.410607    2.552629    0.089959
      5         11           0       -3.756434    0.485150   -0.228018
      6         11           0        2.306263   -1.517250   -1.012914
      7         11           0       -1.539085   -2.175733   -1.055453
 ---------------------------------------------------------------------

 SCF Done:  E(UB3LYP) =  -1136.12197049     A.U. after   22 cycles

 The electronic state is 2-A.
 Alpha  occ. eigenvalues --  -38.45289 -38.44451 -38.44123 -38.43942 -38.43822
 Alpha  occ. eigenvalues --  -38.43552 -38.42927  -2.21085  -2.20316  -2.19948
 Alpha  occ. eigenvalues --   -2.19863  -2.19695  -2.19431  -2.18765  -1.14769
 Alpha  occ. eigenvalues --   -1.14732  -1.14717  -1.14012  -1.13964  -1.13930
 Alpha  occ. eigenvalues --   -1.13693  -1.13611  -1.13555  -1.13536  -1.13495
 Alpha  occ. eigenvalues --   -1.13473  -1.13374  -1.13367  -1.13316  -1.13131
 Alpha  occ. eigenvalues --   -1.13080  -1.13050  -1.12450  -1.12431  -1.12391
 Alpha  occ. eigenvalues --   -0.18021  -0.14039  -0.11678  -0.11113
 Alpha virt. eigenvalues --   -0.06582  -0.05169  -0.04719  -0.03512  -0.02780
 Alpha virt. eigenvalues --   -0.02609  -0.02134  -0.00682  -0.00550  -0.00283
 Alpha virt. eigenvalues --   -0.00083   0.00272   0.00344   0.00705   0.00791

  Beta  occ. eigenvalues --  -38.45286 -38.44393 -38.44098 -38.43894 -38.43802
  Beta  occ. eigenvalues --  -38.43520 -38.42928  -2.21080  -2.20210  -2.19900
  Beta  occ. eigenvalues --   -2.19777  -2.19660  -2.19371  -2.18770  -1.14762
  Beta  occ. eigenvalues --   -1.14730  -1.14712  -1.13946  -1.13876  -1.13857
  Beta  occ. eigenvalues --   -1.13654  -1.13575  -1.13520  -1.13484  -1.13440
  Beta  occ. eigenvalues --   -1.13391  -1.13348  -1.13326  -1.13290  -1.13094
  Beta  occ. eigenvalues --   -1.13029  -1.13014  -1.12454  -1.12416  -1.12398
  Beta  occ. eigenvalues --   -0.17387  -0.13827  -0.11487
  Beta virt. eigenvalues --   -0.07279  -0.06453  -0.04918  -0.04142  -0.03382
  Beta virt. eigenvalues --   -0.02251  -0.02044  -0.01689  -0.00602  -0.00227
  Beta virt. eigenvalues --   -0.00184  -0.00016   0.00324   0.00468   0.00779

 Mulliken charges and spin densities:
               1          2
     1  Na  -0.245155   0.110864
     2  Na   0.105981   0.164669
     3  Na   0.132554  -0.014133
     4  Na  -0.463202   0.102179
     5  Na   0.683074   0.030584
     6  Na  -0.098195   0.436151
     7  Na  -0.115056   0.169686
 Sum of Mulliken charges =  -0.00000   1.00000

 Dipole moment (field-independent basis, Debye):
    X=             -1.1276    Y=             -0.2645    Z=             -0.1281  Tot=              1.1653
 Quadrupole moment (field-independent basis, Debye-Ang):
   XX=            -51.2964   YY=            -75.1279   ZZ=            -69.4241
   XY=             -2.3411   XZ=              2.2636   YZ=              1.3864

 Normal termination of Gaussian 16 at Wed Nov 29 02:30:22 2023.
