 Gaussian 16, Revision B.01,
 Gaussian 16:  ES64L-G16RevB.01 20-Dec-2017

 -------------------------
 #P B3LYP/6-311+g(d) force
 -------------------------

 -----
 DPGEN
 -----
 Symbolic Z-matrix:
 Charge =  0 Multiplicity = 2

                         Standard orientation:
 ---------------------------------------------------------------------
 Center     Atomic      Atomic             Coordinates (Angstroms)
 Number     Number       Type             X           Y           Z
 ---------------------------------------------------------------------
      1         11           0        0.587693   -1.608956    0.173601
      2         11           0        4.221382   -2.463425    0.232881
      3         11           0        2.997866    0.338754   -0.821933
      4         11           0        0.899120    3.665102    0.623536
      5         11           0       -1.180414    2.293239   -0.864113
      6         11           0       -2.764518   -0.426449    1.463345
      7         11           0       -4.761129   -1.798264   -0.807317
 ---------------------------------------------------------------------

 SCF Done:  E(UB3LYP) =  -1136.11310140     A.U. after   19 cycles

 The electronic state is 2-A.
 Alpha  occ. eigenvalues --  -38.44979 -38.44836 -38.44810 -38.43971 -38.43724
 Alpha  occ. eigenvalues --  -38.43599 -38.43498  -2.20805  -2.20641  -2.20633
 Alpha  occ. eigenvalues --   -2.19801  -2.19568  -2.19394  -2.19300  -1.14510
 Alpha  occ. eigenvalues --   -1.14491  -1.14430  -1.14371  -1.14301  -1.14295
 Alpha  occ. eigenvalues --   -1.14288  -1.14258  -1.14244  -1.13476  -1.13439
 Alpha  occ. eigenvalues --   -1.13424  -1.13262  -1.13241  -1.13140  -1.13078
 Alpha  occ. eigenvalues --   -1.13074  -1.13045  -1.12943  -1.12941  -1.12903
 Alpha  occ. eigenvalues --   -0.16628  -0.13817  -0.12707  -0.09715
 Alpha virt. eigenvalues --   -0.06561  -0.05618  -0.05232  -0.03354  -0.02963
 Alpha virt. eigenvalues --   -0.02467  -0.02079  -0.01699  -0.01060  -0.00400
 Alpha virt. eigenvalues --   -0.00291  -0.00048   0.00301   0.00397   0.00464

  Beta  occ. eigenvalues --  -38.44970 -38.44815 -38.44811 -38.43963 -38.43655
  Beta  occ. eigenvalues --  -38.43604 -38.43413  -2.20791  -2.20636  -2.20601
  Beta  occ. eigenvalues --   -2.19785  -2.19440  -2.19409  -2.19142  -1.14484
  Beta  occ. eigenvalues --   -1.14480  -1.14416  -1.14375  -1.14293  -1.14274
  Beta  occ. eigenvalues --   -1.14258  -1.14250  -1.14223  -1.13466  -1.13425
  Beta  occ. eigenvalues --   -1.13414  -1.13175  -1.13154  -1.13092  -1.13082
  Beta  occ. eigenvalues --   -1.13049  -1.13014  -1.12835  -1.12831  -1.12808
  Beta  occ. eigenvalues --   -0.16165  -0.13562  -0.12191
  Beta virt. eigenvalues --   -0.06437  -0.06259  -0.05479  -0.04745  -0.03124
  Beta virt. eigenvalues --   -0.02786  -0.02272  -0.01828  -0.01356  -0.00832
  Beta virt. eigenvalues --   -0.00213   0.00033   0.00147   0.00395   0.00504

 Mulliken charges and spin densities:
               1          2
     1  Na  -0.897341   0.166599
     2  Na   0.911860   0.151884
     3  Na  -0.225321   0.171949
     4  Na   0.294499   0.024814
     5  Na  -0.178389   0.048690
     6  Na  -0.000295  -0.070759
     7  Na   0.094986   0.506823
 Sum of Mulliken charges =  -0.00000   1.00000

 Dipole moment (field-independent basis, Debye):
    X=              2.3084    Y=             -0.1498    Z=              0.2028  Tot=              2.3221
 Quadrupole moment (field-independent basis, Debye-Ang):
   XX=            -73.2354   YY=            -66.0316   ZZ=            -65.5306
   XY=             -7.8047   XZ=              3.0673   YZ=              1.4631

 Normal termination of Gaussian 16 at Tue Nov 28 22:52:55 2023.
