 Gaussian 16, Revision B.01,
 Gaussian 16:  ES64L-G16RevB.01 20-Dec-2017

 -------------------------
 #P B3LYP/6-311+g(d) force
 -------------------------

 -----
 DPGEN
 -----
 Symbolic Z-matrix:
 Charge =  0 Multiplicity = 2

                         Standard orientation:
 ---------------------------------------------------------------------
 Center     Atomic      Atomic             Coordinates (Angstroms)
 Number     Number       Type             X           Y           Z
 ---------------------------------------------------------------------
      1         11           0        0.261772   -0.297486    1.838622
      2         11           0        2.815892   -0.654087   -0.343191
      3         11           0        1.364101    2.321086    0.465138
      4         11           0        0.134807    0.246236   -1.803910
      5         11           0       -0.010890   -2.690333   -0.066390
      6         11           0       -2.664844   -0.960244    0.102796
      7         11           0       -1.900837    2.034829   -0.193065
 ---------------------------------------------------------------------

 SCF Done:  E(UB3LYP) =  -1136.13548452     A.U. after   17 cycles

 The electronic state is 2-A.
 Alpha  occ. eigenvalues --  -38.43624 -38.43459 -38.43440 -38.43372 -38.43300
 Alpha  occ. eigenvalues --  -38.43266 -38.43172  -2.19531  -2.19458  -2.19398
 Alpha  occ. eigenvalues --   -2.19378  -2.19230  -2.19189  -2.19110  -1.13263
 Alpha  occ. eigenvalues --   -1.13212  -1.13176  -1.13156  -1.13146  -1.13106
 Alpha  occ. eigenvalues --   -1.13080  -1.13072  -1.13054  -1.13034  -1.13018
 Alpha  occ. eigenvalues --   -1.13005  -1.12903  -1.12878  -1.12863  -1.12840
 Alpha  occ. eigenvalues --   -1.12823  -1.12789  -1.12777  -1.12762  -1.12717
 Alpha  occ. eigenvalues --   -0.19650  -0.13181  -0.12815  -0.11285
 Alpha virt. eigenvalues --   -0.05174  -0.04793  -0.04577  -0.03311  -0.03146
 Alpha virt. eigenvalues --   -0.02717  -0.01205  -0.00899  -0.00065   0.00157
 Alpha virt. eigenvalues --    0.00178   0.00372   0.00929   0.00988   0.00996

  Beta  occ. eigenvalues --  -38.43613 -38.43456 -38.43357 -38.43292 -38.43284
  Beta  occ. eigenvalues --  -38.43261 -38.43164  -2.19515  -2.19375  -2.19307
  Beta  occ. eigenvalues --   -2.19251  -2.19206  -2.19183  -2.19101  -1.13237
  Beta  occ. eigenvalues --   -1.13167  -1.13153  -1.13109  -1.13092  -1.13058
  Beta  occ. eigenvalues --   -1.13035  -1.13006  -1.12994  -1.12946  -1.12944
  Beta  occ. eigenvalues --   -1.12923  -1.12871  -1.12849  -1.12825  -1.12817
  Beta  occ. eigenvalues --   -1.12799  -1.12781  -1.12763  -1.12730  -1.12706
  Beta  occ. eigenvalues --   -0.18890  -0.12899  -0.12533
  Beta virt. eigenvalues --   -0.07280  -0.05158  -0.04787  -0.04563  -0.02470
  Beta virt. eigenvalues --   -0.02320  -0.01621  -0.01126  -0.00831   0.00034
  Beta virt. eigenvalues --    0.00105   0.00166   0.00390   0.00959   0.00976

 Mulliken charges and spin densities:
               1          2
     1  Na  -0.511035   0.563798
     2  Na   0.285925  -0.046743
     3  Na   0.230674   0.004505
     4  Na  -0.549422   0.596143
     5  Na   0.294420  -0.039356
     6  Na   0.020262  -0.059013
     7  Na   0.229176  -0.019335
 Sum of Mulliken charges =  -0.00000   1.00000

 Dipole moment (field-independent basis, Debye):
    X=              0.1880    Y=             -0.0234    Z=              0.0008  Tot=              0.1895
 Quadrupole moment (field-independent basis, Debye-Ang):
   XX=            -59.4906   YY=            -63.7257   ZZ=            -71.7797
   XY=             -0.1620   XZ=             -0.4023   YZ=              1.1413

 Normal termination of Gaussian 16 at Thu Dec  7 21:10:42 2023.
