 Gaussian 16, Revision B.01,
 Gaussian 16:  ES64L-G16RevB.01 20-Dec-2017

 -------------------------
 #P B3LYP/6-311+g(d) force
 -------------------------

 -----
 DPGEN
 -----
 Symbolic Z-matrix:
 Charge =  0 Multiplicity = 2

                         Standard orientation:
 ---------------------------------------------------------------------
 Center     Atomic      Atomic             Coordinates (Angstroms)
 Number     Number       Type             X           Y           Z
 ---------------------------------------------------------------------
      1         11           0        0.596736   -0.596346    1.834953
      2         11           0       -1.242210    1.671604   -0.370584
      3         11           0        3.982622   -0.949577    0.386312
      4         11           0       -4.935646    0.446825    0.425970
      5         11           0        1.380949   -0.363494   -1.624149
      6         11           0        2.300027    1.936387   -0.024502
      7         11           0       -2.082477   -2.145400   -0.628001
 ---------------------------------------------------------------------

 SCF Done:  E(UB3LYP) =  -1136.10802127     A.U. after   29 cycles

 The electronic state is 2-A.
 Alpha  occ. eigenvalues --  -38.46572 -38.45509 -38.44416 -38.43935 -38.43311
 Alpha  occ. eigenvalues --  -38.43284 -38.42648  -2.22370  -2.21448  -2.20203
 Alpha  occ. eigenvalues --   -2.19700  -2.19227  -2.19176  -2.18495  -1.16045
 Alpha  occ. eigenvalues --   -1.16030  -1.15997  -1.15170  -1.15104  -1.15055
 Alpha  occ. eigenvalues --   -1.13847  -1.13839  -1.13803  -1.13391  -1.13354
 Alpha  occ. eigenvalues --   -1.13338  -1.12960  -1.12905  -1.12853  -1.12847
 Alpha  occ. eigenvalues --   -1.12801  -1.12768  -1.12215  -1.12184  -1.12082
 Alpha  occ. eigenvalues --   -0.18359  -0.14110  -0.10910  -0.10701
 Alpha virt. eigenvalues --   -0.07999  -0.05307  -0.04549  -0.03310  -0.02869
 Alpha virt. eigenvalues --   -0.02215  -0.01913  -0.01614  -0.01476  -0.00766
 Alpha virt. eigenvalues --   -0.00428   0.00080   0.00187   0.00556   0.00580

  Beta  occ. eigenvalues --  -38.46564 -38.45487 -38.44301 -38.43925 -38.43283
  Beta  occ. eigenvalues --  -38.43272 -38.42646  -2.22357  -2.21413  -2.19988
  Beta  occ. eigenvalues --   -2.19685  -2.19208  -2.19124  -2.18495  -1.16034
  Beta  occ. eigenvalues --   -1.16018  -1.15984  -1.15144  -1.15056  -1.15030
  Beta  occ. eigenvalues --   -1.13701  -1.13691  -1.13662  -1.13382  -1.13346
  Beta  occ. eigenvalues --   -1.13306  -1.12949  -1.12894  -1.12820  -1.12808
  Beta  occ. eigenvalues --   -1.12767  -1.12735  -1.12219  -1.12166  -1.12080
  Beta  occ. eigenvalues --   -0.17945  -0.13315  -0.10573
  Beta virt. eigenvalues --   -0.07887  -0.07219  -0.05081  -0.03948  -0.03078
  Beta virt. eigenvalues --   -0.02713  -0.02073  -0.01710  -0.01205  -0.00921
  Beta virt. eigenvalues --   -0.00377  -0.00203   0.00185   0.00308   0.00611

 Mulliken charges and spin densities:
               1          2
     1  Na   0.054495  -0.067082
     2  Na  -0.515287  -0.030924
     3  Na   0.207319   0.235449
     4  Na   0.083747   0.579093
     5  Na   0.184159   0.130791
     6  Na   0.069796   0.129930
     7  Na  -0.084229   0.022742
 Sum of Mulliken charges =  -0.00000   1.00000

 Dipole moment (field-independent basis, Debye):
    X=              0.8931    Y=             -0.3147    Z=              0.1806  Tot=              0.9639
 Quadrupole moment (field-independent basis, Debye-Ang):
   XX=            -68.5710   YY=            -78.4070   ZZ=            -59.9034
   XY=              2.6598   XZ=             -1.3299   YZ=              5.5142

 Normal termination of Gaussian 16 at Thu Dec  7 17:50:55 2023.
