 Gaussian 16, Revision B.01,
 Gaussian 16:  ES64L-G16RevB.01 20-Dec-2017

 -------------------------
 #P B3LYP/6-311+g(d) force
 -------------------------

 -----
 DPGEN
 -----
 Symbolic Z-matrix:
 Charge =  0 Multiplicity = 2

                         Standard orientation:
 ---------------------------------------------------------------------
 Center     Atomic      Atomic             Coordinates (Angstroms)
 Number     Number       Type             X           Y           Z
 ---------------------------------------------------------------------
      1         11           0       -0.543188    0.135950   -1.558258
      2         11           0       -1.574183   -2.580676   -0.142779
      3         11           0       -3.022811    1.022922    0.003851
      4         11           0        0.233934    2.912111    0.006226
      5         11           0        0.173163   -0.212407    2.291772
      6         11           0        2.960100    0.610490   -0.330737
      7         11           0        1.772985   -1.888388   -0.270075
 ---------------------------------------------------------------------

 SCF Done:  E(UB3LYP) =  -1136.13054313     A.U. after   19 cycles

 The electronic state is 2-A.
 Alpha  occ. eigenvalues --  -38.44317 -38.44016 -38.43893 -38.43555 -38.43518
 Alpha  occ. eigenvalues --  -38.43374 -38.43178  -2.20142  -2.19874  -2.19792
 Alpha  occ. eigenvalues --   -2.19385  -2.19366  -2.19341  -2.19197  -1.13864
 Alpha  occ. eigenvalues --   -1.13796  -1.13756  -1.13662  -1.13528  -1.13501
 Alpha  occ. eigenvalues --   -1.13489  -1.13417  -1.13403  -1.13096  -1.13078
 Alpha  occ. eigenvalues --   -1.13050  -1.13025  -1.13011  -1.13008  -1.12996
 Alpha  occ. eigenvalues --   -1.12967  -1.12932  -1.12862  -1.12835  -1.12804
 Alpha  occ. eigenvalues --   -0.18832  -0.13110  -0.12447  -0.11064
 Alpha virt. eigenvalues --   -0.05769  -0.04971  -0.04507  -0.03301  -0.02942
 Alpha virt. eigenvalues --   -0.02889  -0.01470  -0.01111  -0.00265  -0.00070
 Alpha virt. eigenvalues --   -0.00046   0.00349   0.00809   0.00905   0.00956

  Beta  occ. eigenvalues --  -38.44316 -38.43906 -38.43886 -38.43552 -38.43514
  Beta  occ. eigenvalues --  -38.43362 -38.43128  -2.20142  -2.19783  -2.19669
  Beta  occ. eigenvalues --   -2.19382  -2.19363  -2.19324  -2.19105  -1.13857
  Beta  occ. eigenvalues --   -1.13785  -1.13760  -1.13656  -1.13405  -1.13394
  Beta  occ. eigenvalues --   -1.13382  -1.13356  -1.13343  -1.13086  -1.13071
  Beta  occ. eigenvalues --   -1.13032  -1.13012  -1.13009  -1.13001  -1.12984
  Beta  occ. eigenvalues --   -1.12930  -1.12916  -1.12801  -1.12769  -1.12741
  Beta  occ. eigenvalues --   -0.18094  -0.12885  -0.12236
  Beta virt. eigenvalues --   -0.07051  -0.05749  -0.04922  -0.04484  -0.02518
  Beta virt. eigenvalues --   -0.02154  -0.01764  -0.01387  -0.01055  -0.00308
  Beta virt. eigenvalues --   -0.00109   0.00123   0.00384   0.00842   0.00933

 Mulliken charges and spin densities:
               1          2
     1  Na  -0.282760   0.144605
     2  Na   0.290430   0.001394
     3  Na   0.165295  -0.036205
     4  Na   0.137596   0.019061
     5  Na  -0.775456   0.725227
     6  Na   0.008837  -0.002360
     7  Na   0.456057   0.148278
 Sum of Mulliken charges =  -0.00000   1.00000

 Dipole moment (field-independent basis, Debye):
    X=             -0.5572    Y=              0.2445    Z=              0.3398  Tot=              0.6969
 Quadrupole moment (field-independent basis, Debye-Ang):
   XX=            -58.3066   YY=            -63.6530   ZZ=            -72.8594
   XY=              1.0273   XZ=             -1.4846   YZ=              0.6376

 Normal termination of Gaussian 16 at Sat Dec  9 06:25:47 2023.
