 Gaussian 16, Revision B.01,
 Gaussian 16:  ES64L-G16RevB.01 20-Dec-2017

 -------------------------
 #P B3LYP/6-311+g(d) force
 -------------------------

 -----
 DPGEN
 -----
 Symbolic Z-matrix:
 Charge =  0 Multiplicity = 2

                         Standard orientation:
 ---------------------------------------------------------------------
 Center     Atomic      Atomic             Coordinates (Angstroms)
 Number     Number       Type             X           Y           Z
 ---------------------------------------------------------------------
      1         11           0       -0.868227    2.222317    1.095357
      2         11           0       -0.863743   -2.195657   -1.072043
      3         11           0        4.808060   -0.099111   -0.012203
      4         11           0        2.082367    0.100942    0.099076
      5         11           0       -0.966525   -1.103276    2.211910
      6         11           0       -3.476794   -0.000581   -0.128419
      7         11           0       -0.715139    1.075366   -2.193678
 ---------------------------------------------------------------------

 SCF Done:  E(UB3LYP) =  -1136.11014252     A.U. after   29 cycles

 The electronic state is 2-A.
 Alpha  occ. eigenvalues --  -38.46168 -38.45337 -38.43700 -38.43599 -38.43575
 Alpha  occ. eigenvalues --  -38.43445 -38.43362  -2.21973  -2.21157  -2.19557
 Alpha  occ. eigenvalues --   -2.19460  -2.19440  -2.19343  -2.19224  -1.15668
 Alpha  occ. eigenvalues --   -1.15630  -1.15587  -1.14946  -1.14778  -1.14773
 Alpha  occ. eigenvalues --   -1.13236  -1.13207  -1.13182  -1.13162  -1.13111
 Alpha  occ. eigenvalues --   -1.13103  -1.13078  -1.13070  -1.13055  -1.13047
 Alpha  occ. eigenvalues --   -1.12996  -1.12944  -1.12896  -1.12871  -1.12835
 Alpha  occ. eigenvalues --   -0.18383  -0.13345  -0.12193  -0.10830
 Alpha virt. eigenvalues --   -0.07850  -0.03929  -0.03852  -0.03516  -0.03197
 Alpha virt. eigenvalues --   -0.03068  -0.02679  -0.00889  -0.00634  -0.00540
 Alpha virt. eigenvalues --   -0.00319  -0.00099   0.00217   0.00707   0.01005

  Beta  occ. eigenvalues --  -38.46164 -38.45346 -38.43646 -38.43553 -38.43523
  Beta  occ. eigenvalues --  -38.43438 -38.43313  -2.21968  -2.21174  -2.19459
  Beta  occ. eigenvalues --   -2.19377  -2.19346  -2.19333  -2.19134  -1.15632
  Beta  occ. eigenvalues --   -1.15628  -1.15591  -1.14958  -1.14789  -1.14785
  Beta  occ. eigenvalues --   -1.13171  -1.13135  -1.13109  -1.13092  -1.13054
  Beta  occ. eigenvalues --   -1.13052  -1.13035  -1.13016  -1.13004  -1.12974
  Beta  occ. eigenvalues --   -1.12968  -1.12939  -1.12833  -1.12809  -1.12763
  Beta  occ. eigenvalues --   -0.17465  -0.13322  -0.10742
  Beta virt. eigenvalues --   -0.07955  -0.07652  -0.03473  -0.03290  -0.03149
  Beta virt. eigenvalues --   -0.02990  -0.02939  -0.01847  -0.00666  -0.00604
  Beta virt. eigenvalues --   -0.00458  -0.00105  -0.00031   0.00227   0.00773

 Mulliken charges and spin densities:
               1          2
     1  Na   0.825577   0.201983
     2  Na   0.489366   0.211190
     3  Na  -1.890713   0.143545
     4  Na  -0.447816  -0.048000
     5  Na   0.608456   0.244868
     6  Na  -0.210585   0.023092
     7  Na   0.625717   0.223323
 Sum of Mulliken charges =  -0.00000   1.00000

 Dipole moment (field-independent basis, Debye):
    X=             -0.4329    Y=              0.0105    Z=             -0.1320  Tot=              0.4527
 Quadrupole moment (field-independent basis, Debye-Ang):
   XX=            -45.4991   YY=            -79.6913   ZZ=            -66.9012
   XY=             -1.6208   XZ=              0.0177   YZ=              4.3220

 Normal termination of Gaussian 16 at Fri Dec  8 18:53:51 2023.
