 Gaussian 16, Revision B.01,
 Gaussian 16:  ES64L-G16RevB.01 20-Dec-2017

 -------------------------
 #P B3LYP/6-311+g(d) force
 -------------------------

 -----
 DPGEN
 -----
 Symbolic Z-matrix:
 Charge =  0 Multiplicity = 2

                         Standard orientation:
 ---------------------------------------------------------------------
 Center     Atomic      Atomic             Coordinates (Angstroms)
 Number     Number       Type             X           Y           Z
 ---------------------------------------------------------------------
      1         11           0        0.809975   -2.835905   -0.197137
      2         11           0       -2.764002   -1.487392   -0.040796
      3         11           0        3.156430   -0.255499   -0.173222
      4         11           0        0.133150   -0.188119    2.061665
      5         11           0        1.059239    2.808014    0.103262
      6         11           0       -0.047429    0.278817   -1.698724
      7         11           0       -2.347363    1.680083   -0.055049
 ---------------------------------------------------------------------

 SCF Done:  E(UB3LYP) =  -1136.13954999     A.U. after   19 cycles

 The electronic state is 2-A.
 Alpha  occ. eigenvalues --  -38.44130 -38.43765 -38.43587 -38.43569 -38.43453
 Alpha  occ. eigenvalues --  -38.43356 -38.43253  -2.19947  -2.19601  -2.19469
 Alpha  occ. eigenvalues --   -2.19462  -2.19285  -2.19222  -2.19200  -1.13623
 Alpha  occ. eigenvalues --   -1.13607  -1.13586  -1.13311  -1.13265  -1.13244
 Alpha  occ. eigenvalues --   -1.13180  -1.13139  -1.13116  -1.13094  -1.13086
 Alpha  occ. eigenvalues --   -1.13076  -1.12967  -1.12952  -1.12930  -1.12916
 Alpha  occ. eigenvalues --   -1.12881  -1.12860  -1.12846  -1.12830  -1.12811
 Alpha  occ. eigenvalues --   -0.18639  -0.13052  -0.12416  -0.10746
 Alpha virt. eigenvalues --   -0.05638  -0.05086  -0.04788  -0.03203  -0.02912
 Alpha virt. eigenvalues --   -0.02581  -0.01503  -0.01107  -0.00405  -0.00326
 Alpha virt. eigenvalues --   -0.00018   0.00371   0.00800   0.00893   0.00902

  Beta  occ. eigenvalues --  -38.44126 -38.43763 -38.43563 -38.43492 -38.43448
  Beta  occ. eigenvalues --  -38.43352 -38.43187  -2.19943  -2.19601  -2.19456
  Beta  occ. eigenvalues --   -2.19293  -2.19279  -2.19195  -2.19103  -1.13609
  Beta  occ. eigenvalues --   -1.13596  -1.13587  -1.13313  -1.13250  -1.13238
  Beta  occ. eigenvalues --   -1.13165  -1.13088  -1.13076  -1.13022  -1.12981
  Beta  occ. eigenvalues --   -1.12963  -1.12950  -1.12924  -1.12914  -1.12899
  Beta  occ. eigenvalues --   -1.12838  -1.12833  -1.12809  -1.12759  -1.12741
  Beta  occ. eigenvalues --   -0.17900  -0.12824  -0.12192
  Beta virt. eigenvalues --   -0.06823  -0.05618  -0.05103  -0.04714  -0.02403
  Beta virt. eigenvalues --   -0.02131  -0.01522  -0.01416  -0.01037  -0.00465
  Beta virt. eigenvalues --   -0.00383   0.00125   0.00388   0.00841   0.00887

 Mulliken charges and spin densities:
               1          2
     1  Na   0.062721  -0.094281
     2  Na   0.075128  -0.069424
     3  Na   0.118314  -0.084390
     4  Na  -0.512986   0.797814
     5  Na   0.152690  -0.067936
     6  Na  -0.220337   0.523620
     7  Na   0.324470  -0.005403
 Sum of Mulliken charges =  -0.00000   1.00000

 Dipole moment (field-independent basis, Debye):
    X=              0.1977    Y=             -0.0781    Z=              0.1020  Tot=              0.2358
 Quadrupole moment (field-independent basis, Debye-Ang):
   XX=            -56.9429   YY=            -62.3644   ZZ=            -74.3003
   XY=              0.7845   XZ=             -0.3787   YZ=              1.0498

 Normal termination of Gaussian 16 at Thu Dec  7 02:10:57 2023.
