 Gaussian 16, Revision B.01,
 Gaussian 16:  ES64L-G16RevB.01 20-Dec-2017

 -------------------------
 #P B3LYP/6-311+g(d) force
 -------------------------

 -----
 DPGEN
 -----
 Symbolic Z-matrix:
 Charge =  0 Multiplicity = 2

                         Standard orientation:
 ---------------------------------------------------------------------
 Center     Atomic      Atomic             Coordinates (Angstroms)
 Number     Number       Type             X           Y           Z
 ---------------------------------------------------------------------
      1         11           0        3.702531   -1.959153    0.100865
      2         11           0       -2.958175    2.063764   -0.726702
      3         11           0        0.641023    2.929897    0.537014
      4         11           0        4.111266    1.342410   -0.338236
      5         11           0       -2.540469   -1.513788   -1.829726
      6         11           0        0.207350   -2.059302    0.300875
      7         11           0       -3.163525   -0.803828    1.955912
 ---------------------------------------------------------------------

 SCF Done:  E(UB3LYP) =  -1136.10548488     A.U. after   28 cycles

 The electronic state is 2-A.
 Alpha  occ. eigenvalues --  -38.45436 -38.45174 -38.44856 -38.44690 -38.44671
 Alpha  occ. eigenvalues --  -38.44305 -38.44049  -2.21185  -2.20920  -2.20638
 Alpha  occ. eigenvalues --   -2.20432  -2.20403  -2.20110  -2.19853  -1.14866
 Alpha  occ. eigenvalues --   -1.14846  -1.14830  -1.14597  -1.14575  -1.14559
 Alpha  occ. eigenvalues --   -1.14308  -1.14299  -1.14286  -1.14126  -1.14122
 Alpha  occ. eigenvalues --   -1.14091  -1.14085  -1.14051  -1.14025  -1.13778
 Alpha  occ. eigenvalues --   -1.13746  -1.13737  -1.13506  -1.13488  -1.13461
 Alpha  occ. eigenvalues --   -0.16348  -0.14115  -0.11944  -0.10166
 Alpha virt. eigenvalues --   -0.07404  -0.07301  -0.03887  -0.03382  -0.03149
 Alpha virt. eigenvalues --   -0.02866  -0.02244  -0.02074  -0.01578  -0.00765
 Alpha virt. eigenvalues --   -0.00493  -0.00181   0.00111   0.00160   0.00295

  Beta  occ. eigenvalues --  -38.45441 -38.45155 -38.44859 -38.44692 -38.44672
  Beta  occ. eigenvalues --  -38.44243 -38.43945  -2.21195  -2.20886  -2.20644
  Beta  occ. eigenvalues --   -2.20436  -2.20407  -2.19996  -2.19659  -1.14873
  Beta  occ. eigenvalues --   -1.14852  -1.14838  -1.14565  -1.14553  -1.14528
  Beta  occ. eigenvalues --   -1.14312  -1.14304  -1.14291  -1.14128  -1.14111
  Beta  occ. eigenvalues --   -1.14093  -1.14087  -1.14053  -1.14029  -1.13699
  Beta  occ. eigenvalues --   -1.13663  -1.13656  -1.13371  -1.13354  -1.13332
  Beta  occ. eigenvalues --   -0.15903  -0.13843  -0.11902
  Beta virt. eigenvalues --   -0.07267  -0.07192  -0.06121  -0.03699  -0.03229
  Beta virt. eigenvalues --   -0.03025  -0.02636  -0.01807  -0.01583  -0.01090
  Beta virt. eigenvalues --   -0.00432  -0.00288  -0.00092   0.00233   0.00300

 Mulliken charges and spin densities:
               1          2
     1  Na   0.027766  -0.049783
     2  Na  -0.078879   0.249993
     3  Na  -0.036923  -0.072032
     4  Na  -0.009913  -0.038847
     5  Na   0.545000   0.188515
     6  Na  -0.669568   0.225871
     7  Na   0.222517   0.496283
 Sum of Mulliken charges =  -0.00000   1.00000

 Dipole moment (field-independent basis, Debye):
    X=              1.3687    Y=              0.1545    Z=             -0.5096  Tot=              1.4687
 Quadrupole moment (field-independent basis, Debye-Ang):
   XX=            -51.1705   YY=            -70.0655   ZZ=            -78.1749
   XY=             -2.8965   XZ=              1.4737   YZ=              0.5361

 Normal termination of Gaussian 16 at Mon Dec  4 03:19:04 2023.
