 Gaussian 16, Revision B.01,
 Gaussian 16:  ES64L-G16RevB.01 20-Dec-2017

 -------------------------
 #P B3LYP/6-311+g(d) force
 -------------------------

 -----
 DPGEN
 -----
 Symbolic Z-matrix:
 Charge =  0 Multiplicity = 2

                         Standard orientation:
 ---------------------------------------------------------------------
 Center     Atomic      Atomic             Coordinates (Angstroms)
 Number     Number       Type             X           Y           Z
 ---------------------------------------------------------------------
      1         11           0        1.859799    2.235650   -0.112490
      2         11           0       -0.289115    0.587971   -1.462772
      3         11           0       -1.935029    2.313704    0.096458
      4         11           0        2.966063   -0.926336   -0.058023
      5         11           0        0.100271   -0.199522    1.992116
      6         11           0       -2.857993   -1.288187   -0.005416
      7         11           0        0.156003   -2.723279   -0.449873
 ---------------------------------------------------------------------

 SCF Done:  E(UB3LYP) =  -1136.13467761     A.U. after   19 cycles

 The electronic state is 2-A.
 Alpha  occ. eigenvalues --  -38.43953 -38.43931 -38.43799 -38.43717 -38.43332
 Alpha  occ. eigenvalues --  -38.43218 -38.43065  -2.19811  -2.19789  -2.19650
 Alpha  occ. eigenvalues --   -2.19601  -2.19244  -2.19123  -2.19098  -1.13614
 Alpha  occ. eigenvalues --   -1.13464  -1.13455  -1.13448  -1.13438  -1.13403
 Alpha  occ. eigenvalues --   -1.13356  -1.13321  -1.13312  -1.13307  -1.13249
 Alpha  occ. eigenvalues --   -1.13201  -1.12924  -1.12872  -1.12856  -1.12794
 Alpha  occ. eigenvalues --   -1.12782  -1.12752  -1.12742  -1.12733  -1.12718
 Alpha  occ. eigenvalues --   -0.18961  -0.13100  -0.12716  -0.10577
 Alpha virt. eigenvalues --   -0.05541  -0.05407  -0.04610  -0.03082  -0.02922
 Alpha virt. eigenvalues --   -0.02313  -0.01494  -0.01207  -0.00340  -0.00229
 Alpha virt. eigenvalues --    0.00017   0.00352   0.00816   0.00860   0.00926

  Beta  occ. eigenvalues --  -38.43950 -38.43926 -38.43796 -38.43710 -38.43236
  Beta  occ. eigenvalues --  -38.43205 -38.43011  -2.19805  -2.19787  -2.19647
  Beta  occ. eigenvalues --   -2.19592  -2.19079  -2.19068  -2.19025  -1.13602
  Beta  occ. eigenvalues --   -1.13460  -1.13442  -1.13431  -1.13424  -1.13403
  Beta  occ. eigenvalues --   -1.13350  -1.13319  -1.13305  -1.13285  -1.13220
  Beta  occ. eigenvalues --   -1.13200  -1.12816  -1.12772  -1.12747  -1.12730
  Beta  occ. eigenvalues --   -1.12722  -1.12710  -1.12707  -1.12677  -1.12653
  Beta  occ. eigenvalues --   -0.18237  -0.12873  -0.12463
  Beta virt. eigenvalues --   -0.06656  -0.05539  -0.05368  -0.04564  -0.02300
  Beta virt. eigenvalues --   -0.02138  -0.01418  -0.01255  -0.01157  -0.00391
  Beta virt. eigenvalues --   -0.00255   0.00160   0.00387   0.00856   0.00870

 Mulliken charges and spin densities:
               1          2
     1  Na   0.333738  -0.040054
     2  Na  -0.463987   0.327823
     3  Na   0.325913  -0.050688
     4  Na   0.118839   0.003723
     5  Na  -0.573520   0.756996
     6  Na   0.150474  -0.015792
     7  Na   0.108542   0.017992
 Sum of Mulliken charges =  -0.00000   1.00000

 Dipole moment (field-independent basis, Debye):
    X=             -0.1384    Y=              0.0922    Z=              0.2431  Tot=              0.2946
 Quadrupole moment (field-independent basis, Debye-Ang):
   XX=            -55.3169   YY=            -62.3677   ZZ=            -75.2897
   XY=             -0.0259   XZ=             -0.8746   YZ=              1.5509

 Normal termination of Gaussian 16 at Tue Dec  5 23:02:58 2023.
