 Gaussian 16, Revision B.01,
 Gaussian 16:  ES64L-G16RevB.01 20-Dec-2017

 -------------------------
 #P B3LYP/6-311+g(d) force
 -------------------------

 -----
 DPGEN
 -----
 Symbolic Z-matrix:
 Charge =  0 Multiplicity = 2

                         Standard orientation:
 ---------------------------------------------------------------------
 Center     Atomic      Atomic             Coordinates (Angstroms)
 Number     Number       Type             X           Y           Z
 ---------------------------------------------------------------------
      1         11           0        0.303782   -0.187718   -1.695767
      2         11           0        3.265256    0.727190   -0.065419
      3         11           0       -3.173188    1.436135    0.359879
      4         11           0       -2.255038   -1.973289   -0.532870
      5         11           0        1.250777   -2.526653    0.229122
      6         11           0        0.364507    2.773006   -0.276729
      7         11           0        0.243904   -0.248671    1.981784
 ---------------------------------------------------------------------

 SCF Done:  E(UB3LYP) =  -1136.13363034     A.U. after   19 cycles

 The electronic state is 2-A.
 Alpha  occ. eigenvalues --  -38.44381 -38.44108 -38.43786 -38.43758 -38.43415
 Alpha  occ. eigenvalues --  -38.43329 -38.43294  -2.20192  -2.19870  -2.19666
 Alpha  occ. eigenvalues --   -2.19615  -2.19305  -2.19247  -2.19205  -1.13870
 Alpha  occ. eigenvalues --   -1.13844  -1.13834  -1.13545  -1.13529  -1.13513
 Alpha  occ. eigenvalues --   -1.13379  -1.13315  -1.13304  -1.13276  -1.13262
 Alpha  occ. eigenvalues --   -1.13239  -1.13022  -1.13010  -1.12931  -1.12916
 Alpha  occ. eigenvalues --   -1.12896  -1.12886  -1.12853  -1.12837  -1.12799
 Alpha  occ. eigenvalues --   -0.18513  -0.12893  -0.12364  -0.10798
 Alpha virt. eigenvalues --   -0.05939  -0.05260  -0.04477  -0.03130  -0.02935
 Alpha virt. eigenvalues --   -0.02582  -0.01802  -0.01155  -0.00406  -0.00281
 Alpha virt. eigenvalues --   -0.00023   0.00316   0.00774   0.00841   0.00869

  Beta  occ. eigenvalues --  -38.44378 -38.44107 -38.43774 -38.43668 -38.43409
  Beta  occ. eigenvalues --  -38.43282 -38.43259  -2.20190  -2.19869  -2.19595
  Beta  occ. eigenvalues --   -2.19501  -2.19240  -2.19190  -2.19177  -1.13856
  Beta  occ. eigenvalues --   -1.13845  -1.13826  -1.13536  -1.13529  -1.13512
  Beta  occ. eigenvalues --   -1.13291  -1.13272  -1.13248  -1.13228  -1.13186
  Beta  occ. eigenvalues --   -1.13151  -1.12975  -1.12955  -1.12901  -1.12862
  Beta  occ. eigenvalues --   -1.12852  -1.12847  -1.12811  -1.12800  -1.12774
  Beta  occ. eigenvalues --   -0.17785  -0.12675  -0.12092
  Beta virt. eigenvalues --   -0.06910  -0.05891  -0.05197  -0.04431  -0.02443
  Beta virt. eigenvalues --   -0.02156  -0.01730  -0.01538  -0.01068  -0.00419
  Beta virt. eigenvalues --   -0.00313   0.00106   0.00348   0.00838   0.00846

 Mulliken charges and spin densities:
               1          2
     1  Na   0.138694   0.471193
     2  Na   0.114950  -0.099009
     3  Na  -0.161190  -0.026534
     4  Na   0.060230  -0.008703
     5  Na   0.321821  -0.054983
     6  Na  -0.129540  -0.064397
     7  Na  -0.344966   0.782433
 Sum of Mulliken charges =  -0.00000   1.00000

 Dipole moment (field-independent basis, Debye):
    X=              0.2548    Y=              0.0379    Z=              0.1076  Tot=              0.2792
 Quadrupole moment (field-independent basis, Debye-Ang):
   XX=            -54.0093   YY=            -64.9241   ZZ=            -74.3058
   XY=              0.4375   XZ=             -0.1146   YZ=              0.7404

 Normal termination of Gaussian 16 at Fri Dec  8 04:38:52 2023.
