 Gaussian 16, Revision B.01,
 Gaussian 16:  ES64L-G16RevB.01 20-Dec-2017

 -------------------------
 #P B3LYP/6-311+g(d) force
 -------------------------

 -----
 DPGEN
 -----
 Symbolic Z-matrix:
 Charge =  0 Multiplicity = 2

                         Standard orientation:
 ---------------------------------------------------------------------
 Center     Atomic      Atomic             Coordinates (Angstroms)
 Number     Number       Type             X           Y           Z
 ---------------------------------------------------------------------
      1         11           0        3.613880   -0.770030    0.522233
      2         11           0       -2.839838    0.913049   -1.152797
      3         11           0       -1.533097   -2.569339   -0.440076
      4         11           0        2.492782    2.917156    0.832833
      5         11           0        2.303827   -3.259334   -0.606880
      6         11           0       -3.842004   -0.607479    1.740997
      7         11           0       -0.195549    3.375978   -0.896308
 ---------------------------------------------------------------------

 SCF Done:  E(UB3LYP) =  -1136.11151111     A.U. after   21 cycles

 The electronic state is 2-A.
 Alpha  occ. eigenvalues --  -38.45925 -38.44874 -38.44614 -38.44553 -38.43926
 Alpha  occ. eigenvalues --  -38.43765 -38.43610  -2.21666  -2.20677  -2.20406
 Alpha  occ. eigenvalues --   -2.20365  -2.19712  -2.19578  -2.19411  -1.15369
 Alpha  occ. eigenvalues --   -1.15351  -1.15260  -1.14375  -1.14351  -1.14287
 Alpha  occ. eigenvalues --   -1.14098  -1.14078  -1.14049  -1.14024  -1.14013
 Alpha  occ. eigenvalues --   -1.13964  -1.13390  -1.13382  -1.13354  -1.13253
 Alpha  occ. eigenvalues --   -1.13233  -1.13212  -1.13081  -1.13073  -1.13042
 Alpha  occ. eigenvalues --   -0.16042  -0.13836  -0.13038  -0.10431
 Alpha virt. eigenvalues --   -0.07381  -0.06076  -0.03984  -0.03567  -0.03117
 Alpha virt. eigenvalues --   -0.02606  -0.01701  -0.01585  -0.01357  -0.01229
 Alpha virt. eigenvalues --   -0.00583  -0.00131   0.00013   0.00460   0.00546

  Beta  occ. eigenvalues --  -38.45909 -38.44842 -38.44608 -38.44481 -38.43914
  Beta  occ. eigenvalues --  -38.43758 -38.43590  -2.21640  -2.20623  -2.20394
  Beta  occ. eigenvalues --   -2.20230  -2.19689  -2.19565  -2.19375  -1.15349
  Beta  occ. eigenvalues --   -1.15337  -1.15222  -1.14336  -1.14318  -1.14219
  Beta  occ. eigenvalues --   -1.14087  -1.14070  -1.14037  -1.13930  -1.13919
  Beta  occ. eigenvalues --   -1.13877  -1.13380  -1.13366  -1.13331  -1.13252
  Beta  occ. eigenvalues --   -1.13224  -1.13195  -1.13058  -1.13050  -1.13006
  Beta  occ. eigenvalues --   -0.15535  -0.13540  -0.12786
  Beta virt. eigenvalues --   -0.07197  -0.06975  -0.05410  -0.03779  -0.03242
  Beta virt. eigenvalues --   -0.02915  -0.02210  -0.01550  -0.01379  -0.01192
  Beta virt. eigenvalues --   -0.00986  -0.00366   0.00158   0.00337   0.00506

 Mulliken charges and spin densities:
               1          2
     1  Na  -0.483167   0.041822
     2  Na   0.198328   0.130828
     3  Na  -0.471568   0.155432
     4  Na  -0.026349   0.076639
     5  Na   0.515560   0.116048
     6  Na   0.384012   0.386446
     7  Na  -0.116817   0.092785
 Sum of Mulliken charges =  -0.00000   1.00000

 Dipole moment (field-independent basis, Debye):
    X=             -1.1737    Y=             -0.8739    Z=              0.2467  Tot=              1.4839
 Quadrupole moment (field-independent basis, Debye-Ang):
   XX=            -64.6521   YY=            -67.2255   ZZ=            -69.6412
   XY=             -0.3669   XZ=              0.6483   YZ=              2.5167

 Normal termination of Gaussian 16 at Sun Dec  3 13:57:24 2023.
