 Gaussian 16, Revision B.01,
 Gaussian 16:  ES64L-G16RevB.01 20-Dec-2017

 -------------------------
 #P B3LYP/6-311+g(d) force
 -------------------------

 -----
 DPGEN
 -----
 Symbolic Z-matrix:
 Charge =  0 Multiplicity = 2

                         Standard orientation:
 ---------------------------------------------------------------------
 Center     Atomic      Atomic             Coordinates (Angstroms)
 Number     Number       Type             X           Y           Z
 ---------------------------------------------------------------------
      1         11           0        4.375941   -1.016868   -0.431472
      2         11           0        1.841581   -2.400236    0.046741
      3         11           0       -1.459406   -3.216487    0.355230
      4         11           0       -3.851483   -1.484586   -0.229414
      5         11           0       -0.366134    3.848527   -0.097461
      6         11           0       -3.188998    1.959935   -0.078340
      7         11           0        2.648499    2.309714    0.434717
 ---------------------------------------------------------------------

 SCF Done:  E(UB3LYP) =  -1136.11019227     A.U. after   24 cycles

 The electronic state is 2-A.
 Alpha  occ. eigenvalues --  -38.45580 -38.45012 -38.44865 -38.44253 -38.44027
 Alpha  occ. eigenvalues --  -38.43991 -38.43586  -2.21347  -2.20852  -2.20679
 Alpha  occ. eigenvalues --   -2.20052  -2.19886  -2.19783  -2.19442  -1.15025
 Alpha  occ. eigenvalues --   -1.15012  -1.14953  -1.14571  -1.14512  -1.14500
 Alpha  occ. eigenvalues --   -1.14383  -1.14344  -1.14329  -1.13718  -1.13708
 Alpha  occ. eigenvalues --   -1.13683  -1.13564  -1.13512  -1.13493  -1.13456
 Alpha  occ. eigenvalues --   -1.13451  -1.13429  -1.13108  -1.13078  -1.13074
 Alpha  occ. eigenvalues --   -0.16041  -0.14197  -0.13722  -0.10742
 Alpha virt. eigenvalues --   -0.07705  -0.04894  -0.03984  -0.03726  -0.03315
 Alpha virt. eigenvalues --   -0.02529  -0.02237  -0.02103  -0.01478  -0.00369
 Alpha virt. eigenvalues --   -0.00157   0.00091   0.00199   0.00415   0.00683

  Beta  occ. eigenvalues --  -38.45530 -38.44987 -38.44867 -38.44203 -38.43991
  Beta  occ. eigenvalues --  -38.43980 -38.43539  -2.21259  -2.20814  -2.20687
  Beta  occ. eigenvalues --   -2.19959  -2.19799  -2.19786  -2.19354  -1.14969
  Beta  occ. eigenvalues --   -1.14956  -1.14870  -1.14501  -1.14483  -1.14481
  Beta  occ. eigenvalues --   -1.14381  -1.14354  -1.14309  -1.13654  -1.13646
  Beta  occ. eigenvalues --   -1.13623  -1.13502  -1.13461  -1.13456  -1.13453
  Beta  occ. eigenvalues --   -1.13438  -1.13405  -1.13054  -1.13017  -1.13014
  Beta  occ. eigenvalues --   -0.15490  -0.13613  -0.13111
  Beta virt. eigenvalues --   -0.07746  -0.07352  -0.04516  -0.03746  -0.03267
  Beta virt. eigenvalues --   -0.02809  -0.02327  -0.02089  -0.01932  -0.01363
  Beta virt. eigenvalues --   -0.00111   0.00118   0.00265   0.00415   0.00487

 Mulliken charges and spin densities:
               1          2
     1  Na   1.258963   0.289329
     2  Na  -0.569715   0.297330
     3  Na  -0.240395  -0.040306
     4  Na   0.208511  -0.063272
     5  Na   0.110346  -0.037406
     6  Na  -0.375775   0.238821
     7  Na  -0.391936   0.315504
 Sum of Mulliken charges =  -0.00000   1.00000

 Dipole moment (field-independent basis, Debye):
    X=              0.7417    Y=              0.2007    Z=             -0.0216  Tot=              0.7687
 Quadrupole moment (field-independent basis, Debye-Ang):
   XX=            -58.7600   YY=            -68.2254   ZZ=            -73.1542
   XY=              3.2443   XZ=              0.5430   YZ=              0.0992

 Normal termination of Gaussian 16 at Mon Dec  4 05:37:58 2023.
