 Gaussian 16, Revision B.01,
 Gaussian 16:  ES64L-G16RevB.01 20-Dec-2017

 -------------------------
 #P B3LYP/6-311+g(d) force
 -------------------------

 -----
 DPGEN
 -----
 Symbolic Z-matrix:
 Charge =  0 Multiplicity = 2

                         Standard orientation:
 ---------------------------------------------------------------------
 Center     Atomic      Atomic             Coordinates (Angstroms)
 Number     Number       Type             X           Y           Z
 ---------------------------------------------------------------------
      1         11           0       -0.670594   -2.121725    1.563236
      2         11           0       -2.184560    1.993659    1.133519
      3         11           0        1.285336    0.657629    1.884468
      4         11           0        2.919111   -1.483188   -0.258143
      5         11           0        2.312705    1.967115   -1.112570
      6         11           0       -3.365693   -0.510561   -1.133015
      7         11           0       -0.296305   -0.502929   -2.077494
 ---------------------------------------------------------------------

 SCF Done:  E(UB3LYP) =  -1136.12364695     A.U. after   23 cycles

 The electronic state is 2-A.
 Alpha  occ. eigenvalues --  -38.45079 -38.45021 -38.44162 -38.43994 -38.43764
 Alpha  occ. eigenvalues --  -38.43211 -38.43058  -2.20882  -2.20794  -2.19982
 Alpha  occ. eigenvalues --   -2.19788  -2.19578  -2.19037  -2.18923  -1.14562
 Alpha  occ. eigenvalues --   -1.14540  -1.14498  -1.14461  -1.14424  -1.14423
 Alpha  occ. eigenvalues --   -1.13656  -1.13630  -1.13599  -1.13465  -1.13437
 Alpha  occ. eigenvalues --   -1.13414  -1.13264  -1.13239  -1.13216  -1.12722
 Alpha  occ. eigenvalues --   -1.12716  -1.12656  -1.12612  -1.12592  -1.12559
 Alpha  occ. eigenvalues --   -0.17701  -0.13386  -0.11763  -0.11038
 Alpha virt. eigenvalues --   -0.06167  -0.05569  -0.04746  -0.03347  -0.03075
 Alpha virt. eigenvalues --   -0.02739  -0.01738  -0.01160  -0.00763  -0.00176
 Alpha virt. eigenvalues --    0.00012   0.00246   0.00331   0.00494   0.00629

  Beta  occ. eigenvalues --  -38.45060 -38.44962 -38.44123 -38.43956 -38.43764
  Beta  occ. eigenvalues --  -38.43196 -38.43046  -2.20848  -2.20684  -2.19909
  Beta  occ. eigenvalues --   -2.19720  -2.19578  -2.19010  -2.18905  -1.14534
  Beta  occ. eigenvalues --   -1.14519  -1.14468  -1.14380  -1.14353  -1.14346
  Beta  occ. eigenvalues --   -1.13599  -1.13581  -1.13550  -1.13417  -1.13388
  Beta  occ. eigenvalues --   -1.13363  -1.13260  -1.13233  -1.13218  -1.12701
  Beta  occ. eigenvalues --   -1.12685  -1.12640  -1.12604  -1.12551  -1.12543
  Beta  occ. eigenvalues --   -0.16985  -0.13176  -0.10841
  Beta virt. eigenvalues --   -0.08070  -0.05786  -0.05036  -0.04508  -0.03034
  Beta virt. eigenvalues --   -0.02572  -0.02168  -0.01660  -0.00749  -0.00546
  Beta virt. eigenvalues --   -0.00063   0.00183   0.00360   0.00372   0.00545

 Mulliken charges and spin densities:
               1          2
     1  Na  -0.262767   0.246038
     2  Na  -0.060437   0.168301
     3  Na   0.155095   0.207349
     4  Na   0.411825   0.129025
     5  Na   0.076013   0.143088
     6  Na   0.205389  -0.029892
     7  Na  -0.525118   0.136091
 Sum of Mulliken charges =  -0.00000   1.00000

 Dipole moment (field-independent basis, Debye):
    X=              0.2271    Y=             -0.0378    Z=              0.1038  Tot=              0.2525
 Quadrupole moment (field-independent basis, Debye-Ang):
   XX=            -55.3205   YY=            -60.8808   ZZ=            -79.9561
   XY=             -1.8576   XZ=             -2.0192   YZ=              1.3338

 Normal termination of Gaussian 16 at Mon Dec  4 02:22:34 2023.
