 Gaussian 16, Revision B.01,
 Gaussian 16:  ES64L-G16RevB.01 20-Dec-2017

 -------------------------
 #P B3LYP/6-311+g(d) force
 -------------------------

 -----
 DPGEN
 -----
 Symbolic Z-matrix:
 Charge =  0 Multiplicity = 2

                         Standard orientation:
 ---------------------------------------------------------------------
 Center     Atomic      Atomic             Coordinates (Angstroms)
 Number     Number       Type             X           Y           Z
 ---------------------------------------------------------------------
      1         11           0       -3.713098   -1.647617   -0.397294
      2         11           0        4.129673    0.603455    0.714557
      3         11           0        2.742973    2.740037   -0.478082
      4         11           0       -1.684643    2.756481   -0.576249
      5         11           0       -4.423737    0.815250    1.096503
      6         11           0        3.061054   -2.668123    0.228414
      7         11           0       -0.112221   -2.599483   -0.587849
 ---------------------------------------------------------------------

 SCF Done:  E(UB3LYP) =  -1136.10055482     A.U. after   24 cycles

 The electronic state is 2-A.
 Alpha  occ. eigenvalues --  -38.45334 -38.44704 -38.44616 -38.44581 -38.44408
 Alpha  occ. eigenvalues --  -38.44301 -38.43991  -2.21150  -2.20543  -2.20410
 Alpha  occ. eigenvalues --   -2.20397  -2.20187  -2.20072  -2.19862  -1.14885
 Alpha  occ. eigenvalues --   -1.14805  -1.14778  -1.14210  -1.14198  -1.14178
 Alpha  occ. eigenvalues --   -1.14169  -1.14076  -1.14074  -1.14065  -1.14041
 Alpha  occ. eigenvalues --   -1.14025  -1.13837  -1.13825  -1.13792  -1.13745
 Alpha  occ. eigenvalues --   -1.13738  -1.13705  -1.13505  -1.13487  -1.13471
 Alpha  occ. eigenvalues --   -0.15914  -0.14598  -0.12707  -0.10691
 Alpha virt. eigenvalues --   -0.07845  -0.04980  -0.04368  -0.03731  -0.03469
 Alpha virt. eigenvalues --   -0.02534  -0.02310  -0.01637  -0.01151  -0.00873
 Alpha virt. eigenvalues --   -0.00658   0.00013   0.00108   0.00264   0.00559

  Beta  occ. eigenvalues --  -38.45324 -38.44659 -38.44608 -38.44580 -38.44297
  Beta  occ. eigenvalues --  -38.44290 -38.43958  -2.21138  -2.20460  -2.20402
  Beta  occ. eigenvalues --   -2.20397  -2.20055  -2.19980  -2.19801  -1.14861
  Beta  occ. eigenvalues --   -1.14802  -1.14748  -1.14192  -1.14141  -1.14125
  Beta  occ. eigenvalues --   -1.14109  -1.14068  -1.14062  -1.14049  -1.14047
  Beta  occ. eigenvalues --   -1.14019  -1.13734  -1.13727  -1.13697  -1.13685
  Beta  occ. eigenvalues --   -1.13685  -1.13654  -1.13470  -1.13446  -1.13428
  Beta  occ. eigenvalues --   -0.15437  -0.14132  -0.12029
  Beta virt. eigenvalues --   -0.07953  -0.07247  -0.04653  -0.03966  -0.03418
  Beta virt. eigenvalues --   -0.03136  -0.02418  -0.02068  -0.01389  -0.00848
  Beta virt. eigenvalues --   -0.00531  -0.00515   0.00105   0.00251   0.00373

 Mulliken charges and spin densities:
               1          2
     1  Na  -0.269278   0.310364
     2  Na  -0.529893   0.127918
     3  Na   0.419615   0.000217
     4  Na  -0.405975   0.571271
     5  Na   0.170422   0.010092
     6  Na   1.173358  -0.084199
     7  Na  -0.558248   0.064337
 Sum of Mulliken charges =  -0.00000   1.00000

 Dipole moment (field-independent basis, Debye):
    X=             -0.7043    Y=             -0.3283    Z=              0.3108  Tot=              0.8369
 Quadrupole moment (field-independent basis, Debye-Ang):
   XX=            -60.1290   YY=            -72.1751   ZZ=            -69.6878
   XY=             -5.6559   XZ=             -0.6295   YZ=              0.6604

 Normal termination of Gaussian 16 at Sun Dec  3 18:34:55 2023.
