 Gaussian 16, Revision B.01,
 Gaussian 16:  ES64L-G16RevB.01 20-Dec-2017

 -------------------------
 #P B3LYP/6-311+g(d) force
 -------------------------

 -----
 DPGEN
 -----
 Symbolic Z-matrix:
 Charge =  0 Multiplicity = 2

                         Standard orientation:
 ---------------------------------------------------------------------
 Center     Atomic      Atomic             Coordinates (Angstroms)
 Number     Number       Type             X           Y           Z
 ---------------------------------------------------------------------
      1         11           0        3.338488    2.156281    0.792590
      2         11           0        5.955912   -0.010121   -0.706685
      3         11           0        0.156586    2.778976   -0.308516
      4         11           0       -8.344821   -0.425303   -0.850491
      5         11           0       -5.858007   -1.487740    0.844183
      6         11           0        6.629402   -2.996750   -0.013041
      7         11           0       -1.877561   -0.015343    0.241961
 ---------------------------------------------------------------------

 SCF Done:  E(UB3LYP) =  -1136.10474414     A.U. after   18 cycles

 The electronic state is 2-A.
 Alpha  occ. eigenvalues --  -38.44918 -38.44685 -38.44681 -38.44609 -38.44422
 Alpha  occ. eigenvalues --  -38.44269 -38.43984  -2.20693  -2.20476  -2.20468
 Alpha  occ. eigenvalues --   -2.20405  -2.20190  -2.20034  -2.19774  -1.14348
 Alpha  occ. eigenvalues --   -1.14344  -1.14294  -1.14131  -1.14122  -1.14120
 Alpha  occ. eigenvalues --   -1.14118  -1.14116  -1.14096  -1.14060  -1.14048
 Alpha  occ. eigenvalues --   -1.14046  -1.13872  -1.13856  -1.13847  -1.13708
 Alpha  occ. eigenvalues --   -1.13698  -1.13681  -1.13446  -1.13442  -1.13429
 Alpha  occ. eigenvalues --   -0.14998  -0.13911  -0.12959  -0.11218
 Alpha virt. eigenvalues --   -0.07160  -0.05422  -0.04357  -0.03284  -0.03046
 Alpha virt. eigenvalues --   -0.02561  -0.02477  -0.02027  -0.01612  -0.01306
 Alpha virt. eigenvalues --   -0.00927  -0.00431  -0.00369   0.00312   0.00427

  Beta  occ. eigenvalues --  -38.44830 -38.44647 -38.44604 -38.44559 -38.44443
  Beta  occ. eigenvalues --  -38.44281 -38.43994  -2.20527  -2.20397  -2.20332
  Beta  occ. eigenvalues --   -2.20312  -2.20235  -2.20060  -2.19797  -1.14235
  Beta  occ. eigenvalues --   -1.14230  -1.14190  -1.14075  -1.14069  -1.14068
  Beta  occ. eigenvalues --   -1.14030  -1.14025  -1.14010  -1.14001  -1.13984
  Beta  occ. eigenvalues --   -1.13982  -1.13907  -1.13889  -1.13839  -1.13728
  Beta  occ. eigenvalues --   -1.13717  -1.13675  -1.13465  -1.13462  -1.13410
  Beta  occ. eigenvalues --   -0.14338  -0.13368  -0.12580
  Beta virt. eigenvalues --   -0.08103  -0.06587  -0.05008  -0.04160  -0.03102
  Beta virt. eigenvalues --   -0.02773  -0.02362  -0.02302  -0.01848  -0.01496
  Beta virt. eigenvalues --   -0.00938  -0.00496  -0.00219  -0.00186   0.00331

 Mulliken charges and spin densities:
               1          2
     1  Na  -0.264283   0.371588
     2  Na  -0.247588  -0.041039
     3  Na   0.213925  -0.085500
     4  Na   0.061821   0.168671
     5  Na  -0.076278  -0.059450
     6  Na   0.320986   0.223427
     7  Na  -0.008583   0.422302
 Sum of Mulliken charges =  -0.00000   1.00000

 Dipole moment (field-independent basis, Debye):
    X=             -0.4903    Y=             -0.2649    Z=             -0.1048  Tot=              0.5670
 Quadrupole moment (field-independent basis, Debye-Ang):
   XX=            -61.4100   YY=            -62.2104   ZZ=            -70.7187
   XY=             -6.6127   XZ=              6.2753   YZ=             -4.5493

 Normal termination of Gaussian 16 at Sun Dec  3 18:02:05 2023.
