 Gaussian 16, Revision B.01,
 Gaussian 16:  ES64L-G16RevB.01 20-Dec-2017

 -------------------------
 #P B3LYP/6-311+g(d) force
 -------------------------

 -----
 DPGEN
 -----
 Symbolic Z-matrix:
 Charge =  0 Multiplicity = 2

                         Standard orientation:
 ---------------------------------------------------------------------
 Center     Atomic      Atomic             Coordinates (Angstroms)
 Number     Number       Type             X           Y           Z
 ---------------------------------------------------------------------
      1         11           0       -6.147794    0.184779    0.555906
      2         11           0        5.423472   -1.293002    1.064987
      3         11           0       -0.529103   -0.729659   -0.749487
      4         11           0       -3.548159   -1.798228   -0.134620
      5         11           0        1.104772    2.537044   -1.489119
      6         11           0        3.003928   -0.944293   -0.912436
      7         11           0        0.692884    2.043358    1.664768
 ---------------------------------------------------------------------

 SCF Done:  E(UB3LYP) =  -1136.10704779     A.U. after   22 cycles

 The electronic state is 2-A.
 Alpha  occ. eigenvalues --  -38.45929 -38.45547 -38.44510 -38.43990 -38.43537
 Alpha  occ. eigenvalues --  -38.43378 -38.43372  -2.21720  -2.21346  -2.20299
 Alpha  occ. eigenvalues --   -2.19860  -2.19344  -2.19206  -2.19163  -1.15384
 Alpha  occ. eigenvalues --   -1.15364  -1.15353  -1.15013  -1.15004  -1.14975
 Alpha  occ. eigenvalues --   -1.13942  -1.13940  -1.13920  -1.13534  -1.13517
 Alpha  occ. eigenvalues --   -1.13469  -1.13024  -1.13016  -1.12994  -1.12930
 Alpha  occ. eigenvalues --   -1.12890  -1.12858  -1.12815  -1.12813  -1.12751
 Alpha  occ. eigenvalues --   -0.16893  -0.13602  -0.12046  -0.10896
 Alpha virt. eigenvalues --   -0.07456  -0.05904  -0.04332  -0.03191  -0.02820
 Alpha virt. eigenvalues --   -0.02588  -0.02117  -0.01917  -0.01600  -0.00920
 Alpha virt. eigenvalues --   -0.00540  -0.00206   0.00045   0.00273   0.00534

  Beta  occ. eigenvalues --  -38.45889 -38.45547 -38.44431 -38.43911 -38.43545
  Beta  occ. eigenvalues --  -38.43374 -38.43361  -2.21647  -2.21350  -2.20150
  Beta  occ. eigenvalues --   -2.19714  -2.19366  -2.19201  -2.19142  -1.15325
  Beta  occ. eigenvalues --   -1.15314  -1.15307  -1.15014  -1.14991  -1.14979
  Beta  occ. eigenvalues --   -1.13840  -1.13838  -1.13825  -1.13436  -1.13422
  Beta  occ. eigenvalues --   -1.13367  -1.13038  -1.13035  -1.12966  -1.12917
  Beta  occ. eigenvalues --   -1.12880  -1.12860  -1.12801  -1.12799  -1.12735
  Beta  occ. eigenvalues --   -0.16382  -0.13009  -0.11723
  Beta virt. eigenvalues --   -0.07663  -0.07072  -0.05413  -0.04147  -0.02933
  Beta virt. eigenvalues --   -0.02520  -0.02306  -0.01910  -0.01596  -0.01341
  Beta virt. eigenvalues --   -0.00633  -0.00416  -0.00011   0.00235   0.00398

 Mulliken charges and spin densities:
               1          2
     1  Na  -0.159973   0.412511
     2  Na   0.653295   0.012756
     3  Na  -0.496928   0.396936
     4  Na  -0.450892  -0.003436
     5  Na   0.886059   0.100054
     6  Na  -0.455125  -0.167677
     7  Na   0.023565   0.248856
 Sum of Mulliken charges =  -0.00000   1.00000

 Dipole moment (field-independent basis, Debye):
    X=             -0.1767    Y=              2.4926    Z=              0.4230  Tot=              2.5344
 Quadrupole moment (field-independent basis, Debye-Ang):
   XX=            -74.4564   YY=            -71.6920   ZZ=            -60.2117
   XY=              0.8168   XZ=              0.7281   YZ=             -2.8679

 Normal termination of Gaussian 16 at Mon Dec  4 04:38:15 2023.
