 Gaussian 16, Revision B.01,
 Gaussian 16:  ES64L-G16RevB.01 20-Dec-2017

 -------------------------
 #P B3LYP/6-311+g(d) force
 -------------------------

 -----
 DPGEN
 -----
 Symbolic Z-matrix:
 Charge =  0 Multiplicity = 2

                         Standard orientation:
 ---------------------------------------------------------------------
 Center     Atomic      Atomic             Coordinates (Angstroms)
 Number     Number       Type             X           Y           Z
 ---------------------------------------------------------------------
      1         11           0        0.048844    1.775819    0.625647
      2         11           0        2.919073    3.866632    0.045516
      3         11           0        2.507461    0.307566   -0.858450
      4         11           0        1.059055   -2.526411    1.302992
      5         11           0       -2.611724   -0.688087    0.473938
      6         11           0        3.050443   -3.027018   -0.921611
      7         11           0       -6.973152    0.291499   -0.668032
 ---------------------------------------------------------------------

 SCF Done:  E(UB3LYP) =  -1136.11260231     A.U. after   19 cycles

 The electronic state is 2-A.
 Alpha  occ. eigenvalues --  -38.45095 -38.45034 -38.44634 -38.44536 -38.43915
 Alpha  occ. eigenvalues --  -38.43854 -38.43188  -2.20907  -2.20810  -2.20475
 Alpha  occ. eigenvalues --   -2.20306  -2.19746  -2.19714  -2.18930  -1.14605
 Alpha  occ. eigenvalues --   -1.14576  -1.14533  -1.14434  -1.14434  -1.14411
 Alpha  occ. eigenvalues --   -1.14206  -1.14174  -1.14055  -1.13978  -1.13977
 Alpha  occ. eigenvalues --   -1.13919  -1.13475  -1.13439  -1.13383  -1.13358
 Alpha  occ. eigenvalues --   -1.13348  -1.13306  -1.12622  -1.12612  -1.12562
 Alpha  occ. eigenvalues --   -0.16629  -0.13181  -0.12722  -0.11064
 Alpha virt. eigenvalues --   -0.06563  -0.05445  -0.04882  -0.03664  -0.02666
 Alpha virt. eigenvalues --   -0.02261  -0.02194  -0.01749  -0.01435  -0.01151
 Alpha virt. eigenvalues --   -0.00338  -0.00252  -0.00090   0.00357   0.00425

  Beta  occ. eigenvalues --  -38.45090 -38.44875 -38.44627 -38.44530 -38.43902
  Beta  occ. eigenvalues --  -38.43843 -38.43203  -2.20897  -2.20514  -2.20464
  Beta  occ. eigenvalues --   -2.20296  -2.19723  -2.19693  -2.18961  -1.14598
  Beta  occ. eigenvalues --   -1.14570  -1.14518  -1.14233  -1.14233  -1.14212
  Beta  occ. eigenvalues --   -1.14189  -1.14168  -1.14047  -1.13971  -1.13969
  Beta  occ. eigenvalues --   -1.13913  -1.13459  -1.13424  -1.13370  -1.13343
  Beta  occ. eigenvalues --   -1.13333  -1.13285  -1.12646  -1.12636  -1.12560
  Beta  occ. eigenvalues --   -0.16425  -0.13136  -0.11687
  Beta virt. eigenvalues --   -0.07210  -0.06439  -0.05037  -0.04720  -0.03545
  Beta virt. eigenvalues --   -0.02553  -0.02073  -0.01849  -0.01289  -0.00919
  Beta virt. eigenvalues --   -0.00671  -0.00098   0.00086   0.00133   0.00484

 Mulliken charges and spin densities:
               1          2
     1  Na  -0.209161  -0.000685
     2  Na   0.724879   0.040838
     3  Na  -0.929045   0.095799
     4  Na   0.043955  -0.035290
     5  Na  -0.448983   0.039707
     6  Na   0.924234   0.048666
     7  Na  -0.105879   0.810965
 Sum of Mulliken charges =  -0.00000   1.00000

 Dipole moment (field-independent basis, Debye):
    X=              2.2925    Y=              0.1168    Z=              0.0848  Tot=              2.2970
 Quadrupole moment (field-independent basis, Debye-Ang):
   XX=            -72.6599   YY=            -56.7395   ZZ=            -69.3463
   XY=              2.0101   XZ=             -0.2837   YZ=              0.3354

 Normal termination of Gaussian 16 at Tue Nov 28 23:21:15 2023.
