 Gaussian 16, Revision B.01,
 Gaussian 16:  ES64L-G16RevB.01 20-Dec-2017

 -------------------------
 #P B3LYP/6-311+g(d) force
 -------------------------

 -----
 DPGEN
 -----
 Symbolic Z-matrix:
 Charge =  0 Multiplicity = 2

                         Standard orientation:
 ---------------------------------------------------------------------
 Center     Atomic      Atomic             Coordinates (Angstroms)
 Number     Number       Type             X           Y           Z
 ---------------------------------------------------------------------
      1         11           0       -2.455653    1.985238    0.212847
      2         11           0       -1.194523   -0.681849   -1.564228
      3         11           0        1.834927   -2.159465   -0.478607
      4         11           0        3.860309    0.188128    0.459920
      5         11           0        1.164896    2.091995   -1.010906
      6         11           0       -3.323632   -1.460947    0.388709
      7         11           0        0.113676    0.036901    1.992265
 ---------------------------------------------------------------------

 SCF Done:  E(UB3LYP) =  -1136.12175554     A.U. after   25 cycles

 The electronic state is 2-A.
 Alpha  occ. eigenvalues --  -38.45409 -38.44710 -38.44575 -38.43948 -38.43699
 Alpha  occ. eigenvalues --  -38.43263 -38.43004  -2.21205  -2.20529  -2.20408
 Alpha  occ. eigenvalues --   -2.19773  -2.19525  -2.19206  -2.18823  -1.14878
 Alpha  occ. eigenvalues --   -1.14864  -1.14842  -1.14216  -1.14166  -1.14143
 Alpha  occ. eigenvalues --   -1.14131  -1.14049  -1.14040  -1.13455  -1.13440
 Alpha  occ. eigenvalues --   -1.13401  -1.13204  -1.13189  -1.13168  -1.12878
 Alpha  occ. eigenvalues --   -1.12870  -1.12810  -1.12506  -1.12485  -1.12447
 Alpha  occ. eigenvalues --   -0.18178  -0.14063  -0.11112  -0.10732
 Alpha virt. eigenvalues --   -0.07141  -0.05634  -0.04266  -0.03234  -0.02777
 Alpha virt. eigenvalues --   -0.02405  -0.02349  -0.01292  -0.00817  -0.00355
 Alpha virt. eigenvalues --    0.00072   0.00157   0.00338   0.00619   0.00692

  Beta  occ. eigenvalues --  -38.45408 -38.44640 -38.44576 -38.43943 -38.43687
  Beta  occ. eigenvalues --  -38.43205 -38.42977  -2.21203  -2.20412  -2.20398
  Beta  occ. eigenvalues --   -2.19768  -2.19506  -2.19100  -2.18775  -1.14877
  Beta  occ. eigenvalues --   -1.14857  -1.14840  -1.14131  -1.14124  -1.14077
  Beta  occ. eigenvalues --   -1.14053  -1.14045  -1.14029  -1.13445  -1.13430
  Beta  occ. eigenvalues --   -1.13392  -1.13192  -1.13165  -1.13146  -1.12805
  Beta  occ. eigenvalues --   -1.12792  -1.12731  -1.12472  -1.12437  -1.12417
  Beta  occ. eigenvalues --   -0.17465  -0.13937  -0.10882
  Beta virt. eigenvalues --   -0.07005  -0.06821  -0.05640  -0.03737  -0.02995
  Beta virt. eigenvalues --   -0.02490  -0.01872  -0.01455  -0.01220  -0.00654
  Beta virt. eigenvalues --   -0.00209   0.00083   0.00188   0.00505   0.00682

 Mulliken charges and spin densities:
               1          2
     1  Na   0.078914   0.088042
     2  Na   0.157356   0.146487
     3  Na  -0.203030   0.068978
     4  Na   0.397920   0.063121
     5  Na  -0.402812   0.096160
     6  Na   0.245632   0.076378
     7  Na  -0.273979   0.460834
 Sum of Mulliken charges =  -0.00000   1.00000

 Dipole moment (field-independent basis, Debye):
    X=              0.4002    Y=              0.1423    Z=              0.6348  Tot=              0.7638
 Quadrupole moment (field-independent basis, Debye-Ang):
   XX=            -45.4228   YY=            -74.5261   ZZ=            -73.2104
   XY=              0.7692   XZ=             -0.9260   YZ=             -0.9331

 Normal termination of Gaussian 16 at Thu Dec  7 11:24:12 2023.
