 Gaussian 16, Revision B.01,
 Gaussian 16:  ES64L-G16RevB.01 20-Dec-2017

 -------------------------
 #P B3LYP/6-311+g(d) force
 -------------------------

 -----
 DPGEN
 -----
 Symbolic Z-matrix:
 Charge =  0 Multiplicity = 2

                         Standard orientation:
 ---------------------------------------------------------------------
 Center     Atomic      Atomic             Coordinates (Angstroms)
 Number     Number       Type             X           Y           Z
 ---------------------------------------------------------------------
      1         11           0       -0.323825    2.140472   -0.876155
      2         11           0       -3.391849    1.484929    0.191149
      3         11           0       -2.117720   -1.978002   -0.005029
      4         11           0        2.919942    1.980516   -0.233432
      5         11           0        0.109863   -2.010754   -1.560226
      6         11           0        2.878465   -1.402557    0.471658
      7         11           0       -0.074876   -0.214604    2.012035
 ---------------------------------------------------------------------

 SCF Done:  E(UB3LYP) =  -1136.11995676     A.U. after   21 cycles

 The electronic state is 2-A.
 Alpha  occ. eigenvalues --  -38.44678 -38.44658 -38.44219 -38.44205 -38.44123
 Alpha  occ. eigenvalues --  -38.43620 -38.43450  -2.20491  -2.20443  -2.20132
 Alpha  occ. eigenvalues --   -2.20007  -2.19984  -2.19535  -2.19291  -1.14166
 Alpha  occ. eigenvalues --   -1.14152  -1.14131  -1.14118  -1.14107  -1.14080
 Alpha  occ. eigenvalues --   -1.14025  -1.13785  -1.13723  -1.13684  -1.13668
 Alpha  occ. eigenvalues --   -1.13648  -1.13644  -1.13621  -1.13590  -1.13172
 Alpha  occ. eigenvalues --   -1.13138  -1.13120  -1.12969  -1.12954  -1.12923
 Alpha  occ. eigenvalues --   -0.18047  -0.13417  -0.12412  -0.10644
 Alpha virt. eigenvalues --   -0.06568  -0.05954  -0.03837  -0.03510  -0.03177
 Alpha virt. eigenvalues --   -0.02305  -0.02181  -0.01539  -0.00635  -0.00155
 Alpha virt. eigenvalues --    0.00070   0.00247   0.00380   0.00666   0.00751

  Beta  occ. eigenvalues --  -38.44667 -38.44661 -38.44207 -38.44201 -38.44035
  Beta  occ. eigenvalues --  -38.43565 -38.43429  -2.20472  -2.20450  -2.20116
  Beta  occ. eigenvalues --   -2.20001  -2.19822  -2.19434  -2.19251  -1.14143
  Beta  occ. eigenvalues --   -1.14127  -1.14124  -1.14122  -1.14109  -1.14081
  Beta  occ. eigenvalues --   -1.13991  -1.13745  -1.13718  -1.13676  -1.13660
  Beta  occ. eigenvalues --   -1.13639  -1.13537  -1.13517  -1.13469  -1.13109
  Beta  occ. eigenvalues --   -1.13068  -1.13048  -1.12942  -1.12922  -1.12892
  Beta  occ. eigenvalues --   -0.17404  -0.13237  -0.12088
  Beta virt. eigenvalues --   -0.06934  -0.06412  -0.05885  -0.03633  -0.02853
  Beta virt. eigenvalues --   -0.02520  -0.02026  -0.01532  -0.01408  -0.00657
  Beta virt. eigenvalues --    0.00003   0.00162   0.00298   0.00516   0.00736

 Mulliken charges and spin densities:
               1          2
     1  Na  -0.403735   0.278789
     2  Na   0.370156  -0.094638
     3  Na  -0.041594   0.348887
     4  Na  -0.130204  -0.065203
     5  Na   0.046317  -0.080867
     6  Na   0.284541   0.298480
     7  Na  -0.125481   0.314553
 Sum of Mulliken charges =  -0.00000   1.00000

 Dipole moment (field-independent basis, Debye):
    X=              0.0273    Y=              0.1187    Z=              0.3195  Tot=              0.3419
 Quadrupole moment (field-independent basis, Debye-Ang):
   XX=            -50.4510   YY=            -71.1382   ZZ=            -74.2349
   XY=             -1.6344   XZ=             -1.0093   YZ=             -0.3853

 Normal termination of Gaussian 16 at Tue Dec  5 23:49:35 2023.
