 Gaussian 16, Revision B.01,
 Gaussian 16:  ES64L-G16RevB.01 20-Dec-2017

 -------------------------
 #P B3LYP/6-311+g(d) force
 -------------------------

 -----
 DPGEN
 -----
 Symbolic Z-matrix:
 Charge =  0 Multiplicity = 2

                         Standard orientation:
 ---------------------------------------------------------------------
 Center     Atomic      Atomic             Coordinates (Angstroms)
 Number     Number       Type             X           Y           Z
 ---------------------------------------------------------------------
      1         11           0        3.417412   -0.796509   -0.157440
      2         11           0        0.069867   -2.713412   -0.710530
      3         11           0        0.219394    0.746576   -1.313220
      4         11           0       -2.726875   -1.280173    0.006245
      5         11           0        0.202752   -0.458990    2.216485
      6         11           0       -3.620978    1.919176   -0.089896
      7         11           0        2.438428    2.583331    0.048356
 ---------------------------------------------------------------------

 SCF Done:  E(UB3LYP) =  -1136.12233407     A.U. after   22 cycles

 The electronic state is 2-A.
 Alpha  occ. eigenvalues --  -38.45678 -38.44318 -38.44152 -38.44076 -38.43928
 Alpha  occ. eigenvalues --  -38.43662 -38.42723  -2.21451  -2.20077  -2.19966
 Alpha  occ. eigenvalues --   -2.19956  -2.19788  -2.19501  -2.18589  -1.15131
 Alpha  occ. eigenvalues --   -1.15102  -1.15087  -1.13757  -1.13743  -1.13721
 Alpha  occ. eigenvalues --   -1.13720  -1.13654  -1.13613  -1.13603  -1.13595
 Alpha  occ. eigenvalues --   -1.13541  -1.13468  -1.13457  -1.13420  -1.13160
 Alpha  occ. eigenvalues --   -1.13124  -1.13111  -1.12270  -1.12244  -1.12226
 Alpha  occ. eigenvalues --   -0.17901  -0.13600  -0.11644  -0.10356
 Alpha virt. eigenvalues --   -0.07000  -0.05812  -0.04199  -0.03345  -0.02594
 Alpha virt. eigenvalues --   -0.02366  -0.02249  -0.01550  -0.01102  -0.00329
 Alpha virt. eigenvalues --   -0.00163   0.00150   0.00490   0.00585   0.00647

  Beta  occ. eigenvalues --  -38.45671 -38.44327 -38.44150 -38.44041 -38.43924
  Beta  occ. eigenvalues --  -38.43551 -38.42705  -2.21442  -2.20094  -2.19964
  Beta  occ. eigenvalues --   -2.19893  -2.19784  -2.19295  -2.18559  -1.15103
  Beta  occ. eigenvalues --   -1.15099  -1.15084  -1.13769  -1.13750  -1.13731
  Beta  occ. eigenvalues --   -1.13699  -1.13612  -1.13605  -1.13592  -1.13547
  Beta  occ. eigenvalues --   -1.13507  -1.13461  -1.13439  -1.13422  -1.13020
  Beta  occ. eigenvalues --   -1.12981  -1.12968  -1.12250  -1.12221  -1.12189
  Beta  occ. eigenvalues --   -0.17212  -0.13478  -0.11498
  Beta virt. eigenvalues --   -0.06930  -0.06381  -0.05711  -0.04135  -0.02679
  Beta virt. eigenvalues --   -0.02382  -0.01832  -0.01513  -0.01229  -0.01091
  Beta virt. eigenvalues --   -0.00324   0.00056   0.00198   0.00610   0.00638

 Mulliken charges and spin densities:
               1          2
     1  Na   0.216524   0.037502
     2  Na   0.035160   0.076333
     3  Na  -0.374605   0.247704
     4  Na   0.291414   0.065375
     5  Na  -0.427295   0.654691
     6  Na   0.122662  -0.065804
     7  Na   0.136138  -0.015800
 Sum of Mulliken charges =  -0.00000   1.00000

 Dipole moment (field-independent basis, Debye):
    X=              1.0802    Y=              0.2474    Z=              0.0456  Tot=              1.1091
 Quadrupole moment (field-independent basis, Debye-Ang):
   XX=            -51.4407   YY=            -64.8722   ZZ=            -77.3673
   XY=             -1.4937   XZ=             -0.0539   YZ=              1.5502

 Normal termination of Gaussian 16 at Thu Dec  7 18:15:41 2023.
