 Gaussian 16, Revision B.01,
 Gaussian 16:  ES64L-G16RevB.01 20-Dec-2017

 -------------------------
 #P B3LYP/6-311+g(d) force
 -------------------------

 -----
 DPGEN
 -----
 Symbolic Z-matrix:
 Charge =  0 Multiplicity = 2

                         Standard orientation:
 ---------------------------------------------------------------------
 Center     Atomic      Atomic             Coordinates (Angstroms)
 Number     Number       Type             X           Y           Z
 ---------------------------------------------------------------------
      1         11           0       -2.097890    1.017235    1.519941
      2         11           0        0.580636   -0.254284   -1.645641
      3         11           0        1.836871   -1.277386    1.691073
      4         11           0        1.598125    2.214376    0.412143
      5         11           0        4.163076   -0.193633   -0.967700
      6         11           0       -4.078814    0.539428   -1.148973
      7         11           0       -2.002005   -2.045736    0.139155
 ---------------------------------------------------------------------

 SCF Done:  E(UB3LYP) =  -1136.11018423     A.U. after   32 cycles

 The electronic state is 2-A.
 Alpha  occ. eigenvalues --  -38.45781 -38.45330 -38.44697 -38.44378 -38.44213
 Alpha  occ. eigenvalues --  -38.43182 -38.43047  -2.21595  -2.21127  -2.20502
 Alpha  occ. eigenvalues --   -2.20201  -2.20007  -2.19006  -2.18882  -1.15302
 Alpha  occ. eigenvalues --   -1.15240  -1.15219  -1.14798  -1.14766  -1.14737
 Alpha  occ. eigenvalues --   -1.14166  -1.14152  -1.14136  -1.13874  -1.13862
 Alpha  occ. eigenvalues --   -1.13834  -1.13681  -1.13662  -1.13640  -1.12713
 Alpha  occ. eigenvalues --   -1.12675  -1.12612  -1.12579  -1.12568  -1.12489
 Alpha  occ. eigenvalues --   -0.17725  -0.14504  -0.10950  -0.10194
 Alpha virt. eigenvalues --   -0.07481  -0.05790  -0.04990  -0.03225  -0.02911
 Alpha virt. eigenvalues --   -0.02277  -0.02116  -0.01770  -0.00991  -0.00475
 Alpha virt. eigenvalues --   -0.00168   0.00115   0.00153   0.00411   0.00506

  Beta  occ. eigenvalues --  -38.45768 -38.45280 -38.44661 -38.44355 -38.44184
  Beta  occ. eigenvalues --  -38.43163 -38.43045  -2.21572  -2.21034  -2.20434
  Beta  occ. eigenvalues --   -2.20160  -2.19957  -2.18972  -2.18881  -1.15274
  Beta  occ. eigenvalues --   -1.15228  -1.15201  -1.14729  -1.14703  -1.14678
  Beta  occ. eigenvalues --   -1.14121  -1.14106  -1.14089  -1.13849  -1.13835
  Beta  occ. eigenvalues --   -1.13781  -1.13638  -1.13619  -1.13606  -1.12694
  Beta  occ. eigenvalues --   -1.12645  -1.12574  -1.12573  -1.12571  -1.12475
  Beta  occ. eigenvalues --   -0.17136  -0.14143  -0.09990
  Beta virt. eigenvalues --   -0.07449  -0.07284  -0.05116  -0.04827  -0.02934
  Beta virt. eigenvalues --   -0.02689  -0.01873  -0.01582  -0.01329  -0.00826
  Beta virt. eigenvalues --   -0.00343  -0.00069   0.00183   0.00243   0.00515

 Mulliken charges and spin densities:
               1          2
     1  Na  -0.130817   0.038528
     2  Na  -0.282755  -0.085048
     3  Na  -0.196461   0.238102
     4  Na  -0.239154   0.187218
     5  Na   0.568526   0.243317
     6  Na   0.232825   0.268555
     7  Na   0.047834   0.109327
 Sum of Mulliken charges =  -0.00000   1.00000

 Dipole moment (field-independent basis, Debye):
    X=              0.6631    Y=             -0.3632    Z=             -0.4697  Tot=              0.8901
 Quadrupole moment (field-independent basis, Debye-Ang):
   XX=            -49.1770   YY=            -83.2749   ZZ=            -64.3193
   XY=             -1.1893   XZ=              2.6677   YZ=              0.0758

 Normal termination of Gaussian 16 at Fri Dec  8 02:22:00 2023.
