 Gaussian 16, Revision B.01,
 Gaussian 16:  ES64L-G16RevB.01 20-Dec-2017

 -------------------------
 #P B3LYP/6-311+g(d) force
 -------------------------

 -----
 DPGEN
 -----
 Symbolic Z-matrix:
 Charge =  0 Multiplicity = 2

                         Standard orientation:
 ---------------------------------------------------------------------
 Center     Atomic      Atomic             Coordinates (Angstroms)
 Number     Number       Type             X           Y           Z
 ---------------------------------------------------------------------
      1         11           0        1.780371   -2.652957   -0.083831
      2         11           0       -3.009807   -1.927944   -0.189626
      3         11           0        3.821502    0.299198    0.002462
      4         11           0       -0.385600   -0.412015    1.631128
      5         11           0       -3.031227    1.453591   -0.098324
      6         11           0        0.159966    0.256738   -1.463596
      7         11           0        0.664797    2.983390    0.201787
 ---------------------------------------------------------------------

 SCF Done:  E(UB3LYP) =  -1136.12418182     A.U. after   26 cycles

 The electronic state is 2-A.
 Alpha  occ. eigenvalues --  -38.45077 -38.44523 -38.44435 -38.44127 -38.43796
 Alpha  occ. eigenvalues --  -38.43134 -38.42727  -2.20836  -2.20419  -2.20253
 Alpha  occ. eigenvalues --   -2.19932  -2.19598  -2.18950  -2.18660  -1.14512
 Alpha  occ. eigenvalues --   -1.14481  -1.14466  -1.14157  -1.14074  -1.14026
 Alpha  occ. eigenvalues --   -1.13934  -1.13916  -1.13880  -1.13605  -1.13579
 Alpha  occ. eigenvalues --   -1.13574  -1.13283  -1.13265  -1.13228  -1.12641
 Alpha  occ. eigenvalues --   -1.12609  -1.12578  -1.12363  -1.12281  -1.12254
 Alpha  occ. eigenvalues --   -0.17994  -0.13512  -0.11913  -0.09602
 Alpha virt. eigenvalues --   -0.06900  -0.05735  -0.04654  -0.02976  -0.02664
 Alpha virt. eigenvalues --   -0.02353  -0.01665  -0.01628  -0.00985  -0.00696
 Alpha virt. eigenvalues --   -0.00115   0.00134   0.00557   0.00687   0.00700

  Beta  occ. eigenvalues --  -38.45052 -38.44508 -38.44418 -38.44111 -38.43794
  Beta  occ. eigenvalues --  -38.43128 -38.42637  -2.20791  -2.20393  -2.20225
  Beta  occ. eigenvalues --   -2.19907  -2.19597  -2.18942  -2.18496  -1.14472
  Beta  occ. eigenvalues --   -1.14451  -1.14435  -1.14117  -1.14062  -1.14009
  Beta  occ. eigenvalues --   -1.13907  -1.13901  -1.13844  -1.13587  -1.13564
  Beta  occ. eigenvalues --   -1.13537  -1.13284  -1.13259  -1.13213  -1.12636
  Beta  occ. eigenvalues --   -1.12594  -1.12568  -1.12253  -1.12173  -1.12130
  Beta  occ. eigenvalues --   -0.17424  -0.13098  -0.11726
  Beta virt. eigenvalues --   -0.06622  -0.06062  -0.05687  -0.04602  -0.02489
  Beta virt. eigenvalues --   -0.02322  -0.01832  -0.01528  -0.01017  -0.00865
  Beta virt. eigenvalues --   -0.00650   0.00071   0.00271   0.00667   0.00717

 Mulliken charges and spin densities:
               1          2
     1  Na   0.042564  -0.091694
     2  Na   0.079693   0.079062
     3  Na   0.043396   0.122095
     4  Na   0.060527   0.448878
     5  Na   0.139621   0.247249
     6  Na  -0.127804   0.269955
     7  Na  -0.237998  -0.075545
 Sum of Mulliken charges =  -0.00000   1.00000

 Dipole moment (field-independent basis, Debye):
    X=              0.2240    Y=              0.0156    Z=              0.3538  Tot=              0.4190
 Quadrupole moment (field-independent basis, Debye-Ang):
   XX=            -56.4584   YY=            -62.8726   ZZ=            -75.1828
   XY=              0.3732   XZ=              1.0554   YZ=              2.5635

 Normal termination of Gaussian 16 at Thu Dec  7 05:06:54 2023.
