 Gaussian 16, Revision B.01,
 Gaussian 16:  ES64L-G16RevB.01 20-Dec-2017

 -------------------------
 #P B3LYP/6-311+g(d) force
 -------------------------

 -----
 DPGEN
 -----
 Symbolic Z-matrix:
 Charge =  0 Multiplicity = 2

                         Standard orientation:
 ---------------------------------------------------------------------
 Center     Atomic      Atomic             Coordinates (Angstroms)
 Number     Number       Type             X           Y           Z
 ---------------------------------------------------------------------
      1         11           0       -2.829989    1.549038    0.066314
      2         11           0       -2.480482   -1.896503    0.022392
      3         11           0        0.230949    0.643619    1.914257
      4         11           0       -0.441416   -0.734441   -1.573741
      5         11           0        1.351623   -2.488421    0.376563
      6         11           0        3.299041    0.009491   -0.288737
      7         11           0        0.870274    2.917217   -0.517047
 ---------------------------------------------------------------------

 SCF Done:  E(UB3LYP) =  -1136.13085499     A.U. after   19 cycles

 The electronic state is 2-A.
 Alpha  occ. eigenvalues --  -38.44420 -38.44383 -38.44042 -38.43624 -38.43444
 Alpha  occ. eigenvalues --  -38.43414 -38.43274  -2.20230  -2.20183  -2.19923
 Alpha  occ. eigenvalues --   -2.19426  -2.19417  -2.19293  -2.19155  -1.13905
 Alpha  occ. eigenvalues --   -1.13895  -1.13869  -1.13861  -1.13849  -1.13821
 Alpha  occ. eigenvalues --   -1.13742  -1.13554  -1.13528  -1.13118  -1.13106
 Alpha  occ. eigenvalues --   -1.13092  -1.13056  -1.13047  -1.13034  -1.12951
 Alpha  occ. eigenvalues --   -1.12942  -1.12916  -1.12828  -1.12788  -1.12770
 Alpha  occ. eigenvalues --   -0.18377  -0.13261  -0.12410  -0.10289
 Alpha virt. eigenvalues --   -0.06054  -0.05422  -0.04651  -0.03230  -0.02990
 Alpha virt. eigenvalues --   -0.02108  -0.01737  -0.01190  -0.00620  -0.00457
 Alpha virt. eigenvalues --   -0.00001   0.00346   0.00748   0.00819   0.00860

  Beta  occ. eigenvalues --  -38.44415 -38.44379 -38.44039 -38.43612 -38.43403
  Beta  occ. eigenvalues --  -38.43393 -38.43194  -2.20223  -2.20180  -2.19919
  Beta  occ. eigenvalues --   -2.19403  -2.19324  -2.19276  -2.19010  -1.13901
  Beta  occ. eigenvalues --   -1.13874  -1.13865  -1.13851  -1.13839  -1.13819
  Beta  occ. eigenvalues --   -1.13727  -1.13534  -1.13528  -1.13088  -1.13068
  Beta  occ. eigenvalues --   -1.13066  -1.13040  -1.12989  -1.12970  -1.12928
  Beta  occ. eigenvalues --   -1.12914  -1.12886  -1.12732  -1.12683  -1.12664
  Beta  occ. eigenvalues --   -0.17698  -0.13039  -0.12194
  Beta virt. eigenvalues --   -0.06509  -0.06017  -0.05354  -0.04531  -0.02500
  Beta virt. eigenvalues --   -0.02266  -0.01654  -0.01180  -0.01122  -0.00643
  Beta virt. eigenvalues --   -0.00449   0.00155   0.00391   0.00806   0.00832

 Mulliken charges and spin densities:
               1          2
     1  Na   0.030727  -0.088169
     2  Na   0.470407  -0.024937
     3  Na  -0.308314   0.596976
     4  Na  -0.208727   0.511395
     5  Na   0.158770   0.001033
     6  Na  -0.007682  -0.002285
     7  Na  -0.135180   0.005987
 Sum of Mulliken charges =  -0.00000   1.00000

 Dipole moment (field-independent basis, Debye):
    X=             -0.1538    Y=              0.1365    Z=              0.0725  Tot=              0.2180
 Quadrupole moment (field-independent basis, Debye-Ang):
   XX=            -53.8016   YY=            -63.6474   ZZ=            -75.7942
   XY=             -0.5367   XZ=             -1.5041   YZ=             -2.7136

 Normal termination of Gaussian 16 at Tue Dec  5 18:38:29 2023.
