 Gaussian 16, Revision B.01,
 Gaussian 16:  ES64L-G16RevB.01 20-Dec-2017

 -------------------------
 #P B3LYP/6-311+g(d) force
 -------------------------

 -----
 DPGEN
 -----
 Symbolic Z-matrix:
 Charge =  0 Multiplicity = 2

                         Standard orientation:
 ---------------------------------------------------------------------
 Center     Atomic      Atomic             Coordinates (Angstroms)
 Number     Number       Type             X           Y           Z
 ---------------------------------------------------------------------
      1         11           0       -2.073987   -2.176980   -0.545042
      2         11           0       -5.249889   -0.414990   -0.548028
      3         11           0        4.264877   -1.677682   -0.095240
      4         11           0        3.933998    1.717500   -1.025091
      5         11           0        0.426610    2.549579    0.604407
      6         11           0       -2.473389    2.026216    0.469618
      7         11           0        1.171780   -2.023644    1.139376
 ---------------------------------------------------------------------

 SCF Done:  E(UB3LYP) =  -1136.11005251     A.U. after   22 cycles

 The electronic state is 2-A.
 Alpha  occ. eigenvalues --  -38.45332 -38.44962 -38.44911 -38.44484 -38.44332
 Alpha  occ. eigenvalues --  -38.44149 -38.43119  -2.21095  -2.20707  -2.20687
 Alpha  occ. eigenvalues --   -2.20277  -2.20157  -2.19946  -2.18943  -1.14763
 Alpha  occ. eigenvalues --   -1.14734  -1.14722  -1.14402  -1.14387  -1.14365
 Alpha  occ. eigenvalues --   -1.14357  -1.14332  -1.14332  -1.13927  -1.13923
 Alpha  occ. eigenvalues --   -1.13889  -1.13875  -1.13821  -1.13774  -1.13607
 Alpha  occ. eigenvalues --   -1.13597  -1.13575  -1.12628  -1.12592  -1.12577
 Alpha  occ. eigenvalues --   -0.16031  -0.14182  -0.12246  -0.11281
 Alpha virt. eigenvalues --   -0.07280  -0.05233  -0.04233  -0.03690  -0.03482
 Alpha virt. eigenvalues --   -0.02620  -0.01864  -0.01692  -0.01173  -0.00916
 Alpha virt. eigenvalues --   -0.00300  -0.00215  -0.00052   0.00458   0.00596

  Beta  occ. eigenvalues --  -38.45279 -38.44957 -38.44917 -38.44409 -38.44308
  Beta  occ. eigenvalues --  -38.44100 -38.43103  -2.20998  -2.20703  -2.20701
  Beta  occ. eigenvalues --   -2.20136  -2.20117  -2.19855  -2.18917  -1.14697
  Beta  occ. eigenvalues --   -1.14672  -1.14651  -1.14404  -1.14384  -1.14378
  Beta  occ. eigenvalues --   -1.14369  -1.14322  -1.14296  -1.13832  -1.13831
  Beta  occ. eigenvalues --   -1.13821  -1.13798  -1.13796  -1.13743  -1.13546
  Beta  occ. eigenvalues --   -1.13535  -1.13513  -1.12599  -1.12574  -1.12559
  Beta  occ. eigenvalues --   -0.15450  -0.13543  -0.11764
  Beta virt. eigenvalues --   -0.08006  -0.07224  -0.04671  -0.03831  -0.03440
  Beta virt. eigenvalues --   -0.03183  -0.02378  -0.01724  -0.01246  -0.00941
  Beta virt. eigenvalues --   -0.00668  -0.00227   0.00029   0.00076   0.00564

 Mulliken charges and spin densities:
               1          2
     1  Na  -0.135548   0.059838
     2  Na   0.462003   0.346896
     3  Na   0.327245  -0.023058
     4  Na   0.211114   0.322579
     5  Na  -0.060746  -0.115302
     6  Na  -0.254506   0.164671
     7  Na  -0.549562   0.244376
 Sum of Mulliken charges =  -0.00000   1.00000

 Dipole moment (field-independent basis, Debye):
    X=              0.4671    Y=             -0.4902    Z=             -0.5176  Tot=              0.8523
 Quadrupole moment (field-independent basis, Debye-Ang):
   XX=            -52.9754   YY=            -71.9936   ZZ=            -71.1044
   XY=             -1.6724   XZ=             -1.0797   YZ=             -0.5512

 Normal termination of Gaussian 16 at Sun Dec  3 19:06:53 2023.
