 Gaussian 16, Revision B.01,
 Gaussian 16:  ES64L-G16RevB.01 20-Dec-2017

 -------------------------
 #P B3LYP/6-311+g(d) force
 -------------------------

 -----
 DPGEN
 -----
 Symbolic Z-matrix:
 Charge =  0 Multiplicity = 2

                         Standard orientation:
 ---------------------------------------------------------------------
 Center     Atomic      Atomic             Coordinates (Angstroms)
 Number     Number       Type             X           Y           Z
 ---------------------------------------------------------------------
      1         11           0       -2.088280    2.175709    0.333928
      2         11           0        0.406537   -2.705803   -0.061554
      3         11           0        3.080588   -0.242408    0.069760
      4         11           0       -0.056955   -0.527038    1.958180
      5         11           0        0.099214   -0.168573   -1.724031
      6         11           0        1.477928    2.424956   -0.202902
      7         11           0       -2.919032   -0.956843   -0.373381
 ---------------------------------------------------------------------

 SCF Done:  E(UB3LYP) =  -1136.13526807     A.U. after   19 cycles

 The electronic state is 2-A.
 Alpha  occ. eigenvalues --  -38.44077 -38.44072 -38.43603 -38.43522 -38.43329
 Alpha  occ. eigenvalues --  -38.43241 -38.43195  -2.19941  -2.19924  -2.19537
 Alpha  occ. eigenvalues --   -2.19353  -2.19328  -2.19127  -2.19116  -1.13634
 Alpha  occ. eigenvalues --   -1.13608  -1.13605  -1.13587  -1.13576  -1.13558
 Alpha  occ. eigenvalues --   -1.13263  -1.13176  -1.13140  -1.13061  -1.13019
 Alpha  occ. eigenvalues --   -1.13017  -1.13003  -1.12988  -1.12939  -1.12793
 Alpha  occ. eigenvalues --   -1.12792  -1.12777  -1.12766  -1.12747  -1.12713
 Alpha  occ. eigenvalues --   -0.18984  -0.13245  -0.12457  -0.10931
 Alpha virt. eigenvalues --   -0.05711  -0.05053  -0.04485  -0.03299  -0.02949
 Alpha virt. eigenvalues --   -0.02613  -0.01600  -0.00932  -0.00204  -0.00178
 Alpha virt. eigenvalues --    0.00002   0.00364   0.00840   0.00896   0.00937

  Beta  occ. eigenvalues --  -38.44069 -38.44068 -38.43518 -38.43516 -38.43254
  Beta  occ. eigenvalues --  -38.43237 -38.43184  -2.19938  -2.19912  -2.19376
  Beta  occ. eigenvalues --   -2.19347  -2.19194  -2.19113  -2.19112  -1.13635
  Beta  occ. eigenvalues --   -1.13596  -1.13587  -1.13566  -1.13560  -1.13555
  Beta  occ. eigenvalues --   -1.13163  -1.13064  -1.13028  -1.13008  -1.13002
  Beta  occ. eigenvalues --   -1.12994  -1.12982  -1.12902  -1.12844  -1.12778
  Beta  occ. eigenvalues --   -1.12768  -1.12759  -1.12737  -1.12723  -1.12700
  Beta  occ. eigenvalues --   -0.18245  -0.13009  -0.12192
  Beta virt. eigenvalues --   -0.06996  -0.05680  -0.05033  -0.04440  -0.02515
  Beta virt. eigenvalues --   -0.02156  -0.01545  -0.01515  -0.00865  -0.00257
  Beta virt. eigenvalues --   -0.00199   0.00128   0.00394   0.00881   0.00905

 Mulliken charges and spin densities:
               1          2
     1  Na  -0.097142  -0.017544
     2  Na   0.453594  -0.111146
     3  Na   0.213874  -0.043213
     4  Na  -0.526504   0.725279
     5  Na  -0.250548   0.538060
     6  Na   0.003222  -0.038812
     7  Na   0.203504  -0.052625
 Sum of Mulliken charges =  -0.00000   1.00000

 Dipole moment (field-independent basis, Debye):
    X=             -0.0681    Y=             -0.1413    Z=              0.1084  Tot=              0.1906
 Quadrupole moment (field-independent basis, Debye-Ang):
   XX=            -56.0562   YY=            -64.8324   ZZ=            -73.4271
   XY=             -0.1209   XZ=              0.5518   YZ=              1.0109

 Normal termination of Gaussian 16 at Thu Dec  7 18:20:20 2023.
