 Gaussian 16, Revision B.01,
 Gaussian 16:  ES64L-G16RevB.01 20-Dec-2017

 -------------------------
 #P B3LYP/6-311+g(d) force
 -------------------------

 -----
 DPGEN
 -----
 Symbolic Z-matrix:
 Charge =  0 Multiplicity = 2

                         Standard orientation:
 ---------------------------------------------------------------------
 Center     Atomic      Atomic             Coordinates (Angstroms)
 Number     Number       Type             X           Y           Z
 ---------------------------------------------------------------------
      1         11           0        0.348657   -0.069286    2.210784
      2         11           0        1.793893   -2.437142   -0.149218
      3         11           0       -0.095793    3.035202    0.041705
      4         11           0        0.292930   -0.003310   -1.495590
      5         11           0        2.770684    0.758598   -0.309975
      6         11           0       -2.347118   -2.312167   -0.059635
      7         11           0       -2.763253    1.028105   -0.238070
 ---------------------------------------------------------------------

 SCF Done:  E(UB3LYP) =  -1136.13348671     A.U. after   19 cycles

 The electronic state is 2-A.
 Alpha  occ. eigenvalues --  -38.43896 -38.43840 -38.43822 -38.43792 -38.43635
 Alpha  occ. eigenvalues --  -38.43319 -38.43261  -2.19824  -2.19701  -2.19685
 Alpha  occ. eigenvalues --   -2.19580  -2.19485  -2.19304  -2.19168  -1.13650
 Alpha  occ. eigenvalues --   -1.13471  -1.13442  -1.13396  -1.13361  -1.13334
 Alpha  occ. eigenvalues --   -1.13315  -1.13308  -1.13297  -1.13260  -1.13252
 Alpha  occ. eigenvalues --   -1.13223  -1.13171  -1.13148  -1.13112  -1.12970
 Alpha  occ. eigenvalues --   -1.12927  -1.12920  -1.12827  -1.12826  -1.12809
 Alpha  occ. eigenvalues --   -0.18706  -0.13125  -0.12395  -0.10857
 Alpha virt. eigenvalues --   -0.05541  -0.05106  -0.04887  -0.03149  -0.02847
 Alpha virt. eigenvalues --   -0.02715  -0.01329  -0.01238  -0.00449  -0.00306
 Alpha virt. eigenvalues --   -0.00017   0.00342   0.00836   0.00862   0.00875

  Beta  occ. eigenvalues --  -38.43882 -38.43833 -38.43794 -38.43714 -38.43631
  Beta  occ. eigenvalues --  -38.43317 -38.43205  -2.19804  -2.19694  -2.19586
  Beta  occ. eigenvalues --   -2.19486  -2.19479  -2.19205  -2.19166  -1.13624
  Beta  occ. eigenvalues --   -1.13444  -1.13415  -1.13385  -1.13329  -1.13311
  Beta  occ. eigenvalues --   -1.13266  -1.13245  -1.13228  -1.13206  -1.13170
  Beta  occ. eigenvalues --   -1.13164  -1.13156  -1.13133  -1.13114  -1.12906
  Beta  occ. eigenvalues --   -1.12866  -1.12847  -1.12820  -1.12805  -1.12798
  Beta  occ. eigenvalues --   -0.17976  -0.12890  -0.12203
  Beta virt. eigenvalues --   -0.06841  -0.05536  -0.05055  -0.04857  -0.02368
  Beta virt. eigenvalues --   -0.02080  -0.01622  -0.01249  -0.01168  -0.00496
  Beta virt. eigenvalues --   -0.00351   0.00145   0.00382   0.00843   0.00886

 Mulliken charges and spin densities:
               1          2
     1  Na  -0.661156   0.788567
     2  Na   0.189977  -0.009851
     3  Na   0.173659   0.021704
     4  Na  -0.375657   0.171866
     5  Na   0.637905   0.106773
     6  Na  -0.017731  -0.051125
     7  Na   0.053003  -0.027936
 Sum of Mulliken charges =  -0.00000   1.00000

 Dipole moment (field-independent basis, Debye):
    X=              0.1414    Y=             -0.1944    Z=              0.2593  Tot=              0.3536
 Quadrupole moment (field-independent basis, Debye-Ang):
   XX=            -59.8661   YY=            -59.8836   ZZ=            -74.3837
   XY=             -0.1754   XZ=             -0.1908   YZ=              0.1026

 Normal termination of Gaussian 16 at Thu Dec  7 02:07:04 2023.
