 Gaussian 16, Revision B.01,
 Gaussian 16:  ES64L-G16RevB.01 20-Dec-2017

 -------------------------
 #P B3LYP/6-311+g(d) force
 -------------------------

 -----
 DPGEN
 -----
 Symbolic Z-matrix:
 Charge =  0 Multiplicity = 2

                         Standard orientation:
 ---------------------------------------------------------------------
 Center     Atomic      Atomic             Coordinates (Angstroms)
 Number     Number       Type             X           Y           Z
 ---------------------------------------------------------------------
      1         11           0        0.081464    1.084736   -1.312505
      2         11           0        0.775727   -0.479595    1.860470
      3         11           0       -3.703965    1.806188   -0.177069
      4         11           0       -2.732307   -0.889299    0.737133
      5         11           0       -0.620894   -2.525691   -0.934628
      6         11           0        3.137249   -1.318177   -0.366310
      7         11           0        3.062726    2.321837    0.192908
 ---------------------------------------------------------------------

 SCF Done:  E(UB3LYP) =  -1136.11848577     A.U. after   25 cycles

 The electronic state is 2-A.
 Alpha  occ. eigenvalues --  -38.45805 -38.44348 -38.44261 -38.44022 -38.43869
 Alpha  occ. eigenvalues --  -38.43830 -38.43026  -2.21590  -2.20146  -2.20043
 Alpha  occ. eigenvalues --   -2.19857  -2.19738  -2.19733  -2.18881  -1.15283
 Alpha  occ. eigenvalues --   -1.15245  -1.15211  -1.13885  -1.13797  -1.13779
 Alpha  occ. eigenvalues --   -1.13719  -1.13709  -1.13679  -1.13569  -1.13506
 Alpha  occ. eigenvalues --   -1.13457  -1.13425  -1.13416  -1.13393  -1.13385
 Alpha  occ. eigenvalues --   -1.13363  -1.13325  -1.12564  -1.12535  -1.12504
 Alpha  occ. eigenvalues --   -0.17974  -0.13937  -0.11517  -0.10226
 Alpha virt. eigenvalues --   -0.07100  -0.06105  -0.04082  -0.03428  -0.02733
 Alpha virt. eigenvalues --   -0.02360  -0.02050  -0.01636  -0.01026  -0.00284
 Alpha virt. eigenvalues --   -0.00140   0.00124   0.00314   0.00500   0.00630

  Beta  occ. eigenvalues --  -38.45798 -38.44357 -38.44261 -38.43965 -38.43817
  Beta  occ. eigenvalues --  -38.43798 -38.43001  -2.21581  -2.20164  -2.20043
  Beta  occ. eigenvalues --   -2.19754  -2.19712  -2.19605  -2.18838  -1.15263
  Beta  occ. eigenvalues --   -1.15231  -1.15204  -1.13895  -1.13807  -1.13787
  Beta  occ. eigenvalues --   -1.13720  -1.13696  -1.13679  -1.13494  -1.13423
  Beta  occ. eigenvalues --   -1.13393  -1.13387  -1.13374  -1.13346  -1.13326
  Beta  occ. eigenvalues --   -1.13296  -1.13234  -1.12537  -1.12493  -1.12468
  Beta  occ. eigenvalues --   -0.17296  -0.13781  -0.11336
  Beta virt. eigenvalues --   -0.06987  -0.06461  -0.05979  -0.03786  -0.02930
  Beta virt. eigenvalues --   -0.02528  -0.01887  -0.01638  -0.01052  -0.01013
  Beta virt. eigenvalues --   -0.00116  -0.00038   0.00173   0.00441   0.00570

 Mulliken charges and spin densities:
               1          2
     1  Na  -0.604467   0.416712
     2  Na  -0.146265   0.394549
     3  Na  -0.012634  -0.136459
     4  Na   0.372968   0.237303
     5  Na  -0.147163   0.080853
     6  Na   0.337837   0.069309
     7  Na   0.199723  -0.062267
 Sum of Mulliken charges =  -0.00000   1.00000

 Dipole moment (field-independent basis, Debye):
    X=              1.2093    Y=             -0.0129    Z=             -0.2638  Tot=              1.2378
 Quadrupole moment (field-independent basis, Debye-Ang):
   XX=            -50.9362   YY=            -66.4378   ZZ=            -76.3170
   XY=             -1.9614   XZ=             -0.9266   YZ=              2.0966

 Normal termination of Gaussian 16 at Thu Dec  7 22:51:02 2023.
