 Gaussian 16, Revision B.01,
 Gaussian 16:  ES64L-G16RevB.01 20-Dec-2017

 -------------------------
 #P B3LYP/6-311+g(d) force
 -------------------------

 -----
 DPGEN
 -----
 Symbolic Z-matrix:
 Charge =  0 Multiplicity = 2

                         Standard orientation:
 ---------------------------------------------------------------------
 Center     Atomic      Atomic             Coordinates (Angstroms)
 Number     Number       Type             X           Y           Z
 ---------------------------------------------------------------------
      1         11           0       -1.691135   -2.423738   -0.377914
      2         11           0        2.530721    1.813915    0.140949
      3         11           0        0.164690   -0.043418    1.919307
      4         11           0        0.264691   -0.316853   -1.714659
      5         11           0       -2.801407    0.470820    0.547796
      6         11           0        2.293075   -2.259427    0.093154
      7         11           0       -0.760635    2.758701   -0.608633
 ---------------------------------------------------------------------

 SCF Done:  E(UB3LYP) =  -1136.13710559     A.U. after   19 cycles

 The electronic state is 2-A.
 Alpha  occ. eigenvalues --  -38.43998 -38.43971 -38.43741 -38.43528 -38.43406
 Alpha  occ. eigenvalues --  -38.43294 -38.43245  -2.19805  -2.19787  -2.19606
 Alpha  occ. eigenvalues --   -2.19450  -2.19268  -2.19214  -2.19191  -1.13490
 Alpha  occ. eigenvalues --   -1.13473  -1.13469  -1.13452  -1.13434  -1.13417
 Alpha  occ. eigenvalues --   -1.13322  -1.13267  -1.13234  -1.13130  -1.13085
 Alpha  occ. eigenvalues --   -1.13070  -1.12973  -1.12943  -1.12906  -1.12883
 Alpha  occ. eigenvalues --   -1.12856  -1.12842  -1.12830  -1.12827  -1.12815
 Alpha  occ. eigenvalues --   -0.18724  -0.12799  -0.12623  -0.10927
 Alpha virt. eigenvalues --   -0.05689  -0.05045  -0.04533  -0.03209  -0.03100
 Alpha virt. eigenvalues --   -0.02609  -0.01363  -0.01312  -0.00264  -0.00174
 Alpha virt. eigenvalues --    0.00056   0.00375   0.00821   0.00887   0.00904

  Beta  occ. eigenvalues --  -38.43996 -38.43969 -38.43732 -38.43443 -38.43392
  Beta  occ. eigenvalues --  -38.43282 -38.43176  -2.19804  -2.19785  -2.19593
  Beta  occ. eigenvalues --   -2.19293  -2.19246  -2.19173  -2.19087  -1.13481
  Beta  occ. eigenvalues --   -1.13466  -1.13460  -1.13444  -1.13431  -1.13415
  Beta  occ. eigenvalues --   -1.13306  -1.13240  -1.13227  -1.13029  -1.12972
  Beta  occ. eigenvalues --   -1.12965  -1.12952  -1.12911  -1.12887  -1.12831
  Beta  occ. eigenvalues --   -1.12811  -1.12801  -1.12793  -1.12752  -1.12737
  Beta  occ. eigenvalues --   -0.17990  -0.12554  -0.12365
  Beta virt. eigenvalues --   -0.07021  -0.05704  -0.04952  -0.04492  -0.02428
  Beta virt. eigenvalues --   -0.02343  -0.01582  -0.01271  -0.01243  -0.00234
  Beta virt. eigenvalues --   -0.00210   0.00139   0.00400   0.00817   0.00911

 Mulliken charges and spin densities:
               1          2
     1  Na   0.093930  -0.051489
     2  Na   0.006690  -0.060864
     3  Na  -0.164287   0.620158
     4  Na  -0.017313   0.458526
     5  Na   0.172452   0.105733
     6  Na  -0.092867  -0.116704
     7  Na   0.001395   0.044639
 Sum of Mulliken charges =  -0.00000   1.00000

 Dipole moment (field-independent basis, Debye):
    X=              0.4758    Y=             -0.2037    Z=              0.0872  Tot=              0.5249
 Quadrupole moment (field-independent basis, Debye-Ang):
   XX=            -59.2687   YY=            -60.7261   ZZ=            -73.5232
   XY=             -0.0044   XZ=              0.4166   YZ=             -0.5472

 Normal termination of Gaussian 16 at Tue Dec  5 11:46:56 2023.
