 Gaussian 16, Revision B.01,
 Gaussian 16:  ES64L-G16RevB.01 20-Dec-2017

 -------------------------
 #P B3LYP/6-311+g(d) force
 -------------------------

 -----
 DPGEN
 -----
 Symbolic Z-matrix:
 Charge =  0 Multiplicity = 2

                         Standard orientation:
 ---------------------------------------------------------------------
 Center     Atomic      Atomic             Coordinates (Angstroms)
 Number     Number       Type             X           Y           Z
 ---------------------------------------------------------------------
      1         11           0       -2.736589    1.858458   -0.169895
      2         11           0        3.085887    0.522198   -0.337540
      3         11           0       -0.284771   -0.269667   -1.574672
      4         11           0        0.954042    2.541332    0.078677
      5         11           0        1.775314   -2.373693   -0.015555
      6         11           0       -0.228905   -0.281464    2.251410
      7         11           0       -2.564978   -1.997164   -0.232426
 ---------------------------------------------------------------------

 SCF Done:  E(UB3LYP) =  -1136.13102564     A.U. after   20 cycles

 The electronic state is 2-A.
 Alpha  occ. eigenvalues --  -38.44359 -38.44304 -38.43961 -38.43881 -38.43643
 Alpha  occ. eigenvalues --  -38.43335 -38.43116  -2.20142  -2.20114  -2.19854
 Alpha  occ. eigenvalues --   -2.19728  -2.19494  -2.19300  -2.18996  -1.13824
 Alpha  occ. eigenvalues --   -1.13819  -1.13796  -1.13782  -1.13766  -1.13735
 Alpha  occ. eigenvalues --   -1.13581  -1.13513  -1.13494  -1.13382  -1.13350
 Alpha  occ. eigenvalues --   -1.13347  -1.13181  -1.13151  -1.13126  -1.12983
 Alpha  occ. eigenvalues --   -1.12949  -1.12919  -1.12680  -1.12646  -1.12630
 Alpha  occ. eigenvalues --   -0.18473  -0.13301  -0.12088  -0.10860
 Alpha virt. eigenvalues --   -0.05940  -0.05645  -0.04143  -0.03331  -0.02825
 Alpha virt. eigenvalues --   -0.02735  -0.01703  -0.01391  -0.00471  -0.00161
 Alpha virt. eigenvalues --   -0.00050   0.00318   0.00706   0.00784   0.00912

  Beta  occ. eigenvalues --  -38.44358 -38.44299 -38.43956 -38.43770 -38.43638
  Beta  occ. eigenvalues --  -38.43285 -38.43111  -2.20142  -2.20107  -2.19847
  Beta  occ. eigenvalues --   -2.19523  -2.19488  -2.19208  -2.18991  -1.13812
  Beta  occ. eigenvalues --   -1.13807  -1.13795  -1.13782  -1.13752  -1.13732
  Beta  occ. eigenvalues --   -1.13580  -1.13511  -1.13470  -1.13246  -1.13209
  Beta  occ. eigenvalues --   -1.13202  -1.13172  -1.13136  -1.13114  -1.12918
  Beta  occ. eigenvalues --   -1.12883  -1.12852  -1.12678  -1.12631  -1.12615
  Beta  occ. eigenvalues --   -0.17766  -0.13079  -0.11884
  Beta virt. eigenvalues --   -0.06883  -0.05957  -0.05558  -0.04116  -0.02577
  Beta virt. eigenvalues --   -0.02008  -0.01699  -0.01588  -0.01343  -0.00522
  Beta virt. eigenvalues --   -0.00184   0.00115   0.00360   0.00776   0.00807

 Mulliken charges and spin densities:
               1          2
     1  Na   0.080804  -0.024826
     2  Na   0.019654   0.024220
     3  Na  -0.296365   0.208018
     4  Na   0.209339   0.066243
     5  Na   0.402641   0.046352
     6  Na  -0.629110   0.726133
     7  Na   0.213038  -0.046139
 Sum of Mulliken charges =  -0.00000   1.00000

 Dipole moment (field-independent basis, Debye):
    X=             -0.6263    Y=             -0.2583    Z=              0.1221  Tot=              0.6884
 Quadrupole moment (field-independent basis, Debye-Ang):
   XX=            -54.6087   YY=            -65.3157   ZZ=            -74.2486
   XY=             -0.6316   XZ=             -0.4451   YZ=             -0.1322

 Normal termination of Gaussian 16 at Fri Dec  8 03:18:21 2023.
