 Gaussian 16, Revision B.01,
 Gaussian 16:  ES64L-G16RevB.01 20-Dec-2017

 -------------------------
 #P B3LYP/6-311+g(d) force
 -------------------------

 -----
 DPGEN
 -----
 Symbolic Z-matrix:
 Charge =  0 Multiplicity = 2

                         Standard orientation:
 ---------------------------------------------------------------------
 Center     Atomic      Atomic             Coordinates (Angstroms)
 Number     Number       Type             X           Y           Z
 ---------------------------------------------------------------------
      1         11           0       -0.053726   -0.379641   -1.527905
      2         11           0        3.506528   -1.481633   -0.821481
      3         11           0       -3.964001   -0.206422   -1.067883
      4         11           0       -1.564067    1.601184    1.060875
      5         11           0       -1.297980   -1.948999    1.179118
      6         11           0        1.584444   -0.051201    1.716572
      7         11           0        1.788801    2.466711   -0.539296
 ---------------------------------------------------------------------

 SCF Done:  E(UB3LYP) =  -1136.12550865     A.U. after   25 cycles

 The electronic state is 2-A.
 Alpha  occ. eigenvalues --  -38.44953 -38.44519 -38.43972 -38.43929 -38.43779
 Alpha  occ. eigenvalues --  -38.43352 -38.43067  -2.20730  -2.20388  -2.19782
 Alpha  occ. eigenvalues --   -2.19748  -2.19687  -2.19203  -2.18892  -1.14396
 Alpha  occ. eigenvalues --   -1.14387  -1.14340  -1.14113  -1.14045  -1.13987
 Alpha  occ. eigenvalues --   -1.13483  -1.13442  -1.13431  -1.13400  -1.13392
 Alpha  occ. eigenvalues --   -1.13389  -1.13367  -1.13336  -1.13290  -1.12902
 Alpha  occ. eigenvalues --   -1.12881  -1.12804  -1.12578  -1.12555  -1.12506
 Alpha  occ. eigenvalues --   -0.18257  -0.13549  -0.11340  -0.10864
 Alpha virt. eigenvalues --   -0.06714  -0.05188  -0.04632  -0.03001  -0.02707
 Alpha virt. eigenvalues --   -0.02488  -0.02219  -0.01290  -0.00878  -0.00167
 Alpha virt. eigenvalues --    0.00076   0.00161   0.00292   0.00589   0.00692

  Beta  occ. eigenvalues --  -38.44916 -38.44489 -38.43963 -38.43882 -38.43734
  Beta  occ. eigenvalues --  -38.43336 -38.43058  -2.20660  -2.20334  -2.19731
  Beta  occ. eigenvalues --   -2.19700  -2.19610  -2.19178  -2.18876  -1.14345
  Beta  occ. eigenvalues --   -1.14336  -1.14297  -1.14064  -1.14008  -1.13946
  Beta  occ. eigenvalues --   -1.13427  -1.13418  -1.13384  -1.13374  -1.13369
  Beta  occ. eigenvalues --   -1.13335  -1.13309  -1.13261  -1.13239  -1.12885
  Beta  occ. eigenvalues --   -1.12835  -1.12793  -1.12561  -1.12547  -1.12492
  Beta  occ. eigenvalues --   -0.17510  -0.13260  -0.10727
  Beta virt. eigenvalues --   -0.07522  -0.06434  -0.05027  -0.04178  -0.02774
  Beta virt. eigenvalues --   -0.02316  -0.02001  -0.01625  -0.01080  -0.00619
  Beta virt. eigenvalues --   -0.00043   0.00146   0.00204   0.00375   0.00656

 Mulliken charges and spin densities:
               1          2
     1  Na  -0.358788   0.332983
     2  Na  -0.053894   0.101712
     3  Na   0.236159   0.155659
     4  Na  -0.147534   0.122755
     5  Na  -0.037807   0.208126
     6  Na   0.455576   0.006666
     7  Na  -0.093711   0.072098
 Sum of Mulliken charges =  -0.00000   1.00000

 Dipole moment (field-independent basis, Debye):
    X=             -0.7600    Y=             -0.0532    Z=             -0.1750  Tot=              0.7817
 Quadrupole moment (field-independent basis, Debye-Ang):
   XX=            -50.8587   YY=            -75.2413   ZZ=            -67.2491
   XY=              1.0284   XZ=              0.6982   YZ=             -1.3296

 Normal termination of Gaussian 16 at Tue Dec  5 11:35:40 2023.
