 Gaussian 16, Revision B.01,
 Gaussian 16:  ES64L-G16RevB.01 20-Dec-2017

 -------------------------
 #P B3LYP/6-311+g(d) force
 -------------------------

 -----
 DPGEN
 -----
 Symbolic Z-matrix:
 Charge =  0 Multiplicity = 2

                         Standard orientation:
 ---------------------------------------------------------------------
 Center     Atomic      Atomic             Coordinates (Angstroms)
 Number     Number       Type             X           Y           Z
 ---------------------------------------------------------------------
      1         11           0        0.046618   -2.407844   -1.772830
      2         11           0       -0.165112    0.185490    0.956510
      3         11           0       -2.457039   -2.267051    0.264516
      4         11           0        2.543636    0.463375   -1.252959
      5         11           0        3.542796   -0.390741    2.051010
      6         11           0       -3.300296    1.388978    1.048841
      7         11           0       -0.210603    3.027793   -1.295089
 ---------------------------------------------------------------------

 SCF Done:  E(UB3LYP) =  -1136.12491657     A.U. after   20 cycles

 The electronic state is 2-A.
 Alpha  occ. eigenvalues --  -38.44645 -38.44265 -38.44043 -38.43959 -38.43718
 Alpha  occ. eigenvalues --  -38.43578 -38.43536  -2.20442  -2.20040  -2.19828
 Alpha  occ. eigenvalues --   -2.19774  -2.19615  -2.19405  -2.19356  -1.14090
 Alpha  occ. eigenvalues --   -1.14080  -1.14048  -1.13709  -1.13694  -1.13658
 Alpha  occ. eigenvalues --   -1.13513  -1.13487  -1.13465  -1.13455  -1.13436
 Alpha  occ. eigenvalues --   -1.13416  -1.13330  -1.13278  -1.13238  -1.13111
 Alpha  occ. eigenvalues --   -1.13086  -1.13044  -1.13015  -1.12997  -1.12956
 Alpha  occ. eigenvalues --   -0.17202  -0.13320  -0.11930  -0.11243
 Alpha virt. eigenvalues --   -0.05709  -0.05593  -0.05054  -0.03217  -0.02844
 Alpha virt. eigenvalues --   -0.02563  -0.01961  -0.00984  -0.00862  -0.00322
 Alpha virt. eigenvalues --   -0.00192   0.00132   0.00242   0.00259   0.00769

  Beta  occ. eigenvalues --  -38.44552 -38.44221 -38.44033 -38.43951 -38.43709
  Beta  occ. eigenvalues --  -38.43586 -38.43502  -2.20267  -2.19958  -2.19809
  Beta  occ. eigenvalues --   -2.19765  -2.19601  -2.19421  -2.19292  -1.13968
  Beta  occ. eigenvalues --   -1.13961  -1.13935  -1.13653  -1.13639  -1.13599
  Beta  occ. eigenvalues --   -1.13498  -1.13475  -1.13462  -1.13442  -1.13424
  Beta  occ. eigenvalues --   -1.13381  -1.13296  -1.13274  -1.13233  -1.13110
  Beta  occ. eigenvalues --   -1.13096  -1.13046  -1.12969  -1.12957  -1.12925
  Beta  occ. eigenvalues --   -0.16710  -0.12783  -0.11655
  Beta virt. eigenvalues --   -0.07798  -0.05465  -0.05085  -0.04690  -0.02974
  Beta virt. eigenvalues --   -0.02547  -0.02033  -0.01687  -0.00923  -0.00509
  Beta virt. eigenvalues --   -0.00151  -0.00019   0.00279   0.00405   0.00480

 Mulliken charges and spin densities:
               1          2
     1  Na  -0.105211   0.197422
     2  Na  -1.378157   0.015620
     3  Na   0.178256   0.046786
     4  Na   0.396411   0.055061
     5  Na   0.297363   0.390275
     6  Na   0.814972   0.031136
     7  Na  -0.203633   0.263700
 Sum of Mulliken charges =  -0.00000   1.00000

 Dipole moment (field-independent basis, Debye):
    X=             -0.1065    Y=              0.2170    Z=             -0.1654  Tot=              0.2929
 Quadrupole moment (field-independent basis, Debye-Ang):
   XX=            -57.9247   YY=            -69.6631   ZZ=            -66.6070
   XY=             -1.0685   XZ=             -1.5971   YZ=             -2.6212

 Normal termination of Gaussian 16 at Tue Dec  5 22:09:23 2023.
