 Gaussian 16, Revision B.01,
 Gaussian 16:  ES64L-G16RevB.01 20-Dec-2017

 -------------------------
 #P B3LYP/6-311+g(d) force
 -------------------------

 -----
 DPGEN
 -----
 Symbolic Z-matrix:
 Charge =  0 Multiplicity = 2

                         Standard orientation:
 ---------------------------------------------------------------------
 Center     Atomic      Atomic             Coordinates (Angstroms)
 Number     Number       Type             X           Y           Z
 ---------------------------------------------------------------------
      1         11           0       -2.961195    0.699487   -0.630111
      2         11           0        3.367434    0.746402   -0.238112
      3         11           0       -0.337007   -0.112208    2.153404
      4         11           0       -2.162508   -2.405961   -0.070574
      5         11           0        2.201571   -2.081716    0.027072
      6         11           0       -0.379877    3.003091    0.327485
      7         11           0        0.271582    0.150905   -1.569163
 ---------------------------------------------------------------------

 SCF Done:  E(UB3LYP) =  -1136.13262034     A.U. after   20 cycles

 The electronic state is 2-A.
 Alpha  occ. eigenvalues --  -38.44642 -38.44084 -38.43931 -38.43744 -38.43644
 Alpha  occ. eigenvalues --  -38.43395 -38.42922  -2.20474  -2.19946  -2.19787
 Alpha  occ. eigenvalues --   -2.19601  -2.19575  -2.19214  -2.18743  -1.14166
 Alpha  occ. eigenvalues --   -1.14137  -1.14105  -1.13633  -1.13607  -1.13572
 Alpha  occ. eigenvalues --   -1.13474  -1.13451  -1.13416  -1.13277  -1.13251
 Alpha  occ. eigenvalues --   -1.13231  -1.13214  -1.13211  -1.13203  -1.12885
 Alpha  occ. eigenvalues --   -1.12876  -1.12858  -1.12412  -1.12406  -1.12389
 Alpha  occ. eigenvalues --   -0.18265  -0.13593  -0.11804  -0.10781
 Alpha virt. eigenvalues --   -0.06020  -0.05275  -0.04471  -0.03429  -0.02763
 Alpha virt. eigenvalues --   -0.02601  -0.01911  -0.01113  -0.00473  -0.00414
 Alpha virt. eigenvalues --   -0.00043   0.00323   0.00695   0.00827   0.00859

  Beta  occ. eigenvalues --  -38.44638 -38.44064 -38.43928 -38.43640 -38.43599
  Beta  occ. eigenvalues --  -38.43394 -38.42916  -2.20469  -2.19912  -2.19783
  Beta  occ. eigenvalues --   -2.19494  -2.19409  -2.19215  -2.18736  -1.14167
  Beta  occ. eigenvalues --   -1.14124  -1.14099  -1.13603  -1.13577  -1.13546
  Beta  occ. eigenvalues --   -1.13469  -1.13445  -1.13399  -1.13209  -1.13158
  Beta  occ. eigenvalues --   -1.13140  -1.13131  -1.13101  -1.13071  -1.12889
  Beta  occ. eigenvalues --   -1.12867  -1.12848  -1.12407  -1.12389  -1.12379
  Beta  occ. eigenvalues --   -0.17571  -0.13349  -0.11603
  Beta virt. eigenvalues --   -0.06882  -0.05908  -0.05258  -0.04410  -0.02729
  Beta virt. eigenvalues --   -0.02007  -0.01788  -0.01597  -0.01042  -0.00502
  Beta virt. eigenvalues --   -0.00405   0.00110   0.00375   0.00783   0.00837

 Mulliken charges and spin densities:
               1          2
     1  Na   0.306477   0.098126
     2  Na   0.232502  -0.014850
     3  Na  -0.421875   0.750158
     4  Na  -0.031435  -0.032643
     5  Na   0.036533  -0.006861
     6  Na  -0.056622  -0.012116
     7  Na  -0.065579   0.218185
 Sum of Mulliken charges =  -0.00000   1.00000

 Dipole moment (field-independent basis, Debye):
    X=              0.5736    Y=              0.0056    Z=              0.0230  Tot=              0.5741
 Quadrupole moment (field-independent basis, Debye-Ang):
   XX=            -55.0088   YY=            -65.2007   ZZ=            -74.2019
   XY=              0.7904   XZ=              1.1394   YZ=              0.2212

 Normal termination of Gaussian 16 at Wed Nov 29 16:23:10 2023.
