 Gaussian 16, Revision B.01,
 Gaussian 16:  ES64L-G16RevB.01 20-Dec-2017

 -------------------------
 #P B3LYP/6-311+g(d) force
 -------------------------

 -----
 DPGEN
 -----
 Symbolic Z-matrix:
 Charge =  0 Multiplicity = 2

                         Standard orientation:
 ---------------------------------------------------------------------
 Center     Atomic      Atomic             Coordinates (Angstroms)
 Number     Number       Type             X           Y           Z
 ---------------------------------------------------------------------
      1         11           0        2.143805   -2.957812    0.561033
      2         11           0       -1.378642    2.055497   -1.116004
      3         11           0        1.949805    3.015086    0.684805
      4         11           0        0.257994    0.144144    1.920506
      5         11           0       -3.648013   -0.421955    0.741685
      6         11           0       -0.964999   -1.815274   -1.041326
      7         11           0        1.640049   -0.019685   -1.750698
 ---------------------------------------------------------------------

 SCF Done:  E(UB3LYP) =  -1136.13235405     A.U. after   19 cycles

 The electronic state is 2-A.
 Alpha  occ. eigenvalues --  -38.44395 -38.44216 -38.43932 -38.43896 -38.43658
 Alpha  occ. eigenvalues --  -38.43564 -38.43550  -2.20184  -2.20046  -2.19757
 Alpha  occ. eigenvalues --   -2.19707  -2.19437  -2.19421  -2.19346  -1.13877
 Alpha  occ. eigenvalues --   -1.13857  -1.13786  -1.13725  -1.13678  -1.13671
 Alpha  occ. eigenvalues --   -1.13479  -1.13402  -1.13379  -1.13373  -1.13356
 Alpha  occ. eigenvalues --   -1.13329  -1.13132  -1.13108  -1.13103  -1.13102
 Alpha  occ. eigenvalues --   -1.13067  -1.13031  -1.13009  -1.13001  -1.12967
 Alpha  occ. eigenvalues --   -0.17786  -0.12322  -0.12243  -0.11175
 Alpha virt. eigenvalues --   -0.05567  -0.05491  -0.04676  -0.03207  -0.03092
 Alpha virt. eigenvalues --   -0.02824  -0.01556  -0.01426  -0.00781  -0.00116
 Alpha virt. eigenvalues --    0.00172   0.00313   0.00495   0.00726   0.00747

  Beta  occ. eigenvalues --  -38.44372 -38.44144 -38.43927 -38.43839 -38.43652
  Beta  occ. eigenvalues --  -38.43557 -38.43530  -2.20145  -2.19913  -2.19700
  Beta  occ. eigenvalues --   -2.19654  -2.19428  -2.19389  -2.19335  -1.13843
  Beta  occ. eigenvalues --   -1.13818  -1.13764  -1.13635  -1.13582  -1.13572
  Beta  occ. eigenvalues --   -1.13404  -1.13375  -1.13357  -1.13336  -1.13318
  Beta  occ. eigenvalues --   -1.13276  -1.13105  -1.13099  -1.13088  -1.13063
  Beta  occ. eigenvalues --   -1.13054  -1.13019  -1.12994  -1.12991  -1.12958
  Beta  occ. eigenvalues --   -0.16996  -0.12177  -0.12072
  Beta virt. eigenvalues --   -0.07312  -0.05367  -0.05275  -0.04527  -0.02656
  Beta virt. eigenvalues --   -0.02640  -0.01933  -0.01440  -0.01315  -0.00407
  Beta virt. eigenvalues --   -0.00153   0.00250   0.00346   0.00607   0.00763

 Mulliken charges and spin densities:
               1          2
     1  Na  -0.011393  -0.171186
     2  Na  -0.107450   0.074498
     3  Na  -0.015320  -0.144228
     4  Na  -0.288893   0.807704
     5  Na   0.268586  -0.099968
     6  Na  -0.080585   0.203040
     7  Na   0.235056   0.330140
 Sum of Mulliken charges =  -0.00000   1.00000

 Dipole moment (field-independent basis, Debye):
    X=              0.2287    Y=              0.0941    Z=              0.0597  Tot=              0.2544
 Quadrupole moment (field-independent basis, Debye-Ang):
   XX=            -61.2407   YY=            -62.6138   ZZ=            -69.7751
   XY=             -1.2514   XZ=             -0.1818   YZ=             -1.9378

 Normal termination of Gaussian 16 at Thu Dec  7 05:44:39 2023.
