 Gaussian 16, Revision B.01,
 Gaussian 16:  ES64L-G16RevB.01 20-Dec-2017

 -------------------------
 #P B3LYP/6-311+g(d) force
 -------------------------

 -----
 DPGEN
 -----
 Symbolic Z-matrix:
 Charge =  0 Multiplicity = 2

                         Standard orientation:
 ---------------------------------------------------------------------
 Center     Atomic      Atomic             Coordinates (Angstroms)
 Number     Number       Type             X           Y           Z
 ---------------------------------------------------------------------
      1         11           0        2.142126   -2.103691   -0.410144
      2         11           0        5.162428   -1.223606    0.444608
      3         11           0        1.272969    1.470801   -0.262600
      4         11           0        5.296750    2.193217   -0.021123
      5         11           0       -1.722510   -0.621012    0.159601
      6         11           0       -5.205868   -1.012111   -0.041867
      7         11           0       -6.945894    1.296403    0.131524
 ---------------------------------------------------------------------

 SCF Done:  E(UB3LYP) =  -1136.11025073     A.U. after   21 cycles

 The electronic state is 2-A.
 Alpha  occ. eigenvalues --  -38.45081 -38.44951 -38.44567 -38.44354 -38.44075
 Alpha  occ. eigenvalues --  -38.43959 -38.43856  -2.20887  -2.20721  -2.20390
 Alpha  occ. eigenvalues --   -2.20199  -2.19860  -2.19727  -2.19674  -1.14625
 Alpha  occ. eigenvalues --   -1.14528  -1.14525  -1.14415  -1.14393  -1.14309
 Alpha  occ. eigenvalues --   -1.14063  -1.14058  -1.13987  -1.13855  -1.13842
 Alpha  occ. eigenvalues --   -1.13841  -1.13521  -1.13505  -1.13493  -1.13415
 Alpha  occ. eigenvalues --   -1.13409  -1.13348  -1.13343  -1.13342  -1.13296
 Alpha  occ. eigenvalues --   -0.15969  -0.14492  -0.11854  -0.11241
 Alpha virt. eigenvalues --   -0.07327  -0.04827  -0.04553  -0.03642  -0.03127
 Alpha virt. eigenvalues --   -0.02878  -0.02428  -0.01708  -0.01201  -0.00640
 Alpha virt. eigenvalues --   -0.00402  -0.00184   0.00137   0.00405   0.00456

  Beta  occ. eigenvalues --  -38.45081 -38.44911 -38.44490 -38.44354 -38.44020
  Beta  occ. eigenvalues --  -38.43959 -38.43828  -2.20888  -2.20646  -2.20250
  Beta  occ. eigenvalues --   -2.20199  -2.19757  -2.19728  -2.19627  -1.14626
  Beta  occ. eigenvalues --   -1.14529  -1.14526  -1.14365  -1.14343  -1.14247
  Beta  occ. eigenvalues --   -1.13970  -1.13968  -1.13867  -1.13856  -1.13841
  Beta  occ. eigenvalues --   -1.13840  -1.13450  -1.13436  -1.13422  -1.13416
  Beta  occ. eigenvalues --   -1.13405  -1.13345  -1.13316  -1.13306  -1.13241
  Beta  occ. eigenvalues --   -0.15328  -0.14253  -0.11726
  Beta virt. eigenvalues --   -0.07375  -0.07149  -0.04479  -0.04094  -0.03493
  Beta virt. eigenvalues --   -0.02899  -0.02430  -0.02110  -0.01543  -0.01139
  Beta virt. eigenvalues --   -0.00217  -0.00129  -0.00001   0.00240   0.00443

 Mulliken charges and spin densities:
               1          2
     1  Na  -0.137417   0.477917
     2  Na   0.049604   0.097245
     3  Na  -0.163792   0.429420
     4  Na   0.551299   0.141277
     5  Na  -0.892263  -0.131429
     6  Na   0.618264  -0.002827
     7  Na  -0.025695  -0.011602
 Sum of Mulliken charges =  -0.00000   1.00000

 Dipole moment (field-independent basis, Debye):
    X=             -1.5369    Y=              0.5491    Z=             -0.0021  Tot=              1.6320
 Quadrupole moment (field-independent basis, Debye-Ang):
   XX=            -56.6929   YY=            -63.4183   ZZ=            -73.9139
   XY=             -4.0592   XZ=              0.0754   YZ=              0.0422

 Normal termination of Gaussian 16 at Sun Dec  3 12:21:58 2023.
