 Gaussian 16, Revision B.01,
 Gaussian 16:  ES64L-G16RevB.01 20-Dec-2017

 -------------------------
 #P B3LYP/6-311+g(d) force
 -------------------------

 -----
 DPGEN
 -----
 Symbolic Z-matrix:
 Charge =  0 Multiplicity = 2

                         Standard orientation:
 ---------------------------------------------------------------------
 Center     Atomic      Atomic             Coordinates (Angstroms)
 Number     Number       Type             X           Y           Z
 ---------------------------------------------------------------------
      1         11           0       -0.882417   -1.915047   -1.615761
      2         11           0       -4.074666   -0.788603    0.152403
      3         11           0       -1.425785   -0.766026    1.919596
      4         11           0       -1.968201    1.978968   -0.526202
      5         11           0        1.221908    2.745096   -0.096902
      6         11           0        2.063178   -0.299755   -0.056463
      7         11           0        5.065983   -0.954633    0.223328
 ---------------------------------------------------------------------

 SCF Done:  E(UB3LYP) =  -1136.11180686     A.U. after   24 cycles

 The electronic state is 2-A.
 Alpha  occ. eigenvalues --  -38.46528 -38.44631 -38.44285 -38.44033 -38.43742
 Alpha  occ. eigenvalues --  -38.43332 -38.42859  -2.22328  -2.20482  -2.20113
 Alpha  occ. eigenvalues --   -2.19852  -2.19562  -2.19167  -2.18750  -1.15998
 Alpha  occ. eigenvalues --   -1.15986  -1.15976  -1.14152  -1.14129  -1.14106
 Alpha  occ. eigenvalues --   -1.13758  -1.13750  -1.13719  -1.13514  -1.13480
 Alpha  occ. eigenvalues --   -1.13476  -1.13259  -1.13240  -1.13201  -1.12867
 Alpha  occ. eigenvalues --   -1.12823  -1.12787  -1.12437  -1.12413  -1.12406
 Alpha  occ. eigenvalues --   -0.17730  -0.13973  -0.11573  -0.10826
 Alpha virt. eigenvalues --   -0.07589  -0.05451  -0.04193  -0.03394  -0.03033
 Alpha virt. eigenvalues --   -0.02458  -0.01905  -0.01600  -0.00906  -0.00789
 Alpha virt. eigenvalues --   -0.00524  -0.00027   0.00163   0.00517   0.00629

  Beta  occ. eigenvalues --  -38.46529 -38.44595 -38.44180 -38.43955 -38.43759
  Beta  occ. eigenvalues --  -38.43331 -38.42856  -2.22333  -2.20418  -2.19919
  Beta  occ. eigenvalues --   -2.19707  -2.19596  -2.19164  -2.18753  -1.15997
  Beta  occ. eigenvalues --   -1.15989  -1.15962  -1.14110  -1.14088  -1.14051
  Beta  occ. eigenvalues --   -1.13630  -1.13613  -1.13589  -1.13421  -1.13382
  Beta  occ. eigenvalues --   -1.13377  -1.13277  -1.13261  -1.13216  -1.12868
  Beta  occ. eigenvalues --   -1.12820  -1.12787  -1.12446  -1.12414  -1.12357
  Beta  occ. eigenvalues --   -0.17225  -0.13378  -0.11253
  Beta virt. eigenvalues --   -0.07527  -0.07107  -0.05307  -0.03807  -0.02999
  Beta virt. eigenvalues --   -0.02858  -0.02002  -0.01775  -0.01291  -0.00538
  Beta virt. eigenvalues --   -0.00423  -0.00320   0.00118   0.00268   0.00595

 Mulliken charges and spin densities:
               1          2
     1  Na   0.417367   0.350989
     2  Na   0.474500   0.212475
     3  Na   0.416788   0.073677
     4  Na  -0.065661  -0.004024
     5  Na   0.516930  -0.062668
     6  Na  -1.073464   0.271959
     7  Na  -0.686460   0.157592
 Sum of Mulliken charges =  -0.00000   1.00000

 Dipole moment (field-independent basis, Debye):
    X=             -1.7353    Y=             -0.5024    Z=              0.4179  Tot=              1.8543
 Quadrupole moment (field-independent basis, Debye-Ang):
   XX=            -59.9513   YY=            -75.5586   ZZ=            -64.9908
   XY=              3.9547   XZ=              3.5417   YZ=             -1.2486

 Normal termination of Gaussian 16 at Fri Dec  8 19:51:08 2023.
