 Gaussian 16, Revision B.01,
 Gaussian 16:  ES64L-G16RevB.01 20-Dec-2017

 -------------------------
 #P B3LYP/6-311+g(d) force
 -------------------------

 -----
 DPGEN
 -----
 Symbolic Z-matrix:
 Charge =  0 Multiplicity = 2

                         Standard orientation:
 ---------------------------------------------------------------------
 Center     Atomic      Atomic             Coordinates (Angstroms)
 Number     Number       Type             X           Y           Z
 ---------------------------------------------------------------------
      1         11           0       -1.928745    2.004781   -0.299937
      2         11           0        0.048043   -0.306134   -1.671408
      3         11           0       -2.925274   -0.947319    0.141457
      4         11           0        1.623409    2.386190   -0.059759
      5         11           0        3.041598   -0.615413    0.128479
      6         11           0       -0.188838    0.115429    1.849078
      7         11           0        0.329807   -2.637534   -0.087910
 ---------------------------------------------------------------------

 SCF Done:  E(UB3LYP) =  -1136.13531593     A.U. after   19 cycles

 The electronic state is 2-A.
 Alpha  occ. eigenvalues --  -38.44100 -38.43985 -38.43388 -38.43300 -38.43209
 Alpha  occ. eigenvalues --  -38.43206 -38.43107  -2.19960  -2.19867  -2.19300
 Alpha  occ. eigenvalues --   -2.19271  -2.19252  -2.19077  -2.19046  -1.13630
 Alpha  occ. eigenvalues --   -1.13621  -1.13609  -1.13561  -1.13531  -1.13503
 Alpha  occ. eigenvalues --   -1.13116  -1.13021  -1.12976  -1.12946  -1.12932
 Alpha  occ. eigenvalues --   -1.12895  -1.12886  -1.12876  -1.12839  -1.12743
 Alpha  occ. eigenvalues --   -1.12740  -1.12714  -1.12685  -1.12655  -1.12631
 Alpha  occ. eigenvalues --   -0.19326  -0.13438  -0.12444  -0.10822
 Alpha virt. eigenvalues --   -0.05760  -0.05021  -0.04348  -0.03316  -0.02793
 Alpha virt. eigenvalues --   -0.02405  -0.01658  -0.00944  -0.00115  -0.00095
 Alpha virt. eigenvalues --    0.00018   0.00361   0.00825   0.00933   0.00948

  Beta  occ. eigenvalues --  -38.44097 -38.43979 -38.43378 -38.43216 -38.43206
  Beta  occ. eigenvalues --  -38.43130 -38.43098  -2.19957  -2.19860  -2.19285
  Beta  occ. eigenvalues --   -2.19119  -2.19116  -2.19074  -2.19030  -1.13628
  Beta  occ. eigenvalues --   -1.13614  -1.13596  -1.13560  -1.13508  -1.13489
  Beta  occ. eigenvalues --   -1.13045  -1.12995  -1.12929  -1.12923  -1.12856
  Beta  occ. eigenvalues --   -1.12798  -1.12794  -1.12775  -1.12753  -1.12727
  Beta  occ. eigenvalues --   -1.12716  -1.12705  -1.12655  -1.12625  -1.12599
  Beta  occ. eigenvalues --   -0.18581  -0.13185  -0.12165
  Beta virt. eigenvalues --   -0.06870  -0.05726  -0.05028  -0.04340  -0.02490
  Beta virt. eigenvalues --   -0.01990  -0.01566  -0.01340  -0.00885  -0.00160
  Beta virt. eigenvalues --   -0.00141   0.00140   0.00383   0.00874   0.00930

 Mulliken charges and spin densities:
               1          2
     1  Na   0.136981  -0.045749
     2  Na  -0.451801   0.575899
     3  Na   0.308400  -0.026086
     4  Na   0.054710  -0.090772
     5  Na   0.075313  -0.059039
     6  Na  -0.522939   0.730655
     7  Na   0.399337  -0.084909
 Sum of Mulliken charges =  -0.00000   1.00000

 Dipole moment (field-independent basis, Debye):
    X=              0.0298    Y=             -0.0367    Z=              0.1630  Tot=              0.1697
 Quadrupole moment (field-independent basis, Debye-Ang):
   XX=            -54.0927   YY=            -65.0421   ZZ=            -74.1471
   XY=              0.3326   XZ=              0.5108   YZ=             -1.1561

 Normal termination of Gaussian 16 at Thu Dec  7 18:55:07 2023.
