 Gaussian 16, Revision B.01,
 Gaussian 16:  ES64L-G16RevB.01 20-Dec-2017

 -------------------------
 #P B3LYP/6-311+g(d) force
 -------------------------

 -----
 DPGEN
 -----
 Symbolic Z-matrix:
 Charge =  0 Multiplicity = 2

                         Standard orientation:
 ---------------------------------------------------------------------
 Center     Atomic      Atomic             Coordinates (Angstroms)
 Number     Number       Type             X           Y           Z
 ---------------------------------------------------------------------
      1         11           0        0.772938    0.496062   -1.697903
      2         11           0       -1.521068   -1.681615    1.709936
      3         11           0       -2.018813    2.160935    0.052787
      4         11           0       -2.808693   -0.704138   -1.132539
      5         11           0        3.702289   -0.098569   -0.053553
      6         11           0        0.928473    1.730081    1.358282
      7         11           0        0.944874   -1.902755   -0.237010
 ---------------------------------------------------------------------

 SCF Done:  E(UB3LYP) =  -1136.12457590     A.U. after   21 cycles

 The electronic state is 2-A.
 Alpha  occ. eigenvalues --  -38.45057 -38.44345 -38.44167 -38.43443 -38.43284
 Alpha  occ. eigenvalues --  -38.43237 -38.43083  -2.20887  -2.20206  -2.20145
 Alpha  occ. eigenvalues --   -2.19316  -2.19246  -2.19120  -2.18947  -1.14556
 Alpha  occ. eigenvalues --   -1.14543  -1.14527  -1.13958  -1.13890  -1.13863
 Alpha  occ. eigenvalues --   -1.13838  -1.13779  -1.13715  -1.13042  -1.12972
 Alpha  occ. eigenvalues --   -1.12950  -1.12935  -1.12878  -1.12817  -1.12802
 Alpha  occ. eigenvalues --   -1.12764  -1.12756  -1.12616  -1.12599  -1.12587
 Alpha  occ. eigenvalues --   -0.18777  -0.13859  -0.11696  -0.11094
 Alpha virt. eigenvalues --   -0.06552  -0.04788  -0.04269  -0.03387  -0.02958
 Alpha virt. eigenvalues --   -0.02458  -0.02314  -0.00727  -0.00447   0.00034
 Alpha virt. eigenvalues --    0.00262   0.00302   0.00425   0.00852   0.00902

  Beta  occ. eigenvalues --  -38.45059 -38.44325 -38.44111 -38.43391 -38.43267
  Beta  occ. eigenvalues --  -38.43194 -38.43080  -2.20891  -2.20170  -2.20044
  Beta  occ. eigenvalues --   -2.19225  -2.19218  -2.19042  -2.18945  -1.14558
  Beta  occ. eigenvalues --   -1.14536  -1.14531  -1.13894  -1.13868  -1.13821
  Beta  occ. eigenvalues --   -1.13813  -1.13698  -1.13638  -1.12982  -1.12940
  Beta  occ. eigenvalues --   -1.12888  -1.12865  -1.12832  -1.12780  -1.12771
  Beta  occ. eigenvalues --   -1.12707  -1.12698  -1.12612  -1.12587  -1.12572
  Beta  occ. eigenvalues --   -0.18066  -0.13649  -0.11430
  Beta virt. eigenvalues --   -0.07267  -0.06399  -0.04747  -0.03604  -0.03213
  Beta virt. eigenvalues --   -0.02321  -0.02184  -0.01543  -0.00708  -0.00108
  Beta virt. eigenvalues --    0.00092   0.00272   0.00316   0.00608   0.00887

 Mulliken charges and spin densities:
               1          2
     1  Na   0.021767   0.299904
     2  Na   0.179321   0.157636
     3  Na  -0.040524   0.014967
     4  Na   0.219625   0.051556
     5  Na   0.847925  -0.081911
     6  Na  -0.530462   0.373918
     7  Na  -0.697653   0.183929
 Sum of Mulliken charges =  -0.00000   1.00000

 Dipole moment (field-independent basis, Debye):
    X=              0.8725    Y=              0.0115    Z=             -0.0529  Tot=              0.8742
 Quadrupole moment (field-independent basis, Debye-Ang):
   XX=            -48.2427   YY=            -76.2042   ZZ=            -69.1310
   XY=              0.1537   XZ=              1.8382   YZ=              0.0262

 Normal termination of Gaussian 16 at Tue Dec  5 21:35:11 2023.
