 Gaussian 16, Revision B.01,
 Gaussian 16:  ES64L-G16RevB.01 20-Dec-2017

 -------------------------
 #P B3LYP/6-311+g(d) force
 -------------------------

 -----
 DPGEN
 -----
 Symbolic Z-matrix:
 Charge =  0 Multiplicity = 2

                         Standard orientation:
 ---------------------------------------------------------------------
 Center     Atomic      Atomic             Coordinates (Angstroms)
 Number     Number       Type             X           Y           Z
 ---------------------------------------------------------------------
      1         11           0        0.107453   -0.113145    1.890754
      2         11           0       -2.817772   -1.309047    0.262144
      3         11           0        0.330389   -2.636517   -0.147467
      4         11           0       -2.123596    2.123720   -0.343672
      5         11           0        0.034027    0.015262   -1.859219
      6         11           0        1.276280    2.308924    0.371881
      7         11           0        3.193219   -0.389197   -0.174421
 ---------------------------------------------------------------------

 SCF Done:  E(UB3LYP) =  -1136.13838417     A.U. after   19 cycles

 The electronic state is 2-A.
 Alpha  occ. eigenvalues --  -38.44061 -38.43885 -38.43568 -38.43488 -38.43376
 Alpha  occ. eigenvalues --  -38.43121 -38.43049  -2.19897  -2.19718  -2.19532
 Alpha  occ. eigenvalues --   -2.19451  -2.19222  -2.19040  -2.18956  -1.13568
 Alpha  occ. eigenvalues --   -1.13557  -1.13542  -1.13395  -1.13377  -1.13363
 Alpha  occ. eigenvalues --   -1.13230  -1.13196  -1.13136  -1.13131  -1.13109
 Alpha  occ. eigenvalues --   -1.13063  -1.12895  -1.12876  -1.12865  -1.12734
 Alpha  occ. eigenvalues --   -1.12696  -1.12647  -1.12644  -1.12630  -1.12555
 Alpha  occ. eigenvalues --   -0.19022  -0.13054  -0.12443  -0.11075
 Alpha virt. eigenvalues --   -0.05675  -0.04940  -0.04327  -0.03267  -0.02998
 Alpha virt. eigenvalues --   -0.02727  -0.01641  -0.00954  -0.00132  -0.00059
 Alpha virt. eigenvalues --    0.00042   0.00355   0.00819   0.00922   0.00944

  Beta  occ. eigenvalues --  -38.44058 -38.43881 -38.43483 -38.43407 -38.43370
  Beta  occ. eigenvalues --  -38.43108 -38.43040  -2.19895  -2.19714  -2.19377
  Beta  occ. eigenvalues --   -2.19303  -2.19214  -2.19021  -2.18944  -1.13567
  Beta  occ. eigenvalues --   -1.13545  -1.13534  -1.13382  -1.13371  -1.13357
  Beta  occ. eigenvalues --   -1.13128  -1.13086  -1.13038  -1.13022  -1.13006
  Beta  occ. eigenvalues --   -1.12961  -1.12873  -1.12864  -1.12858  -1.12712
  Beta  occ. eigenvalues --   -1.12659  -1.12639  -1.12633  -1.12592  -1.12547
  Beta  occ. eigenvalues --   -0.18266  -0.12814  -0.12158
  Beta virt. eigenvalues --   -0.07131  -0.05637  -0.04934  -0.04313  -0.02484
  Beta virt. eigenvalues --   -0.02175  -0.01654  -0.01555  -0.00888  -0.00126
  Beta virt. eigenvalues --   -0.00091   0.00111   0.00369   0.00879   0.00912

 Mulliken charges and spin densities:
               1          2
     1  Na  -0.320754   0.610634
     2  Na   0.058382  -0.064595
     3  Na   0.189047  -0.099167
     4  Na   0.056785  -0.056301
     5  Na  -0.379538   0.700521
     6  Na   0.282258   0.000425
     7  Na   0.113821  -0.091518
 Sum of Mulliken charges =  -0.00000   1.00000

 Dipole moment (field-independent basis, Debye):
    X=              0.0400    Y=             -0.1252    Z=             -0.0157  Tot=              0.1324
 Quadrupole moment (field-independent basis, Debye-Ang):
   XX=            -54.9156   YY=            -66.0411   ZZ=            -72.6844
   XY=             -0.3217   XZ=             -0.5130   YZ=             -0.0009

 Normal termination of Gaussian 16 at Thu Dec  7 15:59:34 2023.
