 Gaussian 16, Revision B.01,
 Gaussian 16:  ES64L-G16RevB.01 20-Dec-2017

 -------------------------
 #P B3LYP/6-311+g(d) force
 -------------------------

 -----
 DPGEN
 -----
 Symbolic Z-matrix:
 Charge =  0 Multiplicity = 2

                         Standard orientation:
 ---------------------------------------------------------------------
 Center     Atomic      Atomic             Coordinates (Angstroms)
 Number     Number       Type             X           Y           Z
 ---------------------------------------------------------------------
      1         11           0       -2.045892    1.470166   -0.579478
      2         11           0        3.970973   -0.205861   -0.019093
      3         11           0        1.163105    0.191137    2.013505
      4         11           0       -1.416305   -2.183237    0.195189
      5         11           0        1.471729   -1.942338   -1.200658
      6         11           0        1.371298    2.620505   -0.553303
      7         11           0       -4.514907    0.049629    0.143838
 ---------------------------------------------------------------------

 SCF Done:  E(UB3LYP) =  -1136.11719805     A.U. after   24 cycles

 The electronic state is 2-A.
 Alpha  occ. eigenvalues --  -38.45566 -38.44175 -38.43981 -38.43922 -38.43787
 Alpha  occ. eigenvalues --  -38.43745 -38.43306  -2.21378  -2.20031  -2.19843
 Alpha  occ. eigenvalues --   -2.19769  -2.19597  -2.19579  -2.19142  -1.15052
 Alpha  occ. eigenvalues --   -1.15030  -1.14997  -1.13772  -1.13660  -1.13637
 Alpha  occ. eigenvalues --   -1.13535  -1.13500  -1.13456  -1.13441  -1.13425
 Alpha  occ. eigenvalues --   -1.13391  -1.13289  -1.13268  -1.13252  -1.13239
 Alpha  occ. eigenvalues --   -1.13221  -1.13201  -1.12837  -1.12805  -1.12753
 Alpha  occ. eigenvalues --   -0.17581  -0.14264  -0.11806  -0.10474
 Alpha virt. eigenvalues --   -0.07486  -0.05241  -0.03915  -0.03507  -0.03353
 Alpha virt. eigenvalues --   -0.02503  -0.01857  -0.01596  -0.00725  -0.00597
 Alpha virt. eigenvalues --   -0.00538  -0.00022   0.00256   0.00634   0.00801

  Beta  occ. eigenvalues --  -38.45528 -38.44116 -38.43906 -38.43905 -38.43788
  Beta  occ. eigenvalues --  -38.43743 -38.43285  -2.21310  -2.19921  -2.19746
  Beta  occ. eigenvalues --   -2.19701  -2.19599  -2.19583  -2.19106  -1.14993
  Beta  occ. eigenvalues --   -1.14985  -1.14946  -1.13703  -1.13584  -1.13564
  Beta  occ. eigenvalues --   -1.13460  -1.13434  -1.13407  -1.13389  -1.13354
  Beta  occ. eigenvalues --   -1.13334  -1.13289  -1.13274  -1.13247  -1.13232
  Beta  occ. eigenvalues --   -1.13221  -1.13179  -1.12814  -1.12773  -1.12724
  Beta  occ. eigenvalues --   -0.17032  -0.13572  -0.11566
  Beta virt. eigenvalues --   -0.07339  -0.06934  -0.05141  -0.03501  -0.03205
  Beta virt. eigenvalues --   -0.02921  -0.02282  -0.01574  -0.01143  -0.00539
  Beta virt. eigenvalues --   -0.00312  -0.00129   0.00069   0.00348   0.00708

 Mulliken charges and spin densities:
               1          2
     1  Na  -0.839487   0.119862
     2  Na   0.363677   0.504766
     3  Na  -0.099818   0.143210
     4  Na  -0.189057   0.105572
     5  Na  -0.142842  -0.000588
     6  Na  -0.147231   0.003558
     7  Na   1.054757   0.123620
 Sum of Mulliken charges =  -0.00000   1.00000

 Dipole moment (field-independent basis, Debye):
    X=              0.1562    Y=             -0.0169    Z=              0.9522  Tot=              0.9651
 Quadrupole moment (field-independent basis, Debye-Ang):
   XX=            -65.3825   YY=            -75.5678   ZZ=            -62.4777
   XY=              5.2377   XZ=              0.3094   YZ=             -2.0936

 Normal termination of Gaussian 16 at Mon Dec  4 02:43:23 2023.
