 Gaussian 16, Revision B.01,
 Gaussian 16:  ES64L-G16RevB.01 20-Dec-2017

 -------------------------
 #P B3LYP/6-311+g(d) force
 -------------------------

 -----
 DPGEN
 -----
 Symbolic Z-matrix:
 Charge =  0 Multiplicity = 2

                         Standard orientation:
 ---------------------------------------------------------------------
 Center     Atomic      Atomic             Coordinates (Angstroms)
 Number     Number       Type             X           Y           Z
 ---------------------------------------------------------------------
      1         11           0       -0.206692   -1.778267   -0.865493
      2         11           0       -2.751149   -2.967052    0.358624
      3         11           0       -3.086717    0.230075    1.063002
      4         11           0       -2.804309    3.146876   -0.358607
      5         11           0        0.212692    1.584119   -0.465689
      6         11           0        3.144586   -0.789314   -0.728458
      7         11           0        5.491590    0.573563    0.996620
 ---------------------------------------------------------------------

 SCF Done:  E(UB3LYP) =  -1136.12528254     A.U. after   20 cycles

 The electronic state is 2-A.
 Alpha  occ. eigenvalues --  -38.44575 -38.44471 -38.44351 -38.43723 -38.43661
 Alpha  occ. eigenvalues --  -38.43598 -38.43325  -2.20392  -2.20301  -2.20207
 Alpha  occ. eigenvalues --   -2.19556  -2.19548  -2.19428  -2.19188  -1.14030
 Alpha  occ. eigenvalues --   -1.14019  -1.14014  -1.14003  -1.13994  -1.13900
 Alpha  occ. eigenvalues --   -1.13884  -1.13867  -1.13829  -1.13240  -1.13226
 Alpha  occ. eigenvalues --   -1.13222  -1.13217  -1.13204  -1.13182  -1.13107
 Alpha  occ. eigenvalues --   -1.13106  -1.13076  -1.12840  -1.12828  -1.12825
 Alpha  occ. eigenvalues --   -0.17120  -0.14153  -0.12513  -0.11335
 Alpha virt. eigenvalues --   -0.05637  -0.05557  -0.04478  -0.04005  -0.02646
 Alpha virt. eigenvalues --   -0.02373  -0.01903  -0.01734  -0.00894  -0.00634
 Alpha virt. eigenvalues --   -0.00180   0.00072   0.00324   0.00346   0.00694

  Beta  occ. eigenvalues --  -38.44470 -38.44438 -38.44318 -38.43719 -38.43628
  Beta  occ. eigenvalues --  -38.43595 -38.43312  -2.20242  -2.20196  -2.20147
  Beta  occ. eigenvalues --   -2.19543  -2.19497  -2.19434  -2.19165  -1.13961
  Beta  occ. eigenvalues --   -1.13952  -1.13900  -1.13886  -1.13883  -1.13859
  Beta  occ. eigenvalues --   -1.13840  -1.13828  -1.13779  -1.13208  -1.13200
  Beta  occ. eigenvalues --   -1.13198  -1.13190  -1.13180  -1.13171  -1.13120
  Beta  occ. eigenvalues --   -1.13114  -1.13015  -1.12815  -1.12811  -1.12809
  Beta  occ. eigenvalues --   -0.16555  -0.13250  -0.12423
  Beta virt. eigenvalues --   -0.07799  -0.05444  -0.05172  -0.04034  -0.03802
  Beta virt. eigenvalues --   -0.02263  -0.02139  -0.01669  -0.01349  -0.00756
  Beta virt. eigenvalues --   -0.00295   0.00078   0.00212   0.00415   0.00489

 Mulliken charges and spin densities:
               1          2
     1  Na  -0.954117  -0.010965
     2  Na   1.593239   0.252096
     3  Na  -0.480939   0.270645
     4  Na   0.706636   0.070234
     5  Na  -0.998933  -0.004400
     6  Na  -0.024695   0.002242
     7  Na   0.158809   0.420148
 Sum of Mulliken charges =  -0.00000   1.00000

 Dipole moment (field-independent basis, Debye):
    X=             -0.5038    Y=              0.6092    Z=              0.1248  Tot=              0.8004
 Quadrupole moment (field-independent basis, Debye-Ang):
   XX=            -63.8429   YY=            -64.1052   ZZ=            -69.2747
   XY=             -0.0741   XZ=              1.1563   YZ=              0.4654

 Normal termination of Gaussian 16 at Wed Nov 29 01:21:09 2023.
