 Gaussian 16, Revision B.01,
 Gaussian 16:  ES64L-G16RevB.01 20-Dec-2017

 -------------------------
 #P B3LYP/6-311+g(d) force
 -------------------------

 -----
 DPGEN
 -----
 Symbolic Z-matrix:
 Charge =  0 Multiplicity = 2

                         Standard orientation:
 ---------------------------------------------------------------------
 Center     Atomic      Atomic             Coordinates (Angstroms)
 Number     Number       Type             X           Y           Z
 ---------------------------------------------------------------------
      1         11           0        1.624324   -0.436552   -1.521503
      2         11           0       -1.156183    1.865183   -1.190098
      3         11           0       -1.578709   -2.038980   -1.339428
      4         11           0       -0.349073   -0.386940    1.832150
      5         11           0       -3.669586   -0.032447    1.023342
      6         11           0        1.872254    2.860743    0.374197
      7         11           0        3.256974   -1.831006    0.821339
 ---------------------------------------------------------------------

 SCF Done:  E(UB3LYP) =  -1136.12723191     A.U. after   20 cycles

 The electronic state is 2-A.
 Alpha  occ. eigenvalues --  -38.44609 -38.44460 -38.44387 -38.43826 -38.43534
 Alpha  occ. eigenvalues --  -38.43507 -38.43487  -2.20432  -2.20261  -2.20199
 Alpha  occ. eigenvalues --   -2.19617  -2.19390  -2.19313  -2.19305  -1.14117
 Alpha  occ. eigenvalues --   -1.14084  -1.14054  -1.13925  -1.13917  -1.13886
 Alpha  occ. eigenvalues --   -1.13869  -1.13853  -1.13808  -1.13319  -1.13265
 Alpha  occ. eigenvalues --   -1.13258  -1.13085  -1.13043  -1.13019  -1.12991
 Alpha  occ. eigenvalues --   -1.12988  -1.12980  -1.12961  -1.12950  -1.12903
 Alpha  occ. eigenvalues --   -0.17781  -0.13130  -0.11437  -0.11284
 Alpha virt. eigenvalues --   -0.06184  -0.05404  -0.04708  -0.03249  -0.02776
 Alpha virt. eigenvalues --   -0.02676  -0.02033  -0.01241  -0.00963  -0.00045
 Alpha virt. eigenvalues --    0.00053   0.00215   0.00298   0.00560   0.00682

  Beta  occ. eigenvalues --  -38.44554 -38.44438 -38.44331 -38.43819 -38.43534
  Beta  occ. eigenvalues --  -38.43478 -38.43468  -2.20331  -2.20223  -2.20098
  Beta  occ. eigenvalues --   -2.19605  -2.19339  -2.19307  -2.19280  -1.14046
  Beta  occ. eigenvalues --   -1.14015  -1.13977  -1.13893  -1.13881  -1.13863
  Beta  occ. eigenvalues --   -1.13799  -1.13775  -1.13737  -1.13311  -1.13253
  Beta  occ. eigenvalues --   -1.13247  -1.13049  -1.12993  -1.12986  -1.12980
  Beta  occ. eigenvalues --   -1.12966  -1.12958  -1.12949  -1.12942  -1.12889
  Beta  occ. eigenvalues --   -0.17012  -0.12947  -0.11270
  Beta virt. eigenvalues --   -0.07466  -0.05956  -0.05242  -0.04229  -0.02967
  Beta virt. eigenvalues --   -0.02320  -0.01982  -0.01756  -0.01093  -0.00637
  Beta virt. eigenvalues --    0.00045   0.00132   0.00284   0.00357   0.00663

 Mulliken charges and spin densities:
               1          2
     1  Na   0.403317  -0.112314
     2  Na  -0.218832   0.200768
     3  Na  -0.133169   0.315940
     4  Na  -0.386056   0.459417
     5  Na   0.444142   0.029087
     6  Na  -0.068060  -0.022981
     7  Na  -0.041341   0.130084
 Sum of Mulliken charges =  -0.00000   1.00000

 Dipole moment (field-independent basis, Debye):
    X=             -0.7454    Y=             -0.1714    Z=              0.3831  Tot=              0.8555
 Quadrupole moment (field-independent basis, Debye-Ang):
   XX=            -54.2724   YY=            -71.8023   ZZ=            -68.5876
   XY=              0.8166   XZ=              2.2217   YZ=              1.7053

 Normal termination of Gaussian 16 at Tue Dec  5 14:01:55 2023.
