 Gaussian 16, Revision B.01,
 Gaussian 16:  ES64L-G16RevB.01 20-Dec-2017

 -------------------------
 #P B3LYP/6-311+g(d) force
 -------------------------

 -----
 DPGEN
 -----
 Symbolic Z-matrix:
 Charge =  0 Multiplicity = 2

                         Standard orientation:
 ---------------------------------------------------------------------
 Center     Atomic      Atomic             Coordinates (Angstroms)
 Number     Number       Type             X           Y           Z
 ---------------------------------------------------------------------
      1         11           0        0.127861    0.076752    2.039217
      2         11           0        0.855025   -2.379964   -0.660644
      3         11           0       -3.054330    1.655944    0.365562
      4         11           0        1.522433    2.544062   -0.476306
      5         11           0       -2.469562   -1.890540    0.137786
      6         11           0        3.472676   -0.372289    0.470563
      7         11           0       -0.454103    0.366035   -1.876178
 ---------------------------------------------------------------------

 SCF Done:  E(UB3LYP) =  -1136.13156143     A.U. after   21 cycles

 The electronic state is 2-A.
 Alpha  occ. eigenvalues --  -38.44602 -38.44445 -38.44382 -38.43844 -38.43569
 Alpha  occ. eigenvalues --  -38.43511 -38.42734  -2.20396  -2.20278  -2.20157
 Alpha  occ. eigenvalues --   -2.19671  -2.19489  -2.19328  -2.18609  -1.14068
 Alpha  occ. eigenvalues --   -1.14053  -1.14035  -1.13955  -1.13920  -1.13891
 Alpha  occ. eigenvalues --   -1.13832  -1.13809  -1.13801  -1.13349  -1.13339
 Alpha  occ. eigenvalues --   -1.13306  -1.13179  -1.13140  -1.13113  -1.12998
 Alpha  occ. eigenvalues --   -1.12982  -1.12950  -1.12307  -1.12265  -1.12232
 Alpha  occ. eigenvalues --   -0.18178  -0.13203  -0.11732  -0.11092
 Alpha virt. eigenvalues --   -0.06310  -0.05386  -0.04053  -0.03396  -0.02921
 Alpha virt. eigenvalues --   -0.02806  -0.02025  -0.01155  -0.00554  -0.00139
 Alpha virt. eigenvalues --   -0.00001   0.00311   0.00556   0.00699   0.00782

  Beta  occ. eigenvalues --  -38.44596 -38.44378 -38.44373 -38.43842 -38.43498
  Beta  occ. eigenvalues --  -38.43487 -38.42718  -2.20385  -2.20152  -2.20144
  Beta  occ. eigenvalues --   -2.19670  -2.19340  -2.19307  -2.18584  -1.14051
  Beta  occ. eigenvalues --   -1.14042  -1.14030  -1.13865  -1.13829  -1.13822
  Beta  occ. eigenvalues --   -1.13804  -1.13798  -1.13784  -1.13342  -1.13335
  Beta  occ. eigenvalues --   -1.13298  -1.13090  -1.13039  -1.13008  -1.12963
  Beta  occ. eigenvalues --   -1.12954  -1.12930  -1.12284  -1.12238  -1.12211
  Beta  occ. eigenvalues --   -0.17439  -0.12995  -0.11469
  Beta virt. eigenvalues --   -0.07259  -0.06144  -0.05369  -0.03886  -0.02827
  Beta virt. eigenvalues --   -0.02194  -0.01863  -0.01805  -0.01101  -0.00548
  Beta virt. eigenvalues --   -0.00059   0.00041   0.00336   0.00703   0.00767

 Mulliken charges and spin densities:
               1          2
     1  Na  -0.207242   0.602637
     2  Na  -0.139353   0.034154
     3  Na  -0.074519  -0.057217
     4  Na  -0.134068  -0.102999
     5  Na   0.071848   0.017252
     6  Na   0.115774   0.087656
     7  Na   0.367560   0.418516
 Sum of Mulliken charges =  -0.00000   1.00000

 Dipole moment (field-independent basis, Debye):
    X=             -0.0730    Y=              0.1812    Z=              0.4440  Tot=              0.4850
 Quadrupole moment (field-independent basis, Debye-Ang):
   XX=            -52.4010   YY=            -69.3363   ZZ=            -72.1978
   XY=             -0.3591   XZ=             -0.3544   YZ=              0.3263

 Normal termination of Gaussian 16 at Fri Dec  8 01:21:52 2023.
