 Gaussian 16, Revision B.01,
 Gaussian 16:  ES64L-G16RevB.01 20-Dec-2017

 -------------------------
 #P B3LYP/6-311+g(d) force
 -------------------------

 -----
 DPGEN
 -----
 Symbolic Z-matrix:
 Charge =  0 Multiplicity = 2

                         Standard orientation:
 ---------------------------------------------------------------------
 Center     Atomic      Atomic             Coordinates (Angstroms)
 Number     Number       Type             X           Y           Z
 ---------------------------------------------------------------------
      1         11           0       -1.699882   -2.277989   -0.599655
      2         11           0       -0.032799   -0.588385    1.981694
      3         11           0       -3.006827    0.757424   -0.013787
      4         11           0       -0.480348    2.722724    0.392114
      5         11           0        2.922201    1.367703   -0.304146
      6         11           0        2.031055   -2.139332    0.266121
      7         11           0        0.266600    0.157856   -1.722342
 ---------------------------------------------------------------------

 SCF Done:  E(UB3LYP) =  -1136.13778398     A.U. after   19 cycles

 The electronic state is 2-A.
 Alpha  occ. eigenvalues --  -38.43919 -38.43785 -38.43677 -38.43669 -38.43426
 Alpha  occ. eigenvalues --  -38.43354 -38.43211  -2.19743  -2.19642  -2.19587
 Alpha  occ. eigenvalues --   -2.19542  -2.19321  -2.19298  -2.19074  -1.13440
 Alpha  occ. eigenvalues --   -1.13394  -1.13378  -1.13349  -1.13320  -1.13304
 Alpha  occ. eigenvalues --   -1.13302  -1.13235  -1.13210  -1.13196  -1.13160
 Alpha  occ. eigenvalues --   -1.13142  -1.13027  -1.12993  -1.12953  -1.12949
 Alpha  occ. eigenvalues --   -1.12921  -1.12914  -1.12750  -1.12739  -1.12700
 Alpha  occ. eigenvalues --   -0.18752  -0.13089  -0.12449  -0.11003
 Alpha virt. eigenvalues --   -0.05488  -0.05266  -0.04441  -0.03281  -0.03086
 Alpha virt. eigenvalues --   -0.02627  -0.01494  -0.01093  -0.00264  -0.00142
 Alpha virt. eigenvalues --   -0.00012   0.00354   0.00803   0.00882   0.00929

  Beta  occ. eigenvalues --  -38.43914 -38.43783 -38.43667 -38.43584 -38.43408
  Beta  occ. eigenvalues --  -38.43288 -38.43202  -2.19735  -2.19642  -2.19528
  Beta  occ. eigenvalues --   -2.19429  -2.19267  -2.19200  -2.19060  -1.13423
  Beta  occ. eigenvalues --   -1.13383  -1.13376  -1.13322  -1.13305  -1.13291
  Beta  occ. eigenvalues --   -1.13278  -1.13177  -1.13154  -1.13128  -1.13098
  Beta  occ. eigenvalues --   -1.13063  -1.12977  -1.12926  -1.12913  -1.12892
  Beta  occ. eigenvalues --   -1.12871  -1.12840  -1.12740  -1.12716  -1.12685
  Beta  occ. eigenvalues --   -0.18035  -0.12826  -0.12187
  Beta virt. eigenvalues --   -0.07106  -0.05430  -0.05233  -0.04375  -0.02516
  Beta virt. eigenvalues --   -0.02333  -0.01610  -0.01392  -0.01019  -0.00269
  Beta virt. eigenvalues --   -0.00172   0.00112   0.00384   0.00874   0.00879

 Mulliken charges and spin densities:
               1          2
     1  Na   0.254570   0.018519
     2  Na  -0.367319   0.613731
     3  Na  -0.000774  -0.047781
     4  Na   0.007661   0.020127
     5  Na   0.084904  -0.057988
     6  Na   0.249544  -0.041433
     7  Na  -0.228586   0.494825
 Sum of Mulliken charges =  -0.00000   1.00000

 Dipole moment (field-independent basis, Debye):
    X=              0.1792    Y=             -0.0803    Z=              0.0849  Tot=              0.2139
 Quadrupole moment (field-independent basis, Debye-Ang):
   XX=            -56.6990   YY=            -64.6199   ZZ=            -72.9542
   XY=              0.3528   XZ=              0.3824   YZ=              1.5659

 Normal termination of Gaussian 16 at Fri Dec  8 02:41:22 2023.
