 Gaussian 16, Revision B.01,
 Gaussian 16:  ES64L-G16RevB.01 20-Dec-2017

 -------------------------
 #P B3LYP/6-311+g(d) force
 -------------------------

 -----
 DPGEN
 -----
 Symbolic Z-matrix:
 Charge =  0 Multiplicity = 2

                         Standard orientation:
 ---------------------------------------------------------------------
 Center     Atomic      Atomic             Coordinates (Angstroms)
 Number     Number       Type             X           Y           Z
 ---------------------------------------------------------------------
      1         11           0       -0.586300    0.624364    1.074660
      2         11           0       -2.288981    3.350196   -0.221381
      3         11           0       -3.952849   -0.213812   -0.690256
      4         11           0        0.232729   -1.531784   -1.423752
      5         11           0        2.841927    0.263018    1.257790
      6         11           0       -1.727904   -2.837722    0.813458
      7         11           0        5.481379    0.345740   -0.810519
 ---------------------------------------------------------------------

 SCF Done:  E(UB3LYP) =  -1136.11488999     A.U. after   21 cycles

 The electronic state is 2-A.
 Alpha  occ. eigenvalues --  -38.45824 -38.44657 -38.44269 -38.43947 -38.43601
 Alpha  occ. eigenvalues --  -38.43544 -38.43461  -2.21625  -2.20439  -2.20092
 Alpha  occ. eigenvalues --   -2.19750  -2.19399  -2.19366  -2.19306  -1.15312
 Alpha  occ. eigenvalues --   -1.15287  -1.15237  -1.14125  -1.14084  -1.14035
 Alpha  occ. eigenvalues --   -1.13773  -1.13745  -1.13730  -1.13388  -1.13386
 Alpha  occ. eigenvalues --   -1.13374  -1.13089  -1.13075  -1.13071  -1.13061
 Alpha  occ. eigenvalues --   -1.13016  -1.12992  -1.12984  -1.12953  -1.12926
 Alpha  occ. eigenvalues --   -0.17226  -0.13466  -0.11802  -0.10741
 Alpha virt. eigenvalues --   -0.06853  -0.05751  -0.04562  -0.03483  -0.02732
 Alpha virt. eigenvalues --   -0.02342  -0.02015  -0.01391  -0.01266  -0.00965
 Alpha virt. eigenvalues --   -0.00446  -0.00023   0.00260   0.00381   0.00571

  Beta  occ. eigenvalues --  -38.45819 -38.44594 -38.44265 -38.43853 -38.43605
  Beta  occ. eigenvalues --  -38.43551 -38.43413  -2.21618  -2.20320  -2.20088
  Beta  occ. eigenvalues --   -2.19574  -2.19415  -2.19319  -2.19281  -1.15306
  Beta  occ. eigenvalues --   -1.15277  -1.15231  -1.14044  -1.14007  -1.13949
  Beta  occ. eigenvalues --   -1.13771  -1.13741  -1.13711  -1.13270  -1.13267
  Beta  occ. eigenvalues --   -1.13263  -1.13096  -1.13082  -1.13027  -1.13022
  Beta  occ. eigenvalues --   -1.12993  -1.12987  -1.12952  -1.12950  -1.12882
  Beta  occ. eigenvalues --   -0.16704  -0.12617  -0.11742
  Beta virt. eigenvalues --   -0.07328  -0.06709  -0.05286  -0.04223  -0.03178
  Beta virt. eigenvalues --   -0.02456  -0.02242  -0.01472  -0.01239  -0.00899
  Beta virt. eigenvalues --   -0.00888  -0.00122   0.00153   0.00367   0.00496

 Mulliken charges and spin densities:
               1          2
     1  Na  -0.727273   0.139977
     2  Na   0.347961  -0.060740
     3  Na   0.206403   0.401814
     4  Na  -0.004716  -0.089512
     5  Na  -0.171910  -0.023252
     6  Na   0.319808   0.139491
     7  Na   0.029728   0.492223
 Sum of Mulliken charges =  -0.00000   1.00000

 Dipole moment (field-independent basis, Debye):
    X=             -0.9435    Y=             -1.2056    Z=             -0.7875  Tot=              1.7216
 Quadrupole moment (field-independent basis, Debye-Ang):
   XX=            -73.4249   YY=            -68.8927   ZZ=            -61.7628
   XY=              1.0318   XZ=             -2.7177   YZ=             -2.5760

 Normal termination of Gaussian 16 at Tue Nov 28 19:23:45 2023.
