 Gaussian 16, Revision B.01,
 Gaussian 16:  ES64L-G16RevB.01 20-Dec-2017

 -------------------------
 #P B3LYP/6-311+g(d) force
 -------------------------

 -----
 DPGEN
 -----
 Symbolic Z-matrix:
 Charge =  0 Multiplicity = 2

                         Standard orientation:
 ---------------------------------------------------------------------
 Center     Atomic      Atomic             Coordinates (Angstroms)
 Number     Number       Type             X           Y           Z
 ---------------------------------------------------------------------
      1         11           0        3.763053   -0.424562   -0.155226
      2         11           0        1.284161   -3.056775   -0.229637
      3         11           0       -2.306650   -2.720024    0.308452
      4         11           0        0.135121   -0.015613   -0.354786
      5         11           0       -3.712066    0.438438    0.320743
      6         11           0       -1.911935    3.219294   -0.541924
      7         11           0        2.748315    2.559241    0.652378
 ---------------------------------------------------------------------

 SCF Done:  E(UB3LYP) =  -1136.12701128     A.U. after   22 cycles

 The electronic state is 2-A.
 Alpha  occ. eigenvalues --  -38.44696 -38.44457 -38.44356 -38.43906 -38.43588
 Alpha  occ. eigenvalues --  -38.43484 -38.43406  -2.20520  -2.20266  -2.20207
 Alpha  occ. eigenvalues --   -2.19725  -2.19394  -2.19313  -2.19257  -1.14203
 Alpha  occ. eigenvalues --   -1.14186  -1.14164  -1.13952  -1.13943  -1.13932
 Alpha  occ. eigenvalues --   -1.13902  -1.13861  -1.13830  -1.13379  -1.13365
 Alpha  occ. eigenvalues --   -1.13357  -1.13050  -1.13038  -1.13021  -1.12983
 Alpha  occ. eigenvalues --   -1.12974  -1.12941  -1.12925  -1.12916  -1.12870
 Alpha  occ. eigenvalues --   -0.16963  -0.14088  -0.12863  -0.10044
 Alpha virt. eigenvalues --   -0.06681  -0.05534  -0.04221  -0.03314  -0.02976
 Alpha virt. eigenvalues --   -0.02323  -0.02056  -0.01644  -0.01441  -0.00273
 Alpha virt. eigenvalues --    0.00093   0.00124   0.00502   0.00615   0.00686

  Beta  occ. eigenvalues --  -38.44687 -38.44438 -38.44361 -38.43851 -38.43536
  Beta  occ. eigenvalues --  -38.43439 -38.43373  -2.20510  -2.20238  -2.20214
  Beta  occ. eigenvalues --   -2.19624  -2.19297  -2.19233  -2.19196  -1.14202
  Beta  occ. eigenvalues --   -1.14184  -1.14108  -1.13945  -1.13939  -1.13918
  Beta  occ. eigenvalues --   -1.13873  -1.13840  -1.13835  -1.13311  -1.13297
  Beta  occ. eigenvalues --   -1.13282  -1.12983  -1.12974  -1.12958  -1.12930
  Beta  occ. eigenvalues --   -1.12921  -1.12890  -1.12875  -1.12870  -1.12826
  Beta  occ. eigenvalues --   -0.16659  -0.13314  -0.12327
  Beta virt. eigenvalues --   -0.06799  -0.06606  -0.05285  -0.04061  -0.02828
  Beta virt. eigenvalues --   -0.02481  -0.02150  -0.01783  -0.01410  -0.01231
  Beta virt. eigenvalues --   -0.00088   0.00293   0.00382   0.00571   0.00667

 Mulliken charges and spin densities:
               1          2
     1  Na   0.365921   0.052216
     2  Na   1.576392   0.120128
     3  Na   0.049172   0.288559
     4  Na  -3.792310  -0.113318
     5  Na   0.570744   0.096195
     6  Na   0.853160   0.270453
     7  Na   0.376920   0.285767
 Sum of Mulliken charges =  -0.00000   1.00000

 Dipole moment (field-independent basis, Debye):
    X=              0.5544    Y=             -0.1367    Z=              0.0667  Tot=              0.5749
 Quadrupole moment (field-independent basis, Debye-Ang):
   XX=            -61.2907   YY=            -62.8033   ZZ=            -72.8423
   XY=             -5.1156   XZ=             -1.4588   YZ=              0.5441

 Normal termination of Gaussian 16 at Sat Dec  9 06:55:28 2023.
