 Gaussian 16, Revision B.01,
 Gaussian 16:  ES64L-G16RevB.01 20-Dec-2017

 -------------------------
 #P B3LYP/6-311+g(d) force
 -------------------------

 -----
 DPGEN
 -----
 Symbolic Z-matrix:
 Charge =  0 Multiplicity = 2

                         Standard orientation:
 ---------------------------------------------------------------------
 Center     Atomic      Atomic             Coordinates (Angstroms)
 Number     Number       Type             X           Y           Z
 ---------------------------------------------------------------------
      1         11           0        1.315931   -2.808563   -0.337059
      2         11           0        0.101230    0.042324    0.239866
      3         11           0        3.805953   -0.320090    0.664026
      4         11           0        2.409591    2.306090   -0.588288
      5         11           0       -1.596833    3.020872   -0.050103
      6         11           0       -3.939518    0.282247    0.336623
      7         11           0       -2.096354   -2.522880   -0.265066
 ---------------------------------------------------------------------

 SCF Done:  E(UB3LYP) =  -1136.12784615     A.U. after   23 cycles

 The electronic state is 2-A.
 Alpha  occ. eigenvalues --  -38.44666 -38.44099 -38.43960 -38.43791 -38.43697
 Alpha  occ. eigenvalues --  -38.43436 -38.43428  -2.20488  -2.19938  -2.19758
 Alpha  occ. eigenvalues --   -2.19653  -2.19553  -2.19392  -2.19260  -1.14177
 Alpha  occ. eigenvalues --   -1.14166  -1.14117  -1.13626  -1.13619  -1.13574
 Alpha  occ. eigenvalues --   -1.13433  -1.13423  -1.13386  -1.13359  -1.13311
 Alpha  occ. eigenvalues --   -1.13270  -1.13207  -1.13202  -1.13172  -1.13110
 Alpha  occ. eigenvalues --   -1.13027  -1.13011  -1.12918  -1.12909  -1.12876
 Alpha  occ. eigenvalues --   -0.17439  -0.14056  -0.13011  -0.09877
 Alpha virt. eigenvalues --   -0.06695  -0.05359  -0.04412  -0.03480  -0.02745
 Alpha virt. eigenvalues --   -0.02223  -0.01887  -0.01657  -0.01040  -0.00426
 Alpha virt. eigenvalues --    0.00064   0.00257   0.00519   0.00618   0.00665

  Beta  occ. eigenvalues --  -38.44658 -38.44086 -38.43939 -38.43768 -38.43637
  Beta  occ. eigenvalues --  -38.43423 -38.43358  -2.20479  -2.19922  -2.19721
  Beta  occ. eigenvalues --   -2.19613  -2.19442  -2.19369  -2.19131  -1.14180
  Beta  occ. eigenvalues --   -1.14165  -1.14064  -1.13623  -1.13615  -1.13511
  Beta  occ. eigenvalues --   -1.13410  -1.13400  -1.13348  -1.13330  -1.13284
  Beta  occ. eigenvalues --   -1.13234  -1.13132  -1.13126  -1.13097  -1.13091
  Beta  occ. eigenvalues --   -1.13029  -1.12987  -1.12831  -1.12819  -1.12788
  Beta  occ. eigenvalues --   -0.17071  -0.13299  -0.12542
  Beta virt. eigenvalues --   -0.06717  -0.06505  -0.05224  -0.04194  -0.02803
  Beta virt. eigenvalues --   -0.02207  -0.01964  -0.01756  -0.01448  -0.00911
  Beta virt. eigenvalues --   -0.00144   0.00252   0.00471   0.00569   0.00746

 Mulliken charges and spin densities:
               1          2
     1  Na   1.148031   0.095215
     2  Na  -4.722523  -0.343379
     3  Na   1.104389   0.514656
     4  Na   0.966493   0.125546
     5  Na   0.668283   0.084225
     6  Na   0.364714   0.428429
     7  Na   0.470613   0.095308
 Sum of Mulliken charges =  -0.00000   1.00000

 Dipole moment (field-independent basis, Debye):
    X=              0.6264    Y=              0.0779    Z=             -0.4258  Tot=              0.7614
 Quadrupole moment (field-independent basis, Debye-Ang):
   XX=            -69.7648   YY=            -58.0664   ZZ=            -70.7766
   XY=             -3.4064   XZ=             -0.5359   YZ=             -0.8066

 Normal termination of Gaussian 16 at Fri Dec  8 17:51:09 2023.
