 Gaussian 16, Revision B.01,
 Gaussian 16:  ES64L-G16RevB.01 20-Dec-2017

 -------------------------
 #P B3LYP/6-311+g(d) force
 -------------------------

 -----
 DPGEN
 -----
 Symbolic Z-matrix:
 Charge =  0 Multiplicity = 2

                         Standard orientation:
 ---------------------------------------------------------------------
 Center     Atomic      Atomic             Coordinates (Angstroms)
 Number     Number       Type             X           Y           Z
 ---------------------------------------------------------------------
      1         11           0       -2.932446    0.811797    0.093129
      2         11           0        0.002106    2.918719    0.002485
      3         11           0       -0.509321   -0.176514   -1.566016
      4         11           0        1.781526   -2.108969    0.220370
      5         11           0       -2.002992   -2.186994    0.044467
      6         11           0        0.459414    0.260509    1.709484
      7         11           0        3.201713    0.481452   -0.503919
 ---------------------------------------------------------------------

 SCF Done:  E(UB3LYP) =  -1136.12968113     A.U. after   21 cycles

 The electronic state is 2-A.
 Alpha  occ. eigenvalues --  -38.44501 -38.44310 -38.43503 -38.43438 -38.43247
 Alpha  occ. eigenvalues --  -38.43090 -38.42977  -2.20351  -2.20208  -2.19413
 Alpha  occ. eigenvalues --   -2.19365  -2.19278  -2.18973  -2.18944  -1.14053
 Alpha  occ. eigenvalues --   -1.14002  -1.13978  -1.13926  -1.13874  -1.13825
 Alpha  occ. eigenvalues --   -1.13205  -1.13092  -1.13065  -1.13033  -1.13024
 Alpha  occ. eigenvalues --   -1.12987  -1.12948  -1.12896  -1.12864  -1.12702
 Alpha  occ. eigenvalues --   -1.12643  -1.12605  -1.12583  -1.12564  -1.12548
 Alpha  occ. eigenvalues --   -0.19145  -0.13747  -0.12317  -0.10419
 Alpha virt. eigenvalues --   -0.06097  -0.05039  -0.04486  -0.03458  -0.02578
 Alpha virt. eigenvalues --   -0.02039  -0.01816  -0.01025  -0.00359  -0.00183
 Alpha virt. eigenvalues --    0.00027   0.00348   0.00805   0.00875   0.00916

  Beta  occ. eigenvalues --  -38.44487 -38.44306 -38.43498 -38.43426 -38.43188
  Beta  occ. eigenvalues --  -38.43086 -38.42897  -2.20325  -2.20202  -2.19408
  Beta  occ. eigenvalues --   -2.19350  -2.19171  -2.18940  -2.18828  -1.14039
  Beta  occ. eigenvalues --   -1.13965  -1.13962  -1.13921  -1.13858  -1.13814
  Beta  occ. eigenvalues --   -1.13183  -1.13074  -1.13059  -1.13011  -1.12981
  Beta  occ. eigenvalues --   -1.12976  -1.12875  -1.12822  -1.12796  -1.12663
  Beta  occ. eigenvalues --   -1.12588  -1.12568  -1.12548  -1.12477  -1.12463
  Beta  occ. eigenvalues --   -0.18440  -0.13483  -0.12062
  Beta virt. eigenvalues --   -0.06573  -0.05991  -0.05015  -0.04481  -0.02650
  Beta virt. eigenvalues --   -0.01849  -0.01701  -0.01078  -0.00959  -0.00386
  Beta virt. eigenvalues --   -0.00204   0.00166   0.00385   0.00860   0.00876

 Mulliken charges and spin densities:
               1          2
     1  Na   0.236411  -0.066917
     2  Na  -0.006613  -0.090406
     3  Na  -0.529747   0.524206
     4  Na   0.410924   0.031241
     5  Na   0.344223  -0.010831
     6  Na  -0.352582   0.547192
     7  Na  -0.102616   0.065515
 Sum of Mulliken charges =  -0.00000   1.00000

 Dipole moment (field-independent basis, Debye):
    X=              0.0364    Y=              0.1649    Z=              0.0211  Tot=              0.1702
 Quadrupole moment (field-independent basis, Debye-Ang):
   XX=            -53.1569   YY=            -63.8944   ZZ=            -75.7230
   XY=              0.6139   XZ=             -2.3589   YZ=             -1.2245

 Normal termination of Gaussian 16 at Tue Nov 28 22:46:51 2023.
