 Gaussian 16, Revision B.01,
 Gaussian 16:  ES64L-G16RevB.01 20-Dec-2017

 -------------------------
 #P B3LYP/6-311+g(d) force
 -------------------------

 -----
 DPGEN
 -----
 Symbolic Z-matrix:
 Charge =  0 Multiplicity = 2

                         Standard orientation:
 ---------------------------------------------------------------------
 Center     Atomic      Atomic             Coordinates (Angstroms)
 Number     Number       Type             X           Y           Z
 ---------------------------------------------------------------------
      1         11           0       -1.672684   -2.779992    0.969832
      2         11           0        3.988688    0.320906   -0.616985
      3         11           0        1.030080    2.862669    0.058076
      4         11           0       -2.257503    2.523556    0.267297
      5         11           0       -0.018627   -0.214609    1.934074
      6         11           0        2.119318   -2.229759   -0.691051
      7         11           0       -3.189272   -0.482771   -1.921243
 ---------------------------------------------------------------------

 SCF Done:  E(UB3LYP) =  -1136.12020808     A.U. after   20 cycles

 The electronic state is 2-A.
 Alpha  occ. eigenvalues --  -38.44715 -38.44573 -38.44423 -38.44248 -38.44053
 Alpha  occ. eigenvalues --  -38.43847 -38.43794  -2.20492  -2.20359  -2.20263
 Alpha  occ. eigenvalues --   -2.20034  -2.19844  -2.19649  -2.19592  -1.14142
 Alpha  occ. eigenvalues --   -1.14120  -1.14104  -1.14037  -1.14037  -1.13991
 Alpha  occ. eigenvalues --   -1.13935  -1.13920  -1.13878  -1.13722  -1.13698
 Alpha  occ. eigenvalues --   -1.13682  -1.13523  -1.13511  -1.13462  -1.13313
 Alpha  occ. eigenvalues --   -1.13306  -1.13282  -1.13277  -1.13240  -1.13230
 Alpha  occ. eigenvalues --   -0.16705  -0.13310  -0.12492  -0.11045
 Alpha virt. eigenvalues --   -0.06220  -0.05495  -0.04951  -0.03555  -0.03276
 Alpha virt. eigenvalues --   -0.02313  -0.01621  -0.01332  -0.01182  -0.00905
 Alpha virt. eigenvalues --   -0.00258   0.00254   0.00370   0.00529   0.00563

  Beta  occ. eigenvalues --  -38.44609 -38.44565 -38.44359 -38.44250 -38.44048
  Beta  occ. eigenvalues --  -38.43829 -38.43785  -2.20345  -2.20294  -2.20145
  Beta  occ. eigenvalues --   -2.20040  -2.19836  -2.19617  -2.19579  -1.14031
  Beta  occ. eigenvalues --   -1.14029  -1.14008  -1.13984  -1.13972  -1.13968
  Beta  occ. eigenvalues --   -1.13862  -1.13841  -1.13788  -1.13729  -1.13703
  Beta  occ. eigenvalues --   -1.13663  -1.13515  -1.13503  -1.13458  -1.13287
  Beta  occ. eigenvalues --   -1.13286  -1.13261  -1.13258  -1.13236  -1.13209
  Beta  occ. eigenvalues --   -0.16184  -0.12655  -0.12313
  Beta virt. eigenvalues --   -0.07463  -0.06163  -0.05267  -0.04565  -0.03146
  Beta virt. eigenvalues --   -0.02677  -0.01824  -0.01463  -0.01335  -0.00999
  Beta virt. eigenvalues --   -0.00776   0.00042   0.00389   0.00528   0.00643

 Mulliken charges and spin densities:
               1          2
     1  Na  -0.260851   0.142704
     2  Na   0.078642   0.027554
     3  Na   0.026105  -0.005062
     4  Na  -0.331650   0.156009
     5  Na   0.744055   0.006274
     6  Na  -0.238574   0.144955
     7  Na  -0.017727   0.527567
 Sum of Mulliken charges =  -0.00000   1.00000

 Dipole moment (field-independent basis, Debye):
    X=              0.1153    Y=              0.0023    Z=             -0.0166  Tot=              0.1165
 Quadrupole moment (field-independent basis, Debye-Ang):
   XX=            -65.7418   YY=            -63.8753   ZZ=            -70.9472
   XY=              2.3818   XZ=             -1.0060   YZ=              1.3857

 Normal termination of Gaussian 16 at Sun Dec  3 13:06:21 2023.
