 Gaussian 16, Revision B.01,
 Gaussian 16:  ES64L-G16RevB.01 20-Dec-2017

 -------------------------
 #P B3LYP/6-311+g(d) force
 -------------------------

 -----
 DPGEN
 -----
 Symbolic Z-matrix:
 Charge =  0 Multiplicity = 2

                         Standard orientation:
 ---------------------------------------------------------------------
 Center     Atomic      Atomic             Coordinates (Angstroms)
 Number     Number       Type             X           Y           Z
 ---------------------------------------------------------------------
      1         11           0       -0.437319   -2.801078    0.250742
      2         11           0        0.449629   -0.179297    1.887735
      3         11           0        2.042395    1.847407    0.026140
      4         11           0       -3.274563   -0.452678   -0.184680
      5         11           0       -1.102649    2.635202    0.231877
      6         11           0       -0.210379    0.304637   -1.626051
      7         11           0        2.532884   -1.354193   -0.585762
 ---------------------------------------------------------------------

 SCF Done:  E(UB3LYP) =  -1136.13643655     A.U. after   20 cycles

 The electronic state is 2-A.
 Alpha  occ. eigenvalues --  -38.44008 -38.43524 -38.43464 -38.43444 -38.43375
 Alpha  occ. eigenvalues --  -38.43291 -38.43124  -2.19800  -2.19414  -2.19369
 Alpha  occ. eigenvalues --   -2.19347  -2.19311  -2.19251  -2.19144  -1.13481
 Alpha  occ. eigenvalues --   -1.13452  -1.13443  -1.13163  -1.13104  -1.13087
 Alpha  occ. eigenvalues --   -1.13070  -1.13049  -1.13043  -1.13028  -1.13008
 Alpha  occ. eigenvalues --   -1.12970  -1.12955  -1.12940  -1.12931  -1.12916
 Alpha  occ. eigenvalues --   -1.12878  -1.12853  -1.12809  -1.12766  -1.12743
 Alpha  occ. eigenvalues --   -0.19174  -0.12893  -0.12822  -0.10895
 Alpha virt. eigenvalues --   -0.05518  -0.04886  -0.04752  -0.03129  -0.03006
 Alpha virt. eigenvalues --   -0.02458  -0.01400  -0.01064  -0.00251  -0.00084
 Alpha virt. eigenvalues --    0.00031   0.00354   0.00864   0.00925   0.00941

  Beta  occ. eigenvalues --  -38.44009 -38.43517 -38.43445 -38.43436 -38.43288
  Beta  occ. eigenvalues --  -38.43280 -38.43059  -2.19803  -2.19406  -2.19339
  Beta  occ. eigenvalues --   -2.19300  -2.19236  -2.19187  -2.19027  -1.13472
  Beta  occ. eigenvalues --   -1.13454  -1.13446  -1.13151  -1.13071  -1.13049
  Beta  occ. eigenvalues --   -1.13043  -1.13040  -1.13005  -1.12978  -1.12961
  Beta  occ. eigenvalues --   -1.12943  -1.12915  -1.12902  -1.12877  -1.12841
  Beta  occ. eigenvalues --   -1.12832  -1.12804  -1.12735  -1.12688  -1.12654
  Beta  occ. eigenvalues --   -0.18427  -0.12648  -0.12554
  Beta virt. eigenvalues --   -0.06929  -0.05482  -0.04845  -0.04734  -0.02357
  Beta virt. eigenvalues --   -0.02234  -0.01475  -0.01245  -0.00992  -0.00250
  Beta virt. eigenvalues --   -0.00132   0.00144   0.00386   0.00881   0.00931

 Mulliken charges and spin densities:
               1          2
     1  Na   0.051749  -0.047079
     2  Na  -0.319423   0.596573
     3  Na   0.492744   0.071301
     4  Na  -0.090641  -0.114645
     5  Na   0.022900  -0.075967
     6  Na  -0.334882   0.501164
     7  Na   0.177552   0.068653
 Sum of Mulliken charges =  -0.00000   1.00000

 Dipole moment (field-independent basis, Debye):
    X=             -0.2820    Y=             -0.0598    Z=              0.0963  Tot=              0.3039
 Quadrupole moment (field-independent basis, Debye-Ang):
   XX=            -57.8157   YY=            -62.0345   ZZ=            -73.6066
   XY=             -0.2528   XZ=             -1.4368   YZ=              1.1890

 Normal termination of Gaussian 16 at Tue Dec  5 19:41:13 2023.
