 Gaussian 16, Revision B.01,
 Gaussian 16:  ES64L-G16RevB.01 20-Dec-2017

 -------------------------
 #P B3LYP/6-311+g(d) force
 -------------------------

 -----
 DPGEN
 -----
 Symbolic Z-matrix:
 Charge =  0 Multiplicity = 2

                         Standard orientation:
 ---------------------------------------------------------------------
 Center     Atomic      Atomic             Coordinates (Angstroms)
 Number     Number       Type             X           Y           Z
 ---------------------------------------------------------------------
      1         11           0        2.774423   -1.809037   -0.008882
      2         11           0       -1.063748   -2.570097   -0.194251
      3         11           0       -0.428275   -0.301505    2.256021
      4         11           0       -0.885715    2.943184   -0.050010
      5         11           0        0.185442   -0.076504   -1.779451
      6         11           0       -2.944426   -0.092687   -0.301070
      7         11           0        2.362298    1.906647    0.077643
 ---------------------------------------------------------------------

 SCF Done:  E(UB3LYP) =  -1136.13677672     A.U. after   19 cycles

 The electronic state is 2-A.
 Alpha  occ. eigenvalues --  -38.44103 -38.43837 -38.43825 -38.43652 -38.43520
 Alpha  occ. eigenvalues --  -38.43499 -38.43385  -2.19954  -2.19652  -2.19607
 Alpha  occ. eigenvalues --   -2.19534  -2.19461  -2.19407  -2.19204  -1.13612
 Alpha  occ. eigenvalues --   -1.13582  -1.13574  -1.13339  -1.13323  -1.13289
 Alpha  occ. eigenvalues --   -1.13283  -1.13275  -1.13260  -1.13250  -1.13198
 Alpha  occ. eigenvalues --   -1.13182  -1.13168  -1.13116  -1.13070  -1.13062
 Alpha  occ. eigenvalues --   -1.13038  -1.13004  -1.12873  -1.12865  -1.12848
 Alpha  occ. eigenvalues --   -0.18463  -0.12912  -0.12343  -0.11063
 Alpha virt. eigenvalues --   -0.05418  -0.05202  -0.04828  -0.03303  -0.02969
 Alpha virt. eigenvalues --   -0.02931  -0.01347  -0.01102  -0.00367  -0.00310
 Alpha virt. eigenvalues --   -0.00070   0.00368   0.00797   0.00873   0.00892

  Beta  occ. eigenvalues --  -38.44000 -38.43836 -38.43827 -38.43643 -38.43489
  Beta  occ. eigenvalues --  -38.43455 -38.43384  -2.19764  -2.19652  -2.19612
  Beta  occ. eigenvalues --   -2.19523  -2.19394  -2.19342  -2.19204  -1.13487
  Beta  occ. eigenvalues --   -1.13446  -1.13440  -1.13334  -1.13313  -1.13293
  Beta  occ. eigenvalues --   -1.13273  -1.13265  -1.13263  -1.13256  -1.13181
  Beta  occ. eigenvalues --   -1.13151  -1.13123  -1.13042  -1.13030  -1.13003
  Beta  occ. eigenvalues --   -1.12982  -1.12977  -1.12867  -1.12856  -1.12852
  Beta  occ. eigenvalues --   -0.17702  -0.12705  -0.12159
  Beta virt. eigenvalues --   -0.07078  -0.05434  -0.05139  -0.04729  -0.02520
  Beta virt. eigenvalues --   -0.02218  -0.01869  -0.01265  -0.01031  -0.00415
  Beta virt. eigenvalues --   -0.00369   0.00102   0.00397   0.00867   0.00887

 Mulliken charges and spin densities:
               1          2
     1  Na   0.022308  -0.085133
     2  Na   0.412855   0.017176
     3  Na  -0.647904   0.743479
     4  Na  -0.004825  -0.051459
     5  Na  -0.060471   0.406176
     6  Na   0.287368   0.029916
     7  Na  -0.009331  -0.060155
 Sum of Mulliken charges =  -0.00000   1.00000

 Dipole moment (field-independent basis, Debye):
    X=              0.1353    Y=             -0.0362    Z=              0.1878  Tot=              0.2343
 Quadrupole moment (field-independent basis, Debye-Ang):
   XX=            -59.6686   YY=            -63.0701   ZZ=            -72.4202
   XY=             -0.6949   XZ=              1.3928   YZ=              0.3655

 Normal termination of Gaussian 16 at Thu Dec  7 04:21:19 2023.
