 Gaussian 16, Revision B.01,
 Gaussian 16:  ES64L-G16RevB.01 20-Dec-2017

 -------------------------
 #P B3LYP/6-311+g(d) force
 -------------------------

 -----
 DPGEN
 -----
 Symbolic Z-matrix:
 Charge =  0 Multiplicity = 2

                         Standard orientation:
 ---------------------------------------------------------------------
 Center     Atomic      Atomic             Coordinates (Angstroms)
 Number     Number       Type             X           Y           Z
 ---------------------------------------------------------------------
      1         11           0        1.056100    2.994378   -0.367499
      2         11           0        3.085090    0.015066   -0.338420
      3         11           0        0.538491    0.217290    2.312820
      4         11           0        1.302418   -2.583421   -0.072718
      5         11           0       -0.259668    0.118708   -1.485733
      6         11           0       -2.192272   -1.958604   -0.205839
      7         11           0       -3.530159    1.196582    0.157388
 ---------------------------------------------------------------------

 SCF Done:  E(UB3LYP) =  -1136.12991043     A.U. after   21 cycles

 The electronic state is 2-A.
 Alpha  occ. eigenvalues --  -38.44895 -38.44375 -38.43969 -38.43762 -38.43444
 Alpha  occ. eigenvalues --  -38.43351 -38.42942  -2.20652  -2.20236  -2.19802
 Alpha  occ. eigenvalues --   -2.19620  -2.19313  -2.19251  -2.18823  -1.14325
 Alpha  occ. eigenvalues --   -1.14309  -1.14292  -1.13923  -1.13900  -1.13866
 Alpha  occ. eigenvalues --   -1.13451  -1.13427  -1.13418  -1.13362  -1.13278
 Alpha  occ. eigenvalues --   -1.13228  -1.13006  -1.12991  -1.12931  -1.12909
 Alpha  occ. eigenvalues --   -1.12897  -1.12886  -1.12505  -1.12476  -1.12468
 Alpha  occ. eigenvalues --   -0.18245  -0.13250  -0.11998  -0.10708
 Alpha virt. eigenvalues --   -0.06460  -0.05039  -0.04519  -0.03262  -0.02782
 Alpha virt. eigenvalues --   -0.02600  -0.01985  -0.01129  -0.00691  -0.00314
 Alpha virt. eigenvalues --   -0.00066   0.00298   0.00673   0.00738   0.00785

  Beta  occ. eigenvalues --  -38.44899 -38.44366 -38.43859 -38.43757 -38.43438
  Beta  occ. eigenvalues --  -38.43303 -38.42937  -2.20658  -2.20224  -2.19614
  Beta  occ. eigenvalues --   -2.19597  -2.19243  -2.19226  -2.18817  -1.14323
  Beta  occ. eigenvalues --   -1.14313  -1.14297  -1.13918  -1.13864  -1.13860
  Beta  occ. eigenvalues --   -1.13350  -1.13313  -1.13285  -1.13274  -1.13262
  Beta  occ. eigenvalues --   -1.13228  -1.12959  -1.12939  -1.12889  -1.12887
  Beta  occ. eigenvalues --   -1.12864  -1.12861  -1.12503  -1.12474  -1.12437
  Beta  occ. eigenvalues --   -0.17539  -0.13086  -0.11792
  Beta virt. eigenvalues --   -0.06760  -0.06340  -0.04993  -0.04493  -0.02604
  Beta virt. eigenvalues --   -0.01999  -0.01863  -0.01562  -0.01056  -0.00723
  Beta virt. eigenvalues --   -0.00346   0.00127   0.00346   0.00753   0.00826

 Mulliken charges and spin densities:
               1          2
     1  Na  -0.013891  -0.024875
     2  Na   0.374937   0.074349
     3  Na  -0.685441   0.742360
     4  Na   0.077695   0.064943
     5  Na   0.068188   0.129505
     6  Na   0.207704   0.031219
     7  Na  -0.029192  -0.017501
 Sum of Mulliken charges =  -0.00000   1.00000

 Dipole moment (field-independent basis, Debye):
    X=             -0.4624    Y=              0.3474    Z=              0.1709  Tot=              0.6031
 Quadrupole moment (field-independent basis, Debye-Ang):
   XX=            -53.9614   YY=            -64.4393   ZZ=            -75.1385
   XY=             -1.7167   XZ=             -1.8630   YZ=              0.2016

 Normal termination of Gaussian 16 at Thu Dec  7 09:41:37 2023.
