 Gaussian 16, Revision B.01,
 Gaussian 16:  ES64L-G16RevB.01 20-Dec-2017

 -------------------------
 #P B3LYP/6-311+g(d) force
 -------------------------

 -----
 DPGEN
 -----
 Symbolic Z-matrix:
 Charge =  0 Multiplicity = 2

                         Standard orientation:
 ---------------------------------------------------------------------
 Center     Atomic      Atomic             Coordinates (Angstroms)
 Number     Number       Type             X           Y           Z
 ---------------------------------------------------------------------
      1         11           0       -2.675898   -1.030010    1.004569
      2         11           0       -3.815056    1.427408   -0.904482
      3         11           0        1.174298   -0.947863    1.757321
      4         11           0        3.135729   -0.458288   -1.390122
      5         11           0       -0.523064    0.982489   -0.325409
      6         11           0        0.252441   -2.587001   -0.777822
      7         11           0        2.451550    2.613265    0.635944
 ---------------------------------------------------------------------

 SCF Done:  E(UB3LYP) =  -1136.12868565     A.U. after   21 cycles

 The electronic state is 2-A.
 Alpha  occ. eigenvalues --  -38.44346 -38.44273 -38.43891 -38.43752 -38.43635
 Alpha  occ. eigenvalues --  -38.43399 -38.43177  -2.20205  -2.20092  -2.19795
 Alpha  occ. eigenvalues --   -2.19583  -2.19564  -2.19195  -2.19042  -1.13912
 Alpha  occ. eigenvalues --   -1.13882  -1.13810  -1.13770  -1.13734  -1.13698
 Alpha  occ. eigenvalues --   -1.13508  -1.13460  -1.13391  -1.13286  -1.13257
 Alpha  occ. eigenvalues --   -1.13238  -1.13227  -1.13225  -1.13146  -1.12865
 Alpha  occ. eigenvalues --   -1.12854  -1.12827  -1.12722  -1.12716  -1.12660
 Alpha  occ. eigenvalues --   -0.18078  -0.13855  -0.11746  -0.10587
 Alpha virt. eigenvalues --   -0.06043  -0.05521  -0.04729  -0.03259  -0.02687
 Alpha virt. eigenvalues --   -0.02233  -0.01901  -0.01251  -0.00788  -0.00331
 Alpha virt. eigenvalues --   -0.00119   0.00185   0.00434   0.00496   0.00743

  Beta  occ. eigenvalues --  -38.44336 -38.44205 -38.43846 -38.43726 -38.43625
  Beta  occ. eigenvalues --  -38.43388 -38.43166  -2.20189  -2.19967  -2.19714
  Beta  occ. eigenvalues --   -2.19550  -2.19534  -2.19176  -2.19026  -1.13902
  Beta  occ. eigenvalues --   -1.13869  -1.13783  -1.13683  -1.13652  -1.13603
  Beta  occ. eigenvalues --   -1.13456  -1.13387  -1.13331  -1.13243  -1.13238
  Beta  occ. eigenvalues --   -1.13220  -1.13198  -1.13194  -1.13132  -1.12854
  Beta  occ. eigenvalues --   -1.12829  -1.12817  -1.12715  -1.12709  -1.12618
  Beta  occ. eigenvalues --   -0.17473  -0.13485  -0.11496
  Beta virt. eigenvalues --   -0.06962  -0.05829  -0.05334  -0.04341  -0.02921
  Beta virt. eigenvalues --   -0.02167  -0.02107  -0.01347  -0.01045  -0.00524
  Beta virt. eigenvalues --   -0.00107   0.00014   0.00266   0.00515   0.00623

 Mulliken charges and spin densities:
               1          2
     1  Na   0.420722  -0.001899
     2  Na   0.184883   0.131234
     3  Na   0.387611   0.297187
     4  Na   0.152679   0.288483
     5  Na  -1.988170   0.197654
     6  Na   0.009626   0.212730
     7  Na   0.832649  -0.125389
 Sum of Mulliken charges =  -0.00000   1.00000

 Dipole moment (field-independent basis, Debye):
    X=             -0.4014    Y=             -0.3304    Z=              0.4170  Tot=              0.6665
 Quadrupole moment (field-independent basis, Debye-Ang):
   XX=            -56.3147   YY=            -69.3267   ZZ=            -68.6484
   XY=              2.4062   XZ=              0.8651   YZ=             -1.2691

 Normal termination of Gaussian 16 at Tue Dec  5 22:46:11 2023.
