 Gaussian 16, Revision B.01,
 Gaussian 16:  ES64L-G16RevB.01 20-Dec-2017

 -------------------------
 #P B3LYP/6-311+g(d) force
 -------------------------

 -----
 DPGEN
 -----
 Symbolic Z-matrix:
 Charge =  0 Multiplicity = 2

                         Standard orientation:
 ---------------------------------------------------------------------
 Center     Atomic      Atomic             Coordinates (Angstroms)
 Number     Number       Type             X           Y           Z
 ---------------------------------------------------------------------
      1         11           0       -1.530904    2.432559   -0.271900
      2         11           0       -3.218594   -0.867324    0.165824
      3         11           0       -0.214819   -2.587016   -0.574806
      4         11           0        0.167498    0.261042   -1.622835
      5         11           0       -0.111999    0.038675    2.138947
      6         11           0        2.029079    2.047865   -0.036293
      7         11           0        2.879738   -1.325801    0.201063
 ---------------------------------------------------------------------

 SCF Done:  E(UB3LYP) =  -1136.13508917     A.U. after   19 cycles

 The electronic state is 2-A.
 Alpha  occ. eigenvalues --  -38.44148 -38.43943 -38.43799 -38.43546 -38.43467
 Alpha  occ. eigenvalues --  -38.43268 -38.43124  -2.19940  -2.19811  -2.19634
 Alpha  occ. eigenvalues --   -2.19435  -2.19336  -2.19310  -2.19012  -1.13612
 Alpha  occ. eigenvalues --   -1.13597  -1.13587  -1.13477  -1.13442  -1.13424
 Alpha  occ. eigenvalues --   -1.13300  -1.13294  -1.13291  -1.13222  -1.13118
 Alpha  occ. eigenvalues --   -1.13089  -1.13043  -1.13009  -1.12984  -1.12939
 Alpha  occ. eigenvalues --   -1.12917  -1.12883  -1.12697  -1.12659  -1.12614
 Alpha  occ. eigenvalues --   -0.18799  -0.12933  -0.12440  -0.11017
 Alpha virt. eigenvalues --   -0.05683  -0.05181  -0.04285  -0.03245  -0.02958
 Alpha virt. eigenvalues --   -0.02794  -0.01613  -0.01092  -0.00200  -0.00123
 Alpha virt. eigenvalues --    0.00013   0.00347   0.00782   0.00875   0.00934

  Beta  occ. eigenvalues --  -38.44148 -38.43847 -38.43796 -38.43540 -38.43459
  Beta  occ. eigenvalues --  -38.43199 -38.43108  -2.19943  -2.19636  -2.19630
  Beta  occ. eigenvalues --   -2.19428  -2.19324  -2.19188  -2.18986  -1.13605
  Beta  occ. eigenvalues --   -1.13595  -1.13590  -1.13361  -1.13320  -1.13303
  Beta  occ. eigenvalues --   -1.13298  -1.13288  -1.13270  -1.13195  -1.13089
  Beta  occ. eigenvalues --   -1.13063  -1.13037  -1.12967  -1.12939  -1.12920
  Beta  occ. eigenvalues --   -1.12848  -1.12809  -1.12663  -1.12624  -1.12600
  Beta  occ. eigenvalues --   -0.18057  -0.12729  -0.12168
  Beta virt. eigenvalues --   -0.07064  -0.05605  -0.05190  -0.04259  -0.02481
  Beta virt. eigenvalues --   -0.02170  -0.01703  -0.01500  -0.01046  -0.00243
  Beta virt. eigenvalues --   -0.00116   0.00115   0.00367   0.00841   0.00862

 Mulliken charges and spin densities:
               1          2
     1  Na   0.210772  -0.064921
     2  Na  -0.007571  -0.036062
     3  Na   0.250757   0.001929
     4  Na  -0.157461   0.304992
     5  Na  -0.646944   0.786967
     6  Na   0.276760  -0.009603
     7  Na   0.073687   0.016697
 Sum of Mulliken charges =  -0.00000   1.00000

 Dipole moment (field-independent basis, Debye):
    X=             -0.1181    Y=              0.0526    Z=              0.3847  Tot=              0.4058
 Quadrupole moment (field-independent basis, Debye-Ang):
   XX=            -54.9375   YY=            -65.4404   ZZ=            -73.1588
   XY=             -0.2393   XZ=              0.5581   YZ=              0.1961

 Normal termination of Gaussian 16 at Fri Dec  8 04:02:18 2023.
