 Gaussian 16, Revision B.01,
 Gaussian 16:  ES64L-G16RevB.01 20-Dec-2017

 -------------------------
 #P B3LYP/6-311+g(d) force
 -------------------------

 -----
 DPGEN
 -----
 Symbolic Z-matrix:
 Charge =  0 Multiplicity = 2

                         Standard orientation:
 ---------------------------------------------------------------------
 Center     Atomic      Atomic             Coordinates (Angstroms)
 Number     Number       Type             X           Y           Z
 ---------------------------------------------------------------------
      1         11           0       -3.281773    0.566491   -0.135209
      2         11           0        2.172169   -1.833746    0.124529
      3         11           0       -0.592975    2.937142    0.262025
      4         11           0        0.286190    0.419079   -1.533184
      5         11           0       -1.576969   -2.537138   -0.561955
      6         11           0        3.275779    1.008825   -0.136452
      7         11           0       -0.282422   -0.560654    1.980245
 ---------------------------------------------------------------------

 SCF Done:  E(UB3LYP) =  -1136.13301793     A.U. after   20 cycles

 The electronic state is 2-A.
 Alpha  occ. eigenvalues --  -38.44729 -38.44465 -38.43627 -38.43354 -38.43339
 Alpha  occ. eigenvalues --  -38.43294 -38.43278  -2.20524  -2.20303  -2.19531
 Alpha  occ. eigenvalues --   -2.19250  -2.19233  -2.19176  -2.19114  -1.14202
 Alpha  occ. eigenvalues --   -1.14177  -1.14162  -1.14006  -1.13961  -1.13935
 Alpha  occ. eigenvalues --   -1.13224  -1.13195  -1.13163  -1.12975  -1.12931
 Alpha  occ. eigenvalues --   -1.12900  -1.12870  -1.12862  -1.12853  -1.12832
 Alpha  occ. eigenvalues --   -1.12819  -1.12799  -1.12781  -1.12766  -1.12750
 Alpha  occ. eigenvalues --   -0.18449  -0.13431  -0.12122  -0.10441
 Alpha virt. eigenvalues --   -0.06297  -0.05133  -0.04541  -0.03272  -0.02787
 Alpha virt. eigenvalues --   -0.02214  -0.01998  -0.01131  -0.00556  -0.00337
 Alpha virt. eigenvalues --   -0.00030   0.00320   0.00743   0.00813   0.00849

  Beta  occ. eigenvalues --  -38.44725 -38.44463 -38.43618 -38.43349 -38.43263
  Beta  occ. eigenvalues --  -38.43250 -38.43244  -2.20519  -2.20302  -2.19518
  Beta  occ. eigenvalues --   -2.19168  -2.19159  -2.19089  -2.19068  -1.14184
  Beta  occ. eigenvalues --   -1.14176  -1.14158  -1.14008  -1.13947  -1.13931
  Beta  occ. eigenvalues --   -1.13216  -1.13164  -1.13146  -1.12928  -1.12875
  Beta  occ. eigenvalues --   -1.12816  -1.12811  -1.12798  -1.12790  -1.12783
  Beta  occ. eigenvalues --   -1.12771  -1.12750  -1.12736  -1.12731  -1.12708
  Beta  occ. eigenvalues --   -0.17755  -0.13201  -0.11900
  Beta virt. eigenvalues --   -0.06597  -0.06229  -0.05099  -0.04454  -0.02542
  Beta virt. eigenvalues --   -0.02066  -0.01908  -0.01235  -0.01072  -0.00553
  Beta virt. eigenvalues --   -0.00365   0.00137   0.00364   0.00797   0.00851

 Mulliken charges and spin densities:
               1          2
     1  Na   0.082196  -0.015061
     2  Na   0.371748   0.058337
     3  Na  -0.095820  -0.065025
     4  Na  -0.113563   0.398728
     5  Na  -0.022722   0.041840
     6  Na   0.122948  -0.062716
     7  Na  -0.344786   0.643897
 Sum of Mulliken charges =  -0.00000   1.00000

 Dipole moment (field-independent basis, Debye):
    X=             -0.0686    Y=              0.2315    Z=              0.0966  Tot=              0.2600
 Quadrupole moment (field-independent basis, Debye-Ang):
   XX=            -51.9614   YY=            -65.1900   ZZ=            -75.5843
   XY=              0.8285   XZ=              0.8209   YZ=              2.0004

 Normal termination of Gaussian 16 at Thu Dec  7 10:45:55 2023.
