 Gaussian 16, Revision B.01,
 Gaussian 16:  ES64L-G16RevB.01 20-Dec-2017

 -------------------------
 #P B3LYP/6-311+g(d) force
 -------------------------

 -----
 DPGEN
 -----
 Symbolic Z-matrix:
 Charge =  0 Multiplicity = 2

                         Standard orientation:
 ---------------------------------------------------------------------
 Center     Atomic      Atomic             Coordinates (Angstroms)
 Number     Number       Type             X           Y           Z
 ---------------------------------------------------------------------
      1         11           0        0.295181    0.363824    1.554659
      2         11           0        2.422725   -1.267386    0.857582
      3         11           0       -3.662153   -0.444036    0.350844
      4         11           0       -1.313773    0.483047   -0.792793
      5         11           0       -0.021544   -2.174097   -0.701305
      6         11           0        0.466580    2.662083    0.005759
      7         11           0        1.812983    0.376566   -1.274747
 ---------------------------------------------------------------------

 SCF Done:  E(UB3LYP) =  -1136.09005175     A.U. after   25 cycles

 The electronic state is 2-A.
 Alpha  occ. eigenvalues --  -38.44936 -38.44224 -38.44011 -38.43779 -38.43472
 Alpha  occ. eigenvalues --  -38.43164 -38.43136  -2.20772  -2.20294  -2.20212
 Alpha  occ. eigenvalues --   -2.19939  -2.19473  -2.19396  -2.19178  -1.14560
 Alpha  occ. eigenvalues --   -1.14395  -1.14378  -1.14260  -1.14116  -1.14006
 Alpha  occ. eigenvalues --   -1.13897  -1.13823  -1.13686  -1.13633  -1.13554
 Alpha  occ. eigenvalues --   -1.13503  -1.13290  -1.13123  -1.13109  -1.13070
 Alpha  occ. eigenvalues --   -1.13011  -1.12974  -1.12826  -1.12785  -1.12733
 Alpha  occ. eigenvalues --   -0.20590  -0.13643  -0.12613  -0.11488
 Alpha virt. eigenvalues --   -0.06332  -0.04217  -0.03859  -0.03481  -0.02739
 Alpha virt. eigenvalues --   -0.02386  -0.01850  -0.00727  -0.00288   0.00244
 Alpha virt. eigenvalues --    0.00394   0.00495   0.00763   0.00896   0.00998

  Beta  occ. eigenvalues --  -38.44937 -38.44193 -38.43934 -38.43726 -38.43446
  Beta  occ. eigenvalues --  -38.43132 -38.43128  -2.20775  -2.20237  -2.20080
  Beta  occ. eigenvalues --   -2.19846  -2.19432  -2.19346  -2.19167  -1.14562
  Beta  occ. eigenvalues --   -1.14390  -1.14381  -1.14203  -1.14035  -1.13924
  Beta  occ. eigenvalues --   -1.13846  -1.13741  -1.13604  -1.13564  -1.13472
  Beta  occ. eigenvalues --   -1.13434  -1.13255  -1.13096  -1.13072  -1.13023
  Beta  occ. eigenvalues --   -1.12954  -1.12912  -1.12809  -1.12754  -1.12716
  Beta  occ. eigenvalues --   -0.19764  -0.13445  -0.12338
  Beta virt. eigenvalues --   -0.07216  -0.06213  -0.04210  -0.03827  -0.02808
  Beta virt. eigenvalues --   -0.02016  -0.01842  -0.01183  -0.00676  -0.00019
  Beta virt. eigenvalues --    0.00276   0.00387   0.00543   0.00899   0.00916

 Mulliken charges and spin densities:
               1          2
     1  Na  -0.441459   0.486081
     2  Na   0.773633   0.017871
     3  Na   0.119071  -0.184181
     4  Na  -0.234254   0.432337
     5  Na  -0.766445   0.052736
     6  Na   0.310006  -0.047470
     7  Na   0.239448   0.242626
 Sum of Mulliken charges =  -0.00000   1.00000

 Dipole moment (field-independent basis, Debye):
    X=             -0.4132    Y=             -0.2911    Z=              0.1163  Tot=              0.5187
 Quadrupole moment (field-independent basis, Debye-Ang):
   XX=            -54.5377   YY=            -67.4872   ZZ=            -71.0800
   XY=              0.7148   XZ=             -2.1415   YZ=             -0.4649

 Normal termination of Gaussian 16 at Fri Dec  8 18:22:23 2023.
