 Gaussian 16, Revision B.01,
 Gaussian 16:  ES64L-G16RevB.01 20-Dec-2017

 -------------------------
 #P B3LYP/6-311+g(d) force
 -------------------------

 -----
 DPGEN
 -----
 Symbolic Z-matrix:
 Charge =  0 Multiplicity = 2

                         Standard orientation:
 ---------------------------------------------------------------------
 Center     Atomic      Atomic             Coordinates (Angstroms)
 Number     Number       Type             X           Y           Z
 ---------------------------------------------------------------------
      1         11           0       -1.252780   -1.807866   -0.952734
      2         11           0       -3.635622   -0.539404    0.296249
      3         11           0        0.819390    0.629311   -1.470160
      4         11           0        0.150860    0.079312    2.104902
      5         11           0        2.419070   -1.994771    0.204442
      6         11           0       -2.160558    2.272270   -0.162302
      7         11           0        3.659640    1.361149   -0.020398
 ---------------------------------------------------------------------

 SCF Done:  E(UB3LYP) =  -1136.11544946     A.U. after   33 cycles

 The electronic state is 2-A.
 Alpha  occ. eigenvalues --  -38.45625 -38.45096 -38.44371 -38.44176 -38.43711
 Alpha  occ. eigenvalues --  -38.43585 -38.42804  -2.21475  -2.20881  -2.20202
 Alpha  occ. eigenvalues --   -2.19998  -2.19640  -2.19404  -2.18708  -1.15183
 Alpha  occ. eigenvalues --   -1.15121  -1.15109  -1.14561  -1.14542  -1.14524
 Alpha  occ. eigenvalues --   -1.13879  -1.13828  -1.13816  -1.13672  -1.13663
 Alpha  occ. eigenvalues --   -1.13630  -1.13331  -1.13292  -1.13257  -1.13071
 Alpha  occ. eigenvalues --   -1.13066  -1.13059  -1.12407  -1.12375  -1.12315
 Alpha  occ. eigenvalues --   -0.18370  -0.14234  -0.10985  -0.10783
 Alpha virt. eigenvalues --   -0.07449  -0.05817  -0.04000  -0.03225  -0.02926
 Alpha virt. eigenvalues --   -0.02449  -0.02250  -0.01536  -0.00736  -0.00399
 Alpha virt. eigenvalues --   -0.00007   0.00111   0.00406   0.00558   0.00664

  Beta  occ. eigenvalues --  -38.45626 -38.45103 -38.44273 -38.44169 -38.43654
  Beta  occ. eigenvalues --  -38.43582 -38.42779  -2.21477  -2.20897  -2.20022
  Beta  occ. eigenvalues --   -2.19987  -2.19536  -2.19401  -2.18665  -1.15182
  Beta  occ. eigenvalues --   -1.15125  -1.15100  -1.14562  -1.14554  -1.14531
  Beta  occ. eigenvalues --   -1.13757  -1.13704  -1.13689  -1.13655  -1.13635
  Beta  occ. eigenvalues --   -1.13629  -1.13260  -1.13209  -1.13184  -1.13069
  Beta  occ. eigenvalues --   -1.13064  -1.13041  -1.12370  -1.12349  -1.12275
  Beta  occ. eigenvalues --   -0.17657  -0.14105  -0.10764
  Beta virt. eigenvalues --   -0.07288  -0.06869  -0.05761  -0.03481  -0.03017
  Beta virt. eigenvalues --   -0.02681  -0.01756  -0.01491  -0.01301  -0.00714
  Beta virt. eigenvalues --   -0.00230   0.00068   0.00119   0.00533   0.00628

 Mulliken charges and spin densities:
               1          2
     1  Na  -0.050609   0.056114
     2  Na   0.205859   0.016009
     3  Na  -0.205201   0.211562
     4  Na  -0.393067   0.584814
     5  Na   0.181803   0.088166
     6  Na   0.050017   0.076938
     7  Na   0.211197  -0.033603
 Sum of Mulliken charges =  -0.00000   1.00000

 Dipole moment (field-independent basis, Debye):
    X=              0.3777    Y=             -0.1247    Z=              0.5732  Tot=              0.6977
 Quadrupole moment (field-independent basis, Debye-Ang):
   XX=            -44.0707   YY=            -74.3262   ZZ=            -74.7027
   XY=              0.5790   XZ=              0.1131   YZ=             -0.3248

 Normal termination of Gaussian 16 at Thu Dec  7 20:40:26 2023.
