 Gaussian 16, Revision B.01,
 Gaussian 16:  ES64L-G16RevB.01 20-Dec-2017

 -------------------------
 #P B3LYP/6-311+g(d) force
 -------------------------

 -----
 DPGEN
 -----
 Symbolic Z-matrix:
 Charge =  0 Multiplicity = 2

                         Standard orientation:
 ---------------------------------------------------------------------
 Center     Atomic      Atomic             Coordinates (Angstroms)
 Number     Number       Type             X           Y           Z
 ---------------------------------------------------------------------
      1         11           0        1.058294   -0.290254    1.692701
      2         11           0       -2.155646    0.625381   -0.546180
      3         11           0        3.625123   -1.475061    0.059603
      4         11           0       -3.576630   -1.432162    0.393417
      5         11           0       -0.106234   -1.913558   -0.772019
      6         11           0        1.159672    1.458008   -1.600614
      7         11           0       -0.004578    3.027645    0.773091
 ---------------------------------------------------------------------

 SCF Done:  E(UB3LYP) =  -1136.12168537     A.U. after   19 cycles

 The electronic state is 2-A.
 Alpha  occ. eigenvalues --  -38.44621 -38.44485 -38.44087 -38.43679 -38.43645
 Alpha  occ. eigenvalues --  -38.43321 -38.43017  -2.20408  -2.20365  -2.19976
 Alpha  occ. eigenvalues --   -2.19675  -2.19557  -2.19227  -2.18893  -1.14278
 Alpha  occ. eigenvalues --   -1.14089  -1.14070  -1.14036  -1.13972  -1.13959
 Alpha  occ. eigenvalues --   -1.13732  -1.13657  -1.13548  -1.13338  -1.13308
 Alpha  occ. eigenvalues --   -1.13253  -1.13250  -1.13197  -1.13153  -1.12913
 Alpha  occ. eigenvalues --   -1.12894  -1.12848  -1.12550  -1.12537  -1.12524
 Alpha  occ. eigenvalues --   -0.18509  -0.13506  -0.12388  -0.10469
 Alpha virt. eigenvalues --   -0.06573  -0.04823  -0.04344  -0.03311  -0.02980
 Alpha virt. eigenvalues --   -0.02364  -0.02144  -0.01210  -0.00476  -0.00100
 Alpha virt. eigenvalues --    0.00174   0.00258   0.00664   0.00788   0.00836

  Beta  occ. eigenvalues --  -38.44621 -38.44482 -38.44059 -38.43666 -38.43586
  Beta  occ. eigenvalues --  -38.43267 -38.43002  -2.20411  -2.20360  -2.19928
  Beta  occ. eigenvalues --   -2.19656  -2.19449  -2.19129  -2.18866  -1.14274
  Beta  occ. eigenvalues --   -1.14086  -1.14066  -1.14038  -1.13963  -1.13955
  Beta  occ. eigenvalues --   -1.13703  -1.13593  -1.13517  -1.13320  -1.13264
  Beta  occ. eigenvalues --   -1.13246  -1.13175  -1.13124  -1.13070  -1.12851
  Beta  occ. eigenvalues --   -1.12811  -1.12783  -1.12531  -1.12515  -1.12489
  Beta  occ. eigenvalues --   -0.17790  -0.13329  -0.12228
  Beta virt. eigenvalues --   -0.06617  -0.06389  -0.04724  -0.04200  -0.02748
  Beta virt. eigenvalues --   -0.02429  -0.02240  -0.01354  -0.01037  -0.00256
  Beta virt. eigenvalues --    0.00015   0.00214   0.00341   0.00776   0.00845

 Mulliken charges and spin densities:
               1          2
     1  Na  -0.385663   0.367700
     2  Na  -0.479475   0.330250
     3  Na   0.288789   0.007525
     4  Na   0.564812  -0.139913
     5  Na   0.000049   0.221317
     6  Na  -0.141395   0.205457
     7  Na   0.152883   0.007664
 Sum of Mulliken charges =   0.00000   1.00000

 Dipole moment (field-independent basis, Debye):
    X=              0.4999    Y=             -0.5466    Z=             -0.0433  Tot=              0.7420
 Quadrupole moment (field-independent basis, Debye-Ang):
   XX=            -52.7352   YY=            -66.1405   ZZ=            -73.6339
   XY=              0.2426   XZ=             -3.7006   YZ=              0.6386

 Normal termination of Gaussian 16 at Fri Dec  8 00:36:15 2023.
