 Gaussian 16, Revision B.01,
 Gaussian 16:  ES64L-G16RevB.01 20-Dec-2017

 -------------------------
 #P B3LYP/6-311+g(d) force
 -------------------------

 -----
 DPGEN
 -----
 Symbolic Z-matrix:
 Charge =  0 Multiplicity = 2

                         Standard orientation:
 ---------------------------------------------------------------------
 Center     Atomic      Atomic             Coordinates (Angstroms)
 Number     Number       Type             X           Y           Z
 ---------------------------------------------------------------------
      1         11           0       -3.171140   -0.104597   -0.058674
      2         11           0        2.414145   -1.694908   -0.515340
      3         11           0       -0.711843   -2.391509    0.530405
      4         11           0       -0.256192   -0.235191   -1.829410
      5         11           0        2.263169    1.908170    0.099000
      6         11           0        0.368886   -0.029126    1.843351
      7         11           0       -0.907025    2.547161   -0.069333
 ---------------------------------------------------------------------

 SCF Done:  E(UB3LYP) =  -1136.13627697     A.U. after   18 cycles

 The electronic state is 2-A.
 Alpha  occ. eigenvalues --  -38.43765 -38.43551 -38.43543 -38.43464 -38.43459
 Alpha  occ. eigenvalues --  -38.43212 -38.43189  -2.19611  -2.19550  -2.19445
 Alpha  occ. eigenvalues --   -2.19427  -2.19336  -2.19181  -2.19085  -1.13331
 Alpha  occ. eigenvalues --   -1.13288  -1.13267  -1.13265  -1.13222  -1.13162
 Alpha  occ. eigenvalues --   -1.13153  -1.13111  -1.13094  -1.13071  -1.13064
 Alpha  occ. eigenvalues --   -1.13030  -1.13010  -1.12999  -1.12966  -1.12849
 Alpha  occ. eigenvalues --   -1.12822  -1.12763  -1.12761  -1.12754  -1.12698
 Alpha  occ. eigenvalues --   -0.19275  -0.12977  -0.12725  -0.11199
 Alpha virt. eigenvalues --   -0.05341  -0.04917  -0.04456  -0.03234  -0.03137
 Alpha virt. eigenvalues --   -0.02730  -0.01433  -0.00941  -0.00101   0.00041
 Alpha virt. eigenvalues --    0.00136   0.00356   0.00857   0.00947   0.00959

  Beta  occ. eigenvalues --  -38.43764 -38.43536 -38.43459 -38.43455 -38.43387
  Beta  occ. eigenvalues --  -38.43190 -38.43184  -2.19612  -2.19404  -2.19397
  Beta  occ. eigenvalues --   -2.19333  -2.19304  -2.19148  -2.19079  -1.13285
  Beta  occ. eigenvalues --   -1.13270  -1.13254  -1.13228  -1.13138  -1.13101
  Beta  occ. eigenvalues --   -1.13065  -1.13058  -1.13031  -1.13025  -1.13010
  Beta  occ. eigenvalues --   -1.12988  -1.12971  -1.12957  -1.12937  -1.12813
  Beta  occ. eigenvalues --   -1.12761  -1.12758  -1.12742  -1.12729  -1.12693
  Beta  occ. eigenvalues --   -0.18526  -0.12734  -0.12442
  Beta virt. eigenvalues --   -0.07207  -0.05296  -0.04915  -0.04435  -0.02470
  Beta virt. eigenvalues --   -0.02308  -0.01647  -0.01340  -0.00878  -0.00022
  Beta virt. eigenvalues --    0.00015   0.00148   0.00381   0.00924   0.00936

 Mulliken charges and spin densities:
               1          2
     1  Na   0.027920  -0.098891
     2  Na   0.111900   0.005592
     3  Na   0.469832   0.047704
     4  Na  -0.469995   0.682603
     5  Na   0.099353  -0.068835
     6  Na  -0.296017   0.519432
     7  Na   0.057006  -0.087605
 Sum of Mulliken charges =  -0.00000   1.00000

 Dipole moment (field-independent basis, Debye):
    X=              0.0008    Y=              0.0352    Z=             -0.1247  Tot=              0.1296
 Quadrupole moment (field-independent basis, Debye-Ang):
   XX=            -56.7763   YY=            -65.2689   ZZ=            -72.2024
   XY=             -0.3254   XZ=             -1.3202   YZ=             -0.0922

 Normal termination of Gaussian 16 at Thu Dec  7 09:53:51 2023.
