 Gaussian 16, Revision B.01,
 Gaussian 16:  ES64L-G16RevB.01 20-Dec-2017

 -------------------------
 #P B3LYP/6-311+g(d) force
 -------------------------

 -----
 DPGEN
 -----
 Symbolic Z-matrix:
 Charge =  0 Multiplicity = 2

                         Standard orientation:
 ---------------------------------------------------------------------
 Center     Atomic      Atomic             Coordinates (Angstroms)
 Number     Number       Type             X           Y           Z
 ---------------------------------------------------------------------
      1         11           0        3.196060   -0.951287   -0.353524
      2         11           0       -2.286889   -1.014642    1.677974
      3         11           0        0.833466    0.424876    2.149190
      4         11           0       -1.463015    2.164538   -0.514280
      5         11           0        1.609973    2.818941   -0.617801
      6         11           0       -2.829895   -0.591780   -1.490628
      7         11           0        0.940301   -2.850645   -0.850931
 ---------------------------------------------------------------------

 SCF Done:  E(UB3LYP) =  -1136.12450767     A.U. after   19 cycles

 The electronic state is 2-A.
 Alpha  occ. eigenvalues --  -38.44514 -38.44289 -38.44097 -38.44066 -38.43908
 Alpha  occ. eigenvalues --  -38.43713 -38.43625  -2.20346  -2.20128  -2.19940
 Alpha  occ. eigenvalues --   -2.19870  -2.19738  -2.19577  -2.19439  -1.14026
 Alpha  occ. eigenvalues --   -1.13983  -1.13963  -1.13792  -1.13788  -1.13773
 Alpha  occ. eigenvalues --   -1.13644  -1.13623  -1.13576  -1.13564  -1.13526
 Alpha  occ. eigenvalues --   -1.13500  -1.13396  -1.13369  -1.13340  -1.13283
 Alpha  occ. eigenvalues --   -1.13248  -1.13223  -1.13099  -1.13071  -1.13070
 Alpha  occ. eigenvalues --   -0.17497  -0.13311  -0.12301  -0.11454
 Alpha virt. eigenvalues --   -0.05694  -0.05404  -0.04916  -0.03744  -0.03167
 Alpha virt. eigenvalues --   -0.02802  -0.01230  -0.00865  -0.00628  -0.00478
 Alpha virt. eigenvalues --   -0.00234   0.00299   0.00432   0.00567   0.00654

  Beta  occ. eigenvalues --  -38.44433 -38.44242 -38.44066 -38.44051 -38.43903
  Beta  occ. eigenvalues --  -38.43694 -38.43621  -2.20199  -2.20046  -2.19883
  Beta  occ. eigenvalues --   -2.19843  -2.19729  -2.19545  -2.19431  -1.13925
  Beta  occ. eigenvalues --   -1.13885  -1.13847  -1.13742  -1.13723  -1.13704
  Beta  occ. eigenvalues --   -1.13628  -1.13579  -1.13536  -1.13524  -1.13504
  Beta  occ. eigenvalues --   -1.13481  -1.13385  -1.13364  -1.13329  -1.13265
  Beta  occ. eigenvalues --   -1.13215  -1.13197  -1.13089  -1.13065  -1.13061
  Beta  occ. eigenvalues --   -0.16822  -0.13112  -0.12103
  Beta virt. eigenvalues --   -0.07563  -0.05538  -0.05219  -0.04410  -0.03481
  Beta virt. eigenvalues --   -0.02613  -0.01960  -0.01188  -0.00806  -0.00492
  Beta virt. eigenvalues --   -0.00315  -0.00030   0.00448   0.00554   0.00762

 Mulliken charges and spin densities:
               1          2
     1  Na   0.135512   0.066648
     2  Na   0.057753   0.104804
     3  Na  -0.262900   0.385907
     4  Na  -0.334691   0.215127
     5  Na   0.319921  -0.093408
     6  Na   0.216252   0.275232
     7  Na  -0.131847   0.045691
 Sum of Mulliken charges =  -0.00000   1.00000

 Dipole moment (field-independent basis, Debye):
    X=             -0.0659    Y=             -0.1747    Z=             -0.0940  Tot=              0.2090
 Quadrupole moment (field-independent basis, Debye-Ang):
   XX=            -61.6103   YY=            -69.8027   ZZ=            -68.1583
   XY=              4.8089   XZ=              0.3589   YZ=             -0.1649

 Normal termination of Gaussian 16 at Sun Dec  3 18:42:40 2023.
