 Gaussian 16, Revision B.01,
 Gaussian 16:  ES64L-G16RevB.01 20-Dec-2017

 -------------------------
 #P B3LYP/6-311+g(d) force
 -------------------------

 -----
 DPGEN
 -----
 Symbolic Z-matrix:
 Charge =  0 Multiplicity = 2

                         Standard orientation:
 ---------------------------------------------------------------------
 Center     Atomic      Atomic             Coordinates (Angstroms)
 Number     Number       Type             X           Y           Z
 ---------------------------------------------------------------------
      1         11           0        1.959051   -1.932326    0.976368
      2         11           0        2.284664   -0.374054   -1.769535
      3         11           0        2.903299    1.916820    0.136562
      4         11           0       -0.950696    2.423919    0.372374
      5         11           0       -1.518439   -0.427926    2.372314
      6         11           0       -3.762964    0.259864   -1.327002
      7         11           0       -0.914914   -1.866297   -0.761082
 ---------------------------------------------------------------------

 SCF Done:  E(UB3LYP) =  -1136.12263577     A.U. after   21 cycles

 The electronic state is 2-A.
 Alpha  occ. eigenvalues --  -38.44819 -38.44540 -38.44273 -38.44066 -38.43765
 Alpha  occ. eigenvalues --  -38.43561 -38.43334  -2.20599  -2.20358  -2.20163
 Alpha  occ. eigenvalues --   -2.19911  -2.19531  -2.19377  -2.19188  -1.14258
 Alpha  occ. eigenvalues --   -1.14248  -1.14209  -1.14021  -1.13999  -1.13971
 Alpha  occ. eigenvalues --   -1.13864  -1.13819  -1.13807  -1.13576  -1.13566
 Alpha  occ. eigenvalues --   -1.13542  -1.13223  -1.13211  -1.13145  -1.13064
 Alpha  occ. eigenvalues --   -1.13033  -1.13003  -1.12884  -1.12872  -1.12801
 Alpha  occ. eigenvalues --   -0.17537  -0.13690  -0.11491  -0.11288
 Alpha virt. eigenvalues --   -0.06101  -0.05389  -0.05039  -0.03338  -0.03003
 Alpha virt. eigenvalues --   -0.02754  -0.01869  -0.01022  -0.00718  -0.00214
 Alpha virt. eigenvalues --    0.00022   0.00174   0.00329   0.00428   0.00511

  Beta  occ. eigenvalues --  -38.44755 -38.44463 -38.44251 -38.44059 -38.43757
  Beta  occ. eigenvalues --  -38.43566 -38.43320  -2.20479  -2.20216  -2.20122
  Beta  occ. eigenvalues --   -2.19900  -2.19518  -2.19388  -2.19167  -1.14173
  Beta  occ. eigenvalues --   -1.14161  -1.14133  -1.13921  -1.13901  -1.13870
  Beta  occ. eigenvalues --   -1.13839  -1.13790  -1.13782  -1.13570  -1.13553
  Beta  occ. eigenvalues --   -1.13525  -1.13208  -1.13191  -1.13141  -1.13066
  Beta  occ. eigenvalues --   -1.13041  -1.13010  -1.12872  -1.12838  -1.12778
  Beta  occ. eigenvalues --   -0.16991  -0.13276  -0.11359
  Beta virt. eigenvalues --   -0.07623  -0.05671  -0.05263  -0.04574  -0.03260
  Beta virt. eigenvalues --   -0.02376  -0.02137  -0.01565  -0.00877  -0.00340
  Beta virt. eigenvalues --   -0.00149   0.00105   0.00333   0.00440   0.00587

 Mulliken charges and spin densities:
               1          2
     1  Na   0.627241   0.233937
     2  Na   0.022358  -0.078865
     3  Na  -0.187101  -0.072027
     4  Na  -0.179583   0.214512
     5  Na  -0.165821   0.217980
     6  Na   0.139917   0.120268
     7  Na  -0.257011   0.364196
 Sum of Mulliken charges =  -0.00000   1.00000

 Dipole moment (field-independent basis, Debye):
    X=             -0.2353    Y=             -0.3256    Z=              0.1934  Tot=              0.4459
 Quadrupole moment (field-independent basis, Debye-Ang):
   XX=            -57.8139   YY=            -75.1817   ZZ=            -64.8960
   XY=             -2.0480   XZ=              2.1249   YZ=             -1.0333

 Normal termination of Gaussian 16 at Sun Dec  3 21:07:55 2023.
