 Gaussian 16, Revision B.01,
 Gaussian 16:  ES64L-G16RevB.01 20-Dec-2017

 -------------------------
 #P B3LYP/6-311+g(d) force
 -------------------------

 -----
 DPGEN
 -----
 Symbolic Z-matrix:
 Charge =  0 Multiplicity = 2

                         Standard orientation:
 ---------------------------------------------------------------------
 Center     Atomic      Atomic             Coordinates (Angstroms)
 Number     Number       Type             X           Y           Z
 ---------------------------------------------------------------------
      1         11           0       -0.519767    0.122526   -1.695518
      2         11           0        2.843156   -1.469806   -0.563465
      3         11           0        2.929545    1.597496    0.397670
      4         11           0       -0.890434   -2.760307   -0.095046
      5         11           0       -1.472480    2.737623   -0.592192
      6         11           0       -2.975573   -0.377419    0.528860
      7         11           0        0.085553    0.149888    2.019691
 ---------------------------------------------------------------------

 SCF Done:  E(UB3LYP) =  -1136.13098459     A.U. after   20 cycles

 The electronic state is 2-A.
 Alpha  occ. eigenvalues --  -38.44237 -38.44215 -38.44158 -38.44090 -38.43487
 Alpha  occ. eigenvalues --  -38.43200 -38.42943  -2.20129  -2.20020  -2.19965
 Alpha  occ. eigenvalues --   -2.19956  -2.19457  -2.19050  -2.18809  -1.13815
 Alpha  occ. eigenvalues --   -1.13805  -1.13748  -1.13732  -1.13693  -1.13663
 Alpha  occ. eigenvalues --   -1.13634  -1.13623  -1.13607  -1.13585  -1.13578
 Alpha  occ. eigenvalues --   -1.13571  -1.13169  -1.13120  -1.13082  -1.12730
 Alpha  occ. eigenvalues --   -1.12679  -1.12674  -1.12494  -1.12466  -1.12450
 Alpha  occ. eigenvalues --   -0.18418  -0.13396  -0.11976  -0.11020
 Alpha virt. eigenvalues --   -0.05875  -0.05335  -0.04393  -0.03454  -0.02823
 Alpha virt. eigenvalues --   -0.02712  -0.01674  -0.01094  -0.00497  -0.00266
 Alpha virt. eigenvalues --   -0.00034   0.00344   0.00763   0.00778   0.00839

  Beta  occ. eigenvalues --  -38.44222 -38.44210 -38.44149 -38.44005 -38.43422
  Beta  occ. eigenvalues --  -38.43187 -38.42941  -2.20105  -2.20014  -2.19949
  Beta  occ. eigenvalues --   -2.19799  -2.19338  -2.19031  -2.18808  -1.13801
  Beta  occ. eigenvalues --   -1.13765  -1.13730  -1.13729  -1.13672  -1.13658
  Beta  occ. eigenvalues --   -1.13615  -1.13597  -1.13568  -1.13520  -1.13481
  Beta  occ. eigenvalues --   -1.13454  -1.13086  -1.13035  -1.12999  -1.12698
  Beta  occ. eigenvalues --   -1.12667  -1.12655  -1.12494  -1.12460  -1.12432
  Beta  occ. eigenvalues --   -0.17704  -0.13205  -0.11680
  Beta virt. eigenvalues --   -0.07175  -0.05744  -0.05189  -0.04342  -0.02807
  Beta virt. eigenvalues --   -0.02135  -0.01748  -0.01524  -0.00981  -0.00484
  Beta virt. eigenvalues --   -0.00273   0.00093   0.00384   0.00828   0.00869

 Mulliken charges and spin densities:
               1          2
     1  Na  -0.007492   0.458327
     2  Na  -0.112554   0.001457
     3  Na   0.054500  -0.026766
     4  Na  -0.183048  -0.065151
     5  Na   0.004120  -0.052522
     6  Na   0.471485   0.140483
     7  Na  -0.227012   0.544172
 Sum of Mulliken charges =  -0.00000   1.00000

 Dipole moment (field-independent basis, Debye):
    X=              0.2319    Y=              0.0879    Z=              0.2796  Tot=              0.3737
 Quadrupole moment (field-independent basis, Debye-Ang):
   XX=            -56.4719   YY=            -65.2956   ZZ=            -73.1956
   XY=              0.4571   XZ=             -1.9841   YZ=              1.0070

 Normal termination of Gaussian 16 at Thu Dec  7 09:46:47 2023.
