 Gaussian 16, Revision B.01,
 Gaussian 16:  ES64L-G16RevB.01 20-Dec-2017

 -------------------------
 #P B3LYP/6-311+g(d) force
 -------------------------

 -----
 DPGEN
 -----
 Symbolic Z-matrix:
 Charge =  0 Multiplicity = 2

                         Standard orientation:
 ---------------------------------------------------------------------
 Center     Atomic      Atomic             Coordinates (Angstroms)
 Number     Number       Type             X           Y           Z
 ---------------------------------------------------------------------
      1         11           0       -1.044416    2.431630    0.111967
      2         11           0       -0.215038   -0.037725    1.878752
      3         11           0        2.330786   -1.360412    0.062065
      4         11           0       -0.650402   -2.561662    0.056475
      5         11           0        2.062845    1.710919   -0.006415
      6         11           0       -2.653656   -0.190514   -0.277482
      7         11           0        0.169881    0.007765   -1.825361
 ---------------------------------------------------------------------

 SCF Done:  E(UB3LYP) =  -1136.13080615     A.U. after   17 cycles

 The electronic state is 2-A.
 Alpha  occ. eigenvalues --  -38.43535 -38.43462 -38.43342 -38.43300 -38.43269
 Alpha  occ. eigenvalues --  -38.43152 -38.43138  -2.19582  -2.19530  -2.19323
 Alpha  occ. eigenvalues --   -2.19265  -2.19235  -2.19125  -2.19111  -1.13300
 Alpha  occ. eigenvalues --   -1.13249  -1.13240  -1.13209  -1.13205  -1.13176
 Alpha  occ. eigenvalues --   -1.13020  -1.13014  -1.12995  -1.12962  -1.12938
 Alpha  occ. eigenvalues --   -1.12915  -1.12907  -1.12877  -1.12822  -1.12785
 Alpha  occ. eigenvalues --   -1.12770  -1.12766  -1.12756  -1.12728  -1.12704
 Alpha  occ. eigenvalues --   -0.20174  -0.13231  -0.12990  -0.11551
 Alpha virt. eigenvalues --   -0.04857  -0.04711  -0.04586  -0.03367  -0.03210
 Alpha virt. eigenvalues --   -0.02838  -0.00968  -0.00865  -0.00053   0.00357
 Alpha virt. eigenvalues --    0.00362   0.00390   0.01000   0.01044   0.01051

  Beta  occ. eigenvalues --  -38.43446 -38.43377 -38.43331 -38.43293 -38.43262
  Beta  occ. eigenvalues --  -38.43144 -38.43130  -2.19421  -2.19375  -2.19308
  Beta  occ. eigenvalues --   -2.19256  -2.19227  -2.19115  -2.19101  -1.13214
  Beta  occ. eigenvalues --   -1.13153  -1.13138  -1.13112  -1.13094  -1.13074
  Beta  occ. eigenvalues --   -1.13015  -1.13006  -1.12968  -1.12925  -1.12908
  Beta  occ. eigenvalues --   -1.12901  -1.12861  -1.12833  -1.12820  -1.12776
  Beta  occ. eigenvalues --   -1.12760  -1.12728  -1.12723  -1.12711  -1.12701
  Beta  occ. eigenvalues --   -0.19379  -0.12927  -0.12680
  Beta virt. eigenvalues --   -0.07504  -0.04855  -0.04713  -0.04594  -0.02478
  Beta virt. eigenvalues --   -0.02328  -0.01728  -0.00903  -0.00810   0.00082
  Beta virt. eigenvalues --    0.00302   0.00315   0.00379   0.01022   0.01027

 Mulliken charges and spin densities:
               1          2
     1  Na   0.369676  -0.021155
     2  Na  -0.867225   0.594426
     3  Na   0.287749  -0.043949
     4  Na   0.380268  -0.031372
     5  Na   0.310415  -0.036056
     6  Na   0.355619  -0.004308
     7  Na  -0.836503   0.542414
 Sum of Mulliken charges =  -0.00000   1.00000

 Dipole moment (field-independent basis, Debye):
    X=              0.0253    Y=             -0.0149    Z=              0.0436  Tot=              0.0526
 Quadrupole moment (field-independent basis, Debye-Ang):
   XX=            -61.8991   YY=            -63.4781   ZZ=            -70.4909
   XY=             -0.0472   XZ=              0.8250   YZ=              0.0922

 Normal termination of Gaussian 16 at Fri Dec  8 19:30:11 2023.
