 Gaussian 16, Revision B.01,
 Gaussian 16:  ES64L-G16RevB.01 20-Dec-2017

 -------------------------
 #P B3LYP/6-311+g(d) force
 -------------------------

 -----
 DPGEN
 -----
 Symbolic Z-matrix:
 Charge =  0 Multiplicity = 2

                         Standard orientation:
 ---------------------------------------------------------------------
 Center     Atomic      Atomic             Coordinates (Angstroms)
 Number     Number       Type             X           Y           Z
 ---------------------------------------------------------------------
      1         11           0        0.182361    0.049069   -1.856269
      2         11           0        0.726144   -2.625344   -0.074851
      3         11           0       -2.263345    1.914550   -0.057350
      4         11           0       -2.827231   -1.560124   -0.248440
      5         11           0        0.971496    2.579139   -0.024892
      6         11           0        3.238914   -0.212981   -0.107447
      7         11           0       -0.028339   -0.144309    2.369248
 ---------------------------------------------------------------------

 SCF Done:  E(UB3LYP) =  -1136.13790441     A.U. after   18 cycles

 The electronic state is 2-A.
 Alpha  occ. eigenvalues --  -38.44358 -38.44050 -38.43814 -38.43724 -38.43491
 Alpha  occ. eigenvalues --  -38.43235 -38.43043  -2.20192  -2.19868  -2.19667
 Alpha  occ. eigenvalues --   -2.19610  -2.19336  -2.19097  -2.18922  -1.13841
 Alpha  occ. eigenvalues --   -1.13820  -1.13811  -1.13540  -1.13525  -1.13518
 Alpha  occ. eigenvalues --   -1.13353  -1.13331  -1.13289  -1.13276  -1.13265
 Alpha  occ. eigenvalues --   -1.13252  -1.13011  -1.13003  -1.12977  -1.12791
 Alpha  occ. eigenvalues --   -1.12770  -1.12708  -1.12614  -1.12582  -1.12546
 Alpha  occ. eigenvalues --   -0.18470  -0.12809  -0.12300  -0.11284
 Alpha virt. eigenvalues --   -0.05657  -0.05034  -0.04440  -0.03290  -0.03224
 Alpha virt. eigenvalues --   -0.03045  -0.01549  -0.00941  -0.00207  -0.00145
 Alpha virt. eigenvalues --   -0.00116   0.00361   0.00759   0.00864   0.00915

  Beta  occ. eigenvalues --  -38.44249 -38.44050 -38.43814 -38.43659 -38.43489
  Beta  occ. eigenvalues --  -38.43229 -38.43038  -2.19991  -2.19869  -2.19610
  Beta  occ. eigenvalues --   -2.19547  -2.19335  -2.19089  -2.18916  -1.13707
  Beta  occ. eigenvalues --   -1.13675  -1.13670  -1.13531  -1.13523  -1.13517
  Beta  occ. eigenvalues --   -1.13282  -1.13272  -1.13268  -1.13258  -1.13241
  Beta  occ. eigenvalues --   -1.13185  -1.13011  -1.12981  -1.12980  -1.12784
  Beta  occ. eigenvalues --   -1.12737  -1.12708  -1.12607  -1.12554  -1.12546
  Beta  occ. eigenvalues --   -0.17711  -0.12628  -0.12081
  Beta virt. eigenvalues --   -0.07289  -0.05601  -0.05056  -0.04334  -0.02511
  Beta virt. eigenvalues --   -0.02307  -0.02091  -0.01466  -0.00887  -0.00260
  Beta virt. eigenvalues --   -0.00202   0.00058   0.00384   0.00855   0.00896

 Mulliken charges and spin densities:
               1          2
     1  Na  -0.159685   0.434291
     2  Na   0.163605  -0.024619
     3  Na   0.110663  -0.027345
     4  Na   0.084428  -0.065503
     5  Na   0.188910   0.015491
     6  Na   0.248727  -0.037960
     7  Na  -0.636647   0.705645
 Sum of Mulliken charges =  -0.00000   1.00000

 Dipole moment (field-independent basis, Debye):
    X=              0.1103    Y=             -0.1194    Z=              0.1860  Tot=              0.2470
 Quadrupole moment (field-independent basis, Debye-Ang):
   XX=            -57.2337   YY=            -67.0229   ZZ=            -70.9692
   XY=              0.2667   XZ=              0.4110   YZ=              0.4387

 Normal termination of Gaussian 16 at Thu Dec  7 02:10:37 2023.
