 Gaussian 16, Revision B.01,
 Gaussian 16:  ES64L-G16RevB.01 20-Dec-2017

 -------------------------
 #P B3LYP/6-311+g(d) force
 -------------------------

 -----
 DPGEN
 -----
 Symbolic Z-matrix:
 Charge =  0 Multiplicity = 2

                         Standard orientation:
 ---------------------------------------------------------------------
 Center     Atomic      Atomic             Coordinates (Angstroms)
 Number     Number       Type             X           Y           Z
 ---------------------------------------------------------------------
      1         11           0        2.915183   -1.552372   -0.278199
      2         11           0        2.298553    2.034922    0.343682
      3         11           0       -1.346413    2.740426   -0.365118
      4         11           0       -0.009439    0.433033   -1.518471
      5         11           0        0.137395   -0.649394    2.207133
      6         11           0       -0.835107   -2.524785   -0.867735
      7         11           0       -3.160172   -0.481829    0.478709
 ---------------------------------------------------------------------

 SCF Done:  E(UB3LYP) =  -1136.13251252     A.U. after   18 cycles

 The electronic state is 2-A.
 Alpha  occ. eigenvalues --  -38.44123 -38.44079 -38.44062 -38.43996 -38.43443
 Alpha  occ. eigenvalues --  -38.43432 -38.43168  -2.19955  -2.19893  -2.19847
 Alpha  occ. eigenvalues --   -2.19806  -2.19305  -2.19297  -2.19178  -1.13618
 Alpha  occ. eigenvalues --   -1.13594  -1.13577  -1.13562  -1.13545  -1.13535
 Alpha  occ. eigenvalues --   -1.13524  -1.13505  -1.13495  -1.13486  -1.13477
 Alpha  occ. eigenvalues --   -1.13421  -1.13154  -1.13045  -1.12947  -1.12939
 Alpha  occ. eigenvalues --   -1.12916  -1.12900  -1.12827  -1.12781  -1.12755
 Alpha  occ. eigenvalues --   -0.18289  -0.12847  -0.12299  -0.10967
 Alpha virt. eigenvalues --   -0.05631  -0.05428  -0.04405  -0.03359  -0.03018
 Alpha virt. eigenvalues --   -0.02684  -0.01590  -0.01149  -0.00460  -0.00204
 Alpha virt. eigenvalues --   -0.00016   0.00350   0.00761   0.00826   0.00867

  Beta  occ. eigenvalues --  -38.44071 -38.44062 -38.44032 -38.43991 -38.43439
  Beta  occ. eigenvalues --  -38.43406 -38.43113  -2.19880  -2.19849  -2.19799
  Beta  occ. eigenvalues --   -2.19786  -2.19291  -2.19260  -2.19080  -1.13552
  Beta  occ. eigenvalues --   -1.13543  -1.13522  -1.13519  -1.13511  -1.13498
  Beta  occ. eigenvalues --   -1.13492  -1.13479  -1.13475  -1.13464  -1.13438
  Beta  occ. eigenvalues --   -1.13417  -1.13123  -1.13005  -1.12925  -1.12904
  Beta  occ. eigenvalues --   -1.12898  -1.12885  -1.12762  -1.12714  -1.12695
  Beta  occ. eigenvalues --   -0.17581  -0.12667  -0.12065
  Beta virt. eigenvalues --   -0.07046  -0.05506  -0.05398  -0.04320  -0.02637
  Beta virt. eigenvalues --   -0.02332  -0.01681  -0.01473  -0.01080  -0.00440
  Beta virt. eigenvalues --   -0.00200   0.00118   0.00382   0.00818   0.00849

 Mulliken charges and spin densities:
               1          2
     1  Na   0.011082  -0.068885
     2  Na  -0.042812   0.041754
     3  Na   0.164281   0.003199
     4  Na   0.112640   0.169059
     5  Na  -0.484962   0.680652
     6  Na   0.230264   0.044332
     7  Na   0.009507   0.129887
 Sum of Mulliken charges =  -0.00000   1.00000

 Dipole moment (field-independent basis, Debye):
    X=              0.1906    Y=             -0.0808    Z=              0.4194  Tot=              0.4677
 Quadrupole moment (field-independent basis, Debye-Ang):
   XX=            -55.9177   YY=            -64.5305   ZZ=            -73.1553
   XY=             -0.3788   XZ=             -0.6847   YZ=              2.3391

 Normal termination of Gaussian 16 at Thu Dec  7 09:06:45 2023.
