 Gaussian 16, Revision B.01,
 Gaussian 16:  ES64L-G16RevB.01 20-Dec-2017

 -------------------------
 #P B3LYP/6-311+g(d) force
 -------------------------

 -----
 DPGEN
 -----
 Symbolic Z-matrix:
 Charge =  0 Multiplicity = 2

                         Standard orientation:
 ---------------------------------------------------------------------
 Center     Atomic      Atomic             Coordinates (Angstroms)
 Number     Number       Type             X           Y           Z
 ---------------------------------------------------------------------
      1         11           0        0.379102   -0.989673   -1.245943
      2         11           0        3.700673   -0.269600   -1.211958
      3         11           0        1.770624   -0.674087    1.771595
      4         11           0       -1.167742   -1.252709    1.720789
      5         11           0        0.884816    2.221407    0.015190
      6         11           0       -3.384121   -1.036218   -1.269819
      7         11           0       -2.183352    2.000879    0.220146
 ---------------------------------------------------------------------

 SCF Done:  E(UB3LYP) =  -1136.12383439     A.U. after   26 cycles

 The electronic state is 2-A.
 Alpha  occ. eigenvalues --  -38.45013 -38.44629 -38.44345 -38.44136 -38.43672
 Alpha  occ. eigenvalues --  -38.42913 -38.42379  -2.20830  -2.20431  -2.20250
 Alpha  occ. eigenvalues --   -2.20074  -2.19584  -2.18767  -2.18263  -1.14502
 Alpha  occ. eigenvalues --   -1.14469  -1.14447  -1.14097  -1.14075  -1.14048
 Alpha  occ. eigenvalues --   -1.13984  -1.13909  -1.13859  -1.13816  -1.13697
 Alpha  occ. eigenvalues --   -1.13684  -1.13275  -1.13209  -1.13194  -1.12473
 Alpha  occ. eigenvalues --   -1.12438  -1.12398  -1.11954  -1.11934  -1.11873
 Alpha  occ. eigenvalues --   -0.18581  -0.13927  -0.11864  -0.11057
 Alpha virt. eigenvalues --   -0.06454  -0.05371  -0.04338  -0.03372  -0.02662
 Alpha virt. eigenvalues --   -0.02477  -0.02367  -0.01215  -0.00562  -0.00126
 Alpha virt. eigenvalues --    0.00097   0.00314   0.00453   0.00622   0.00746

  Beta  occ. eigenvalues --  -38.44970 -38.44585 -38.44324 -38.44078 -38.43625
  Beta  occ. eigenvalues --  -38.42914 -38.42372  -2.20749  -2.20348  -2.20212
  Beta  occ. eigenvalues --   -2.19974  -2.19502  -2.18771  -2.18253  -1.14438
  Beta  occ. eigenvalues --   -1.14416  -1.14397  -1.14037  -1.14018  -1.13998
  Beta  occ. eigenvalues --   -1.13942  -1.13886  -1.13827  -1.13728  -1.13629
  Beta  occ. eigenvalues --   -1.13604  -1.13216  -1.13154  -1.13113  -1.12472
  Beta  occ. eigenvalues --   -1.12436  -1.12399  -1.11949  -1.11915  -1.11866
  Beta  occ. eigenvalues --   -0.17905  -0.13540  -0.10867
  Beta virt. eigenvalues --   -0.08018  -0.06182  -0.04790  -0.04261  -0.03078
  Beta virt. eigenvalues --   -0.02203  -0.02033  -0.01770  -0.00835  -0.00497
  Beta virt. eigenvalues --    0.00043   0.00181   0.00375   0.00589   0.00697

 Mulliken charges and spin densities:
               1          2
     1  Na  -1.558662   0.256241
     2  Na   1.146804   0.138736
     3  Na   0.278008   0.015712
     4  Na   0.016211   0.287505
     5  Na  -0.444273   0.227491
     6  Na   0.937194   0.232233
     7  Na  -0.375282  -0.157918
 Sum of Mulliken charges =  -0.00000   1.00000

 Dipole moment (field-independent basis, Debye):
    X=              0.6401    Y=             -0.6902    Z=             -0.4605  Tot=              1.0479
 Quadrupole moment (field-independent basis, Debye-Ang):
   XX=            -47.1589   YY=            -81.0931   ZZ=            -65.6585
   XY=              1.3036   XZ=              0.0333   YZ=              2.0050

 Normal termination of Gaussian 16 at Wed Dec  6 01:12:23 2023.
