 Gaussian 16, Revision B.01,
 Gaussian 16:  ES64L-G16RevB.01 20-Dec-2017

 -------------------------
 #P B3LYP/6-311+g(d) force
 -------------------------

 -----
 DPGEN
 -----
 Symbolic Z-matrix:
 Charge =  0 Multiplicity = 2

                         Standard orientation:
 ---------------------------------------------------------------------
 Center     Atomic      Atomic             Coordinates (Angstroms)
 Number     Number       Type             X           Y           Z
 ---------------------------------------------------------------------
      1         11           0       -0.531301   -0.378906    1.487098
      2         11           0        1.510967   -2.313662    0.243464
      3         11           0       -3.917338    0.317222   -0.082252
      4         11           0        2.043911    2.198319    0.385999
      5         11           0       -1.585916    2.654549   -0.585663
      6         11           0       -1.943858   -2.389258   -0.752333
      7         11           0        4.423535   -0.088265   -0.696313
 ---------------------------------------------------------------------

 SCF Done:  E(UB3LYP) =  -1136.12521430     A.U. after   19 cycles

 The electronic state is 2-A.
 Alpha  occ. eigenvalues --  -38.44335 -38.44149 -38.44078 -38.44061 -38.44002
 Alpha  occ. eigenvalues --  -38.43831 -38.43782  -2.20164  -2.20066  -2.19858
 Alpha  occ. eigenvalues --   -2.19852  -2.19840  -2.19680  -2.19595  -1.13862
 Alpha  occ. eigenvalues --   -1.13845  -1.13807  -1.13784  -1.13717  -1.13672
 Alpha  occ. eigenvalues --   -1.13553  -1.13535  -1.13529  -1.13524  -1.13519
 Alpha  occ. eigenvalues --   -1.13506  -1.13505  -1.13483  -1.13432  -1.13341
 Alpha  occ. eigenvalues --   -1.13319  -1.13305  -1.13240  -1.13234  -1.13209
 Alpha  occ. eigenvalues --   -0.17418  -0.13937  -0.12454  -0.10517
 Alpha virt. eigenvalues --   -0.06285  -0.06078  -0.04105  -0.03807  -0.02741
 Alpha virt. eigenvalues --   -0.02465  -0.01835  -0.01412  -0.00983  -0.00580
 Alpha virt. eigenvalues --   -0.00365   0.00158   0.00482   0.00625   0.00684

  Beta  occ. eigenvalues --  -38.44327 -38.44100 -38.44074 -38.44058 -38.43991
  Beta  occ. eigenvalues --  -38.43785 -38.43695  -2.20154  -2.19977  -2.19856
  Beta  occ. eigenvalues --   -2.19849  -2.19825  -2.19593  -2.19433  -1.13853
  Beta  occ. eigenvalues --   -1.13841  -1.13766  -1.13733  -1.13660  -1.13606
  Beta  occ. eigenvalues --   -1.13555  -1.13535  -1.13527  -1.13523  -1.13507
  Beta  occ. eigenvalues --   -1.13484  -1.13479  -1.13452  -1.13409  -1.13279
  Beta  occ. eigenvalues --   -1.13263  -1.13247  -1.13129  -1.13123  -1.13105
  Beta  occ. eigenvalues --   -0.16910  -0.13164  -0.12216
  Beta virt. eigenvalues --   -0.07115  -0.06160  -0.05895  -0.03812  -0.03260
  Beta virt. eigenvalues --   -0.02245  -0.02134  -0.01621  -0.01182  -0.00763
  Beta virt. eigenvalues --   -0.00522  -0.00023   0.00335   0.00576   0.00692

 Mulliken charges and spin densities:
               1          2
     1  Na   0.637546   0.240263
     2  Na  -0.470710  -0.061412
     3  Na   0.107810   0.328299
     4  Na  -0.393090  -0.047790
     5  Na  -0.109453  -0.027746
     6  Na  -0.051909   0.033507
     7  Na   0.279805   0.534879
 Sum of Mulliken charges =  -0.00000   1.00000

 Dipole moment (field-independent basis, Debye):
    X=             -0.7371    Y=             -0.3351    Z=             -0.1116  Tot=              0.8173
 Quadrupole moment (field-independent basis, Debye-Ang):
   XX=            -68.3845   YY=            -65.4362   ZZ=            -68.3526
   XY=             -0.6278   XZ=              0.2000   YZ=              1.2296

 Normal termination of Gaussian 16 at Wed Nov 29 04:10:53 2023.
