 Gaussian 16, Revision B.01,
 Gaussian 16:  ES64L-G16RevB.01 20-Dec-2017

 -------------------------
 #P B3LYP/6-311+g(d) force
 -------------------------

 -----
 DPGEN
 -----
 Symbolic Z-matrix:
 Charge =  0 Multiplicity = 2

                         Standard orientation:
 ---------------------------------------------------------------------
 Center     Atomic      Atomic             Coordinates (Angstroms)
 Number     Number       Type             X           Y           Z
 ---------------------------------------------------------------------
      1         11           0       -1.084604    1.583716   -1.392845
      2         11           0       -0.069470   -0.371788    1.995461
      3         11           0       -2.961399   -1.730108   -0.701399
      4         11           0       -3.218126    1.516261    1.217598
      5         11           0        3.132152    1.792957   -0.922098
      6         11           0        3.689078   -0.861872    1.088593
      7         11           0        0.512369   -1.929167   -1.285310
 ---------------------------------------------------------------------

 SCF Done:  E(UB3LYP) =  -1136.11743319     A.U. after   24 cycles

 The electronic state is 2-A.
 Alpha  occ. eigenvalues --  -38.45162 -38.44913 -38.44642 -38.44551 -38.44443
 Alpha  occ. eigenvalues --  -38.43440 -38.43019  -2.20955  -2.20692  -2.20427
 Alpha  occ. eigenvalues --   -2.20318  -2.20252  -2.19256  -2.18825  -1.14639
 Alpha  occ. eigenvalues --   -1.14598  -1.14563  -1.14364  -1.14350  -1.14331
 Alpha  occ. eigenvalues --   -1.14110  -1.14072  -1.14060  -1.13987  -1.13968
 Alpha  occ. eigenvalues --   -1.13957  -1.13937  -1.13896  -1.13881  -1.12921
 Alpha  occ. eigenvalues --   -1.12914  -1.12904  -1.12521  -1.12499  -1.12441
 Alpha  occ. eigenvalues --   -0.17425  -0.13770  -0.11258  -0.10895
 Alpha virt. eigenvalues --   -0.06975  -0.05848  -0.04843  -0.03235  -0.02730
 Alpha virt. eigenvalues --   -0.02587  -0.02340  -0.01570  -0.01062  -0.00434
 Alpha virt. eigenvalues --   -0.00004   0.00104   0.00151   0.00309   0.00481

  Beta  occ. eigenvalues --  -38.45091 -38.44902 -38.44634 -38.44527 -38.44401
  Beta  occ. eigenvalues --  -38.43435 -38.43011  -2.20824  -2.20672  -2.20413
  Beta  occ. eigenvalues --   -2.20273  -2.20174  -2.19246  -2.18813  -1.14548
  Beta  occ. eigenvalues --   -1.14512  -1.14459  -1.14347  -1.14337  -1.14314
  Beta  occ. eigenvalues --   -1.14091  -1.14065  -1.14053  -1.13955  -1.13933
  Beta  occ. eigenvalues --   -1.13926  -1.13887  -1.13835  -1.13822  -1.12914
  Beta  occ. eigenvalues --   -1.12905  -1.12893  -1.12514  -1.12476  -1.12430
  Beta  occ. eigenvalues --   -0.16764  -0.13676  -0.10690
  Beta virt. eigenvalues --   -0.07563  -0.06742  -0.05410  -0.04402  -0.02921
  Beta virt. eigenvalues --   -0.02418  -0.02239  -0.01750  -0.01309  -0.00736
  Beta virt. eigenvalues --   -0.00375   0.00024   0.00175   0.00298   0.00388

 Mulliken charges and spin densities:
               1          2
     1  Na  -0.410408   0.342515
     2  Na  -0.511468   0.485906
     3  Na   0.169447  -0.044820
     4  Na   0.568746  -0.055894
     5  Na  -0.045333   0.095280
     6  Na   0.332290   0.065450
     7  Na  -0.103274   0.111562
 Sum of Mulliken charges =  -0.00000   1.00000

 Dipole moment (field-independent basis, Debye):
    X=              0.2088    Y=             -0.4661    Z=              0.3220  Tot=              0.6038
 Quadrupole moment (field-independent basis, Debye-Ang):
   XX=            -50.3952   YY=            -76.7011   ZZ=            -70.0011
   XY=              0.6569   XZ=              0.8688   YZ=             -3.3373

 Normal termination of Gaussian 16 at Sun Dec  3 23:10:18 2023.
