 Gaussian 16, Revision B.01,
 Gaussian 16:  ES64L-G16RevB.01 20-Dec-2017

 -------------------------
 #P B3LYP/6-311+g(d) force
 -------------------------

 -----
 DPGEN
 -----
 Symbolic Z-matrix:
 Charge =  0 Multiplicity = 2

                         Standard orientation:
 ---------------------------------------------------------------------
 Center     Atomic      Atomic             Coordinates (Angstroms)
 Number     Number       Type             X           Y           Z
 ---------------------------------------------------------------------
      1         11           0       -2.064958    2.141957   -0.622584
      2         11           0       -1.382828   -0.129325    2.285974
      3         11           0       -3.769255   -1.091930   -0.486489
      4         11           0        1.367090    1.788644    0.114970
      5         11           0       -0.512657   -1.063232   -1.211912
      6         11           0        4.294666    0.243501   -0.256575
      7         11           0        2.067942   -1.889615    0.176616
 ---------------------------------------------------------------------

 SCF Done:  E(UB3LYP) =  -1136.11469817     A.U. after   28 cycles

 The electronic state is 2-A.
 Alpha  occ. eigenvalues --  -38.45377 -38.44665 -38.44643 -38.44454 -38.43701
 Alpha  occ. eigenvalues --  -38.43374 -38.42901  -2.21210  -2.20487  -2.20465
 Alpha  occ. eigenvalues --   -2.20350  -2.19584  -2.19210  -2.18751  -1.14880
 Alpha  occ. eigenvalues --   -1.14856  -1.14848  -1.14148  -1.14145  -1.14128
 Alpha  occ. eigenvalues --   -1.14106  -1.14102  -1.14101  -1.14062  -1.14000
 Alpha  occ. eigenvalues --   -1.13979  -1.13296  -1.13219  -1.13213  -1.12905
 Alpha  occ. eigenvalues --   -1.12864  -1.12834  -1.12464  -1.12427  -1.12366
 Alpha  occ. eigenvalues --   -0.18183  -0.14564  -0.10968  -0.10714
 Alpha virt. eigenvalues --   -0.07780  -0.05483  -0.04068  -0.03406  -0.03042
 Alpha virt. eigenvalues --   -0.02433  -0.02095  -0.01507  -0.00943  -0.00458
 Alpha virt. eigenvalues --   -0.00338   0.00173   0.00329   0.00628   0.00648

  Beta  occ. eigenvalues --  -38.45355 -38.44600 -38.44573 -38.44451 -38.43698
  Beta  occ. eigenvalues --  -38.43357 -38.42900  -2.21168  -2.20389  -2.20348
  Beta  occ. eigenvalues --   -2.20317  -2.19581  -2.19180  -2.18751  -1.14852
  Beta  occ. eigenvalues --   -1.14829  -1.14819  -1.14099  -1.14067  -1.14041
  Beta  occ. eigenvalues --   -1.14031  -1.14019  -1.14004  -1.13998  -1.13981
  Beta  occ. eigenvalues --   -1.13974  -1.13296  -1.13219  -1.13192  -1.12885
  Beta  occ. eigenvalues --   -1.12846  -1.12796  -1.12468  -1.12411  -1.12361
  Beta  occ. eigenvalues --   -0.17627  -0.14149  -0.10816
  Beta virt. eigenvalues --   -0.07573  -0.06888  -0.05354  -0.03615  -0.03175
  Beta virt. eigenvalues --   -0.02916  -0.01688  -0.01503  -0.01401  -0.00483
  Beta virt. eigenvalues --   -0.00328  -0.00214   0.00194   0.00471   0.00675

 Mulliken charges and spin densities:
               1          2
     1  Na  -0.071584   0.114555
     2  Na  -0.283039   0.408471
     3  Na   0.372928   0.204873
     4  Na  -0.371979   0.007152
     5  Na  -0.403020   0.020261
     6  Na   0.249148   0.093933
     7  Na   0.507546   0.150755
 Sum of Mulliken charges =  -0.00000   1.00000

 Dipole moment (field-independent basis, Debye):
    X=              0.2999    Y=             -0.2048    Z=              0.6521  Tot=              0.7464
 Quadrupole moment (field-independent basis, Debye-Ang):
   XX=            -45.7736   YY=            -79.0192   ZZ=            -69.7790
   XY=             -0.0938   XZ=             -2.8884   YZ=             -1.6852

 Normal termination of Gaussian 16 at Thu Dec  7 08:34:22 2023.
