 Gaussian 16, Revision B.01,
 Gaussian 16:  ES64L-G16RevB.01 20-Dec-2017

 -------------------------
 #P B3LYP/6-311+g(d) force
 -------------------------

 -----
 DPGEN
 -----
 Symbolic Z-matrix:
 Charge =  0 Multiplicity = 2

                         Standard orientation:
 ---------------------------------------------------------------------
 Center     Atomic      Atomic             Coordinates (Angstroms)
 Number     Number       Type             X           Y           Z
 ---------------------------------------------------------------------
      1         11           0        2.983743    0.995671    0.100601
      2         11           0        0.030384   -0.592457   -1.723203
      3         11           0        0.132971    0.098549    2.103071
      4         11           0       -3.087576    0.946669    0.098257
      5         11           0       -0.036226    2.881953   -0.529831
      6         11           0        2.163443   -2.162676   -0.080501
      7         11           0       -2.186738   -2.167710    0.031606
 ---------------------------------------------------------------------

 SCF Done:  E(UB3LYP) =  -1136.13465657     A.U. after   19 cycles

 The electronic state is 2-A.
 Alpha  occ. eigenvalues --  -38.44312 -38.44221 -38.43939 -38.43745 -38.43702
 Alpha  occ. eigenvalues --  -38.43427 -38.43001  -2.20129  -2.20059  -2.19794
 Alpha  occ. eigenvalues --   -2.19593  -2.19567  -2.19367  -2.18817  -1.13802
 Alpha  occ. eigenvalues --   -1.13797  -1.13773  -1.13734  -1.13726  -1.13705
 Alpha  occ. eigenvalues --   -1.13460  -1.13422  -1.13413  -1.13298  -1.13292
 Alpha  occ. eigenvalues --   -1.13246  -1.13231  -1.13213  -1.13201  -1.13031
 Alpha  occ. eigenvalues --   -1.12986  -1.12984  -1.12495  -1.12475  -1.12457
 Alpha  occ. eigenvalues --   -0.18423  -0.13403  -0.12034  -0.10812
 Alpha virt. eigenvalues --   -0.05934  -0.05474  -0.04328  -0.03474  -0.02899
 Alpha virt. eigenvalues --   -0.02566  -0.01696  -0.01128  -0.00465  -0.00319
 Alpha virt. eigenvalues --   -0.00035   0.00366   0.00717   0.00841   0.00853

  Beta  occ. eigenvalues --  -38.44312 -38.44218 -38.43847 -38.43742 -38.43697
  Beta  occ. eigenvalues --  -38.43361 -38.42989  -2.20130  -2.20057  -2.19624
  Beta  occ. eigenvalues --   -2.19591  -2.19561  -2.19247  -2.18797  -1.13806
  Beta  occ. eigenvalues --   -1.13782  -1.13774  -1.13733  -1.13710  -1.13698
  Beta  occ. eigenvalues --   -1.13348  -1.13304  -1.13292  -1.13284  -1.13277
  Beta  occ. eigenvalues --   -1.13233  -1.13226  -1.13201  -1.13188  -1.12953
  Beta  occ. eigenvalues --   -1.12903  -1.12898  -1.12476  -1.12452  -1.12446
  Beta  occ. eigenvalues --   -0.17695  -0.13204  -0.11798
  Beta virt. eigenvalues --   -0.06934  -0.05824  -0.05492  -0.04252  -0.02675
  Beta virt. eigenvalues --   -0.02133  -0.01591  -0.01575  -0.01078  -0.00525
  Beta virt. eigenvalues --   -0.00330   0.00118   0.00390   0.00791   0.00841

 Mulliken charges and spin densities:
               1          2
     1  Na   0.093984   0.036110
     2  Na  -0.011370   0.515679
     3  Na  -0.381325   0.651135
     4  Na  -0.027639  -0.007887
     5  Na  -0.105865  -0.008549
     6  Na   0.253320  -0.092511
     7  Na   0.178895  -0.093976
 Sum of Mulliken charges =  -0.00000   1.00000

 Dipole moment (field-independent basis, Debye):
    X=             -0.0255    Y=             -0.1512    Z=              0.2218  Tot=              0.2697
 Quadrupole moment (field-independent basis, Debye-Ang):
   XX=            -54.4501   YY=            -66.0778   ZZ=            -73.9798
   XY=             -0.1247   XZ=             -0.2176   YZ=             -1.2879

 Normal termination of Gaussian 16 at Tue Dec  5 17:16:07 2023.
