 Gaussian 16, Revision B.01,
 Gaussian 16:  ES64L-G16RevB.01 20-Dec-2017

 -------------------------
 #P B3LYP/6-311+g(d) force
 -------------------------

 -----
 DPGEN
 -----
 Symbolic Z-matrix:
 Charge =  0 Multiplicity = 2

                         Standard orientation:
 ---------------------------------------------------------------------
 Center     Atomic      Atomic             Coordinates (Angstroms)
 Number     Number       Type             X           Y           Z
 ---------------------------------------------------------------------
      1         11           0        0.403131    2.746306    0.138497
      2         11           0        3.042400    0.814291   -0.209851
      3         11           0        0.245366   -0.734554   -1.669890
      4         11           0       -3.018885   -1.899386   -0.217739
      5         11           0        2.161109   -2.270483    0.232944
      6         11           0       -0.382974   -0.454234    1.964351
      7         11           0       -2.450147    1.798060   -0.238312
 ---------------------------------------------------------------------

 SCF Done:  E(UB3LYP) =  -1136.12979014     A.U. after   20 cycles

 The electronic state is 2-A.
 Alpha  occ. eigenvalues --  -38.44402 -38.44365 -38.44194 -38.44065 -38.43659
 Alpha  occ. eigenvalues --  -38.43501 -38.42829  -2.20221  -2.20173  -2.20036
 Alpha  occ. eigenvalues --   -2.19939  -2.19566  -2.19370  -2.18711  -1.13896
 Alpha  occ. eigenvalues --   -1.13887  -1.13877  -1.13845  -1.13832  -1.13816
 Alpha  occ. eigenvalues --   -1.13744  -1.13698  -1.13658  -1.13650  -1.13586
 Alpha  occ. eigenvalues --   -1.13567  -1.13247  -1.13216  -1.13167  -1.13041
 Alpha  occ. eigenvalues --   -1.12998  -1.12988  -1.12398  -1.12367  -1.12351
 Alpha  occ. eigenvalues --   -0.18397  -0.13451  -0.12240  -0.10496
 Alpha virt. eigenvalues --   -0.06257  -0.05693  -0.04299  -0.03416  -0.02730
 Alpha virt. eigenvalues --   -0.02410  -0.01897  -0.01342  -0.00674  -0.00166
 Alpha virt. eigenvalues --   -0.00025   0.00310   0.00694   0.00721   0.00818

  Beta  occ. eigenvalues --  -38.44400 -38.44360 -38.44191 -38.44056 -38.43602
  Beta  occ. eigenvalues --  -38.43409 -38.42826  -2.20214  -2.20171  -2.20032
  Beta  occ. eigenvalues --   -2.19928  -2.19461  -2.19201  -2.18707  -1.13892
  Beta  occ. eigenvalues --   -1.13886  -1.13852  -1.13834  -1.13826  -1.13816
  Beta  occ. eigenvalues --   -1.13744  -1.13677  -1.13659  -1.13638  -1.13572
  Beta  occ. eigenvalues --   -1.13542  -1.13174  -1.13143  -1.13089  -1.12928
  Beta  occ. eigenvalues --   -1.12876  -1.12867  -1.12399  -1.12367  -1.12326
  Beta  occ. eigenvalues --   -0.17697  -0.13246  -0.12033
  Beta virt. eigenvalues --   -0.06641  -0.06230  -0.05588  -0.04249  -0.02658
  Beta virt. eigenvalues --   -0.02039  -0.01825  -0.01408  -0.01217  -0.00729
  Beta virt. eigenvalues --   -0.00167   0.00140   0.00353   0.00727   0.00796

 Mulliken charges and spin densities:
               1          2
     1  Na  -0.154506   0.006416
     2  Na   0.071421   0.083215
     3  Na  -0.222652   0.250025
     4  Na   0.117276   0.026985
     5  Na   0.435956   0.102288
     6  Na  -0.275326   0.501579
     7  Na   0.027832   0.029493
 Sum of Mulliken charges =  -0.00000   1.00000

 Dipole moment (field-independent basis, Debye):
    X=             -0.0850    Y=             -0.5549    Z=             -0.0280  Tot=              0.5621
 Quadrupole moment (field-independent basis, Debye-Ang):
   XX=            -53.0322   YY=            -65.5370   ZZ=            -75.5595
   XY=              0.2594   XZ=              1.0673   YZ=             -0.5494

 Normal termination of Gaussian 16 at Thu Dec  7 12:55:03 2023.
