 Gaussian 16, Revision B.01,
 Gaussian 16:  ES64L-G16RevB.01 20-Dec-2017

 -------------------------
 #P B3LYP/6-311+g(d) force
 -------------------------

 -----
 DPGEN
 -----
 Symbolic Z-matrix:
 Charge =  0 Multiplicity = 2

                         Standard orientation:
 ---------------------------------------------------------------------
 Center     Atomic      Atomic             Coordinates (Angstroms)
 Number     Number       Type             X           Y           Z
 ---------------------------------------------------------------------
      1         11           0       -0.137655    0.061011   -0.170940
      2         11           0        0.763044    3.366809    0.283388
      3         11           0       -2.258027    2.513844   -0.079853
      4         11           0       -3.271921   -0.874354   -0.254656
      5         11           0       -0.925329   -3.192181    0.582531
      6         11           0        1.999890   -2.449479   -0.364099
      7         11           0        3.829998    0.574350    0.003629
 ---------------------------------------------------------------------

 SCF Done:  E(UB3LYP) =  -1136.12735377     A.U. after   23 cycles

 The electronic state is 2-A.
 Alpha  occ. eigenvalues --  -38.44132 -38.44021 -38.43871 -38.43840 -38.43758
 Alpha  occ. eigenvalues --  -38.43473 -38.43261  -2.20013  -2.19893  -2.19802
 Alpha  occ. eigenvalues --   -2.19723  -2.19647  -2.19278  -2.19140  -1.13728
 Alpha  occ. eigenvalues --   -1.13683  -1.13665  -1.13614  -1.13571  -1.13536
 Alpha  occ. eigenvalues --   -1.13531  -1.13454  -1.13432  -1.13378  -1.13360
 Alpha  occ. eigenvalues --   -1.13345  -1.13303  -1.13286  -1.13278  -1.12935
 Alpha  occ. eigenvalues --   -1.12924  -1.12893  -1.12797  -1.12786  -1.12768
 Alpha  occ. eigenvalues --   -0.17657  -0.14079  -0.13378  -0.09736
 Alpha virt. eigenvalues --   -0.06331  -0.05733  -0.04489  -0.03018  -0.02503
 Alpha virt. eigenvalues --   -0.02228  -0.01978  -0.01665  -0.01498  -0.00118
 Alpha virt. eigenvalues --    0.00105   0.00351   0.00515   0.00614   0.00787

  Beta  occ. eigenvalues --  -38.44118 -38.44003 -38.43855 -38.43829 -38.43724
  Beta  occ. eigenvalues --  -38.43405 -38.43212  -2.19996  -2.19869  -2.19827
  Beta  occ. eigenvalues --   -2.19649  -2.19587  -2.19151  -2.19049  -1.13725
  Beta  occ. eigenvalues --   -1.13678  -1.13607  -1.13594  -1.13558  -1.13542
  Beta  occ. eigenvalues --   -1.13481  -1.13467  -1.13449  -1.13329  -1.13318
  Beta  occ. eigenvalues --   -1.13278  -1.13266  -1.13248  -1.13218  -1.12848
  Beta  occ. eigenvalues --   -1.12837  -1.12811  -1.12736  -1.12726  -1.12704
  Beta  occ. eigenvalues --   -0.17411  -0.13323  -0.12708
  Beta virt. eigenvalues --   -0.06481  -0.06382  -0.05380  -0.04368  -0.02490
  Beta virt. eigenvalues --   -0.02030  -0.01904  -0.01823  -0.01371  -0.01269
  Beta virt. eigenvalues --   -0.00008   0.00371   0.00535   0.00628   0.00680

 Mulliken charges and spin densities:
               1          2
     1  Na  -5.913446  -0.302579
     2  Na   0.255599   0.225864
     3  Na   1.673207   0.041056
     4  Na   1.095003   0.243930
     5  Na   0.705510   0.164387
     6  Na   1.372741   0.195540
     7  Na   0.811385   0.431802
 Sum of Mulliken charges =  -0.00000   1.00000

 Dipole moment (field-independent basis, Debye):
    X=             -0.5278    Y=              0.0513    Z=              0.1791  Tot=              0.5597
 Quadrupole moment (field-independent basis, Debye-Ang):
   XX=            -64.9636   YY=            -61.5394   ZZ=            -71.3770
   XY=              1.1644   XZ=             -0.2322   YZ=              0.1465

 Normal termination of Gaussian 16 at Tue Dec  5 12:56:08 2023.
