 Gaussian 16, Revision B.01,
 Gaussian 16:  ES64L-G16RevB.01 20-Dec-2017

 -------------------------
 #P B3LYP/6-311+g(d) force
 -------------------------

 -----
 DPGEN
 -----
 Symbolic Z-matrix:
 Charge =  0 Multiplicity = 2

                         Standard orientation:
 ---------------------------------------------------------------------
 Center     Atomic      Atomic             Coordinates (Angstroms)
 Number     Number       Type             X           Y           Z
 ---------------------------------------------------------------------
      1         11           0        2.927194    0.983220   -0.016464
      2         11           0       -0.033462   -0.190736    2.126394
      3         11           0       -0.342135    0.082853   -1.437570
      4         11           0       -3.448927    0.891729    0.017248
      5         11           0        1.974694   -2.238056   -0.273736
      6         11           0        0.353578    2.977177   -0.205968
      7         11           0       -1.430941   -2.506188   -0.209905
 ---------------------------------------------------------------------

 SCF Done:  E(UB3LYP) =  -1136.13403219     A.U. after   20 cycles

 The electronic state is 2-A.
 Alpha  occ. eigenvalues --  -38.44638 -38.43783 -38.43748 -38.43657 -38.43548
 Alpha  occ. eigenvalues --  -38.43419 -38.42999  -2.20396  -2.19636  -2.19624
 Alpha  occ. eigenvalues --   -2.19499  -2.19417  -2.19281  -2.19005  -1.14072
 Alpha  occ. eigenvalues --   -1.14048  -1.14038  -1.13363  -1.13320  -1.13307
 Alpha  occ. eigenvalues --   -1.13294  -1.13284  -1.13232  -1.13198  -1.13150
 Alpha  occ. eigenvalues --   -1.13115  -1.13083  -1.13040  -1.13030  -1.12956
 Alpha  occ. eigenvalues --   -1.12933  -1.12923  -1.12691  -1.12663  -1.12605
 Alpha  occ. eigenvalues --   -0.18539  -0.12938  -0.12487  -0.10518
 Alpha virt. eigenvalues --   -0.06094  -0.05092  -0.04728  -0.03008  -0.02762
 Alpha virt. eigenvalues --   -0.02467  -0.01853  -0.01183  -0.00505  -0.00388
 Alpha virt. eigenvalues --   -0.00019   0.00314   0.00754   0.00836   0.00876

  Beta  occ. eigenvalues --  -38.44640 -38.43780 -38.43738 -38.43653 -38.43443
  Beta  occ. eigenvalues --  -38.43412 -38.42947  -2.20402  -2.19633  -2.19610
  Beta  occ. eigenvalues --   -2.19494  -2.19271  -2.19223  -2.18913  -1.14063
  Beta  occ. eigenvalues --   -1.14054  -1.14043  -1.13349  -1.13322  -1.13306
  Beta  occ. eigenvalues --   -1.13270  -1.13250  -1.13225  -1.13189  -1.13132
  Beta  occ. eigenvalues --   -1.13115  -1.12960  -1.12944  -1.12921  -1.12910
  Beta  occ. eigenvalues --   -1.12901  -1.12886  -1.12623  -1.12593  -1.12538
  Beta  occ. eigenvalues --   -0.17818  -0.12733  -0.12268
  Beta virt. eigenvalues --   -0.06562  -0.06078  -0.05053  -0.04703  -0.02271
  Beta virt. eigenvalues --   -0.02036  -0.01781  -0.01339  -0.01101  -0.00557
  Beta virt. eigenvalues --   -0.00430   0.00142   0.00350   0.00782   0.00871

 Mulliken charges and spin densities:
               1          2
     1  Na   0.164863   0.039263
     2  Na  -0.603514   0.791735
     3  Na  -0.414521   0.198435
     4  Na   0.071995  -0.065159
     5  Na   0.219975   0.056539
     6  Na   0.202879  -0.038108
     7  Na   0.358323   0.017295
 Sum of Mulliken charges =  -0.00000   1.00000

 Dipole moment (field-independent basis, Debye):
    X=             -0.4609    Y=              0.1305    Z=              0.1909  Tot=              0.5156
 Quadrupole moment (field-independent basis, Debye-Ang):
   XX=            -54.3718   YY=            -61.8461   ZZ=            -76.1101
   XY=             -0.8836   XZ=             -0.6962   YZ=              0.6728

 Normal termination of Gaussian 16 at Thu Dec  7 21:26:11 2023.
