 Gaussian 16, Revision B.01,
 Gaussian 16:  ES64L-G16RevB.01 20-Dec-2017

 -------------------------
 #P B3LYP/6-311+g(d) force
 -------------------------

 -----
 DPGEN
 -----
 Symbolic Z-matrix:
 Charge =  0 Multiplicity = 2

                         Standard orientation:
 ---------------------------------------------------------------------
 Center     Atomic      Atomic             Coordinates (Angstroms)
 Number     Number       Type             X           Y           Z
 ---------------------------------------------------------------------
      1         11           0       -2.383141    0.184656   -0.887365
      2         11           0       -3.649198   -2.774393   -0.429767
      3         11           0        2.946900   -1.091530    0.258688
      4         11           0       -2.346733    3.708933   -0.104073
      5         11           0        5.726684    0.169107   -0.767719
      6         11           0       -0.515819   -1.779051    0.977132
      7         11           0        0.221307    1.582279    0.953103
 ---------------------------------------------------------------------

 SCF Done:  E(UB3LYP) =  -1136.12645821     A.U. after   19 cycles

 The electronic state is 2-A.
 Alpha  occ. eigenvalues --  -38.44344 -38.44254 -38.44045 -38.43960 -38.43801
 Alpha  occ. eigenvalues --  -38.43778 -38.43367  -2.20158  -2.20097  -2.19938
 Alpha  occ. eigenvalues --   -2.19846  -2.19605  -2.19597  -2.19182  -1.13814
 Alpha  occ. eigenvalues --   -1.13794  -1.13790  -1.13788  -1.13785  -1.13684
 Alpha  occ. eigenvalues --   -1.13670  -1.13633  -1.13550  -1.13529  -1.13514
 Alpha  occ. eigenvalues --   -1.13423  -1.13266  -1.13261  -1.13260  -1.13257
 Alpha  occ. eigenvalues --   -1.13219  -1.13214  -1.12868  -1.12866  -1.12832
 Alpha  occ. eigenvalues --   -0.17226  -0.13741  -0.12530  -0.11264
 Alpha virt. eigenvalues --   -0.05586  -0.05350  -0.04852  -0.03751  -0.02556
 Alpha virt. eigenvalues --   -0.02127  -0.01929  -0.01848  -0.01068  -0.00890
 Alpha virt. eigenvalues --   -0.00431   0.00012   0.00277   0.00568   0.00633

  Beta  occ. eigenvalues --  -38.44249 -38.44232 -38.44030 -38.43919 -38.43785
  Beta  occ. eigenvalues --  -38.43750 -38.43369  -2.20060  -2.19980  -2.19912
  Beta  occ. eigenvalues --   -2.19774  -2.19566  -2.19551  -2.19195  -1.13785
  Beta  occ. eigenvalues --   -1.13767  -1.13677  -1.13667  -1.13665  -1.13643
  Beta  occ. eigenvalues --   -1.13640  -1.13615  -1.13518  -1.13486  -1.13475
  Beta  occ. eigenvalues --   -1.13351  -1.13239  -1.13238  -1.13222  -1.13221
  Beta  occ. eigenvalues --   -1.13197  -1.13187  -1.12884  -1.12882  -1.12775
  Beta  occ. eigenvalues --   -0.16642  -0.12832  -0.12359
  Beta virt. eigenvalues --   -0.07864  -0.05391  -0.05037  -0.04410  -0.03502
  Beta virt. eigenvalues --   -0.02223  -0.01917  -0.01816  -0.01387  -0.00773
  Beta virt. eigenvalues --   -0.00592  -0.00107   0.00116   0.00422   0.00645

 Mulliken charges and spin densities:
               1          2
     1  Na  -0.626226   0.214326
     2  Na   0.710188   0.135015
     3  Na  -0.344812   0.215032
     4  Na   0.470491   0.063814
     5  Na   0.505520   0.344207
     6  Na  -0.484802  -0.004276
     7  Na  -0.230359   0.031881
 Sum of Mulliken charges =  -0.00000   1.00000

 Dipole moment (field-independent basis, Debye):
    X=             -0.8570    Y=              0.2915    Z=              0.1067  Tot=              0.9115
 Quadrupole moment (field-independent basis, Debye-Ang):
   XX=            -63.4046   YY=            -61.1982   ZZ=            -70.0789
   XY=              3.4141   XZ=             -0.3553   YZ=             -0.8178

 Normal termination of Gaussian 16 at Tue Nov 28 21:16:25 2023.
