 Gaussian 16, Revision B.01,
 Gaussian 16:  ES64L-G16RevB.01 20-Dec-2017

 -------------------------
 #P B3LYP/6-311+g(d) force
 -------------------------

 -----
 DPGEN
 -----
 Symbolic Z-matrix:
 Charge =  0 Multiplicity = 2

                         Standard orientation:
 ---------------------------------------------------------------------
 Center     Atomic      Atomic             Coordinates (Angstroms)
 Number     Number       Type             X           Y           Z
 ---------------------------------------------------------------------
      1         11           0       -1.362222    1.605120    0.771819
      2         11           0        1.621375   -0.424838    1.903423
      3         11           0       -1.827122   -1.911483    1.071713
      4         11           0       -3.829813    0.067393   -0.967238
      5         11           0       -0.134283   -0.694138   -1.635211
      6         11           0        3.917196   -1.148913   -0.934845
      7         11           0        1.614868    2.506859   -0.209660
 ---------------------------------------------------------------------

 SCF Done:  E(UB3LYP) =  -1136.12284187     A.U. after   25 cycles

 The electronic state is 2-A.
 Alpha  occ. eigenvalues --  -38.45171 -38.45024 -38.44280 -38.44185 -38.43961
 Alpha  occ. eigenvalues --  -38.43022 -38.42624  -2.20984  -2.20844  -2.20105
 Alpha  occ. eigenvalues --   -2.19937  -2.19822  -2.18849  -2.18536  -1.14697
 Alpha  occ. eigenvalues --   -1.14652  -1.14580  -1.14512  -1.14499  -1.14462
 Alpha  occ. eigenvalues --   -1.13786  -1.13750  -1.13730  -1.13606  -1.13601
 Alpha  occ. eigenvalues --   -1.13563  -1.13503  -1.13483  -1.13430  -1.12530
 Alpha  occ. eigenvalues --   -1.12514  -1.12486  -1.12232  -1.12210  -1.12151
 Alpha  occ. eigenvalues --   -0.18172  -0.13702  -0.11188  -0.10877
 Alpha virt. eigenvalues --   -0.06994  -0.05066  -0.05018  -0.03079  -0.02797
 Alpha virt. eigenvalues --   -0.02422  -0.02255  -0.01316  -0.00951  -0.00285
 Alpha virt. eigenvalues --    0.00041   0.00164   0.00243   0.00554   0.00666

  Beta  occ. eigenvalues --  -38.45143 -38.44998 -38.44232 -38.44169 -38.43914
  Beta  occ. eigenvalues --  -38.43020 -38.42614  -2.20933  -2.20796  -2.20018
  Beta  occ. eigenvalues --   -2.19906  -2.19738  -2.18845  -2.18522  -1.14653
  Beta  occ. eigenvalues --   -1.14616  -1.14542  -1.14480  -1.14459  -1.14433
  Beta  occ. eigenvalues --   -1.13725  -1.13681  -1.13665  -1.13583  -1.13579
  Beta  occ. eigenvalues --   -1.13543  -1.13450  -1.13423  -1.13352  -1.12527
  Beta  occ. eigenvalues --   -1.12506  -1.12483  -1.12227  -1.12165  -1.12147
  Beta  occ. eigenvalues --   -0.17465  -0.13494  -0.10746
  Beta virt. eigenvalues --   -0.07391  -0.06743  -0.04911  -0.04469  -0.02824
  Beta virt. eigenvalues --   -0.02517  -0.01938  -0.01638  -0.01053  -0.00693
  Beta virt. eigenvalues --   -0.00200   0.00095   0.00238   0.00338   0.00663

 Mulliken charges and spin densities:
               1          2
     1  Na  -0.356739   0.184915
     2  Na   0.061500   0.095553
     3  Na   0.045618   0.275549
     4  Na   0.748263   0.063880
     5  Na  -0.523671   0.226172
     6  Na   0.021684   0.125506
     7  Na   0.003345   0.028426
 Sum of Mulliken charges =  -0.00000   1.00000

 Dipole moment (field-independent basis, Debye):
    X=             -0.8901    Y=             -0.1613    Z=             -0.2739  Tot=              0.9451
 Quadrupole moment (field-independent basis, Debye-Ang):
   XX=            -50.1559   YY=            -77.1315   ZZ=            -67.6090
   XY=              2.0395   XZ=              1.7981   YZ=             -2.4695

 Normal termination of Gaussian 16 at Tue Dec  5 11:59:57 2023.
