 Gaussian 16, Revision B.01,
 Gaussian 16:  ES64L-G16RevB.01 20-Dec-2017

 -------------------------
 #P B3LYP/6-311+g(d) force
 -------------------------

 -----
 DPGEN
 -----
 Symbolic Z-matrix:
 Charge =  0 Multiplicity = 2

                         Standard orientation:
 ---------------------------------------------------------------------
 Center     Atomic      Atomic             Coordinates (Angstroms)
 Number     Number       Type             X           Y           Z
 ---------------------------------------------------------------------
      1         11           0       -0.001401    1.402089   -0.010616
      2         11           0       -1.251525   -1.305428    0.966376
      3         11           0       -2.884405    1.027709    0.301755
      4         11           0       -1.264114   -0.427152   -1.649030
      5         11           0        1.251677   -1.321308   -0.945827
      6         11           0        1.266282   -0.399979    1.655382
      7         11           0        2.883486    1.024068   -0.318039
 ---------------------------------------------------------------------

 SCF Done:  E(UB3LYP) =  -1136.06545728     A.U. after   26 cycles

 The electronic state is 2-A.
 Alpha  occ. eigenvalues --  -38.44736 -38.44730 -38.44247 -38.44244 -38.43438
 Alpha  occ. eigenvalues --  -38.43424 -38.43334  -2.20964  -2.20957  -2.20264
 Alpha  occ. eigenvalues --   -2.20260  -2.19672  -2.19655  -2.19630  -1.14836
 Alpha  occ. eigenvalues --   -1.14800  -1.14697  -1.14673  -1.14580  -1.14555
 Alpha  occ. eigenvalues --   -1.14022  -1.13986  -1.13922  -1.13901  -1.13883
 Alpha  occ. eigenvalues --   -1.13877  -1.13419  -1.13351  -1.13320  -1.13304
 Alpha  occ. eigenvalues --   -1.13284  -1.13274  -1.13197  -1.13169  -1.13135
 Alpha  occ. eigenvalues --   -0.21594  -0.14872  -0.12612  -0.11504
 Alpha virt. eigenvalues --   -0.06330  -0.04447  -0.04189  -0.03527  -0.02496
 Alpha virt. eigenvalues --   -0.02219  -0.01827  -0.00405  -0.00398   0.00265
 Alpha virt. eigenvalues --    0.00580   0.00726   0.00833   0.01001   0.01064

  Beta  occ. eigenvalues --  -38.44665 -38.44659 -38.44243 -38.44241 -38.43397
  Beta  occ. eigenvalues --  -38.43383 -38.43303  -2.20836  -2.20830  -2.20260
  Beta  occ. eigenvalues --   -2.20256  -2.19604  -2.19589  -2.19582  -1.14763
  Beta  occ. eigenvalues --   -1.14723  -1.14591  -1.14568  -1.14490  -1.14466
  Beta  occ. eigenvalues --   -1.14011  -1.13976  -1.13920  -1.13896  -1.13858
  Beta  occ. eigenvalues --   -1.13855  -1.13385  -1.13292  -1.13254  -1.13235
  Beta  occ. eigenvalues --   -1.13224  -1.13197  -1.13144  -1.13127  -1.13076
  Beta  occ. eigenvalues --   -0.20718  -0.14701  -0.11243
  Beta virt. eigenvalues --   -0.08164  -0.06148  -0.04213  -0.03696  -0.02913
  Beta virt. eigenvalues --   -0.01856  -0.01673  -0.01586  -0.00377  -0.00101
  Beta virt. eigenvalues --    0.00310   0.00617   0.00765   0.01002   0.01055

 Mulliken charges and spin densities:
               1          2
     1  Na  -0.896987   0.438782
     2  Na  -0.227348   0.247060
     3  Na   0.804099  -0.100959
     4  Na  -0.128324   0.133068
     5  Na  -0.224162   0.252523
     6  Na  -0.123452   0.130679
     7  Na   0.796174  -0.101153
 Sum of Mulliken charges =  -0.00000   1.00000

 Dipole moment (field-independent basis, Debye):
    X=              0.0005    Y=             -0.1910    Z=              0.0006  Tot=              0.1910
 Quadrupole moment (field-independent basis, Debye-Ang):
   XX=            -52.2193   YY=            -78.1603   ZZ=            -65.6640
   XY=             -0.0102   XZ=             -1.6676   YZ=              0.0326

 Normal termination of Gaussian 16 at Sat Dec  9 07:10:05 2023.
