 Gaussian 16, Revision B.01,
 Gaussian 16:  ES64L-G16RevB.01 20-Dec-2017

 -------------------------
 #P B3LYP/6-311+g(d) force
 -------------------------

 -----
 DPGEN
 -----
 Symbolic Z-matrix:
 Charge =  0 Multiplicity = 2

                         Standard orientation:
 ---------------------------------------------------------------------
 Center     Atomic      Atomic             Coordinates (Angstroms)
 Number     Number       Type             X           Y           Z
 ---------------------------------------------------------------------
      1         11           0        0.661133   -1.240679    2.092334
      2         11           0       -1.875475    3.364491   -0.106466
      3         11           0       -2.479799   -0.087240    0.760341
      4         11           0       -0.184035    0.444300   -1.370569
      5         11           0        2.404779   -1.162642   -0.911291
      6         11           0       -1.741608   -2.830504   -0.753460
      7         11           0        3.215005    1.512275    0.289112
 ---------------------------------------------------------------------

 SCF Done:  E(UB3LYP) =  -1136.12428466     A.U. after   21 cycles

 The electronic state is 2-A.
 Alpha  occ. eigenvalues --  -38.45103 -38.44067 -38.43993 -38.43923 -38.43624
 Alpha  occ. eigenvalues --  -38.43421 -38.43181  -2.20903  -2.19914  -2.19905
 Alpha  occ. eigenvalues --   -2.19741  -2.19523  -2.19367  -2.18954  -1.14599
 Alpha  occ. eigenvalues --   -1.14548  -1.14545  -1.13640  -1.13585  -1.13572
 Alpha  occ. eigenvalues --   -1.13535  -1.13523  -1.13498  -1.13443  -1.13394
 Alpha  occ. eigenvalues --   -1.13372  -1.13258  -1.13200  -1.13104  -1.13051
 Alpha  occ. eigenvalues --   -1.13011  -1.12974  -1.12626  -1.12618  -1.12590
 Alpha  occ. eigenvalues --   -0.18144  -0.13467  -0.11753  -0.10796
 Alpha virt. eigenvalues --   -0.06288  -0.05212  -0.04593  -0.03523  -0.02804
 Alpha virt. eigenvalues --   -0.02313  -0.01945  -0.01260  -0.00524  -0.00253
 Alpha virt. eigenvalues --   -0.00047   0.00301   0.00458   0.00641   0.00776

  Beta  occ. eigenvalues --  -38.45104 -38.43975 -38.43970 -38.43911 -38.43611
  Beta  occ. eigenvalues --  -38.43374 -38.43186  -2.20906  -2.19876  -2.19736
  Beta  occ. eigenvalues --   -2.19718  -2.19501  -2.19285  -2.18964  -1.14601
  Beta  occ. eigenvalues --   -1.14549  -1.14537  -1.13607  -1.13519  -1.13503
  Beta  occ. eigenvalues --   -1.13455  -1.13431  -1.13428  -1.13381  -1.13363
  Beta  occ. eigenvalues --   -1.13356  -1.13241  -1.13161  -1.13094  -1.12999
  Beta  occ. eigenvalues --   -1.12952  -1.12902  -1.12630  -1.12626  -1.12596
  Beta  occ. eigenvalues --   -0.17411  -0.13305  -0.11626
  Beta virt. eigenvalues --   -0.06849  -0.06150  -0.05080  -0.04430  -0.02870
  Beta virt. eigenvalues --   -0.02169  -0.01819  -0.01598  -0.01117  -0.00442
  Beta virt. eigenvalues --   -0.00152   0.00090   0.00346   0.00604   0.00670

 Mulliken charges and spin densities:
               1          2
     1  Na  -0.489877   0.497204
     2  Na  -0.018135  -0.069468
     3  Na  -0.010872   0.183766
     4  Na   0.156195   0.362392
     5  Na   0.482731  -0.035983
     6  Na   0.061073  -0.020277
     7  Na  -0.181114   0.082366
 Sum of Mulliken charges =  -0.00000   1.00000

 Dipole moment (field-independent basis, Debye):
    X=              0.9924    Y=             -0.1533    Z=              0.2327  Tot=              1.0308
 Quadrupole moment (field-independent basis, Debye-Ang):
   XX=            -59.3585   YY=            -60.8556   ZZ=            -73.4630
   XY=              5.0843   XZ=              0.0393   YZ=              3.4164

 Normal termination of Gaussian 16 at Tue Dec  5 19:06:53 2023.
