 Gaussian 16, Revision B.01,
 Gaussian 16:  ES64L-G16RevB.01 20-Dec-2017

 -------------------------
 #P B3LYP/6-311+g(d) force
 -------------------------

 -----
 DPGEN
 -----
 Symbolic Z-matrix:
 Charge =  0 Multiplicity = 2

                         Standard orientation:
 ---------------------------------------------------------------------
 Center     Atomic      Atomic             Coordinates (Angstroms)
 Number     Number       Type             X           Y           Z
 ---------------------------------------------------------------------
      1         11           0       -0.007001    0.061699    1.962480
      2         11           0       -3.150774    0.960864   -0.132556
      3         11           0       -2.084612   -2.183575   -0.149539
      4         11           0        0.057808    2.897034    0.144248
      5         11           0        1.911825   -2.167375    0.403541
      6         11           0        3.380864    0.716197   -0.497675
      7         11           0       -0.108112   -0.284844   -1.730498
 ---------------------------------------------------------------------

 SCF Done:  E(UB3LYP) =  -1136.13449240     A.U. after   20 cycles

 The electronic state is 2-A.
 Alpha  occ. eigenvalues --  -38.44586 -38.44468 -38.43714 -38.43470 -38.43463
 Alpha  occ. eigenvalues --  -38.43439 -38.43003  -2.20375  -2.20284  -2.19636
 Alpha  occ. eigenvalues --   -2.19374  -2.19331  -2.19305  -2.18820  -1.14044
 Alpha  occ. eigenvalues --   -1.14033  -1.14009  -1.13962  -1.13949  -1.13917
 Alpha  occ. eigenvalues --   -1.13342  -1.13288  -1.13259  -1.13073  -1.13029
 Alpha  occ. eigenvalues --   -1.13002  -1.12991  -1.12982  -1.12966  -1.12960
 Alpha  occ. eigenvalues --   -1.12954  -1.12928  -1.12506  -1.12491  -1.12443
 Alpha  occ. eigenvalues --   -0.18439  -0.13327  -0.11955  -0.10744
 Alpha virt. eigenvalues --   -0.06242  -0.05180  -0.04295  -0.03369  -0.02730
 Alpha virt. eigenvalues --   -0.02535  -0.01996  -0.01145  -0.00423  -0.00286
 Alpha virt. eigenvalues --   -0.00051   0.00315   0.00726   0.00811   0.00864

  Beta  occ. eigenvalues --  -38.44573 -38.44465 -38.43656 -38.43458 -38.43434
  Beta  occ. eigenvalues --  -38.43369 -38.43000  -2.20351  -2.20282  -2.19530
  Beta  occ. eigenvalues --   -2.19313  -2.19300  -2.19201  -2.18817  -1.14023
  Beta  occ. eigenvalues --   -1.14012  -1.13995  -1.13957  -1.13942  -1.13912
  Beta  occ. eigenvalues --   -1.13270  -1.13213  -1.13182  -1.13018  -1.12971
  Beta  occ. eigenvalues --   -1.12964  -1.12956  -1.12947  -1.12922  -1.12914
  Beta  occ. eigenvalues --   -1.12875  -1.12857  -1.12500  -1.12476  -1.12443
  Beta  occ. eigenvalues --   -0.17724  -0.13075  -0.11711
  Beta virt. eigenvalues --   -0.06908  -0.06130  -0.05155  -0.04253  -0.02650
  Beta virt. eigenvalues --   -0.01985  -0.01862  -0.01528  -0.01081  -0.00459
  Beta virt. eigenvalues --   -0.00299   0.00087   0.00352   0.00800   0.00851

 Mulliken charges and spin densities:
               1          2
     1  Na  -0.167681   0.624731
     2  Na   0.034725  -0.082305
     3  Na   0.309947  -0.031867
     4  Na  -0.093262  -0.091571
     5  Na   0.236847   0.019856
     6  Na  -0.086193   0.034232
     7  Na  -0.234382   0.526925
 Sum of Mulliken charges =  -0.00000   1.00000

 Dipole moment (field-independent basis, Debye):
    X=             -0.0249    Y=              0.0476    Z=             -0.0759  Tot=              0.0930
 Quadrupole moment (field-independent basis, Debye-Ang):
   XX=            -52.3164   YY=            -66.6852   ZZ=            -74.2066
   XY=              0.1593   XZ=             -0.7445   YZ=             -1.3485

 Normal termination of Gaussian 16 at Fri Dec  8 06:46:28 2023.
