 Gaussian 16, Revision B.01,
 Gaussian 16:  ES64L-G16RevB.01 20-Dec-2017

 -------------------------
 #P B3LYP/6-311+g(d) force
 -------------------------

 -----
 DPGEN
 -----
 Symbolic Z-matrix:
 Charge =  0 Multiplicity = 2

                         Standard orientation:
 ---------------------------------------------------------------------
 Center     Atomic      Atomic             Coordinates (Angstroms)
 Number     Number       Type             X           Y           Z
 ---------------------------------------------------------------------
      1         11           0        1.859685   -0.068950    1.414134
      2         11           0        3.803185   -0.832254   -0.320839
      3         11           0       -1.818970    2.029803    0.814381
      4         11           0       -3.838887   -0.810352   -0.801795
      5         11           0       -1.239955   -1.453987    1.379693
      6         11           0        1.033924    2.213404   -0.955569
      7         11           0        0.201017   -1.077664   -1.530006
 ---------------------------------------------------------------------

 SCF Done:  E(UB3LYP) =  -1136.11467016     A.U. after   27 cycles

 The electronic state is 2-A.
 Alpha  occ. eigenvalues --  -38.45361 -38.45081 -38.44855 -38.43914 -38.43687
 Alpha  occ. eigenvalues --  -38.43365 -38.42557  -2.21216  -2.20856  -2.20713
 Alpha  occ. eigenvalues --   -2.19907  -2.19582  -2.19185  -2.18425  -1.15054
 Alpha  occ. eigenvalues --   -1.14826  -1.14817  -1.14522  -1.14516  -1.14481
 Alpha  occ. eigenvalues --   -1.14434  -1.14373  -1.14300  -1.13599  -1.13548
 Alpha  occ. eigenvalues --   -1.13491  -1.13288  -1.13224  -1.13190  -1.12860
 Alpha  occ. eigenvalues --   -1.12848  -1.12822  -1.12115  -1.12091  -1.12038
 Alpha  occ. eigenvalues --   -0.18529  -0.14013  -0.11152  -0.10923
 Alpha virt. eigenvalues --   -0.07480  -0.05069  -0.04260  -0.03244  -0.02948
 Alpha virt. eigenvalues --   -0.02408  -0.02322  -0.01372  -0.00657  -0.00124
 Alpha virt. eigenvalues --    0.00027   0.00236   0.00285   0.00751   0.00783

  Beta  occ. eigenvalues --  -38.45363 -38.45064 -38.44807 -38.43870 -38.43641
  Beta  occ. eigenvalues --  -38.43357 -38.42540  -2.21221  -2.20825  -2.20626
  Beta  occ. eigenvalues --   -2.19828  -2.19501  -2.19172  -2.18395  -1.15054
  Beta  occ. eigenvalues --   -1.14831  -1.14808  -1.14496  -1.14495  -1.14462
  Beta  occ. eigenvalues --   -1.14367  -1.14305  -1.14237  -1.13531  -1.13492
  Beta  occ. eigenvalues --   -1.13433  -1.13238  -1.13163  -1.13108  -1.12841
  Beta  occ. eigenvalues --   -1.12832  -1.12819  -1.12092  -1.12065  -1.12012
  Beta  occ. eigenvalues --   -0.17779  -0.13867  -0.10965
  Beta virt. eigenvalues --   -0.07247  -0.07066  -0.04892  -0.03790  -0.03093
  Beta virt. eigenvalues --   -0.02739  -0.01906  -0.01447  -0.01129  -0.00424
  Beta virt. eigenvalues --   -0.00074   0.00061   0.00305   0.00406   0.00794

 Mulliken charges and spin densities:
               1          2
     1  Na  -0.001426  -0.085223
     2  Na   0.481578   0.204812
     3  Na  -0.245426   0.048216
     4  Na   0.306485   0.060109
     5  Na  -0.005194   0.256199
     6  Na  -0.192787   0.121724
     7  Na  -0.343231   0.394163
 Sum of Mulliken charges =  -0.00000   1.00000

 Dipole moment (field-independent basis, Debye):
    X=             -0.1594    Y=             -0.2731    Z=             -0.5081  Tot=              0.5985
 Quadrupole moment (field-independent basis, Debye-Ang):
   XX=            -45.4348   YY=            -77.6975   ZZ=            -70.2992
   XY=             -1.5146   XZ=             -0.8652   YZ=              1.3014

 Normal termination of Gaussian 16 at Tue Dec  5 15:44:14 2023.
