 Gaussian 16, Revision B.01,
 Gaussian 16:  ES64L-G16RevB.01 20-Dec-2017

 -------------------------
 #P B3LYP/6-311+g(d) force
 -------------------------

 -----
 DPGEN
 -----
 Symbolic Z-matrix:
 Charge =  0 Multiplicity = 2

                         Standard orientation:
 ---------------------------------------------------------------------
 Center     Atomic      Atomic             Coordinates (Angstroms)
 Number     Number       Type             X           Y           Z
 ---------------------------------------------------------------------
      1         11           0        2.229751   -2.144264    0.682180
      2         11           0        2.032812    1.543155    0.677282
      3         11           0       -0.758456    3.144828   -0.272553
      4         11           0        4.691252   -0.393714   -0.770264
      5         11           0       -3.336597   -2.620837   -0.293022
      6         11           0       -3.902380    0.820749    0.166798
      7         11           0       -0.956381   -0.349917   -0.190421
 ---------------------------------------------------------------------

 SCF Done:  E(UB3LYP) =  -1136.12498978     A.U. after   22 cycles

 The electronic state is 2-A.
 Alpha  occ. eigenvalues --  -38.44477 -38.44430 -38.44342 -38.44301 -38.43551
 Alpha  occ. eigenvalues --  -38.43097 -38.43094  -2.20270  -2.20266  -2.20148
 Alpha  occ. eigenvalues --   -2.20135  -2.19388  -2.19042  -2.18918  -1.13959
 Alpha  occ. eigenvalues --   -1.13945  -1.13935  -1.13930  -1.13912  -1.13846
 Alpha  occ. eigenvalues --   -1.13841  -1.13834  -1.13826  -1.13805  -1.13783
 Alpha  occ. eigenvalues --   -1.13737  -1.13039  -1.13030  -1.12998  -1.12748
 Alpha  occ. eigenvalues --   -1.12714  -1.12666  -1.12589  -1.12572  -1.12563
 Alpha  occ. eigenvalues --   -0.17097  -0.14405  -0.12070  -0.10135
 Alpha virt. eigenvalues --   -0.06661  -0.05228  -0.04758  -0.03567  -0.02686
 Alpha virt. eigenvalues --   -0.02280  -0.01747  -0.01457  -0.01107  -0.00789
 Alpha virt. eigenvalues --   -0.00102   0.00167   0.00409   0.00503   0.00646

  Beta  occ. eigenvalues --  -38.44483 -38.44380 -38.44328 -38.44292 -38.43471
  Beta  occ. eigenvalues --  -38.43100 -38.43055  -2.20282  -2.20173  -2.20127
  Beta  occ. eigenvalues --   -2.20122  -2.19238  -2.18976  -2.18923  -1.13956
  Beta  occ. eigenvalues --   -1.13945  -1.13910  -1.13885  -1.13865  -1.13831
  Beta  occ. eigenvalues --   -1.13824  -1.13809  -1.13787  -1.13780  -1.13736
  Beta  occ. eigenvalues --   -1.13726  -1.12935  -1.12927  -1.12905  -1.12708
  Beta  occ. eigenvalues --   -1.12636  -1.12625  -1.12592  -1.12567  -1.12559
  Beta  occ. eigenvalues --   -0.16520  -0.13930  -0.11894
  Beta virt. eigenvalues --   -0.06692  -0.06325  -0.04855  -0.04614  -0.03088
  Beta virt. eigenvalues --   -0.02453  -0.01754  -0.01625  -0.01420  -0.00937
  Beta virt. eigenvalues --   -0.00389   0.00258   0.00312   0.00518   0.00665

 Mulliken charges and spin densities:
               1          2
     1  Na  -0.110869   0.044592
     2  Na   0.537410   0.157970
     3  Na   0.607976  -0.083501
     4  Na   0.506965   0.434970
     5  Na   0.469156   0.035742
     6  Na   0.756098   0.304893
     7  Na  -2.766737   0.105334
 Sum of Mulliken charges =  -0.00000   1.00000

 Dipole moment (field-independent basis, Debye):
    X=             -0.9880    Y=             -0.5375    Z=              0.1977  Tot=              1.1419
 Quadrupole moment (field-independent basis, Debye-Ang):
   XX=            -66.1788   YY=            -60.3405   ZZ=            -70.4177
   XY=              1.8880   XZ=              0.5289   YZ=              0.0265

 Normal termination of Gaussian 16 at Wed Nov 29 16:11:23 2023.
