 Gaussian 16, Revision B.01,
 Gaussian 16:  ES64L-G16RevB.01 20-Dec-2017

 -------------------------
 #P B3LYP/6-311+g(d) force
 -------------------------

 -----
 DPGEN
 -----
 Symbolic Z-matrix:
 Charge =  0 Multiplicity = 2

                         Standard orientation:
 ---------------------------------------------------------------------
 Center     Atomic      Atomic             Coordinates (Angstroms)
 Number     Number       Type             X           Y           Z
 ---------------------------------------------------------------------
      1         11           0        0.325016   -1.059190   -1.769046
      2         11           0       -0.023250    2.836215   -0.961489
      3         11           0       -0.339925   -0.273880    1.826136
      4         11           0       -2.891019   -1.535768   -0.886423
      5         11           0        3.365748    1.204924    0.155611
      6         11           0        2.714367   -2.024133    0.552298
      7         11           0       -3.150936    0.851832    1.082913
 ---------------------------------------------------------------------

 SCF Done:  E(UB3LYP) =  -1136.11915345     A.U. after   24 cycles

 The electronic state is 2-A.
 Alpha  occ. eigenvalues --  -38.45070 -38.44871 -38.44417 -38.44405 -38.44020
 Alpha  occ. eigenvalues --  -38.43685 -38.43012  -2.20837  -2.20721  -2.20288
 Alpha  occ. eigenvalues --   -2.20250  -2.19873  -2.19521  -2.18777  -1.14523
 Alpha  occ. eigenvalues --   -1.14498  -1.14474  -1.14407  -1.14382  -1.14349
 Alpha  occ. eigenvalues --   -1.14032  -1.13959  -1.13920  -1.13894  -1.13888
 Alpha  occ. eigenvalues --   -1.13835  -1.13554  -1.13511  -1.13497  -1.13184
 Alpha  occ. eigenvalues --   -1.13176  -1.13167  -1.12454  -1.12429  -1.12410
 Alpha  occ. eigenvalues --   -0.17844  -0.14005  -0.11382  -0.11064
 Alpha virt. eigenvalues --   -0.06858  -0.05376  -0.04480  -0.03531  -0.03117
 Alpha virt. eigenvalues --   -0.02385  -0.02320  -0.01278  -0.00628  -0.00344
 Alpha virt. eigenvalues --    0.00015   0.00199   0.00304   0.00502   0.00687

  Beta  occ. eigenvalues --  -38.45074 -38.44814 -38.44390 -38.44383 -38.43957
  Beta  occ. eigenvalues --  -38.43675 -38.42985  -2.20848  -2.20618  -2.20242
  Beta  occ. eigenvalues --   -2.20212  -2.19758  -2.19504  -2.18729  -1.14529
  Beta  occ. eigenvalues --   -1.14505  -1.14474  -1.14335  -1.14297  -1.14282
  Beta  occ. eigenvalues --   -1.14006  -1.13913  -1.13877  -1.13870  -1.13854
  Beta  occ. eigenvalues --   -1.13804  -1.13481  -1.13426  -1.13408  -1.13172
  Beta  occ. eigenvalues --   -1.13159  -1.13154  -1.12414  -1.12398  -1.12379
  Beta  occ. eigenvalues --   -0.17177  -0.13772  -0.10877
  Beta virt. eigenvalues --   -0.07474  -0.06738  -0.05298  -0.03918  -0.03215
  Beta virt. eigenvalues --   -0.02417  -0.02251  -0.01617  -0.01168  -0.00560
  Beta virt. eigenvalues --   -0.00134   0.00038   0.00267   0.00459   0.00625

 Mulliken charges and spin densities:
               1          2
     1  Na  -0.199982   0.478052
     2  Na  -0.326446  -0.000531
     3  Na  -0.493867   0.258305
     4  Na  -0.147258   0.006383
     5  Na  -0.066815  -0.015199
     6  Na   0.643963   0.038641
     7  Na   0.590405   0.234349
 Sum of Mulliken charges =  -0.00000   1.00000

 Dipole moment (field-independent basis, Debye):
    X=              0.0291    Y=             -0.4112    Z=              0.3481  Tot=              0.5395
 Quadrupole moment (field-independent basis, Debye-Ang):
   XX=            -49.9581   YY=            -74.9370   ZZ=            -71.4792
   XY=             -0.8189   XZ=              1.4317   YZ=             -0.0074

 Normal termination of Gaussian 16 at Sun Dec  3 15:07:44 2023.
