 Gaussian 16, Revision B.01,
 Gaussian 16:  ES64L-G16RevB.01 20-Dec-2017

 -------------------------
 #P B3LYP/6-311+g(d) force
 -------------------------

 -----
 DPGEN
 -----
 Symbolic Z-matrix:
 Charge =  0 Multiplicity = 2

                         Standard orientation:
 ---------------------------------------------------------------------
 Center     Atomic      Atomic             Coordinates (Angstroms)
 Number     Number       Type             X           Y           Z
 ---------------------------------------------------------------------
      1         11           0       -3.186914   -1.381881   -1.046795
      2         11           0        1.412514    1.178246    1.675448
      3         11           0        0.006973   -0.001952   -1.293054
      4         11           0       -2.176623    2.500646   -0.080942
      5         11           0        1.827530   -1.932058    0.459188
      6         11           0       -1.190076   -0.913106    1.702411
      7         11           0        3.306596    0.550107   -1.416256
 ---------------------------------------------------------------------

 SCF Done:  E(UB3LYP) =  -1136.12473872     A.U. after   30 cycles

 The electronic state is 2-A.
 Alpha  occ. eigenvalues --  -38.44771 -38.44448 -38.44215 -38.43428 -38.43285
 Alpha  occ. eigenvalues --  -38.43226 -38.43047  -2.20575  -2.20342  -2.20056
 Alpha  occ. eigenvalues --   -2.19419  -2.19138  -2.19060  -2.18968  -1.14252
 Alpha  occ. eigenvalues --   -1.14213  -1.14189  -1.14037  -1.13973  -1.13953
 Alpha  occ. eigenvalues --   -1.13731  -1.13697  -1.13685  -1.13155  -1.13083
 Alpha  occ. eigenvalues --   -1.13042  -1.12829  -1.12808  -1.12746  -1.12737
 Alpha  occ. eigenvalues --   -1.12719  -1.12700  -1.12671  -1.12620  -1.12574
 Alpha  occ. eigenvalues --   -0.18667  -0.13735  -0.11742  -0.10763
 Alpha virt. eigenvalues --   -0.06066  -0.05214  -0.04750  -0.03081  -0.02624
 Alpha virt. eigenvalues --   -0.02467  -0.02049  -0.01035  -0.00882   0.00034
 Alpha virt. eigenvalues --    0.00218   0.00365   0.00400   0.00528   0.00761

  Beta  occ. eigenvalues --  -38.44730 -38.44380 -38.44183 -38.43399 -38.43282
  Beta  occ. eigenvalues --  -38.43219 -38.43019  -2.20499  -2.20219  -2.19998
  Beta  occ. eigenvalues --   -2.19370  -2.19130  -2.19055  -2.18921  -1.14195
  Beta  occ. eigenvalues --   -1.14165  -1.14139  -1.13951  -1.13879  -1.13861
  Beta  occ. eigenvalues --   -1.13681  -1.13656  -1.13652  -1.13118  -1.13036
  Beta  occ. eigenvalues --   -1.13005  -1.12826  -1.12782  -1.12734  -1.12730
  Beta  occ. eigenvalues --   -1.12712  -1.12692  -1.12639  -1.12555  -1.12545
  Beta  occ. eigenvalues --   -0.17915  -0.13381  -0.10569
  Beta virt. eigenvalues --   -0.07878  -0.05795  -0.05023  -0.04303  -0.02753
  Beta virt. eigenvalues --   -0.02107  -0.01838  -0.01760  -0.00831  -0.00602
  Beta virt. eigenvalues --    0.00129   0.00264   0.00409   0.00439   0.00666

 Mulliken charges and spin densities:
               1          2
     1  Na   0.182472   0.056452
     2  Na  -0.045285   0.326306
     3  Na  -0.500295   0.213564
     4  Na  -0.372540   0.072301
     5  Na  -0.001012   0.089579
     6  Na   0.424783   0.139499
     7  Na   0.311877   0.102299
 Sum of Mulliken charges =  -0.00000   1.00000

 Dipole moment (field-independent basis, Debye):
    X=              0.2251    Y=             -0.2809    Z=             -0.0649  Tot=              0.3658
 Quadrupole moment (field-independent basis, Debye-Ang):
   XX=            -51.3829   YY=            -73.5197   ZZ=            -67.4832
   XY=              2.2861   XZ=              0.7240   YZ=              5.0149

 Normal termination of Gaussian 16 at Tue Dec  5 21:06:04 2023.
