 Gaussian 16, Revision B.01,
 Gaussian 16:  ES64L-G16RevB.01 20-Dec-2017

 -------------------------
 #P B3LYP/6-311+g(d) force
 -------------------------

 -----
 DPGEN
 -----
 Symbolic Z-matrix:
 Charge =  0 Multiplicity = 2

                         Standard orientation:
 ---------------------------------------------------------------------
 Center     Atomic      Atomic             Coordinates (Angstroms)
 Number     Number       Type             X           Y           Z
 ---------------------------------------------------------------------
      1         11           0        1.628473    1.534045   -0.420390
      2         11           0       -1.059840   -0.057166    0.959113
      3         11           0       -1.773104   -2.792636   -0.472618
      4         11           0        2.143145   -1.712228    0.368232
      5         11           0        4.698832    0.053334   -0.203405
      6         11           0       -4.311893    0.049625   -0.242297
      7         11           0       -1.325612    2.925025    0.011365
 ---------------------------------------------------------------------

 SCF Done:  E(UB3LYP) =  -1136.12820745     A.U. after   20 cycles

 The electronic state is 2-A.
 Alpha  occ. eigenvalues --  -38.44282 -38.44064 -38.43909 -38.43904 -38.43676
 Alpha  occ. eigenvalues --  -38.43271 -38.43145  -2.20095  -2.19925  -2.19768
 Alpha  occ. eigenvalues --   -2.19708  -2.19574  -2.19257  -2.18998  -1.13753
 Alpha  occ. eigenvalues --   -1.13729  -1.13704  -1.13624  -1.13613  -1.13584
 Alpha  occ. eigenvalues --   -1.13415  -1.13412  -1.13401  -1.13384  -1.13368
 Alpha  occ. eigenvalues --   -1.13328  -1.13284  -1.13260  -1.13174  -1.12952
 Alpha  occ. eigenvalues --   -1.12937  -1.12900  -1.12661  -1.12650  -1.12629
 Alpha  occ. eigenvalues --   -0.17616  -0.14421  -0.12147  -0.10746
 Alpha virt. eigenvalues --   -0.05938  -0.05056  -0.04819  -0.03793  -0.02712
 Alpha virt. eigenvalues --   -0.02137  -0.01707  -0.01418  -0.00783  -0.00503
 Alpha virt. eigenvalues --   -0.00325   0.00070   0.00600   0.00649   0.00718

  Beta  occ. eigenvalues --  -38.44191 -38.44050 -38.43911 -38.43841 -38.43664
  Beta  occ. eigenvalues --  -38.43245 -38.43148  -2.19924  -2.19905  -2.19715
  Beta  occ. eigenvalues --   -2.19648  -2.19556  -2.19216  -2.19005  -1.13636
  Beta  occ. eigenvalues --   -1.13615  -1.13613  -1.13603  -1.13590  -1.13525
  Beta  occ. eigenvalues --   -1.13418  -1.13392  -1.13333  -1.13319  -1.13309
  Beta  occ. eigenvalues --   -1.13299  -1.13258  -1.13251  -1.13150  -1.12931
  Beta  occ. eigenvalues --   -1.12887  -1.12857  -1.12667  -1.12652  -1.12617
  Beta  occ. eigenvalues --   -0.17009  -0.13748  -0.11900
  Beta virt. eigenvalues --   -0.07248  -0.05797  -0.04887  -0.04225  -0.03392
  Beta virt. eigenvalues --   -0.02388  -0.01749  -0.01502  -0.01032  -0.00590
  Beta virt. eigenvalues --   -0.00374  -0.00031   0.00283   0.00712   0.00741

 Mulliken charges and spin densities:
               1          2
     1  Na  -0.816025   0.007309
     2  Na  -0.547239   0.025870
     3  Na   0.069649   0.006237
     4  Na  -0.157342   0.076596
     5  Na   0.673793   0.312412
     6  Na   0.181489   0.492524
     7  Na   0.595675   0.079051
 Sum of Mulliken charges =  -0.00000   1.00000

 Dipole moment (field-independent basis, Debye):
    X=              0.3060    Y=             -0.1567    Z=             -0.3911  Tot=              0.5208
 Quadrupole moment (field-independent basis, Debye-Ang):
   XX=            -61.7237   YY=            -65.4337   ZZ=            -69.6232
   XY=             -0.9504   XZ=              1.1094   YZ=              0.1511

 Normal termination of Gaussian 16 at Tue Nov 28 22:20:35 2023.
