 Gaussian 16, Revision B.01,
 Gaussian 16:  ES64L-G16RevB.01 20-Dec-2017

 -------------------------
 #P B3LYP/6-311+g(d) force
 -------------------------

 -----
 DPGEN
 -----
 Symbolic Z-matrix:
 Charge =  0 Multiplicity = 2

                         Standard orientation:
 ---------------------------------------------------------------------
 Center     Atomic      Atomic             Coordinates (Angstroms)
 Number     Number       Type             X           Y           Z
 ---------------------------------------------------------------------
      1         11           0        1.219026    1.623727   -0.068324
      2         11           0       -1.226874    1.621027   -0.068024
      3         11           0        2.152202   -0.652097    0.090776
      4         11           0       -0.001049    0.092927    1.708246
      5         11           0       -0.001239   -0.034673   -1.691624
      6         11           0        0.005721   -1.987762   -0.062024
      7         11           0       -2.147787   -0.663148    0.090976
 ---------------------------------------------------------------------

 SCF Done:  E(UB3LYP) =  -1135.97551150     A.U. after   23 cycles

 The electronic state is 2-A.
 Alpha  occ. eigenvalues --  -38.45718 -38.45460 -38.45393 -38.45383 -38.45048
 Alpha  occ. eigenvalues --  -38.45040 -38.44920  -2.22270  -2.22016  -2.21878
 Alpha  occ. eigenvalues --   -2.21752  -2.21440  -2.21354  -2.21240  -1.16646
 Alpha  occ. eigenvalues --   -1.16354  -1.16187  -1.16177  -1.16080  -1.15902
 Alpha  occ. eigenvalues --   -1.15797  -1.15766  -1.15387  -1.15382  -1.15185
 Alpha  occ. eigenvalues --   -1.15184  -1.15152  -1.14991  -1.14875  -1.14840
 Alpha  occ. eigenvalues --   -1.14758  -1.14709  -1.14644  -1.14627  -1.14381
 Alpha  occ. eigenvalues --   -0.23540  -0.14239  -0.13549  -0.13374
 Alpha virt. eigenvalues --   -0.05429  -0.04049  -0.04026  -0.03985  -0.03643
 Alpha virt. eigenvalues --   -0.02909  -0.00674  -0.00323  -0.00141   0.00261
 Alpha virt. eigenvalues --    0.01087   0.01091   0.01182   0.01343   0.01380

  Beta  occ. eigenvalues --  -38.45609 -38.45369 -38.45360 -38.45353 -38.45030
  Beta  occ. eigenvalues --  -38.45022 -38.44898  -2.22095  -2.21912  -2.21744
  Beta  occ. eigenvalues --   -2.21722  -2.21413  -2.21331  -2.21213  -1.16593
  Beta  occ. eigenvalues --   -1.16312  -1.16117  -1.16092  -1.15973  -1.15801
  Beta  occ. eigenvalues --   -1.15714  -1.15687  -1.15306  -1.15303  -1.15136
  Beta  occ. eigenvalues --   -1.15071  -1.15035  -1.14976  -1.14780  -1.14747
  Beta  occ. eigenvalues --   -1.14704  -1.14650  -1.14629  -1.14617  -1.14373
  Beta  occ. eigenvalues --   -0.22661  -0.13768  -0.13090
  Beta virt. eigenvalues --   -0.08968  -0.05462  -0.03966  -0.03961  -0.02958
  Beta virt. eigenvalues --   -0.02612  -0.01879  -0.00610  -0.00279   0.00007
  Beta virt. eigenvalues --    0.00280   0.01090   0.01103   0.01224   0.01419

 Mulliken charges and spin densities:
               1          2
     1  Na   0.126299   0.032915
     2  Na   0.122533   0.031678
     3  Na  -0.059280  -0.004079
     4  Na  -0.221667   0.442858
     5  Na  -0.332740   0.408062
     6  Na   0.420094   0.091989
     7  Na  -0.055239  -0.003422
 Sum of Mulliken charges =  -0.00000   1.00000

 Dipole moment (field-independent basis, Debye):
    X=             -0.0007    Y=             -0.2224    Z=              0.0922  Tot=              0.2408
 Quadrupole moment (field-independent basis, Debye-Ang):
   XX=            -64.9568   YY=            -70.7076   ZZ=            -66.9020
   XY=             -0.0036   XZ=              0.0002   YZ=             -0.2671

 Normal termination of Gaussian 16 at Fri Dec  8 18:05:27 2023.
