 Gaussian 16, Revision B.01,
 Gaussian 16:  ES64L-G16RevB.01 20-Dec-2017

 -------------------------
 #P B3LYP/6-311+g(d) force
 -------------------------

 -----
 DPGEN
 -----
 Symbolic Z-matrix:
 Charge =  0 Multiplicity = 2

                         Standard orientation:
 ---------------------------------------------------------------------
 Center     Atomic      Atomic             Coordinates (Angstroms)
 Number     Number       Type             X           Y           Z
 ---------------------------------------------------------------------
      1         11           0        4.237157   -1.821694   -0.759603
      2         11           0       -2.944912   -2.249581    1.566755
      3         11           0       -4.184645    2.223495   -0.221375
      4         11           0       -3.336680   -0.705132   -1.207304
      5         11           0        1.061857   -0.985786   -0.766767
      6         11           0        2.626531    1.185321    1.918872
      7         11           0        2.540691    2.353377   -0.530578
 ---------------------------------------------------------------------

 SCF Done:  E(UB3LYP) =  -1136.09479976     A.U. after   23 cycles

 The electronic state is 2-A.
 Alpha  occ. eigenvalues --  -38.45133 -38.44765 -38.44499 -38.44407 -38.44178
 Alpha  occ. eigenvalues --  -38.44157 -38.43409  -2.20942  -2.20576  -2.20338
 Alpha  occ. eigenvalues --   -2.20286  -2.20034  -2.19975  -2.19213  -1.14595
 Alpha  occ. eigenvalues --   -1.14569  -1.14564  -1.14236  -1.14230  -1.14207
 Alpha  occ. eigenvalues --   -1.14202  -1.14015  -1.13995  -1.13977  -1.13924
 Alpha  occ. eigenvalues --   -1.13882  -1.13688  -1.13668  -1.13640  -1.13624
 Alpha  occ. eigenvalues --   -1.13609  -1.13589  -1.12871  -1.12859  -1.12837
 Alpha  occ. eigenvalues --   -0.16334  -0.14993  -0.11552  -0.10533
 Alpha virt. eigenvalues --   -0.06702  -0.05662  -0.05371  -0.03283  -0.03068
 Alpha virt. eigenvalues --   -0.02315  -0.02066  -0.01633  -0.01322  -0.00703
 Alpha virt. eigenvalues --   -0.00663  -0.00239  -0.00082   0.00054   0.00346

  Beta  occ. eigenvalues --  -38.45041 -38.44669 -38.44498 -38.44403 -38.44199
  Beta  occ. eigenvalues --  -38.44160 -38.43366  -2.20770  -2.20399  -2.20345
  Beta  occ. eigenvalues --   -2.20280  -2.20038  -2.20017  -2.19131  -1.14481
  Beta  occ. eigenvalues --   -1.14454  -1.14446  -1.14227  -1.14128  -1.14088
  Beta  occ. eigenvalues --   -1.14082  -1.14021  -1.14000  -1.13923  -1.13918
  Beta  occ. eigenvalues --   -1.13879  -1.13717  -1.13678  -1.13658  -1.13635
  Beta  occ. eigenvalues --   -1.13625  -1.13588  -1.12815  -1.12805  -1.12786
  Beta  occ. eigenvalues --   -0.16156  -0.14279  -0.10461
  Beta virt. eigenvalues --   -0.07562  -0.06497  -0.05536  -0.05017  -0.03107
  Beta virt. eigenvalues --   -0.02643  -0.01895  -0.01781  -0.01522  -0.00978
  Beta virt. eigenvalues --   -0.00486  -0.00317  -0.00142   0.00056   0.00153

 Mulliken charges and spin densities:
               1          2
     1  Na   0.396192   0.175039
     2  Na  -0.085638   0.475094
     3  Na  -0.325038   0.477113
     4  Na   0.975096  -0.075200
     5  Na  -1.503898  -0.021314
     6  Na   0.076419   0.007421
     7  Na   0.466867  -0.038153
 Sum of Mulliken charges =  -0.00000   1.00000

 Dipole moment (field-independent basis, Debye):
    X=             -0.7410    Y=              0.3312    Z=              0.8705  Tot=              1.1902
 Quadrupole moment (field-independent basis, Debye-Ang):
   XX=            -64.9562   YY=            -79.1488   ZZ=            -63.0988
   XY=              1.6647   XZ=             -0.9525   YZ=             -7.1424

 Normal termination of Gaussian 16 at Tue Dec  5 23:28:55 2023.
