 Gaussian 16, Revision B.01,
 Gaussian 16:  ES64L-G16RevB.01 20-Dec-2017

 -------------------------
 #P B3LYP/6-311+g(d) force
 -------------------------

 -----
 DPGEN
 -----
 Symbolic Z-matrix:
 Charge =  0 Multiplicity = 2

                         Standard orientation:
 ---------------------------------------------------------------------
 Center     Atomic      Atomic             Coordinates (Angstroms)
 Number     Number       Type             X           Y           Z
 ---------------------------------------------------------------------
      1         11           0       -2.938432   -2.629011    0.239406
      2         11           0        3.070770    0.698637   -1.112175
      3         11           0        0.224029    1.687316    1.747084
      4         11           0       -4.173558   -0.062228   -0.698100
      5         11           0       -2.328009    2.655477   -0.415139
      6         11           0        5.594889   -0.601226   -0.056333
      7         11           0        0.550312   -1.748964    0.295256
 ---------------------------------------------------------------------

 SCF Done:  E(UB3LYP) =  -1136.11146938     A.U. after   22 cycles

 The electronic state is 2-A.
 Alpha  occ. eigenvalues --  -38.45255 -38.44899 -38.44779 -38.44121 -38.44050
 Alpha  occ. eigenvalues --  -38.43733 -38.43155  -2.21043  -2.20718  -2.20596
 Alpha  occ. eigenvalues --   -2.19979  -2.19830  -2.19539  -2.18983  -1.14726
 Alpha  occ. eigenvalues --   -1.14693  -1.14637  -1.14459  -1.14352  -1.14345
 Alpha  occ. eigenvalues --   -1.14266  -1.14235  -1.14193  -1.13664  -1.13628
 Alpha  occ. eigenvalues --   -1.13623  -1.13507  -1.13485  -1.13467  -1.13207
 Alpha  occ. eigenvalues --   -1.13204  -1.13160  -1.12666  -1.12635  -1.12624
 Alpha  occ. eigenvalues --   -0.16499  -0.14338  -0.11785  -0.11531
 Alpha virt. eigenvalues --   -0.06119  -0.05816  -0.04797  -0.03246  -0.03141
 Alpha virt. eigenvalues --   -0.02753  -0.02028  -0.01395  -0.00974  -0.00583
 Alpha virt. eigenvalues --   -0.00342  -0.00166   0.00286   0.00340   0.00530

  Beta  occ. eigenvalues --  -38.45179 -38.44838 -38.44779 -38.44075 -38.44035
  Beta  occ. eigenvalues --  -38.43708 -38.43156  -2.20904  -2.20608  -2.20596
  Beta  occ. eigenvalues --   -2.19894  -2.19803  -2.19493  -2.18987  -1.14631
  Beta  occ. eigenvalues --   -1.14595  -1.14537  -1.14404  -1.14287  -1.14272
  Beta  occ. eigenvalues --   -1.14259  -1.14230  -1.14152  -1.13607  -1.13571
  Beta  occ. eigenvalues --   -1.13563  -1.13487  -1.13468  -1.13445  -1.13176
  Beta  occ. eigenvalues --   -1.13172  -1.13121  -1.12667  -1.12640  -1.12612
  Beta  occ. eigenvalues --   -0.15787  -0.13658  -0.11510
  Beta virt. eigenvalues --   -0.08250  -0.05758  -0.05374  -0.04266  -0.03033
  Beta virt. eigenvalues --   -0.02939  -0.02419  -0.01800  -0.01154  -0.00600
  Beta virt. eigenvalues --   -0.00403  -0.00211  -0.00078   0.00433   0.00506

 Mulliken charges and spin densities:
               1          2
     1  Na   0.632708  -0.050227
     2  Na   0.159596   0.129872
     3  Na  -0.098211  -0.031671
     4  Na  -0.253074   0.129911
     5  Na   0.003206   0.248018
     6  Na   0.284701   0.165275
     7  Na  -0.728926   0.408822
 Sum of Mulliken charges =  -0.00000   1.00000

 Dipole moment (field-independent basis, Debye):
    X=              1.7749    Y=             -0.0384    Z=              0.2454  Tot=              1.7922
 Quadrupole moment (field-independent basis, Debye-Ang):
   XX=            -61.9511   YY=            -71.8291   ZZ=            -67.4436
   XY=             -3.8430   XZ=              3.9606   YZ=             -3.7460

 Normal termination of Gaussian 16 at Sun Dec  3 16:12:04 2023.
