 Gaussian 16, Revision B.01,
 Gaussian 16:  ES64L-G16RevB.01 20-Dec-2017

 -------------------------
 #P B3LYP/6-311+g(d) force
 -------------------------

 -----
 DPGEN
 -----
 Symbolic Z-matrix:
 Charge =  0 Multiplicity = 2

                         Standard orientation:
 ---------------------------------------------------------------------
 Center     Atomic      Atomic             Coordinates (Angstroms)
 Number     Number       Type             X           Y           Z
 ---------------------------------------------------------------------
      1         11           0       -2.566180    1.804293    0.233521
      2         11           0       -1.102042   -0.648854   -1.674779
      3         11           0        2.033464   -2.101247   -0.548470
      4         11           0        3.711684    0.344600    0.474812
      5         11           0        0.852740    2.186895   -0.959015
      6         11           0       -3.140638   -1.604759    0.476673
      7         11           0        0.210972    0.019072    1.997259
 ---------------------------------------------------------------------

 SCF Done:  E(UB3LYP) =  -1136.12475871     A.U. after   23 cycles

 The electronic state is 2-A.
 Alpha  occ. eigenvalues --  -38.45149 -38.44760 -38.44120 -38.44097 -38.43791
 Alpha  occ. eigenvalues --  -38.43411 -38.42691  -2.20964  -2.20581  -2.19959
 Alpha  occ. eigenvalues --   -2.19930  -2.19620  -2.19340  -2.18530  -1.14646
 Alpha  occ. eigenvalues --   -1.14621  -1.14597  -1.14264  -1.14219  -1.14195
 Alpha  occ. eigenvalues --   -1.13653  -1.13636  -1.13621  -1.13600  -1.13574
 Alpha  occ. eigenvalues --   -1.13552  -1.13285  -1.13279  -1.13273  -1.13010
 Alpha  occ. eigenvalues --   -1.12989  -1.12953  -1.12219  -1.12188  -1.12155
 Alpha  occ. eigenvalues --   -0.18242  -0.14037  -0.11145  -0.10951
 Alpha virt. eigenvalues --   -0.06839  -0.05611  -0.04305  -0.03231  -0.02747
 Alpha virt. eigenvalues --   -0.02495  -0.02340  -0.01201  -0.00693  -0.00300
 Alpha virt. eigenvalues --    0.00090   0.00234   0.00340   0.00640   0.00700

  Beta  occ. eigenvalues --  -38.45147 -38.44691 -38.44114 -38.44095 -38.43779
  Beta  occ. eigenvalues --  -38.43347 -38.42669  -2.20961  -2.20453  -2.19951
  Beta  occ. eigenvalues --   -2.19928  -2.19600  -2.19223  -2.18491  -1.14645
  Beta  occ. eigenvalues --   -1.14610  -1.14595  -1.14176  -1.14132  -1.14098
  Beta  occ. eigenvalues --   -1.13652  -1.13615  -1.13614  -1.13591  -1.13569
  Beta  occ. eigenvalues --   -1.13543  -1.13273  -1.13268  -1.13240  -1.12934
  Beta  occ. eigenvalues --   -1.12903  -1.12864  -1.12190  -1.12145  -1.12132
  Beta  occ. eigenvalues --   -0.17516  -0.13900  -0.10927
  Beta virt. eigenvalues --   -0.07118  -0.06580  -0.05612  -0.03754  -0.03010
  Beta virt. eigenvalues --   -0.02299  -0.01963  -0.01586  -0.01122  -0.00573
  Beta virt. eigenvalues --   -0.00147   0.00098   0.00258   0.00528   0.00710

 Mulliken charges and spin densities:
               1          2
     1  Na   0.167411   0.093731
     2  Na   0.169227   0.219288
     3  Na  -0.244863   0.059127
     4  Na   0.455280   0.062044
     5  Na  -0.411372   0.075081
     6  Na   0.148779   0.053284
     7  Na  -0.284463   0.437445
 Sum of Mulliken charges =  -0.00000   1.00000

 Dipole moment (field-independent basis, Debye):
    X=              0.3612    Y=              0.1887    Z=              0.6196  Tot=              0.7416
 Quadrupole moment (field-independent basis, Debye-Ang):
   XX=            -48.5145   YY=            -73.8992   ZZ=            -71.9841
   XY=              0.6781   XZ=             -1.0339   YZ=             -0.3729

 Normal termination of Gaussian 16 at Thu Dec  7 17:58:21 2023.
