 Gaussian 16, Revision B.01,
 Gaussian 16:  ES64L-G16RevB.01 20-Dec-2017

 -------------------------
 #P B3LYP/6-311+g(d) force
 -------------------------

 -----
 DPGEN
 -----
 Symbolic Z-matrix:
 Charge =  0 Multiplicity = 2

                         Standard orientation:
 ---------------------------------------------------------------------
 Center     Atomic      Atomic             Coordinates (Angstroms)
 Number     Number       Type             X           Y           Z
 ---------------------------------------------------------------------
      1         11           0       -3.285392   -1.255935    0.689876
      2         11           0        0.333818    0.105926    1.971633
      3         11           0        3.659004   -0.220950    0.295959
      4         11           0       -1.183805    2.515938    0.482106
      5         11           0        1.190571    1.342007   -1.376451
      6         11           0        1.180899   -2.173474   -0.381958
      7         11           0       -1.895095   -0.313512   -1.681166
 ---------------------------------------------------------------------

 SCF Done:  E(UB3LYP) =  -1136.12539474     A.U. after   21 cycles

 The electronic state is 2-A.
 Alpha  occ. eigenvalues --  -38.44936 -38.44337 -38.44087 -38.43926 -38.43660
 Alpha  occ. eigenvalues --  -38.43108 -38.42702  -2.20771  -2.20156  -2.19990
 Alpha  occ. eigenvalues --   -2.19780  -2.19573  -2.19036  -2.18579  -1.14442
 Alpha  occ. eigenvalues --   -1.14426  -1.14415  -1.13927  -1.13786  -1.13784
 Alpha  occ. eigenvalues --   -1.13673  -1.13637  -1.13602  -1.13470  -1.13453
 Alpha  occ. eigenvalues --   -1.13389  -1.13246  -1.13219  -1.13175  -1.12726
 Alpha  occ. eigenvalues --   -1.12686  -1.12662  -1.12267  -1.12228  -1.12209
 Alpha  occ. eigenvalues --   -0.18625  -0.13720  -0.11430  -0.11356
 Alpha virt. eigenvalues --   -0.06642  -0.04724  -0.04394  -0.03227  -0.02934
 Alpha virt. eigenvalues --   -0.02859  -0.02219  -0.00826  -0.00580   0.00039
 Alpha virt. eigenvalues --    0.00198   0.00239   0.00411   0.00792   0.00901

  Beta  occ. eigenvalues --  -38.44936 -38.44337 -38.44003 -38.43914 -38.43618
  Beta  occ. eigenvalues --  -38.43065 -38.42694  -2.20772  -2.20158  -2.19836
  Beta  occ. eigenvalues --   -2.19762  -2.19498  -2.18958  -2.18568  -1.14437
  Beta  occ. eigenvalues --   -1.14429  -1.14410  -1.13924  -1.13786  -1.13778
  Beta  occ. eigenvalues --   -1.13575  -1.13528  -1.13492  -1.13452  -1.13411
  Beta  occ. eigenvalues --   -1.13380  -1.13183  -1.13172  -1.13122  -1.12674
  Beta  occ. eigenvalues --   -1.12618  -1.12609  -1.12253  -1.12207  -1.12199
  Beta  occ. eigenvalues --   -0.17848  -0.13578  -0.11235
  Beta virt. eigenvalues --   -0.07390  -0.06492  -0.04657  -0.03827  -0.03079
  Beta virt. eigenvalues --   -0.02263  -0.02096  -0.01851  -0.00674  -0.00334
  Beta virt. eigenvalues --    0.00084   0.00208   0.00263   0.00526   0.00842

 Mulliken charges and spin densities:
               1          2
     1  Na  -0.068300  -0.086249
     2  Na  -0.188477   0.575960
     3  Na   0.522101  -0.035438
     4  Na  -0.064291   0.033769
     5  Na  -0.111064   0.288564
     6  Na  -0.311534   0.064788
     7  Na   0.221566   0.158605
 Sum of Mulliken charges =  -0.00000   1.00000

 Dipole moment (field-independent basis, Debye):
    X=              0.8969    Y=             -0.1262    Z=              0.4022  Tot=              0.9910
 Quadrupole moment (field-independent basis, Debye-Ang):
   XX=            -51.9014   YY=            -73.9923   ZZ=            -69.1220
   XY=             -0.2882   XZ=             -1.4577   YZ=             -0.5821

 Normal termination of Gaussian 16 at Wed Nov 29 15:54:35 2023.
