 Gaussian 16, Revision B.01,
 Gaussian 16:  ES64L-G16RevB.01 20-Dec-2017

 -------------------------
 #P B3LYP/6-311+g(d) force
 -------------------------

 -----
 DPGEN
 -----
 Symbolic Z-matrix:
 Charge =  0 Multiplicity = 2

                         Standard orientation:
 ---------------------------------------------------------------------
 Center     Atomic      Atomic             Coordinates (Angstroms)
 Number     Number       Type             X           Y           Z
 ---------------------------------------------------------------------
      1         11           0       -4.901883   -0.156515   -0.047192
      2         11           0        5.203973   -1.329874   -0.642976
      3         11           0       -7.800112    0.723042   -0.552109
      4         11           0        5.205131    2.084184   -0.393493
      5         11           0        1.386651   -2.015376    0.095686
      6         11           0       -1.272327   -0.645134    0.762554
      7         11           0        2.178567    1.339674    0.777530
 ---------------------------------------------------------------------

 SCF Done:  E(UB3LYP) =  -1136.11484388     A.U. after   21 cycles

 The electronic state is 2-A.
 Alpha  occ. eigenvalues --  -38.44977 -38.44733 -38.44471 -38.44377 -38.44145
 Alpha  occ. eigenvalues --  -38.44121 -38.44034  -2.20795  -2.20520  -2.20322
 Alpha  occ. eigenvalues --   -2.20177  -2.19963  -2.19946  -2.19834  -1.14485
 Alpha  occ. eigenvalues --   -1.14468  -1.14395  -1.14197  -1.14170  -1.14170
 Alpha  occ. eigenvalues --   -1.13993  -1.13987  -1.13982  -1.13845  -1.13821
 Alpha  occ. eigenvalues --   -1.13804  -1.13625  -1.13622  -1.13614  -1.13607
 Alpha  occ. eigenvalues --   -1.13592  -1.13568  -1.13495  -1.13494  -1.13478
 Alpha  occ. eigenvalues --   -0.16582  -0.14100  -0.12563  -0.11026
 Alpha virt. eigenvalues --   -0.07474  -0.05193  -0.04343  -0.03938  -0.02872
 Alpha virt. eigenvalues --   -0.02679  -0.02502  -0.01886  -0.01439  -0.00968
 Alpha virt. eigenvalues --   -0.00503  -0.00025   0.00161   0.00266   0.00597

  Beta  occ. eigenvalues --  -38.44924 -38.44729 -38.44436 -38.44313 -38.44122
  Beta  occ. eigenvalues --  -38.44116 -38.44034  -2.20699  -2.20513  -2.20259
  Beta  occ. eigenvalues --   -2.20058  -2.19938  -2.19922  -2.19836  -1.14421
  Beta  occ. eigenvalues --   -1.14396  -1.14317  -1.14193  -1.14165  -1.14165
  Beta  occ. eigenvalues --   -1.13951  -1.13947  -1.13926  -1.13765  -1.13735
  Beta  occ. eigenvalues --   -1.13724  -1.13603  -1.13599  -1.13598  -1.13581
  Beta  occ. eigenvalues --   -1.13561  -1.13560  -1.13496  -1.13496  -1.13475
  Beta  occ. eigenvalues --   -0.15950  -0.13924  -0.12472
  Beta virt. eigenvalues --   -0.07442  -0.06993  -0.04765  -0.03953  -0.03678
  Beta virt. eigenvalues --   -0.02628  -0.02461  -0.02007  -0.01802  -0.01420
  Beta virt. eigenvalues --   -0.00524  -0.00036   0.00108   0.00204   0.00458

 Mulliken charges and spin densities:
               1          2
     1  Na  -0.498603  -0.037811
     2  Na  -0.223807   0.259523
     3  Na   1.108782   0.027595
     4  Na   0.518725   0.010851
     5  Na   0.466014   0.372128
     6  Na  -1.184213  -0.089642
     7  Na  -0.186897   0.457356
 Sum of Mulliken charges =  -0.00000   1.00000

 Dipole moment (field-independent basis, Debye):
    X=             -0.0969    Y=              0.4183    Z=             -0.1532  Tot=              0.4559
 Quadrupole moment (field-independent basis, Debye-Ang):
   XX=            -47.5018   YY=            -70.4849   ZZ=            -72.9434
   XY=             -1.0007   XZ=             -0.2292   YZ=             -0.7969

 Normal termination of Gaussian 16 at Sun Dec  3 23:18:28 2023.
