 Gaussian 16, Revision B.01,
 Gaussian 16:  ES64L-G16RevB.01 20-Dec-2017

 -------------------------
 #P B3LYP/6-311+g(d) force
 -------------------------

 -----
 DPGEN
 -----
 Symbolic Z-matrix:
 Charge =  0 Multiplicity = 2

                         Standard orientation:
 ---------------------------------------------------------------------
 Center     Atomic      Atomic             Coordinates (Angstroms)
 Number     Number       Type             X           Y           Z
 ---------------------------------------------------------------------
      1         11           0        4.088007   -1.545149   -0.632904
      2         11           0       -1.345235    0.318549   -0.382976
      3         11           0        1.252596   -1.303640    0.941553
      4         11           0        0.844363    2.120550    1.719483
      5         11           0       -2.485090   -2.110845    0.244119
      6         11           0       -4.697718    0.648212   -0.635474
      7         11           0        2.343077    1.872324   -1.253801
 ---------------------------------------------------------------------

 SCF Done:  E(UB3LYP) =  -1136.11351997     A.U. after   25 cycles

 The electronic state is 2-A.
 Alpha  occ. eigenvalues --  -38.44970 -38.44795 -38.44698 -38.43987 -38.43526
 Alpha  occ. eigenvalues --  -38.43234 -38.42939  -2.20768  -2.20673  -2.20518
 Alpha  occ. eigenvalues --   -2.19974  -2.19370  -2.19122  -2.18745  -1.14531
 Alpha  occ. eigenvalues --   -1.14465  -1.14416  -1.14375  -1.14316  -1.14248
 Alpha  occ. eigenvalues --   -1.14172  -1.14162  -1.14116  -1.13661  -1.13641
 Alpha  occ. eigenvalues --   -1.13560  -1.13041  -1.13029  -1.12995  -1.12826
 Alpha  occ. eigenvalues --   -1.12785  -1.12759  -1.12406  -1.12392  -1.12386
 Alpha  occ. eigenvalues --   -0.17760  -0.14407  -0.11218  -0.11016
 Alpha virt. eigenvalues --   -0.06726  -0.05523  -0.04193  -0.03452  -0.03020
 Alpha virt. eigenvalues --   -0.02232  -0.01923  -0.01290  -0.01086  -0.00774
 Alpha virt. eigenvalues --   -0.00118   0.00097   0.00378   0.00533   0.00626

  Beta  occ. eigenvalues --  -38.44943 -38.44778 -38.44619 -38.43971 -38.43509
  Beta  occ. eigenvalues --  -38.43214 -38.42918  -2.20717  -2.20645  -2.20371
  Beta  occ. eigenvalues --   -2.19953  -2.19340  -2.19090  -2.18704  -1.14515
  Beta  occ. eigenvalues --   -1.14431  -1.14385  -1.14329  -1.14302  -1.14192
  Beta  occ. eigenvalues --   -1.14071  -1.14061  -1.14024  -1.13633  -1.13601
  Beta  occ. eigenvalues --   -1.13539  -1.13019  -1.12998  -1.12979  -1.12808
  Beta  occ. eigenvalues --   -1.12757  -1.12712  -1.12382  -1.12370  -1.12348
  Beta  occ. eigenvalues --   -0.17075  -0.13878  -0.10985
  Beta virt. eigenvalues --   -0.07571  -0.06221  -0.05366  -0.03710  -0.03077
  Beta virt. eigenvalues --   -0.02770  -0.02012  -0.01614  -0.01018  -0.00759
  Beta virt. eigenvalues --   -0.00399   0.00004   0.00148   0.00508   0.00646

 Mulliken charges and spin densities:
               1          2
     1  Na   0.054497   0.228394
     2  Na  -2.626700   0.121404
     3  Na   0.471942  -0.097689
     4  Na   0.509442   0.163000
     5  Na   0.609844   0.097125
     6  Na   0.636427   0.283051
     7  Na   0.344549   0.204715
 Sum of Mulliken charges =  -0.00000   1.00000

 Dipole moment (field-independent basis, Debye):
    X=             -1.5283    Y=              0.6998    Z=              0.1092  Tot=              1.6844
 Quadrupole moment (field-independent basis, Debye-Ang):
   XX=            -61.1040   YY=            -71.4472   ZZ=            -64.7951
   XY=              5.6023   XZ=             -1.2401   YZ=             -2.3379

 Normal termination of Gaussian 16 at Wed Dec  6 00:48:18 2023.
