 Gaussian 16, Revision B.01,
 Gaussian 16:  ES64L-G16RevB.01 20-Dec-2017

 -------------------------
 #P B3LYP/6-311+g(d) force
 -------------------------

 -----
 DPGEN
 -----
 Symbolic Z-matrix:
 Charge =  0 Multiplicity = 2

                         Standard orientation:
 ---------------------------------------------------------------------
 Center     Atomic      Atomic             Coordinates (Angstroms)
 Number     Number       Type             X           Y           Z
 ---------------------------------------------------------------------
      1         11           0       -4.701919   -0.415735   -0.780368
      2         11           0       -0.906956    1.194453   -1.251313
      3         11           0       -1.691765   -2.047726    0.118385
      4         11           0       -0.934569    1.983152    1.871514
      5         11           0        2.378714    1.699129   -0.567831
      6         11           0        4.149338   -0.984456   -1.042007
      7         11           0        1.707157   -1.428816    1.651620
 ---------------------------------------------------------------------

 SCF Done:  E(UB3LYP) =  -1136.11778271     A.U. after   23 cycles

 The electronic state is 2-A.
 Alpha  occ. eigenvalues --  -38.44399 -38.44329 -38.44226 -38.44221 -38.44043
 Alpha  occ. eigenvalues --  -38.43947 -38.43809  -2.20169  -2.20119  -2.20074
 Alpha  occ. eigenvalues --   -2.20028  -2.19831  -2.19796  -2.19618  -1.13838
 Alpha  occ. eigenvalues --   -1.13834  -1.13824  -1.13784  -1.13782  -1.13764
 Alpha  occ. eigenvalues --   -1.13757  -1.13714  -1.13700  -1.13683  -1.13664
 Alpha  occ. eigenvalues --   -1.13640  -1.13536  -1.13504  -1.13499  -1.13459
 Alpha  occ. eigenvalues --   -1.13441  -1.13419  -1.13276  -1.13266  -1.13241
 Alpha  occ. eigenvalues --   -0.17192  -0.13652  -0.11509  -0.11043
 Alpha virt. eigenvalues --   -0.06764  -0.05152  -0.04931  -0.03228  -0.02781
 Alpha virt. eigenvalues --   -0.02688  -0.02236  -0.01492  -0.01211  -0.00258
 Alpha virt. eigenvalues --   -0.00134   0.00114   0.00368   0.00415   0.00653

  Beta  occ. eigenvalues --  -38.44360 -38.44314 -38.44211 -38.44160 -38.44035
  Beta  occ. eigenvalues --  -38.43916 -38.43791  -2.20096  -2.20093  -2.20054
  Beta  occ. eigenvalues --   -2.19908  -2.19819  -2.19740  -2.19584  -1.13821
  Beta  occ. eigenvalues --   -1.13784  -1.13774  -1.13760  -1.13748  -1.13738
  Beta  occ. eigenvalues --   -1.13737  -1.13697  -1.13650  -1.13618  -1.13602
  Beta  occ. eigenvalues --   -1.13545  -1.13533  -1.13497  -1.13459  -1.13424
  Beta  occ. eigenvalues --   -1.13401  -1.13370  -1.13255  -1.13229  -1.13224
  Beta  occ. eigenvalues --   -0.16600  -0.13280  -0.11156
  Beta virt. eigenvalues --   -0.07602  -0.06398  -0.04975  -0.04430  -0.02943
  Beta virt. eigenvalues --   -0.02513  -0.02322  -0.01784  -0.01260  -0.00812
  Beta virt. eigenvalues --   -0.00184  -0.00045   0.00209   0.00475   0.00531

 Mulliken charges and spin densities:
               1          2
     1  Na   0.246146   0.173533
     2  Na  -0.083930  -0.080939
     3  Na  -0.197830   0.086002
     4  Na  -0.097282   0.150408
     5  Na   0.247687   0.376091
     6  Na   0.056236   0.061681
     7  Na  -0.171027   0.233226
 Sum of Mulliken charges =  -0.00000   1.00000

 Dipole moment (field-independent basis, Debye):
    X=             -0.4336    Y=              0.6120    Z=              0.3749  Tot=              0.8385
 Quadrupole moment (field-independent basis, Debye-Ang):
   XX=            -60.0902   YY=            -73.8202   ZZ=            -65.1560
   XY=             -4.2651   XZ=             -2.2087   YZ=              2.0175

 Normal termination of Gaussian 16 at Sun Dec  3 16:43:01 2023.
