 Gaussian 16, Revision B.01,
 Gaussian 16:  ES64L-G16RevB.01 20-Dec-2017

 -------------------------
 #P B3LYP/6-311+g(d) force
 -------------------------

 -----
 DPGEN
 -----
 Symbolic Z-matrix:
 Charge =  0 Multiplicity = 2

                         Standard orientation:
 ---------------------------------------------------------------------
 Center     Atomic      Atomic             Coordinates (Angstroms)
 Number     Number       Type             X           Y           Z
 ---------------------------------------------------------------------
      1         11           0       -0.127442    0.126683    1.783919
      2         11           0       -0.825396    3.244188   -0.218703
      3         11           0       -1.602372   -2.694264   -0.098636
      4         11           0       -3.200247   -0.090513   -0.033919
      5         11           0        2.678663   -2.022398    0.050170
      6         11           0        0.587988    0.037011   -1.755201
      7         11           0        2.488807    1.399293    0.272371
 ---------------------------------------------------------------------

 SCF Done:  E(UB3LYP) =  -1136.13264484     A.U. after   19 cycles

 The electronic state is 2-A.
 Alpha  occ. eigenvalues --  -38.44195 -38.44030 -38.43984 -38.43809 -38.43686
 Alpha  occ. eigenvalues --  -38.43368 -38.43298  -2.20028  -2.19885  -2.19840
 Alpha  occ. eigenvalues --   -2.19643  -2.19464  -2.19292  -2.19211  -1.13739
 Alpha  occ. eigenvalues --   -1.13691  -1.13663  -1.13616  -1.13571  -1.13517
 Alpha  occ. eigenvalues --   -1.13508  -1.13492  -1.13451  -1.13306  -1.13298
 Alpha  occ. eigenvalues --   -1.13279  -1.13136  -1.13123  -1.13108  -1.12979
 Alpha  occ. eigenvalues --   -1.12937  -1.12891  -1.12885  -1.12845  -1.12821
 Alpha  occ. eigenvalues --   -0.18334  -0.13313  -0.12194  -0.10317
 Alpha virt. eigenvalues --   -0.05593  -0.05550  -0.05064  -0.03239  -0.02655
 Alpha virt. eigenvalues --   -0.02227  -0.01646  -0.01377  -0.00645  -0.00528
 Alpha virt. eigenvalues --   -0.00003   0.00345   0.00751   0.00805   0.00837

  Beta  occ. eigenvalues --  -38.44194 -38.44028 -38.43970 -38.43807 -38.43685
  Beta  occ. eigenvalues --  -38.43296 -38.43219  -2.20028  -2.19865  -2.19839
  Beta  occ. eigenvalues --   -2.19642  -2.19462  -2.19159  -2.19066  -1.13742
  Beta  occ. eigenvalues --   -1.13676  -1.13664  -1.13604  -1.13517  -1.13515
  Beta  occ. eigenvalues --   -1.13496  -1.13481  -1.13446  -1.13304  -1.13287
  Beta  occ. eigenvalues --   -1.13275  -1.13124  -1.13118  -1.13109  -1.12890
  Beta  occ. eigenvalues --   -1.12842  -1.12794  -1.12788  -1.12735  -1.12719
  Beta  occ. eigenvalues --   -0.17615  -0.13103  -0.11994
  Beta virt. eigenvalues --   -0.06451  -0.05564  -0.05490  -0.05017  -0.02459
  Beta virt. eigenvalues --   -0.01981  -0.01559  -0.01299  -0.01229  -0.00689
  Beta virt. eigenvalues --   -0.00555   0.00143   0.00373   0.00794   0.00810

 Mulliken charges and spin densities:
               1          2
     1  Na  -0.072675   0.616041
     2  Na  -0.086915  -0.109503
     3  Na  -0.021110  -0.115774
     4  Na   0.006425  -0.076524
     5  Na   0.080478  -0.113824
     6  Na  -0.284533   0.795117
     7  Na   0.378330   0.004467
 Sum of Mulliken charges =  -0.00000   1.00000

 Dipole moment (field-independent basis, Debye):
    X=             -0.0036    Y=             -0.1501    Z=              0.0288  Tot=              0.1529
 Quadrupole moment (field-independent basis, Debye-Ang):
   XX=            -56.8084   YY=            -59.3753   ZZ=            -76.7749
   XY=             -2.0684   XZ=              1.4638   YZ=             -0.3315

 Normal termination of Gaussian 16 at Sat Dec  9 05:26:39 2023.
