 Gaussian 16, Revision B.01,
 Gaussian 16:  ES64L-G16RevB.01 20-Dec-2017

 -------------------------
 #P B3LYP/6-311+g(d) force
 -------------------------

 -----
 DPGEN
 -----
 Symbolic Z-matrix:
 Charge =  0 Multiplicity = 2

                         Standard orientation:
 ---------------------------------------------------------------------
 Center     Atomic      Atomic             Coordinates (Angstroms)
 Number     Number       Type             X           Y           Z
 ---------------------------------------------------------------------
      1         11           0       -0.042904   -0.537208   -1.665672
      2         11           0       -3.178774   -0.956174   -0.663195
      3         11           0       -0.449459   -1.816196    1.453120
      4         11           0       -1.785013    1.509540    0.957979
      5         11           0        2.644979   -2.176220   -0.517758
      6         11           0        1.858893    0.866169    1.255471
      7         11           0        0.952279    3.110090   -0.819945
 ---------------------------------------------------------------------

 SCF Done:  E(UB3LYP) =  -1136.13777737     A.U. after   20 cycles

 The electronic state is 2-A.
 Alpha  occ. eigenvalues --  -38.43741 -38.43682 -38.43657 -38.43639 -38.43455
 Alpha  occ. eigenvalues --  -38.43390 -38.43352  -2.19610  -2.19572  -2.19500
 Alpha  occ. eigenvalues --   -2.19476  -2.19347  -2.19324  -2.19181  -1.13316
 Alpha  occ. eigenvalues --   -1.13299  -1.13269  -1.13243  -1.13240  -1.13183
 Alpha  occ. eigenvalues --   -1.13173  -1.13159  -1.13139  -1.13135  -1.13118
 Alpha  occ. eigenvalues --   -1.13106  -1.13043  -1.13034  -1.13001  -1.12966
 Alpha  occ. eigenvalues --   -1.12953  -1.12936  -1.12834  -1.12831  -1.12806
 Alpha  occ. eigenvalues --   -0.18518  -0.12931  -0.12381  -0.10969
 Alpha virt. eigenvalues --   -0.05367  -0.05115  -0.04697  -0.03295  -0.03130
 Alpha virt. eigenvalues --   -0.02534  -0.01458  -0.01121  -0.00577   0.00061
 Alpha virt. eigenvalues --    0.00307   0.00360   0.00695   0.00780   0.00817

  Beta  occ. eigenvalues --  -38.43723 -38.43653 -38.43633 -38.43630 -38.43429
  Beta  occ. eigenvalues --  -38.43342 -38.43323  -2.19579  -2.19487  -2.19484
  Beta  occ. eigenvalues --   -2.19469  -2.19302  -2.19204  -2.19164  -1.13294
  Beta  occ. eigenvalues --   -1.13258  -1.13226  -1.13212  -1.13168  -1.13151
  Beta  occ. eigenvalues --   -1.13139  -1.13136  -1.13130  -1.13119  -1.13103
  Beta  occ. eigenvalues --   -1.13083  -1.13015  -1.12983  -1.12940  -1.12917
  Beta  occ. eigenvalues --   -1.12868  -1.12851  -1.12820  -1.12810  -1.12793
  Beta  occ. eigenvalues --   -0.17757  -0.12738  -0.12215
  Beta virt. eigenvalues --   -0.07055  -0.05269  -0.04985  -0.04493  -0.02729
  Beta virt. eigenvalues --   -0.02554  -0.01598  -0.01365  -0.01061  -0.00208
  Beta virt. eigenvalues --    0.00030   0.00368   0.00403   0.00769   0.00820

 Mulliken charges and spin densities:
               1          2
     1  Na  -0.452217   0.673430
     2  Na   0.639099  -0.082732
     3  Na  -0.273364   0.304377
     4  Na  -0.280854   0.161015
     5  Na   0.137612  -0.123716
     6  Na   0.106414   0.245123
     7  Na   0.123310  -0.177497
 Sum of Mulliken charges =  -0.00000   1.00000

 Dipole moment (field-independent basis, Debye):
    X=             -0.1370    Y=             -0.2276    Z=              0.0169  Tot=              0.2662
 Quadrupole moment (field-independent basis, Debye-Ang):
   XX=            -58.7512   YY=            -64.3182   ZZ=            -70.2035
   XY=             -0.6488   XZ=             -0.2145   YZ=             -1.1248

 Normal termination of Gaussian 16 at Wed Nov 29 17:11:44 2023.
