 Gaussian 16, Revision B.01,
 Gaussian 16:  ES64L-G16RevB.01 20-Dec-2017

 -------------------------
 #P B3LYP/6-311+g(d) force
 -------------------------

 -----
 DPGEN
 -----
 Symbolic Z-matrix:
 Charge =  0 Multiplicity = 2

                         Standard orientation:
 ---------------------------------------------------------------------
 Center     Atomic      Atomic             Coordinates (Angstroms)
 Number     Number       Type             X           Y           Z
 ---------------------------------------------------------------------
      1         11           0        2.914676   -0.560102   -0.177174
      2         11           0        1.257781    2.430094   -0.246129
      3         11           0        0.294744   -2.463576    0.641945
      4         11           0        0.111235    0.487660    1.744161
      5         11           0        0.048222   -0.669036   -1.748591
      6         11           0       -2.657355   -1.171807   -0.152940
      7         11           0       -1.969303    1.946768   -0.061272
 ---------------------------------------------------------------------

 SCF Done:  E(UB3LYP) =  -1136.13319955     A.U. after   18 cycles

 The electronic state is 2-A.
 Alpha  occ. eigenvalues --  -38.43672 -38.43502 -38.43383 -38.43339 -38.43326
 Alpha  occ. eigenvalues --  -38.43266 -38.43247  -2.19566  -2.19417  -2.19351
 Alpha  occ. eigenvalues --   -2.19319  -2.19306  -2.19262  -2.19224  -1.13269
 Alpha  occ. eigenvalues --   -1.13230  -1.13213  -1.13179  -1.13144  -1.13115
 Alpha  occ. eigenvalues --   -1.13086  -1.13061  -1.13027  -1.13022  -1.12984
 Alpha  occ. eigenvalues --   -1.12966  -1.12936  -1.12927  -1.12903  -1.12889
 Alpha  occ. eigenvalues --   -1.12862  -1.12855  -1.12834  -1.12828  -1.12813
 Alpha  occ. eigenvalues --   -0.19671  -0.13209  -0.12885  -0.11116
 Alpha virt. eigenvalues --   -0.05263  -0.04901  -0.04540  -0.03207  -0.03186
 Alpha virt. eigenvalues --   -0.02501  -0.01310  -0.00863  -0.00053   0.00105
 Alpha virt. eigenvalues --    0.00166   0.00370   0.00903   0.00980   0.00986

  Beta  occ. eigenvalues --  -38.43665 -38.43496 -38.43377 -38.43332 -38.43255
  Beta  occ. eigenvalues --  -38.43224 -38.43188  -2.19557  -2.19410  -2.19302
  Beta  occ. eigenvalues --   -2.19255  -2.19222  -2.19186  -2.19171  -1.13258
  Beta  occ. eigenvalues --   -1.13211  -1.13194  -1.13152  -1.13109  -1.13095
  Beta  occ. eigenvalues --   -1.13045  -1.13027  -1.12996  -1.12961  -1.12935
  Beta  occ. eigenvalues --   -1.12912  -1.12894  -1.12876  -1.12852  -1.12847
  Beta  occ. eigenvalues --   -1.12823  -1.12799  -1.12784  -1.12776  -1.12750
  Beta  occ. eigenvalues --   -0.18914  -0.12927  -0.12640
  Beta virt. eigenvalues --   -0.07101  -0.05244  -0.04893  -0.04497  -0.02398
  Beta virt. eigenvalues --   -0.02389  -0.01417  -0.01231  -0.00810   0.00056
  Beta virt. eigenvalues --    0.00067   0.00167   0.00401   0.00940   0.00975

 Mulliken charges and spin densities:
               1          2
     1  Na   0.209510  -0.039393
     2  Na   0.146502  -0.030876
     3  Na   0.381271   0.052208
     4  Na  -0.468959   0.460903
     5  Na  -0.663512   0.619275
     6  Na   0.253934  -0.013927
     7  Na   0.141254  -0.048190
 Sum of Mulliken charges =  -0.00000   1.00000

 Dipole moment (field-independent basis, Debye):
    X=              0.1194    Y=              0.0064    Z=             -0.1116  Tot=              0.1635
 Quadrupole moment (field-independent basis, Debye-Ang):
   XX=            -57.8300   YY=            -64.3882   ZZ=            -72.3404
   XY=              0.1454   XZ=             -0.2194   YZ=             -2.0127

 Normal termination of Gaussian 16 at Fri Dec  8 00:52:50 2023.
