 Gaussian 16, Revision B.01,
 Gaussian 16:  ES64L-G16RevB.01 20-Dec-2017

 -------------------------
 #P B3LYP/6-311+g(d) force
 -------------------------

 -----
 DPGEN
 -----
 Symbolic Z-matrix:
 Charge =  0 Multiplicity = 2

                         Standard orientation:
 ---------------------------------------------------------------------
 Center     Atomic      Atomic             Coordinates (Angstroms)
 Number     Number       Type             X           Y           Z
 ---------------------------------------------------------------------
      1         11           0       -0.785509   -2.705854    0.046862
      2         11           0        2.838287    1.995361   -0.029482
      3         11           0       -3.337791   -0.183030   -0.245305
      4         11           0        2.551143   -1.995800   -0.000500
      5         11           0       -1.160283    2.796210   -0.100520
      6         11           0       -0.293399    0.169022    1.820006
      7         11           0        0.187553   -0.075909   -1.491062
 ---------------------------------------------------------------------

 SCF Done:  E(UB3LYP) =  -1136.13468150     A.U. after   20 cycles

 The electronic state is 2-A.
 Alpha  occ. eigenvalues --  -38.44420 -38.44231 -38.44086 -38.43903 -38.43264
 Alpha  occ. eigenvalues --  -38.42969 -38.42966  -2.20175  -2.20038  -2.19901
 Alpha  occ. eigenvalues --   -2.19727  -2.19156  -2.18946  -2.18900  -1.13855
 Alpha  occ. eigenvalues --   -1.13828  -1.13818  -1.13706  -1.13694  -1.13683
 Alpha  occ. eigenvalues --   -1.13581  -1.13561  -1.13540  -1.13414  -1.13406
 Alpha  occ. eigenvalues --   -1.13342  -1.12882  -1.12826  -1.12774  -1.12672
 Alpha  occ. eigenvalues --   -1.12579  -1.12565  -1.12552  -1.12522  -1.12502
 Alpha  occ. eigenvalues --   -0.18458  -0.12896  -0.12503  -0.10035
 Alpha virt. eigenvalues --   -0.06003  -0.05577  -0.04777  -0.02857  -0.02666
 Alpha virt. eigenvalues --   -0.01988  -0.01844  -0.01457  -0.00734  -0.00516
 Alpha virt. eigenvalues --    0.00012   0.00309   0.00712   0.00785   0.00844

  Beta  occ. eigenvalues --  -38.44422 -38.44223 -38.44085 -38.43896 -38.43254
  Beta  occ. eigenvalues --  -38.42909 -38.42880  -2.20180  -2.20027  -2.19901
  Beta  occ. eigenvalues --   -2.19719  -2.19144  -2.18844  -2.18735  -1.13845
  Beta  occ. eigenvalues --   -1.13833  -1.13822  -1.13689  -1.13679  -1.13675
  Beta  occ. eigenvalues --   -1.13576  -1.13547  -1.13544  -1.13409  -1.13374
  Beta  occ. eigenvalues --   -1.13340  -1.12871  -1.12781  -1.12769  -1.12592
  Beta  occ. eigenvalues --   -1.12505  -1.12475  -1.12461  -1.12402  -1.12387
  Beta  occ. eigenvalues --   -0.17749  -0.12675  -0.12275
  Beta virt. eigenvalues --   -0.06187  -0.05977  -0.05531  -0.04759  -0.02137
  Beta virt. eigenvalues --   -0.01931  -0.01782  -0.01396  -0.00960  -0.00779
  Beta virt. eigenvalues --   -0.00554   0.00161   0.00353   0.00738   0.00808

 Mulliken charges and spin densities:
               1          2
     1  Na   0.285799   0.002825
     2  Na  -0.035313  -0.139336
     3  Na   0.171195   0.016196
     4  Na   0.108177  -0.094955
     5  Na   0.057271  -0.118978
     6  Na  -0.264183   0.740300
     7  Na  -0.322946   0.593948
 Sum of Mulliken charges =  -0.00000   1.00000

 Dipole moment (field-independent basis, Debye):
    X=              0.1606    Y=              0.2224    Z=              0.0644  Tot=              0.2818
 Quadrupole moment (field-independent basis, Debye-Ang):
   XX=            -52.0612   YY=            -59.9483   ZZ=            -78.2131
   XY=             -0.1507   XZ=              1.2084   YZ=             -0.5701

 Normal termination of Gaussian 16 at Tue Dec  5 21:48:26 2023.
