 Gaussian 16, Revision B.01,
 Gaussian 16:  ES64L-G16RevB.01 20-Dec-2017

 -------------------------
 #P B3LYP/6-311+g(d) force
 -------------------------

 -----
 DPGEN
 -----
 Symbolic Z-matrix:
 Charge =  0 Multiplicity = 2

                         Standard orientation:
 ---------------------------------------------------------------------
 Center     Atomic      Atomic             Coordinates (Angstroms)
 Number     Number       Type             X           Y           Z
 ---------------------------------------------------------------------
      1         11           0        4.281326    0.767448    1.788883
      2         11           0       -3.621815    3.059672   -1.073640
      3         11           0       -3.096925   -2.324789    1.106812
      4         11           0       -0.611254   -2.574896   -1.491107
      5         11           0       -5.011356    1.073931    0.810300
      6         11           0        2.123988   -1.157441   -0.473276
      7         11           0        5.936036    1.156074   -0.667973
 ---------------------------------------------------------------------

 SCF Done:  E(UB3LYP) =  -1136.10653528     A.U. after   18 cycles

 The electronic state is 2-A.
 Alpha  occ. eigenvalues --  -38.45650 -38.45465 -38.44065 -38.43927 -38.43665
 Alpha  occ. eigenvalues --  -38.43388 -38.43381  -2.21458  -2.21287  -2.19856
 Alpha  occ. eigenvalues --   -2.19743  -2.19474  -2.19180  -2.19170  -1.15203
 Alpha  occ. eigenvalues --   -1.15105  -1.15094  -1.14937  -1.14930  -1.14888
 Alpha  occ. eigenvalues --   -1.13509  -1.13488  -1.13466  -1.13418  -1.13411
 Alpha  occ. eigenvalues --   -1.13350  -1.13164  -1.13115  -1.13110  -1.12850
 Alpha  occ. eigenvalues --   -1.12844  -1.12838  -1.12836  -1.12827  -1.12820
 Alpha  occ. eigenvalues --   -0.15621  -0.14133  -0.12315  -0.10484
 Alpha virt. eigenvalues --   -0.06806  -0.05636  -0.04309  -0.03703  -0.02956
 Alpha virt. eigenvalues --   -0.02555  -0.02081  -0.01688  -0.01364  -0.00687
 Alpha virt. eigenvalues --   -0.00423  -0.00249  -0.00127   0.00293   0.00395

  Beta  occ. eigenvalues --  -38.45627 -38.45466 -38.43963 -38.43873 -38.43614
  Beta  occ. eigenvalues --  -38.43399 -38.43393  -2.21416  -2.21291  -2.19665
  Beta  occ. eigenvalues --   -2.19642  -2.19377  -2.19205  -2.19199  -1.15181
  Beta  occ. eigenvalues --   -1.15077  -1.15063  -1.14942  -1.14921  -1.14882
  Beta  occ. eigenvalues --   -1.13378  -1.13361  -1.13349  -1.13342  -1.13340
  Beta  occ. eigenvalues --   -1.13288  -1.13111  -1.13048  -1.13044  -1.12872
  Beta  occ. eigenvalues --   -1.12867  -1.12857  -1.12855  -1.12814  -1.12800
  Beta  occ. eigenvalues --   -0.15287  -0.13455  -0.11885
  Beta virt. eigenvalues --   -0.07257  -0.06498  -0.05286  -0.03911  -0.03538
  Beta virt. eigenvalues --   -0.02747  -0.02365  -0.01647  -0.01532  -0.01216
  Beta virt. eigenvalues --   -0.00607  -0.00127  -0.00013   0.00155   0.00339

 Mulliken charges and spin densities:
               1          2
     1  Na   0.689457   0.043168
     2  Na  -0.113094   0.258586
     3  Na  -0.166377   0.521602
     4  Na  -0.472303  -0.059637
     5  Na   0.152210  -0.067923
     6  Na  -0.576471   0.169789
     7  Na   0.486578   0.134416
 Sum of Mulliken charges =  -0.00000   1.00000

 Dipole moment (field-independent basis, Debye):
    X=              3.9545    Y=              0.9007    Z=              0.1306  Tot=              4.0579
 Quadrupole moment (field-independent basis, Debye-Ang):
   XX=            -61.4363   YY=            -74.7110   ZZ=            -61.0782
   XY=              7.6898   XZ=             -3.6462   YZ=             -2.0035

 Normal termination of Gaussian 16 at Sun Dec  3 14:22:56 2023.
