 Gaussian 16, Revision B.01,
 Gaussian 16:  ES64L-G16RevB.01 20-Dec-2017

 -------------------------
 #P B3LYP/6-311+g(d) force
 -------------------------

 -----
 DPGEN
 -----
 Symbolic Z-matrix:
 Charge =  0 Multiplicity = 2

                         Standard orientation:
 ---------------------------------------------------------------------
 Center     Atomic      Atomic             Coordinates (Angstroms)
 Number     Number       Type             X           Y           Z
 ---------------------------------------------------------------------
      1         11           0        0.124271   -0.175561    2.060279
      2         11           0       -2.127914    1.971305   -0.180127
      3         11           0        0.146889   -0.151309   -1.597606
      4         11           0       -2.964922   -1.423265   -0.027709
      5         11           0        3.109097   -0.236774   -0.127282
      6         11           0        0.727618   -2.874465   -0.134291
      7         11           0        0.984962    2.890068    0.006737
 ---------------------------------------------------------------------

 SCF Done:  E(UB3LYP) =  -1136.13869059     A.U. after   19 cycles

 The electronic state is 2-A.
 Alpha  occ. eigenvalues --  -38.43992 -38.43904 -38.43787 -38.43512 -38.43498
 Alpha  occ. eigenvalues --  -38.43434 -38.43101  -2.19828  -2.19697  -2.19645
 Alpha  occ. eigenvalues --   -2.19393  -2.19362  -2.19277  -2.19089  -1.13517
 Alpha  occ. eigenvalues --   -1.13490  -1.13462  -1.13369  -1.13362  -1.13360
 Alpha  occ. eigenvalues --   -1.13340  -1.13310  -1.13253  -1.13075  -1.13057
 Alpha  occ. eigenvalues --   -1.13034  -1.13018  -1.13011  -1.13004  -1.12941
 Alpha  occ. eigenvalues --   -1.12928  -1.12903  -1.12770  -1.12726  -1.12704
 Alpha  occ. eigenvalues --   -0.18593  -0.12947  -0.12518  -0.10614
 Alpha virt. eigenvalues --   -0.05658  -0.05040  -0.04997  -0.03068  -0.02842
 Alpha virt. eigenvalues --   -0.02515  -0.01529  -0.01223  -0.00485  -0.00369
 Alpha virt. eigenvalues --   -0.00007   0.00352   0.00816   0.00841   0.00895

  Beta  occ. eigenvalues --  -38.43986 -38.43904 -38.43779 -38.43493 -38.43432
  Beta  occ. eigenvalues --  -38.43413 -38.43039  -2.19822  -2.19700  -2.19635
  Beta  occ. eigenvalues --   -2.19356  -2.19276  -2.19211  -2.18976  -1.13507
  Beta  occ. eigenvalues --   -1.13468  -1.13460  -1.13365  -1.13356  -1.13351
  Beta  occ. eigenvalues --   -1.13341  -1.13278  -1.13250  -1.13068  -1.13017
  Beta  occ. eigenvalues --   -1.13000  -1.12942  -1.12930  -1.12916  -1.12905
  Beta  occ. eigenvalues --   -1.12886  -1.12876  -1.12692  -1.12643  -1.12622
  Beta  occ. eigenvalues --   -0.17864  -0.12708  -0.12310
  Beta virt. eigenvalues --   -0.06677  -0.05656  -0.05043  -0.04933  -0.02269
  Beta virt. eigenvalues --   -0.02098  -0.01480  -0.01400  -0.01147  -0.00554
  Beta virt. eigenvalues --   -0.00415   0.00137   0.00378   0.00825   0.00871

 Mulliken charges and spin densities:
               1          2
     1  Na  -0.529048   0.834107
     2  Na   0.097190  -0.042129
     3  Na  -0.242116   0.464732
     4  Na   0.060003  -0.078847
     5  Na   0.269393  -0.045427
     6  Na   0.241171  -0.090803
     7  Na   0.103407  -0.041633
 Sum of Mulliken charges =  -0.00000   1.00000

 Dipole moment (field-independent basis, Debye):
    X=              0.1531    Y=             -0.2469    Z=              0.1279  Tot=              0.3174
 Quadrupole moment (field-independent basis, Debye-Ang):
   XX=            -57.1086   YY=            -60.5029   ZZ=            -75.3649
   XY=              0.8430   XZ=              0.0088   YZ=              0.0687

 Normal termination of Gaussian 16 at Thu Dec  7 21:35:21 2023.
