 Gaussian 16, Revision B.01,
 Gaussian 16:  ES64L-G16RevB.01 20-Dec-2017

 -------------------------
 #P B3LYP/6-311+g(d) force
 -------------------------

 -----
 DPGEN
 -----
 Symbolic Z-matrix:
 Charge =  0 Multiplicity = 2

                         Standard orientation:
 ---------------------------------------------------------------------
 Center     Atomic      Atomic             Coordinates (Angstroms)
 Number     Number       Type             X           Y           Z
 ---------------------------------------------------------------------
      1         11           0       -0.469058   -0.003129    2.052853
      2         11           0       -3.367327    0.594338   -0.272990
      3         11           0        2.009423   -2.362745   -0.573136
      4         11           0       -0.192714    0.396718   -1.415060
      5         11           0        3.210958    0.745243    0.338222
      6         11           0        0.236599    3.202249   -0.209586
      7         11           0       -1.427882   -2.572673    0.079697
 ---------------------------------------------------------------------

 SCF Done:  E(UB3LYP) =  -1136.13258651     A.U. after   20 cycles

 The electronic state is 2-A.
 Alpha  occ. eigenvalues --  -38.44682 -38.44425 -38.43919 -38.43650 -38.43494
 Alpha  occ. eigenvalues --  -38.43383 -38.43025  -2.20475  -2.20204  -2.19730
 Alpha  occ. eigenvalues --   -2.19497  -2.19369  -2.19205  -2.18999  -1.14155
 Alpha  occ. eigenvalues --   -1.14126  -1.14110  -1.13879  -1.13868  -1.13841
 Alpha  occ. eigenvalues --   -1.13456  -1.13382  -1.13348  -1.13196  -1.13170
 Alpha  occ. eigenvalues --   -1.13124  -1.13039  -1.12993  -1.12975  -1.12878
 Alpha  occ. eigenvalues --   -1.12859  -1.12849  -1.12692  -1.12647  -1.12615
 Alpha  occ. eigenvalues --   -0.18180  -0.12887  -0.12423  -0.10345
 Alpha virt. eigenvalues --   -0.06256  -0.05117  -0.04890  -0.03062  -0.02758
 Alpha virt. eigenvalues --   -0.02291  -0.01914  -0.01263  -0.00716  -0.00484
 Alpha virt. eigenvalues --   -0.00014   0.00312   0.00732   0.00783   0.00825

  Beta  occ. eigenvalues --  -38.44675 -38.44423 -38.43917 -38.43643 -38.43396
  Beta  occ. eigenvalues --  -38.43372 -38.42977  -2.20464  -2.20202  -2.19729
  Beta  occ. eigenvalues --   -2.19488  -2.19189  -2.19185  -2.18913  -1.14135
  Beta  occ. eigenvalues --   -1.14119  -1.14100  -1.13869  -1.13863  -1.13841
  Beta  occ. eigenvalues --   -1.13449  -1.13372  -1.13346  -1.13184  -1.13139
  Beta  occ. eigenvalues --   -1.13119  -1.12919  -1.12867  -1.12859  -1.12846
  Beta  occ. eigenvalues --   -1.12841  -1.12839  -1.12622  -1.12585  -1.12550
  Beta  occ. eigenvalues --   -0.17496  -0.12698  -0.12171
  Beta virt. eigenvalues --   -0.06512  -0.06217  -0.05042  -0.04806  -0.02369
  Beta virt. eigenvalues --   -0.02067  -0.01827  -0.01282  -0.01175  -0.00726
  Beta virt. eigenvalues --   -0.00498   0.00143   0.00361   0.00741   0.00842

 Mulliken charges and spin densities:
               1          2
     1  Na  -0.318028   0.684300
     2  Na   0.100182  -0.057689
     3  Na  -0.028665   0.024062
     4  Na  -0.030462   0.288588
     5  Na  -0.004297   0.050763
     6  Na   0.053083  -0.065927
     7  Na   0.228186   0.075902
 Sum of Mulliken charges =  -0.00000   1.00000

 Dipole moment (field-independent basis, Debye):
    X=             -0.3406    Y=              0.3784    Z=              0.1641  Tot=              0.5349
 Quadrupole moment (field-independent basis, Debye-Ang):
   XX=            -53.6935   YY=            -61.5313   ZZ=            -76.6659
   XY=              0.4640   XZ=              1.0502   YZ=              1.1733

 Normal termination of Gaussian 16 at Sun Dec  3 18:15:27 2023.
