 Gaussian 16, Revision B.01,
 Gaussian 16:  ES64L-G16RevB.01 20-Dec-2017

 -------------------------
 #P B3LYP/6-311+g(d) force
 -------------------------

 -----
 DPGEN
 -----
 Symbolic Z-matrix:
 Charge =  0 Multiplicity = 2

                         Standard orientation:
 ---------------------------------------------------------------------
 Center     Atomic      Atomic             Coordinates (Angstroms)
 Number     Number       Type             X           Y           Z
 ---------------------------------------------------------------------
      1         11           0       -0.833177    0.000871   -1.639709
      2         11           0        0.183435   -0.347052    1.995391
      3         11           0        1.020527    2.309997   -0.452802
      4         11           0       -3.060701    1.809005    0.117965
      5         11           0        1.403929   -2.101845   -1.188833
      6         11           0        3.655317    0.371066    0.585486
      7         11           0       -2.369331   -2.042042    0.582502
 ---------------------------------------------------------------------

 SCF Done:  E(UB3LYP) =  -1136.12776749     A.U. after   19 cycles

 The electronic state is 2-A.
 Alpha  occ. eigenvalues --  -38.44595 -38.44330 -38.44210 -38.43838 -38.43605
 Alpha  occ. eigenvalues --  -38.43403 -38.43200  -2.20384  -2.20181  -2.19987
 Alpha  occ. eigenvalues --   -2.19663  -2.19452  -2.19244  -2.19196  -1.14052
 Alpha  occ. eigenvalues --   -1.14043  -1.14021  -1.13859  -1.13820  -1.13801
 Alpha  occ. eigenvalues --   -1.13675  -1.13639  -1.13625  -1.13343  -1.13331
 Alpha  occ. eigenvalues --   -1.13283  -1.13196  -1.13083  -1.13056  -1.13004
 Alpha  occ. eigenvalues --   -1.12920  -1.12858  -1.12842  -1.12827  -1.12784
 Alpha  occ. eigenvalues --   -0.18270  -0.13248  -0.11579  -0.11239
 Alpha virt. eigenvalues --   -0.06336  -0.05373  -0.04032  -0.03294  -0.02835
 Alpha virt. eigenvalues --   -0.02732  -0.02092  -0.01275  -0.00606  -0.00036
 Alpha virt. eigenvalues --    0.00100   0.00252   0.00556   0.00707   0.00728

  Beta  occ. eigenvalues --  -38.44587 -38.44260 -38.44213 -38.43825 -38.43560
  Beta  occ. eigenvalues --  -38.43395 -38.43133  -2.20372  -2.20053  -2.19993
  Beta  occ. eigenvalues --   -2.19643  -2.19372  -2.19232  -2.19077  -1.14040
  Beta  occ. eigenvalues --   -1.14029  -1.14014  -1.13773  -1.13734  -1.13701
  Beta  occ. eigenvalues --   -1.13675  -1.13641  -1.13627  -1.13321  -1.13310
  Beta  occ. eigenvalues --   -1.13268  -1.13123  -1.13022  -1.13007  -1.12976
  Beta  occ. eigenvalues --   -1.12898  -1.12839  -1.12786  -1.12739  -1.12695
  Beta  occ. eigenvalues --   -0.17540  -0.13046  -0.11308
  Beta virt. eigenvalues --   -0.07330  -0.06177  -0.05319  -0.03742  -0.02885
  Beta virt. eigenvalues --   -0.02187  -0.01957  -0.01749  -0.01168  -0.00439
  Beta virt. eigenvalues --    0.00030   0.00104   0.00285   0.00710   0.00766

 Mulliken charges and spin densities:
               1          2
     1  Na   0.402768   0.324354
     2  Na  -0.277021   0.597910
     3  Na  -0.269209  -0.054174
     4  Na  -0.012814  -0.044312
     5  Na  -0.149389   0.029636
     6  Na   0.227571   0.074290
     7  Na   0.078093   0.072296
 Sum of Mulliken charges =  -0.00000   1.00000

 Dipole moment (field-independent basis, Debye):
    X=              0.1410    Y=             -0.1194    Z=              0.5665  Tot=              0.5958
 Quadrupole moment (field-independent basis, Debye-Ang):
   XX=            -50.5221   YY=            -70.6413   ZZ=            -71.8809
   XY=             -0.5600   XZ=             -1.0730   YZ=              1.2416

 Normal termination of Gaussian 16 at Thu Dec  7 15:49:30 2023.
