 Gaussian 16, Revision B.01,
 Gaussian 16:  ES64L-G16RevB.01 20-Dec-2017

 -------------------------
 #P B3LYP/6-311+g(d) force
 -------------------------

 -----
 DPGEN
 -----
 Symbolic Z-matrix:
 Charge =  0 Multiplicity = 2

                         Standard orientation:
 ---------------------------------------------------------------------
 Center     Atomic      Atomic             Coordinates (Angstroms)
 Number     Number       Type             X           Y           Z
 ---------------------------------------------------------------------
      1         11           0        2.497798   -2.071953    0.874089
      2         11           0        2.955400    0.913555   -1.357168
      3         11           0        0.156957    2.624451    0.475473
      4         11           0       -3.029328   -1.544047   -1.364977
      5         11           0       -2.787007    0.919170    0.334032
      6         11           0        0.495239   -0.376603   -1.467252
      7         11           0       -0.289059   -0.464574    2.505802
 ---------------------------------------------------------------------

 SCF Done:  E(UB3LYP) =  -1136.11939889     A.U. after   27 cycles

 The electronic state is 2-A.
 Alpha  occ. eigenvalues --  -38.45178 -38.44836 -38.44775 -38.43926 -38.43661
 Alpha  occ. eigenvalues --  -38.42957 -38.42646  -2.20999  -2.20721  -2.20587
 Alpha  occ. eigenvalues --   -2.19871  -2.19554  -2.18793  -2.18485  -1.14660
 Alpha  occ. eigenvalues --   -1.14650  -1.14598  -1.14546  -1.14333  -1.14300
 Alpha  occ. eigenvalues --   -1.14255  -1.14240  -1.14196  -1.13553  -1.13514
 Alpha  occ. eigenvalues --   -1.13478  -1.13243  -1.13239  -1.13193  -1.12471
 Alpha  occ. eigenvalues --   -1.12438  -1.12424  -1.12178  -1.12149  -1.12112
 Alpha  occ. eigenvalues --   -0.18143  -0.13614  -0.12494  -0.11141
 Alpha virt. eigenvalues --   -0.05680  -0.05368  -0.04753  -0.03617  -0.03090
 Alpha virt. eigenvalues --   -0.02760  -0.01774  -0.01059  -0.00556   0.00041
 Alpha virt. eigenvalues --    0.00239   0.00310   0.00324   0.00399   0.00773

  Beta  occ. eigenvalues --  -38.45088 -38.44797 -38.44719 -38.43900 -38.43660
  Beta  occ. eigenvalues --  -38.42953 -38.42644  -2.20834  -2.20651  -2.20485
  Beta  occ. eigenvalues --   -2.19826  -2.19554  -2.18787  -2.18483  -1.14548
  Beta  occ. eigenvalues --   -1.14539  -1.14490  -1.14471  -1.14287  -1.14248
  Beta  occ. eigenvalues --   -1.14182  -1.14169  -1.14120  -1.13499  -1.13481
  Beta  occ. eigenvalues --   -1.13453  -1.13248  -1.13230  -1.13193  -1.12467
  Beta  occ. eigenvalues --   -1.12431  -1.12420  -1.12176  -1.12151  -1.12098
  Beta  occ. eigenvalues --   -0.17417  -0.13398  -0.11008
  Beta virt. eigenvalues --   -0.08353  -0.05537  -0.04763  -0.04435  -0.03136
  Beta virt. eigenvalues --   -0.02563  -0.02249  -0.01663  -0.00711  -0.00388
  Beta virt. eigenvalues --    0.00122   0.00264   0.00390   0.00548   0.00600

 Mulliken charges and spin densities:
               1          2
     1  Na  -0.348703   0.259049
     2  Na   2.447199  -0.163583
     3  Na  -0.748525   0.097143
     4  Na  -0.149219   0.048424
     5  Na   0.414008  -0.044265
     6  Na  -1.834364   0.442753
     7  Na   0.219604   0.360479
 Sum of Mulliken charges =  -0.00000   1.00000

 Dipole moment (field-independent basis, Debye):
    X=              1.2668    Y=             -0.1328    Z=              0.6992  Tot=              1.4531
 Quadrupole moment (field-independent basis, Debye-Ang):
   XX=            -58.8699   YY=            -69.9692   ZZ=            -68.5099
   XY=             -0.4726   XZ=             -2.0852   YZ=             -5.5412

 Normal termination of Gaussian 16 at Tue Dec  5 14:40:42 2023.
