 Gaussian 16, Revision B.01,
 Gaussian 16:  ES64L-G16RevB.01 20-Dec-2017

 -------------------------
 #P B3LYP/6-311+g(d) force
 -------------------------

 -----
 DPGEN
 -----
 Symbolic Z-matrix:
 Charge =  0 Multiplicity = 2

                         Standard orientation:
 ---------------------------------------------------------------------
 Center     Atomic      Atomic             Coordinates (Angstroms)
 Number     Number       Type             X           Y           Z
 ---------------------------------------------------------------------
      1         11           0       -1.981767   -1.729102    0.494903
      2         11           0       -4.773931   -1.113106   -0.735246
      3         11           0       -5.450212    1.848338    0.588052
      4         11           0       -1.134321    1.197413   -0.716085
      5         11           0        1.919311   -0.891318   -0.088281
      6         11           0        4.515310    0.145284    1.305510
      7         11           0        6.905610    0.542491   -0.848852
 ---------------------------------------------------------------------

 SCF Done:  E(UB3LYP) =  -1136.10748610     A.U. after   23 cycles

 The electronic state is 2-A.
 Alpha  occ. eigenvalues --  -38.45457 -38.44958 -38.44472 -38.44190 -38.43935
 Alpha  occ. eigenvalues --  -38.43736 -38.43662  -2.21232  -2.20726  -2.20302
 Alpha  occ. eigenvalues --   -2.19998  -2.19820  -2.19538  -2.19519  -1.14928
 Alpha  occ. eigenvalues --   -1.14917  -1.14819  -1.14387  -1.14385  -1.14371
 Alpha  occ. eigenvalues --   -1.14019  -1.13958  -1.13926  -1.13686  -1.13670
 Alpha  occ. eigenvalues --   -1.13593  -1.13519  -1.13476  -1.13435  -1.13218
 Alpha  occ. eigenvalues --   -1.13191  -1.13178  -1.13176  -1.13169  -1.13108
 Alpha  occ. eigenvalues --   -0.16350  -0.14566  -0.11865  -0.10319
 Alpha virt. eigenvalues --   -0.07421  -0.05253  -0.04766  -0.03462  -0.02910
 Alpha virt. eigenvalues --   -0.02633  -0.02152  -0.01868  -0.01001  -0.00833
 Alpha virt. eigenvalues --   -0.00487  -0.00174   0.00098   0.00277   0.00499

  Beta  occ. eigenvalues --  -38.45442 -38.44943 -38.44475 -38.44186 -38.43864
  Beta  occ. eigenvalues --  -38.43667 -38.43639  -2.21202  -2.20698  -2.20307
  Beta  occ. eigenvalues --   -2.19990  -2.19693  -2.19483  -2.19406  -1.14909
  Beta  occ. eigenvalues --   -1.14888  -1.14798  -1.14368  -1.14366  -1.14354
  Beta  occ. eigenvalues --   -1.14018  -1.13962  -1.13926  -1.13680  -1.13660
  Beta  occ. eigenvalues --   -1.13592  -1.13437  -1.13386  -1.13339  -1.13171
  Beta  occ. eigenvalues --   -1.13152  -1.13123  -1.13094  -1.13081  -1.13038
  Beta  occ. eigenvalues --   -0.15860  -0.14286  -0.11549
  Beta virt. eigenvalues --   -0.07289  -0.06577  -0.04870  -0.04636  -0.03285
  Beta virt. eigenvalues --   -0.02742  -0.02232  -0.01748  -0.01627  -0.00804
  Beta virt. eigenvalues --   -0.00560  -0.00274   0.00098   0.00176   0.00449

 Mulliken charges and spin densities:
               1          2
     1  Na  -0.259286   0.552894
     2  Na   0.336929  -0.005152
     3  Na  -0.002516   0.351304
     4  Na   0.009264   0.103919
     5  Na  -0.495620  -0.050982
     6  Na   0.170883  -0.021037
     7  Na   0.240346   0.069055
 Sum of Mulliken charges =  -0.00000   1.00000

 Dipole moment (field-independent basis, Debye):
    X=              1.8964    Y=              0.1784    Z=             -0.4157  Tot=              1.9496
 Quadrupole moment (field-independent basis, Debye-Ang):
   XX=            -64.7994   YY=            -71.4886   ZZ=            -65.5078
   XY=              1.7071   XZ=             -3.6141   YZ=             -0.9144

 Normal termination of Gaussian 16 at Tue Nov 28 23:53:06 2023.
