 Gaussian 16, Revision B.01,
 Gaussian 16:  ES64L-G16RevB.01 20-Dec-2017

 -------------------------
 #P B3LYP/6-311+g(d) force
 -------------------------

 -----
 DPGEN
 -----
 Symbolic Z-matrix:
 Charge =  0 Multiplicity = 2

                         Standard orientation:
 ---------------------------------------------------------------------
 Center     Atomic      Atomic             Coordinates (Angstroms)
 Number     Number       Type             X           Y           Z
 ---------------------------------------------------------------------
      1         11           0        0.056110   -0.450397   -1.369110
      2         11           0       -3.336879    0.695393    0.078248
      3         11           0       -2.344377   -2.244815   -0.276674
      4         11           0        0.051422   -0.447376    1.766863
      5         11           0       -0.445195    2.867414   -0.050136
      6         11           0        2.902795    1.443588   -0.192293
      7         11           0        3.116124   -1.863807    0.043101
 ---------------------------------------------------------------------

 SCF Done:  E(UB3LYP) =  -1136.12626321     A.U. after   25 cycles

 The electronic state is 2-A.
 Alpha  occ. eigenvalues --  -38.45159 -38.44560 -38.44473 -38.43764 -38.43743
 Alpha  occ. eigenvalues --  -38.43109 -38.42619  -2.20984  -2.20361  -2.20300
 Alpha  occ. eigenvalues --   -2.19713  -2.19623  -2.19021  -2.18440  -1.14660
 Alpha  occ. eigenvalues --   -1.14649  -1.14623  -1.14053  -1.14025  -1.14006
 Alpha  occ. eigenvalues --   -1.13973  -1.13952  -1.13917  -1.13472  -1.13395
 Alpha  occ. eigenvalues --   -1.13328  -1.13283  -1.13255  -1.13246  -1.12729
 Alpha  occ. eigenvalues --   -1.12632  -1.12611  -1.12120  -1.12104  -1.12086
 Alpha  occ. eigenvalues --   -0.18431  -0.13998  -0.11781  -0.09891
 Alpha virt. eigenvalues --   -0.06815  -0.05884  -0.04196  -0.03356  -0.02532
 Alpha virt. eigenvalues --   -0.02131  -0.01900  -0.01588  -0.00862  -0.00314
 Alpha virt. eigenvalues --   -0.00058   0.00209   0.00574   0.00684   0.00793

  Beta  occ. eigenvalues --  -38.45156 -38.44559 -38.44464 -38.43732 -38.43722
  Beta  occ. eigenvalues --  -38.43013 -38.42618  -2.20981  -2.20363  -2.20284
  Beta  occ. eigenvalues --   -2.19640  -2.19606  -2.18842  -2.18440  -1.14664
  Beta  occ. eigenvalues --   -1.14633  -1.14613  -1.14056  -1.14018  -1.13996
  Beta  occ. eigenvalues --   -1.13950  -1.13937  -1.13913  -1.13406  -1.13349
  Beta  occ. eigenvalues --   -1.13285  -1.13270  -1.13222  -1.13211  -1.12608
  Beta  occ. eigenvalues --   -1.12507  -1.12483  -1.12120  -1.12095  -1.12079
  Beta  occ. eigenvalues --   -0.17756  -0.13756  -0.11576
  Beta virt. eigenvalues --   -0.06718  -0.06139  -0.05799  -0.04163  -0.02639
  Beta virt. eigenvalues --   -0.02389  -0.01609  -0.01492  -0.00940  -0.00850
  Beta virt. eigenvalues --   -0.00287   0.00142   0.00267   0.00648   0.00698

 Mulliken charges and spin densities:
               1          2
     1  Na  -0.344744   0.155937
     2  Na   0.073274   0.021431
     3  Na   0.598443   0.199424
     4  Na  -0.465557   0.574215
     5  Na  -0.290276  -0.047541
     6  Na   0.080070   0.037020
     7  Na   0.348790   0.059515
 Sum of Mulliken charges =  -0.00000   1.00000

 Dipole moment (field-independent basis, Debye):
    X=              0.1188    Y=             -0.3131    Z=              0.1813  Tot=              0.3808
 Quadrupole moment (field-independent basis, Debye-Ang):
   XX=            -46.8772   YY=            -65.9880   ZZ=            -78.5277
   XY=             -1.5037   XZ=             -0.4496   YZ=              0.3715

 Normal termination of Gaussian 16 at Sat Dec  9 05:59:13 2023.
