 Gaussian 16, Revision B.01,
 Gaussian 16:  ES64L-G16RevB.01 20-Dec-2017

 -------------------------
 #P B3LYP/6-311+g(d) force
 -------------------------

 -----
 DPGEN
 -----
 Symbolic Z-matrix:
 Charge =  0 Multiplicity = 2

                         Standard orientation:
 ---------------------------------------------------------------------
 Center     Atomic      Atomic             Coordinates (Angstroms)
 Number     Number       Type             X           Y           Z
 ---------------------------------------------------------------------
      1         11           0       -2.840667   -1.484797    0.018396
      2         11           0        1.012637    2.764248    0.084971
      3         11           0        3.207771   -0.084713   -0.215191
      4         11           0        0.749222   -2.935817   -0.275130
      5         11           0       -0.060836    0.010099   -1.458489
      6         11           0       -2.222514    2.024611   -0.205725
      7         11           0        0.154387   -0.293631    2.051168
 ---------------------------------------------------------------------

 SCF Done:  E(UB3LYP) =  -1136.13878731     A.U. after   19 cycles

 The electronic state is 2-A.
 Alpha  occ. eigenvalues --  -38.44055 -38.43993 -38.43795 -38.43547 -38.43405
 Alpha  occ. eigenvalues --  -38.43364 -38.42866  -2.19866  -2.19802  -2.19626
 Alpha  occ. eigenvalues --   -2.19412  -2.19267  -2.19248  -2.18886  -1.13543
 Alpha  occ. eigenvalues --   -1.13524  -1.13506  -1.13477  -1.13466  -1.13441
 Alpha  occ. eigenvalues --   -1.13323  -1.13293  -1.13244  -1.13122  -1.13072
 Alpha  occ. eigenvalues --   -1.13048  -1.12952  -1.12933  -1.12915  -1.12893
 Alpha  occ. eigenvalues --   -1.12870  -1.12858  -1.12576  -1.12527  -1.12503
 Alpha  occ. eigenvalues --   -0.18595  -0.12840  -0.12652  -0.10448
 Alpha virt. eigenvalues --   -0.05724  -0.05109  -0.04958  -0.02917  -0.02867
 Alpha virt. eigenvalues --   -0.02343  -0.01585  -0.01259  -0.00547  -0.00419
 Alpha virt. eigenvalues --    0.00008   0.00346   0.00809   0.00825   0.00891

  Beta  occ. eigenvalues --  -38.44051 -38.43992 -38.43787 -38.43542 -38.43400
  Beta  occ. eigenvalues --  -38.43265 -38.42812  -2.19861  -2.19801  -2.19615
  Beta  occ. eigenvalues --   -2.19406  -2.19262  -2.19065  -2.18788  -1.13531
  Beta  occ. eigenvalues --   -1.13512  -1.13504  -1.13470  -1.13456  -1.13442
  Beta  occ. eigenvalues --   -1.13310  -1.13267  -1.13238  -1.13114  -1.13057
  Beta  occ. eigenvalues --   -1.13040  -1.12946  -1.12903  -1.12892  -1.12798
  Beta  occ. eigenvalues --   -1.12742  -1.12728  -1.12500  -1.12455  -1.12433
  Beta  occ. eigenvalues --   -0.17885  -0.12606  -0.12428
  Beta virt. eigenvalues --   -0.06529  -0.05723  -0.05094  -0.04906  -0.02172
  Beta virt. eigenvalues --   -0.02097  -0.01506  -0.01268  -0.01180  -0.00606
  Beta virt. eigenvalues --   -0.00462   0.00156   0.00380   0.00824   0.00852

 Mulliken charges and spin densities:
               1          2
     1  Na   0.171462  -0.042206
     2  Na   0.207264   0.011498
     3  Na   0.172761  -0.031772
     4  Na   0.165031  -0.070326
     5  Na  -0.432623   0.326336
     6  Na   0.244976   0.000402
     7  Na  -0.528871   0.806069
 Sum of Mulliken charges =  -0.00000   1.00000

 Dipole moment (field-independent basis, Debye):
    X=              0.0635    Y=             -0.2564    Z=              0.1336  Tot=              0.2960
 Quadrupole moment (field-independent basis, Debye-Ang):
   XX=            -55.8099   YY=            -59.9888   ZZ=            -76.1826
   XY=              0.4399   XZ=             -0.5008   YZ=              0.6519

 Normal termination of Gaussian 16 at Fri Dec  8 03:16:30 2023.
