 Gaussian 16, Revision B.01,
 Gaussian 16:  ES64L-G16RevB.01 20-Dec-2017

 -------------------------
 #P B3LYP/6-311+g(d) force
 -------------------------

 -----
 DPGEN
 -----
 Symbolic Z-matrix:
 Charge =  0 Multiplicity = 2

                         Standard orientation:
 ---------------------------------------------------------------------
 Center     Atomic      Atomic             Coordinates (Angstroms)
 Number     Number       Type             X           Y           Z
 ---------------------------------------------------------------------
      1         11           0        2.090947    2.567388   -0.614615
      2         11           0       -3.572903   -1.196309   -1.254824
      3         11           0        0.927248   -0.315624    1.989366
      4         11           0       -2.524343    0.751921    1.801773
      5         11           0        3.943635   -1.219586   -0.424797
      6         11           0        0.260882   -2.383052   -0.363580
      7         11           0       -1.125466    1.795261   -1.133322
 ---------------------------------------------------------------------

 SCF Done:  E(UB3LYP) =  -1136.11843852     A.U. after   21 cycles

 The electronic state is 2-A.
 Alpha  occ. eigenvalues --  -38.45433 -38.44856 -38.44405 -38.44394 -38.44249
 Alpha  occ. eigenvalues --  -38.43458 -38.43063  -2.21167  -2.20667  -2.20239
 Alpha  occ. eigenvalues --   -2.20184  -2.20028  -2.19280  -2.18843  -1.14851
 Alpha  occ. eigenvalues --   -1.14816  -1.14788  -1.14336  -1.14323  -1.14291
 Alpha  occ. eigenvalues --   -1.13968  -1.13874  -1.13850  -1.13845  -1.13828
 Alpha  occ. eigenvalues --   -1.13805  -1.13724  -1.13713  -1.13614  -1.12976
 Alpha  occ. eigenvalues --   -1.12962  -1.12894  -1.12521  -1.12502  -1.12481
 Alpha  occ. eigenvalues --   -0.17234  -0.13354  -0.11423  -0.11146
 Alpha virt. eigenvalues --   -0.06872  -0.05627  -0.04560  -0.03352  -0.02875
 Alpha virt. eigenvalues --   -0.02565  -0.02264  -0.01567  -0.00839  -0.00320
 Alpha virt. eigenvalues --   -0.00073   0.00146   0.00177   0.00436   0.00637

  Beta  occ. eigenvalues --  -38.45420 -38.44811 -38.44355 -38.44328 -38.44250
  Beta  occ. eigenvalues --  -38.43446 -38.43059  -2.21142  -2.20587  -2.20121
  Beta  occ. eigenvalues --   -2.20089  -2.20031  -2.19259  -2.18837  -1.14832
  Beta  occ. eigenvalues --   -1.14799  -1.14773  -1.14285  -1.14260  -1.14220
  Beta  occ. eigenvalues --   -1.13901  -1.13798  -1.13780  -1.13763  -1.13746
  Beta  occ. eigenvalues --   -1.13746  -1.13716  -1.13699  -1.13616  -1.12960
  Beta  occ. eigenvalues --   -1.12941  -1.12879  -1.12512  -1.12499  -1.12476
  Beta  occ. eigenvalues --   -0.16600  -0.13099  -0.11230
  Beta virt. eigenvalues --   -0.07434  -0.06659  -0.05323  -0.04119  -0.03228
  Beta virt. eigenvalues --   -0.02330  -0.02185  -0.01788  -0.01315  -0.00568
  Beta virt. eigenvalues --   -0.00214  -0.00015   0.00190   0.00357   0.00557

 Mulliken charges and spin densities:
               1          2
     1  Na  -0.122224  -0.057660
     2  Na   0.158687   0.296192
     3  Na   0.178720   0.510364
     4  Na   0.224804  -0.081391
     5  Na   0.317778   0.068677
     6  Na  -0.500868  -0.073689
     7  Na  -0.256896   0.337507
 Sum of Mulliken charges =  -0.00000   1.00000

 Dipole moment (field-independent basis, Debye):
    X=              0.3289    Y=             -0.7446    Z=              0.2855  Tot=              0.8626
 Quadrupole moment (field-independent basis, Debye-Ang):
   XX=            -49.0959   YY=            -76.4218   ZZ=            -69.4258
   XY=             -1.9173   XZ=             -1.8236   YZ=              4.0313

 Normal termination of Gaussian 16 at Sun Dec  3 17:05:52 2023.
