 Gaussian 16, Revision B.01,
 Gaussian 16:  ES64L-G16RevB.01 20-Dec-2017

 -------------------------
 #P B3LYP/6-311+g(d) force
 -------------------------

 -----
 DPGEN
 -----
 Symbolic Z-matrix:
 Charge =  0 Multiplicity = 2

                         Standard orientation:
 ---------------------------------------------------------------------
 Center     Atomic      Atomic             Coordinates (Angstroms)
 Number     Number       Type             X           Y           Z
 ---------------------------------------------------------------------
      1         11           0        0.210411    0.740782   -0.711598
      2         11           0       -1.138223   -2.268033   -0.835582
      3         11           0       -2.234355    0.339122    1.831267
      4         11           0        3.110718    2.463472    0.206368
      5         11           0        2.581968   -1.218434   -1.366440
      6         11           0        1.139538   -1.394245    1.952641
      7         11           0       -3.670056    1.337335   -1.076657
 ---------------------------------------------------------------------

 SCF Done:  E(UB3LYP) =  -1136.12413781     A.U. after   22 cycles

 The electronic state is 2-A.
 Alpha  occ. eigenvalues --  -38.44689 -38.44231 -38.44202 -38.44032 -38.43804
 Alpha  occ. eigenvalues --  -38.43284 -38.43281  -2.20522  -2.20066  -2.19985
 Alpha  occ. eigenvalues --   -2.19870  -2.19633  -2.19237  -2.19050  -1.14238
 Alpha  occ. eigenvalues --   -1.14185  -1.14099  -1.13756  -1.13721  -1.13700
 Alpha  occ. eigenvalues --   -1.13646  -1.13641  -1.13597  -1.13547  -1.13510
 Alpha  occ. eigenvalues --   -1.13487  -1.13344  -1.13283  -1.13237  -1.12962
 Alpha  occ. eigenvalues --   -1.12906  -1.12850  -1.12720  -1.12718  -1.12676
 Alpha  occ. eigenvalues --   -0.17975  -0.13354  -0.11218  -0.11040
 Alpha virt. eigenvalues --   -0.06088  -0.05356  -0.05041  -0.03012  -0.02766
 Alpha virt. eigenvalues --   -0.02245  -0.02015  -0.01279  -0.01067  -0.00222
 Alpha virt. eigenvalues --    0.00095   0.00203   0.00255   0.00420   0.00760

  Beta  occ. eigenvalues --  -38.44661 -38.44193 -38.44187 -38.43977 -38.43780
  Beta  occ. eigenvalues --  -38.43284 -38.43262  -2.20472  -2.19997  -2.19957
  Beta  occ. eigenvalues --   -2.19769  -2.19589  -2.19207  -2.19050  -1.14198
  Beta  occ. eigenvalues --   -1.14152  -1.14061  -1.13710  -1.13679  -1.13652
  Beta  occ. eigenvalues --   -1.13625  -1.13612  -1.13567  -1.13477  -1.13430
  Beta  occ. eigenvalues --   -1.13416  -1.13312  -1.13237  -1.13209  -1.12902
  Beta  occ. eigenvalues --   -1.12889  -1.12831  -1.12720  -1.12714  -1.12676
  Beta  occ. eigenvalues --   -0.17243  -0.13176  -0.10925
  Beta virt. eigenvalues --   -0.07328  -0.05922  -0.05146  -0.04514  -0.02766
  Beta virt. eigenvalues --   -0.02162  -0.01947  -0.01666  -0.01099  -0.00565
  Beta virt. eigenvalues --   -0.00180   0.00225   0.00268   0.00321   0.00506

 Mulliken charges and spin densities:
               1          2
     1  Na  -1.167334   0.547904
     2  Na   0.177014   0.175580
     3  Na  -0.038650   0.039944
     4  Na   0.093165  -0.143551
     5  Na   0.575365  -0.029030
     6  Na   0.069606   0.336610
     7  Na   0.290835   0.072543
 Sum of Mulliken charges =  -0.00000   1.00000

 Dipole moment (field-independent basis, Debye):
    X=             -0.2859    Y=             -0.9525    Z=              0.0133  Tot=              0.9946
 Quadrupole moment (field-independent basis, Debye-Ang):
   XX=            -55.5680   YY=            -71.1180   ZZ=            -66.4355
   XY=             -3.4838   XZ=              1.9259   YZ=              1.9318

 Normal termination of Gaussian 16 at Tue Dec  5 23:03:19 2023.
