 Gaussian 16, Revision B.01,
 Gaussian 16:  ES64L-G16RevB.01 20-Dec-2017

 -------------------------
 #P B3LYP/6-311+g(d) force
 -------------------------

 -----
 DPGEN
 -----
 Symbolic Z-matrix:
 Charge =  0 Multiplicity = 2

                         Standard orientation:
 ---------------------------------------------------------------------
 Center     Atomic      Atomic             Coordinates (Angstroms)
 Number     Number       Type             X           Y           Z
 ---------------------------------------------------------------------
      1         11           0       -2.566139    1.250664   -0.263643
      2         11           0        1.153639    0.562224    0.917276
      3         11           0        2.320345   -2.546463    0.118924
      4         11           0       -1.035443   -1.439802   -0.749340
      5         11           0       -4.220926   -1.595563    0.373618
      6         11           0        4.074156   -0.207962   -0.289675
      7         11           0        0.274367    3.976902   -0.107160
 ---------------------------------------------------------------------

 SCF Done:  E(UB3LYP) =  -1136.12175738     A.U. after   19 cycles

 The electronic state is 2-A.
 Alpha  occ. eigenvalues --  -38.44338 -38.44212 -38.44001 -38.43851 -38.43782
 Alpha  occ. eigenvalues --  -38.43678 -38.43415  -2.20190  -2.20103  -2.19895
 Alpha  occ. eigenvalues --   -2.19752  -2.19621  -2.19430  -2.19340  -1.13928
 Alpha  occ. eigenvalues --   -1.13885  -1.13854  -1.13768  -1.13766  -1.13741
 Alpha  occ. eigenvalues --   -1.13621  -1.13598  -1.13484  -1.13377  -1.13367
 Alpha  occ. eigenvalues --   -1.13354  -1.13278  -1.13269  -1.13242  -1.13108
 Alpha  occ. eigenvalues --   -1.13099  -1.13060  -1.13037  -1.13007  -1.12931
 Alpha  occ. eigenvalues --   -0.17582  -0.14507  -0.12086  -0.10182
 Alpha virt. eigenvalues --   -0.05949  -0.05674  -0.05142  -0.03234  -0.02869
 Alpha virt. eigenvalues --   -0.01971  -0.01816  -0.01343  -0.01246  -0.00496
 Alpha virt. eigenvalues --   -0.00087  -0.00012   0.00466   0.00569   0.00660

  Beta  occ. eigenvalues --  -38.44331 -38.44197 -38.43984 -38.43777 -38.43731
  Beta  occ. eigenvalues --  -38.43687 -38.43369  -2.20179  -2.20083  -2.19870
  Beta  occ. eigenvalues --   -2.19613  -2.19526  -2.19448  -2.19260  -1.13918
  Beta  occ. eigenvalues --   -1.13880  -1.13823  -1.13762  -1.13741  -1.13685
  Beta  occ. eigenvalues --   -1.13596  -1.13549  -1.13472  -1.13284  -1.13276
  Beta  occ. eigenvalues --   -1.13269  -1.13209  -1.13204  -1.13183  -1.13120
  Beta  occ. eigenvalues --   -1.13111  -1.13070  -1.12982  -1.12955  -1.12847
  Beta  occ. eigenvalues --   -0.16915  -0.13980  -0.11938
  Beta virt. eigenvalues --   -0.06549  -0.05777  -0.05392  -0.04861  -0.02729
  Beta virt. eigenvalues --   -0.02631  -0.01843  -0.01532  -0.01215  -0.00909
  Beta virt. eigenvalues --   -0.00232   0.00232   0.00249   0.00563   0.00686

 Mulliken charges and spin densities:
               1          2
     1  Na  -0.228794   0.203071
     2  Na  -0.552788   0.092511
     3  Na   0.483371   0.136573
     4  Na  -0.522474   0.017354
     5  Na   0.468680   0.283118
     6  Na   0.178597   0.357039
     7  Na   0.173407  -0.089667
 Sum of Mulliken charges =  -0.00000   1.00000

 Dipole moment (field-independent basis, Debye):
    X=             -0.1662    Y=             -0.6486    Z=             -0.1245  Tot=              0.6811
 Quadrupole moment (field-independent basis, Debye-Ang):
   XX=            -69.8416   YY=            -60.3280   ZZ=            -69.2425
   XY=             -0.3192   XZ=             -2.0916   YZ=             -2.4416

 Normal termination of Gaussian 16 at Tue Nov 28 20:23:31 2023.
