 Gaussian 16, Revision B.01,
 Gaussian 16:  ES64L-G16RevB.01 20-Dec-2017

 -------------------------
 #P B3LYP/6-311+g(d) force
 -------------------------

 -----
 DPGEN
 -----
 Symbolic Z-matrix:
 Charge =  0 Multiplicity = 2

                         Standard orientation:
 ---------------------------------------------------------------------
 Center     Atomic      Atomic             Coordinates (Angstroms)
 Number     Number       Type             X           Y           Z
 ---------------------------------------------------------------------
      1         11           0        4.088233    1.305394   -0.430036
      2         11           0        0.907940   -2.564345    1.238584
      3         11           0        4.320167   -1.743137   -0.509168
      4         11           0        0.832452    3.363714    0.214920
      5         11           0       -2.647454   -2.770258   -0.323070
      6         11           0       -2.625666    2.725146    0.385161
      7         11           0       -4.875671   -0.316514   -0.576392
 ---------------------------------------------------------------------

 SCF Done:  E(UB3LYP) =  -1136.10504060     A.U. after   22 cycles

 The electronic state is 2-A.
 Alpha  occ. eigenvalues --  -38.45065 -38.44929 -38.44905 -38.44851 -38.44799
 Alpha  occ. eigenvalues --  -38.44125 -38.43912  -2.20801  -2.20735  -2.20655
 Alpha  occ. eigenvalues --   -2.20652  -2.20565  -2.19926  -2.19671  -1.14488
 Alpha  occ. eigenvalues --   -1.14485  -1.14474  -1.14426  -1.14394  -1.14372
 Alpha  occ. eigenvalues --   -1.14343  -1.14330  -1.14308  -1.14304  -1.14285
 Alpha  occ. eigenvalues --   -1.14255  -1.14220  -1.14212  -1.14169  -1.13578
 Alpha  occ. eigenvalues --   -1.13565  -1.13560  -1.13344  -1.13337  -1.13302
 Alpha  occ. eigenvalues --   -0.15435  -0.14115  -0.12813  -0.11011
 Alpha virt. eigenvalues --   -0.07673  -0.05157  -0.04643  -0.03576  -0.03335
 Alpha virt. eigenvalues --   -0.02566  -0.02108  -0.01831  -0.01312  -0.00943
 Alpha virt. eigenvalues --   -0.00832  -0.00267  -0.00075   0.00403   0.00569

  Beta  occ. eigenvalues --  -38.45058 -38.44911 -38.44893 -38.44839 -38.44710
  Beta  occ. eigenvalues --  -38.44067 -38.43893  -2.20792  -2.20673  -2.20670
  Beta  occ. eigenvalues --   -2.20635  -2.20399  -2.19818  -2.19636  -1.14485
  Beta  occ. eigenvalues --   -1.14471  -1.14443  -1.14400  -1.14359  -1.14354
  Beta  occ. eigenvalues --   -1.14346  -1.14327  -1.14299  -1.14275  -1.14270
  Beta  occ. eigenvalues --   -1.14216  -1.14108  -1.14101  -1.14056  -1.13504
  Beta  occ. eigenvalues --   -1.13497  -1.13487  -1.13321  -1.13314  -1.13273
  Beta  occ. eigenvalues --   -0.14873  -0.13537  -0.12132
  Beta virt. eigenvalues --   -0.07836  -0.07787  -0.04632  -0.04117  -0.03400
  Beta virt. eigenvalues --   -0.02978  -0.02436  -0.02054  -0.01570  -0.01002
  Beta virt. eigenvalues --   -0.00845  -0.00471   0.00019   0.00155   0.00407

 Mulliken charges and spin densities:
               1          2
     1  Na  -0.151314   0.213344
     2  Na  -0.423627   0.422055
     3  Na   0.209479   0.019912
     4  Na   0.179088   0.069588
     5  Na  -0.185637   0.004330
     6  Na  -0.013627   0.012301
     7  Na   0.385637   0.258470
 Sum of Mulliken charges =  -0.00000   1.00000

 Dipole moment (field-independent basis, Debye):
    X=              0.5103    Y=             -0.4130    Z=             -0.1509  Tot=              0.6736
 Quadrupole moment (field-independent basis, Debye-Ang):
   XX=            -58.6451   YY=            -67.6460   ZZ=            -73.2537
   XY=             -2.8747   XZ=             -0.3454   YZ=              1.4313

 Normal termination of Gaussian 16 at Sun Dec  3 15:01:08 2023.
