 Gaussian 16, Revision B.01,
 Gaussian 16:  ES64L-G16RevB.01 20-Dec-2017

 -------------------------
 #P B3LYP/6-311+g(d) force
 -------------------------

 -----
 DPGEN
 -----
 Symbolic Z-matrix:
 Charge =  0 Multiplicity = 2

                         Standard orientation:
 ---------------------------------------------------------------------
 Center     Atomic      Atomic             Coordinates (Angstroms)
 Number     Number       Type             X           Y           Z
 ---------------------------------------------------------------------
      1         11           0       -0.098963    0.471265   -1.365083
      2         11           0       -0.003516   -2.047303   -0.923283
      3         11           0       -2.530955    0.026819   -0.550783
      4         11           0       -0.299897    2.233161    0.563717
      5         11           0        2.315309    0.873711   -0.569183
      6         11           0        1.571566   -1.081603    1.056217
      7         11           0       -0.953545   -0.476051    1.788397
 ---------------------------------------------------------------------

 SCF Done:  E(UB3LYP) =  -1136.05946761     A.U. after   26 cycles

 The electronic state is 2-A.
 Alpha  occ. eigenvalues --  -38.45022 -38.44495 -38.44327 -38.44203 -38.44090
 Alpha  occ. eigenvalues --  -38.43932 -38.43269  -2.21562  -2.20671  -2.20535
 Alpha  occ. eigenvalues --   -2.20308  -2.20173  -2.20078  -2.19356  -1.15561
 Alpha  occ. eigenvalues --   -1.15412  -1.15233  -1.14688  -1.14470  -1.14383
 Alpha  occ. eigenvalues --   -1.14318  -1.14211  -1.14032  -1.14000  -1.13827
 Alpha  occ. eigenvalues --   -1.13802  -1.13772  -1.13759  -1.13709  -1.13698
 Alpha  occ. eigenvalues --   -1.13611  -1.13552  -1.13094  -1.12995  -1.12890
 Alpha  occ. eigenvalues --   -0.21729  -0.13646  -0.12988  -0.12670
 Alpha virt. eigenvalues --   -0.04985  -0.04028  -0.03958  -0.03793  -0.03379
 Alpha virt. eigenvalues --   -0.03315  -0.00901  -0.00434  -0.00202   0.00348
 Alpha virt. eigenvalues --    0.00878   0.00980   0.01107   0.01165   0.01198

  Beta  occ. eigenvalues --  -38.44943 -38.44412 -38.44290 -38.44191 -38.44072
  Beta  occ. eigenvalues --  -38.43897 -38.43254  -2.21425  -2.20536  -2.20462
  Beta  occ. eigenvalues --   -2.20288  -2.20145  -2.20019  -2.19332  -1.15457
  Beta  occ. eigenvalues --   -1.15306  -1.15142  -1.14594  -1.14433  -1.14306
  Beta  occ. eigenvalues --   -1.14249  -1.14108  -1.13996  -1.13925  -1.13804
  Beta  occ. eigenvalues --   -1.13763  -1.13729  -1.13713  -1.13678  -1.13667
  Beta  occ. eigenvalues --   -1.13551  -1.13514  -1.13078  -1.12939  -1.12880
  Beta  occ. eigenvalues --   -0.20906  -0.13368  -0.12446
  Beta virt. eigenvalues --   -0.08512  -0.04949  -0.03921  -0.03737  -0.03063
  Beta virt. eigenvalues --   -0.02598  -0.02108  -0.00868  -0.00393  -0.00015
  Beta virt. eigenvalues --    0.00378   0.00915   0.00992   0.01133   0.01230

 Mulliken charges and spin densities:
               1          2
     1  Na  -0.952240  -0.077116
     2  Na  -0.187257   0.132706
     3  Na   0.393943   0.003604
     4  Na  -0.544506   0.321281
     5  Na   0.467564   0.050921
     6  Na   0.282162   0.202861
     7  Na   0.540335   0.365744
 Sum of Mulliken charges =  -0.00000   1.00000

 Dipole moment (field-independent basis, Debye):
    X=             -0.2664    Y=             -0.0591    Z=              0.4695  Tot=              0.5431
 Quadrupole moment (field-independent basis, Debye-Ang):
   XX=            -62.3290   YY=            -70.4565   ZZ=            -65.3151
   XY=              0.4175   XZ=              0.3133   YZ=              1.6255

 Normal termination of Gaussian 16 at Sat Dec  9 06:19:41 2023.
