 Gaussian 16, Revision B.01,
 Gaussian 16:  ES64L-G16RevB.01 20-Dec-2017

 -------------------------
 #P B3LYP/6-311+g(d) force
 -------------------------

 -----
 DPGEN
 -----
 Symbolic Z-matrix:
 Charge =  0 Multiplicity = 2

                         Standard orientation:
 ---------------------------------------------------------------------
 Center     Atomic      Atomic             Coordinates (Angstroms)
 Number     Number       Type             X           Y           Z
 ---------------------------------------------------------------------
      1         11           0        1.284573    1.984695   -0.970493
      2         11           0       -0.151957    0.074561    1.894319
      3         11           0        3.868157    0.418452    0.509914
      4         11           0       -2.472528    2.283026   -0.100783
      5         11           0       -3.166424   -1.319203    0.592519
      6         11           0        1.720920   -2.288219   -0.319483
      7         11           0       -1.082741   -1.153313   -1.605993
 ---------------------------------------------------------------------

 SCF Done:  E(UB3LYP) =  -1136.12362108     A.U. after   22 cycles

 The electronic state is 2-A.
 Alpha  occ. eigenvalues --  -38.45064 -38.44832 -38.44502 -38.43927 -38.43677
 Alpha  occ. eigenvalues --  -38.43498 -38.43119  -2.20853  -2.20672  -2.20338
 Alpha  occ. eigenvalues --   -2.19705  -2.19496  -2.19313  -2.19034  -1.14525
 Alpha  occ. eigenvalues --   -1.14511  -1.14488  -1.14383  -1.14323  -1.14289
 Alpha  occ. eigenvalues --   -1.14024  -1.13979  -1.13953  -1.13383  -1.13359
 Alpha  occ. eigenvalues --   -1.13354  -1.13191  -1.13167  -1.13121  -1.12995
 Alpha  occ. eigenvalues --   -1.12980  -1.12936  -1.12716  -1.12691  -1.12633
 Alpha  occ. eigenvalues --   -0.18016  -0.13779  -0.11478  -0.10569
 Alpha virt. eigenvalues --   -0.06932  -0.05771  -0.04125  -0.03362  -0.02790
 Alpha virt. eigenvalues --   -0.02398  -0.02281  -0.01413  -0.00725  -0.00399
 Alpha virt. eigenvalues --    0.00054   0.00166   0.00322   0.00625   0.00701

  Beta  occ. eigenvalues --  -38.45059 -38.44818 -38.44438 -38.43927 -38.43667
  Beta  occ. eigenvalues --  -38.43472 -38.43064  -2.20843  -2.20650  -2.20219
  Beta  occ. eigenvalues --   -2.19708  -2.19482  -2.19268  -2.18933  -1.14514
  Beta  occ. eigenvalues --   -1.14505  -1.14480  -1.14363  -1.14296  -1.14274
  Beta  occ. eigenvalues --   -1.13939  -1.13897  -1.13863  -1.13378  -1.13363
  Beta  occ. eigenvalues --   -1.13346  -1.13178  -1.13142  -1.13111  -1.12967
  Beta  occ. eigenvalues --   -1.12935  -1.12905  -1.12641  -1.12624  -1.12559
  Beta  occ. eigenvalues --   -0.17340  -0.13607  -0.11219
  Beta virt. eigenvalues --   -0.06909  -0.06670  -0.05774  -0.03594  -0.03123
  Beta virt. eigenvalues --   -0.02400  -0.01944  -0.01449  -0.01320  -0.00639
  Beta virt. eigenvalues --   -0.00173   0.00059   0.00211   0.00482   0.00702

 Mulliken charges and spin densities:
               1          2
     1  Na  -0.429506   0.074402
     2  Na  -0.129310   0.475642
     3  Na   0.395439   0.082751
     4  Na  -0.120076  -0.007758
     5  Na   0.325842  -0.000692
     6  Na  -0.231091   0.000375
     7  Na   0.188703   0.375280
 Sum of Mulliken charges =  -0.00000   1.00000

 Dipole moment (field-independent basis, Debye):
    X=              0.2173    Y=             -0.0249    Z=              0.4640  Tot=              0.5130
 Quadrupole moment (field-independent basis, Debye-Ang):
   XX=            -46.4358   YY=            -73.0677   ZZ=            -73.6457
   XY=              0.2692   XZ=              0.6079   YZ=             -1.4130

 Normal termination of Gaussian 16 at Fri Dec  8 02:50:59 2023.
