 Gaussian 16, Revision B.01,
 Gaussian 16:  ES64L-G16RevB.01 20-Dec-2017

 -------------------------
 #P B3LYP/6-311+g(d) force
 -------------------------

 -----
 DPGEN
 -----
 Symbolic Z-matrix:
 Charge =  0 Multiplicity = 2

                         Standard orientation:
 ---------------------------------------------------------------------
 Center     Atomic      Atomic             Coordinates (Angstroms)
 Number     Number       Type             X           Y           Z
 ---------------------------------------------------------------------
      1         11           0       -0.411697    0.069818    2.153759
      2         11           0       -1.857071    3.121555   -0.410523
      3         11           0        2.623951    1.907168   -0.072203
      4         11           0        0.162785   -2.949615   -0.734790
      5         11           0       -2.773776   -1.372447    0.357269
      6         11           0        2.734285   -0.895446    0.250709
      7         11           0       -0.478476    0.118969   -1.544221
 ---------------------------------------------------------------------

 SCF Done:  E(UB3LYP) =  -1136.12583518     A.U. after   20 cycles

 The electronic state is 2-A.
 Alpha  occ. eigenvalues --  -38.44426 -38.44415 -38.44163 -38.44026 -38.43508
 Alpha  occ. eigenvalues --  -38.43459 -38.43327  -2.20265  -2.20261  -2.20016
 Alpha  occ. eigenvalues --   -2.19783  -2.19412  -2.19323  -2.19265  -1.14050
 Alpha  occ. eigenvalues --   -1.13954  -1.13933  -1.13908  -1.13881  -1.13877
 Alpha  occ. eigenvalues --   -1.13673  -1.13640  -1.13632  -1.13457  -1.13434
 Alpha  occ. eigenvalues --   -1.13422  -1.13091  -1.13066  -1.13048  -1.13031
 Alpha  occ. eigenvalues --   -1.12968  -1.12953  -1.12940  -1.12913  -1.12861
 Alpha  occ. eigenvalues --   -0.18276  -0.13111  -0.12213  -0.10933
 Alpha virt. eigenvalues --   -0.06116  -0.05301  -0.04443  -0.03369  -0.02951
 Alpha virt. eigenvalues --   -0.02598  -0.01567  -0.01546  -0.00434  -0.00336
 Alpha virt. eigenvalues --   -0.00044   0.00319   0.00691   0.00729   0.00876

  Beta  occ. eigenvalues --  -38.44428 -38.44401 -38.44066 -38.44016 -38.43504
  Beta  occ. eigenvalues --  -38.43440 -38.43275  -2.20270  -2.20239  -2.19838
  Beta  occ. eigenvalues --   -2.19765  -2.19407  -2.19290  -2.19172  -1.14055
  Beta  occ. eigenvalues --   -1.13934  -1.13899  -1.13892  -1.13883  -1.13869
  Beta  occ. eigenvalues --   -1.13558  -1.13514  -1.13505  -1.13436  -1.13423
  Beta  occ. eigenvalues --   -1.13412  -1.13094  -1.13059  -1.13022  -1.12996
  Beta  occ. eigenvalues --   -1.12940  -1.12925  -1.12881  -1.12852  -1.12792
  Beta  occ. eigenvalues --   -0.17589  -0.12901  -0.11920
  Beta virt. eigenvalues --   -0.07080  -0.06024  -0.05151  -0.04423  -0.02605
  Beta virt. eigenvalues --   -0.02307  -0.01700  -0.01454  -0.01383  -0.00431
  Beta virt. eigenvalues --   -0.00350   0.00097   0.00370   0.00742   0.00823

 Mulliken charges and spin densities:
               1          2
     1  Na  -0.251439   0.536199
     2  Na  -0.125861  -0.022328
     3  Na  -0.047768  -0.040208
     4  Na   0.274580   0.128191
     5  Na   0.198572   0.053847
     6  Na   0.063282   0.087807
     7  Na  -0.111366   0.256493
 Sum of Mulliken charges =  -0.00000   1.00000

 Dipole moment (field-independent basis, Debye):
    X=             -0.3596    Y=              0.1054    Z=              0.2577  Tot=              0.4548
 Quadrupole moment (field-independent basis, Debye-Ang):
   XX=            -60.7333   YY=            -60.3830   ZZ=            -73.9634
   XY=              1.7533   XZ=             -0.4182   YZ=              0.4164

 Normal termination of Gaussian 16 at Thu Dec  7 12:16:23 2023.
