 Gaussian 16, Revision B.01,
 Gaussian 16:  ES64L-G16RevB.01 20-Dec-2017

 -------------------------
 #P B3LYP/6-311+g(d) force
 -------------------------

 -----
 DPGEN
 -----
 Symbolic Z-matrix:
 Charge =  0 Multiplicity = 2

                         Standard orientation:
 ---------------------------------------------------------------------
 Center     Atomic      Atomic             Coordinates (Angstroms)
 Number     Number       Type             X           Y           Z
 ---------------------------------------------------------------------
      1         11           0       -0.823516    3.035326   -0.891698
      2         11           0        1.933068   -2.824005   -0.048052
      3         11           0       -2.326785    0.404755    1.777289
      4         11           0        2.929243    1.242118   -0.249786
      5         11           0        1.205828    0.227108    1.625481
      6         11           0       -2.807970   -1.763827   -0.749564
      7         11           0       -0.109867   -0.321475   -1.463671
 ---------------------------------------------------------------------

 SCF Done:  E(UB3LYP) =  -1136.11922037     A.U. after   22 cycles

 The electronic state is 2-A.
 Alpha  occ. eigenvalues --  -38.44900 -38.44153 -38.44119 -38.43986 -38.43875
 Alpha  occ. eigenvalues --  -38.43839 -38.43127  -2.20762  -2.19971  -2.19892
 Alpha  occ. eigenvalues --   -2.19808  -2.19761  -2.19710  -2.19091  -1.14618
 Alpha  occ. eigenvalues --   -1.14399  -1.14327  -1.13674  -1.13628  -1.13600
 Alpha  occ. eigenvalues --   -1.13578  -1.13557  -1.13526  -1.13491  -1.13464
 Alpha  occ. eigenvalues --   -1.13442  -1.13408  -1.13389  -1.13383  -1.13356
 Alpha  occ. eigenvalues --   -1.13339  -1.13330  -1.12784  -1.12745  -1.12703
 Alpha  occ. eigenvalues --   -0.18123  -0.13139  -0.11764  -0.11057
 Alpha virt. eigenvalues --   -0.06315  -0.05171  -0.04432  -0.03403  -0.02871
 Alpha virt. eigenvalues --   -0.02512  -0.01708  -0.01517  -0.00494   0.00041
 Alpha virt. eigenvalues --    0.00095   0.00200   0.00367   0.00667   0.00875

  Beta  occ. eigenvalues --  -38.44899 -38.44147 -38.44126 -38.43961 -38.43813
  Beta  occ. eigenvalues --  -38.43786 -38.43073  -2.20762  -2.19961  -2.19906
  Beta  occ. eigenvalues --   -2.19716  -2.19712  -2.19597  -2.18994  -1.14609
  Beta  occ. eigenvalues --   -1.14389  -1.14328  -1.13657  -1.13613  -1.13595
  Beta  occ. eigenvalues --   -1.13580  -1.13565  -1.13534  -1.13418  -1.13402
  Beta  occ. eigenvalues --   -1.13398  -1.13374  -1.13361  -1.13308  -1.13282
  Beta  occ. eigenvalues --   -1.13264  -1.13252  -1.12712  -1.12677  -1.12628
  Beta  occ. eigenvalues --   -0.17466  -0.12927  -0.11505
  Beta virt. eigenvalues --   -0.07209  -0.06265  -0.05010  -0.03903  -0.03094
  Beta virt. eigenvalues --   -0.02258  -0.01729  -0.01634  -0.01347  -0.00211
  Beta virt. eigenvalues --    0.00068   0.00114   0.00289   0.00431   0.00684

 Mulliken charges and spin densities:
               1          2
     1  Na  -0.267986   0.165148
     2  Na  -0.348311  -0.061767
     3  Na  -0.241816   0.254592
     4  Na   0.686464   0.070587
     5  Na   0.018524   0.265995
     6  Na   0.106401   0.129715
     7  Na   0.046725   0.175730
 Sum of Mulliken charges =  -0.00000   1.00000

 Dipole moment (field-independent basis, Debye):
    X=              0.3083    Y=             -0.0736    Z=             -0.1375  Tot=              0.3455
 Quadrupole moment (field-independent basis, Debye-Ang):
   XX=            -57.2684   YY=            -63.4783   ZZ=            -72.1805
   XY=              0.3368   XZ=             -1.2405   YZ=             -0.7987

 Normal termination of Gaussian 16 at Tue Dec  5 22:33:52 2023.
