 Gaussian 16, Revision B.01,
 Gaussian 16:  ES64L-G16RevB.01 20-Dec-2017

 -------------------------
 #P B3LYP/6-311+g(d) force
 -------------------------

 -----
 DPGEN
 -----
 Symbolic Z-matrix:
 Charge =  0 Multiplicity = 2

                         Standard orientation:
 ---------------------------------------------------------------------
 Center     Atomic      Atomic             Coordinates (Angstroms)
 Number     Number       Type             X           Y           Z
 ---------------------------------------------------------------------
      1         11           0        0.235696   -2.725721    0.139788
      2         11           0        2.935109   -0.921006   -0.608265
      3         11           0        1.941841    2.448932    0.138905
      4         11           0        0.468798    0.065757    1.769107
      5         11           0       -2.139152    2.313286   -0.207731
      6         11           0       -0.457566   -0.007041   -1.372162
      7         11           0       -2.984726   -1.174206    0.140359
 ---------------------------------------------------------------------

 SCF Done:  E(UB3LYP) =  -1136.13379724     A.U. after   20 cycles

 The electronic state is 2-A.
 Alpha  occ. eigenvalues --  -38.44222 -38.43963 -38.43859 -38.43790 -38.43045
 Alpha  occ. eigenvalues --  -38.42988 -38.42936  -2.20064  -2.19794  -2.19719
 Alpha  occ. eigenvalues --   -2.19617  -2.18991  -2.18967  -2.18961  -1.13764
 Alpha  occ. eigenvalues --   -1.13720  -1.13693  -1.13513  -1.13448  -1.13408
 Alpha  occ. eigenvalues --   -1.13384  -1.13380  -1.13363  -1.13310  -1.13272
 Alpha  occ. eigenvalues --   -1.13245  -1.12776  -1.12689  -1.12670  -1.12619
 Alpha  occ. eigenvalues --   -1.12598  -1.12584  -1.12575  -1.12563  -1.12553
 Alpha  occ. eigenvalues --   -0.18886  -0.13314  -0.12500  -0.10239
 Alpha virt. eigenvalues --   -0.05711  -0.05524  -0.04590  -0.03100  -0.02646
 Alpha virt. eigenvalues --   -0.01938  -0.01696  -0.01291  -0.00554  -0.00294
 Alpha virt. eigenvalues --    0.00037   0.00328   0.00782   0.00829   0.00886

  Beta  occ. eigenvalues --  -38.44220 -38.43957 -38.43835 -38.43783 -38.43034
  Beta  occ. eigenvalues --  -38.42904 -38.42888  -2.20063  -2.19787  -2.19679
  Beta  occ. eigenvalues --   -2.19609  -2.18953  -2.18904  -2.18808  -1.13760
  Beta  occ. eigenvalues --   -1.13714  -1.13684  -1.13502  -1.13434  -1.13403
  Beta  occ. eigenvalues --   -1.13359  -1.13346  -1.13326  -1.13292  -1.13254
  Beta  occ. eigenvalues --   -1.13243  -1.12731  -1.12631  -1.12620  -1.12566
  Beta  occ. eigenvalues --   -1.12542  -1.12531  -1.12512  -1.12462  -1.12452
  Beta  occ. eigenvalues --   -0.18206  -0.13048  -0.12224
  Beta virt. eigenvalues --   -0.06424  -0.05675  -0.05411  -0.04580  -0.02375
  Beta virt. eigenvalues --   -0.01911  -0.01593  -0.01254  -0.00941  -0.00566
  Beta virt. eigenvalues --   -0.00321   0.00175   0.00381   0.00815   0.00865

 Mulliken charges and spin densities:
               1          2
     1  Na   0.334733   0.088283
     2  Na   0.052154   0.148278
     3  Na   0.038823  -0.055300
     4  Na  -0.241299   0.616232
     5  Na   0.062509  -0.102727
     6  Na  -0.405426   0.331891
     7  Na   0.158507  -0.026656
 Sum of Mulliken charges =  -0.00000   1.00000

 Dipole moment (field-independent basis, Debye):
    X=             -0.2646    Y=              0.2216    Z=              0.1283  Tot=              0.3682
 Quadrupole moment (field-independent basis, Debye-Ang):
   XX=            -53.6661   YY=            -60.9370   ZZ=            -76.6236
   XY=              0.7834   XZ=             -2.2698   YZ=             -0.2951

 Normal termination of Gaussian 16 at Tue Nov 28 23:39:56 2023.
