 Gaussian 16, Revision B.01,
 Gaussian 16:  ES64L-G16RevB.01 20-Dec-2017

 -------------------------
 #P B3LYP/6-311+g(d) force
 -------------------------

 -----
 DPGEN
 -----
 Symbolic Z-matrix:
 Charge =  0 Multiplicity = 2

                         Standard orientation:
 ---------------------------------------------------------------------
 Center     Atomic      Atomic             Coordinates (Angstroms)
 Number     Number       Type             X           Y           Z
 ---------------------------------------------------------------------
      1         11           0        1.605082    2.509629   -0.020380
      2         11           0       -3.172332   -0.968662   -0.189989
      3         11           0       -2.298734    2.166560    0.151072
      4         11           0       -0.036202    0.016935   -1.572423
      5         11           0        3.207728   -0.605445   -0.551498
      6         11           0       -0.007002   -2.836919    0.059333
      7         11           0        0.701461   -0.282098    2.123885
 ---------------------------------------------------------------------

 SCF Done:  E(UB3LYP) =  -1136.13578337     A.U. after   20 cycles

 The electronic state is 2-A.
 Alpha  occ. eigenvalues --  -38.44535 -38.44185 -38.43714 -38.43579 -38.43519
 Alpha  occ. eigenvalues --  -38.43335 -38.43113  -2.20356  -2.20002  -2.19526
 Alpha  occ. eigenvalues --   -2.19455  -2.19352  -2.19293  -2.18966  -1.14031
 Alpha  occ. eigenvalues --   -1.14007  -1.13990  -1.13677  -1.13673  -1.13639
 Alpha  occ. eigenvalues --   -1.13197  -1.13195  -1.13163  -1.13117  -1.13086
 Alpha  occ. eigenvalues --   -1.13079  -1.13055  -1.13015  -1.12985  -1.12979
 Alpha  occ. eigenvalues --   -1.12936  -1.12908  -1.12648  -1.12637  -1.12584
 Alpha  occ. eigenvalues --   -0.18345  -0.13260  -0.12134  -0.10648
 Alpha virt. eigenvalues --   -0.06053  -0.05308  -0.04496  -0.03212  -0.02782
 Alpha virt. eigenvalues --   -0.02522  -0.01881  -0.01084  -0.00529  -0.00413
 Alpha virt. eigenvalues --   -0.00051   0.00320   0.00726   0.00838   0.00851

  Beta  occ. eigenvalues --  -38.44518 -38.44184 -38.43714 -38.43513 -38.43480
  Beta  occ. eigenvalues --  -38.43282 -38.43106  -2.20327  -2.20003  -2.19528
  Beta  occ. eigenvalues --   -2.19346  -2.19271  -2.19197  -2.18958  -1.13996
  Beta  occ. eigenvalues --   -1.13984  -1.13970  -1.13679  -1.13663  -1.13642
  Beta  occ. eigenvalues --   -1.13197  -1.13189  -1.13163  -1.13048  -1.13005
  Beta  occ. eigenvalues --   -1.12992  -1.12973  -1.12953  -1.12940  -1.12920
  Beta  occ. eigenvalues --   -1.12873  -1.12833  -1.12644  -1.12599  -1.12583
  Beta  occ. eigenvalues --   -0.17650  -0.13049  -0.11911
  Beta virt. eigenvalues --   -0.06732  -0.05972  -0.05303  -0.04424  -0.02548
  Beta virt. eigenvalues --   -0.02012  -0.01779  -0.01458  -0.01031  -0.00543
  Beta virt. eigenvalues --   -0.00458   0.00124   0.00372   0.00805   0.00850

 Mulliken charges and spin densities:
               1          2
     1  Na   0.009143   0.006480
     2  Na   0.094035  -0.043306
     3  Na  -0.041205  -0.035642
     4  Na  -0.056286   0.377413
     5  Na   0.313630   0.021046
     6  Na   0.128612  -0.068004
     7  Na  -0.447929   0.742014
 Sum of Mulliken charges =  -0.00000   1.00000

 Dipole moment (field-independent basis, Debye):
    X=              0.1707    Y=             -0.0550    Z=              0.0383  Tot=              0.1834
 Quadrupole moment (field-independent basis, Debye-Ang):
   XX=            -53.7187   YY=            -64.8355   ZZ=            -74.8129
   XY=              0.1582   XZ=             -1.4439   YZ=              1.0197

 Normal termination of Gaussian 16 at Thu Dec  7 07:17:38 2023.
