 Gaussian 16, Revision B.01,
 Gaussian 16:  ES64L-G16RevB.01 20-Dec-2017

 -------------------------
 #P B3LYP/6-311+g(d) force
 -------------------------

 -----
 DPGEN
 -----
 Symbolic Z-matrix:
 Charge =  0 Multiplicity = 2

                         Standard orientation:
 ---------------------------------------------------------------------
 Center     Atomic      Atomic             Coordinates (Angstroms)
 Number     Number       Type             X           Y           Z
 ---------------------------------------------------------------------
      1         11           0       -1.119281   -2.093844   -1.333778
      2         11           0        0.484023    2.767242    0.111542
      3         11           0       -3.790747   -1.434218    0.865484
      4         11           0       -2.727043    1.572899   -1.305203
      5         11           0       -1.121437    0.032926    1.647682
      6         11           0        3.731788    1.177540    0.052334
      7         11           0        4.542697   -2.022546   -0.038061
 ---------------------------------------------------------------------

 SCF Done:  E(UB3LYP) =  -1136.10882468     A.U. after   25 cycles

 The electronic state is 2-A.
 Alpha  occ. eigenvalues --  -38.45439 -38.44969 -38.44709 -38.44293 -38.44280
 Alpha  occ. eigenvalues --  -38.44235 -38.42993  -2.21219  -2.20773  -2.20559
 Alpha  occ. eigenvalues --   -2.20180  -2.20032  -2.20014  -2.18792  -1.14901
 Alpha  occ. eigenvalues --   -1.14867  -1.14832  -1.14448  -1.14413  -1.14386
 Alpha  occ. eigenvalues --   -1.14256  -1.14219  -1.14176  -1.13863  -1.13830
 Alpha  occ. eigenvalues --   -1.13780  -1.13727  -1.13705  -1.13698  -1.13691
 Alpha  occ. eigenvalues --   -1.13672  -1.13609  -1.12474  -1.12468  -1.12435
 Alpha  occ. eigenvalues --   -0.17426  -0.13545  -0.11676  -0.10535
 Alpha virt. eigenvalues --   -0.07535  -0.06368  -0.04233  -0.03070  -0.02850
 Alpha virt. eigenvalues --   -0.02553  -0.02482  -0.01817  -0.01405  -0.00951
 Alpha virt. eigenvalues --   -0.00387  -0.00108   0.00155   0.00364   0.00455

  Beta  occ. eigenvalues --  -38.45394 -38.44904 -38.44680 -38.44295 -38.44234
  Beta  occ. eigenvalues --  -38.44232 -38.43001  -2.21136  -2.20653  -2.20509
  Beta  occ. eigenvalues --   -2.20070  -2.20060  -2.20009  -2.18809  -1.14843
  Beta  occ. eigenvalues --   -1.14794  -1.14779  -1.14359  -1.14335  -1.14297
  Beta  occ. eigenvalues --   -1.14211  -1.14182  -1.14126  -1.13782  -1.13759
  Beta  occ. eigenvalues --   -1.13741  -1.13721  -1.13715  -1.13691  -1.13689
  Beta  occ. eigenvalues --   -1.13671  -1.13618  -1.12485  -1.12475  -1.12438
  Beta  occ. eigenvalues --   -0.16708  -0.13560  -0.11499
  Beta virt. eigenvalues --   -0.07160  -0.06720  -0.06188  -0.04141  -0.02755
  Beta virt. eigenvalues --   -0.02514  -0.02250  -0.02046  -0.01366  -0.01095
  Beta virt. eigenvalues --   -0.00602  -0.00326   0.00000   0.00346   0.00455

 Mulliken charges and spin densities:
               1          2
     1  Na  -0.321738   0.327790
     2  Na   0.085779  -0.046832
     3  Na   0.624611   0.087079
     4  Na  -0.040445   0.350997
     5  Na  -0.249584   0.363546
     6  Na  -0.220929  -0.013279
     7  Na   0.122307  -0.069301
 Sum of Mulliken charges =  -0.00000   1.00000

 Dipole moment (field-independent basis, Debye):
    X=             -1.4257    Y=             -0.7177    Z=             -0.3054  Tot=              1.6251
 Quadrupole moment (field-independent basis, Debye-Ang):
   XX=            -56.8251   YY=            -66.2747   ZZ=            -76.9832
   XY=             -1.0452   XZ=              0.6584   YZ=             -0.1595

 Normal termination of Gaussian 16 at Fri Dec  8 17:57:17 2023.
