 Gaussian 16, Revision B.01,
 Gaussian 16:  ES64L-G16RevB.01 20-Dec-2017

 -------------------------
 #P B3LYP/6-311+g(d) force
 -------------------------

 -----
 DPGEN
 -----
 Symbolic Z-matrix:
 Charge =  0 Multiplicity = 2

                         Standard orientation:
 ---------------------------------------------------------------------
 Center     Atomic      Atomic             Coordinates (Angstroms)
 Number     Number       Type             X           Y           Z
 ---------------------------------------------------------------------
      1         11           0       -0.593196    1.526683    0.822173
      2         11           0        1.040878    3.720463   -0.559541
      3         11           0        3.303999    0.509703    0.032285
      4         11           0        0.705162   -1.793008    0.094871
      5         11           0       -2.686483   -0.844644    1.040528
      6         11           0        4.355965   -2.362552   -0.483737
      7         11           0       -6.126325   -0.756645   -0.946580
 ---------------------------------------------------------------------

 SCF Done:  E(UB3LYP) =  -1136.12007635     A.U. after   21 cycles

 The electronic state is 2-A.
 Alpha  occ. eigenvalues --  -38.45107 -38.44696 -38.44502 -38.44480 -38.43488
 Alpha  occ. eigenvalues --  -38.43360 -38.43172  -2.20887  -2.20517  -2.20327
 Alpha  occ. eigenvalues --   -2.20318  -2.19388  -2.19178  -2.18994  -1.14516
 Alpha  occ. eigenvalues --   -1.14516  -1.14487  -1.14229  -1.14213  -1.14092
 Alpha  occ. eigenvalues --   -1.14064  -1.14016  -1.14010  -1.13972  -1.13952
 Alpha  occ. eigenvalues --   -1.13851  -1.13095  -1.13068  -1.13062  -1.12866
 Alpha  occ. eigenvalues --   -1.12846  -1.12803  -1.12657  -1.12643  -1.12612
 Alpha  occ. eigenvalues --   -0.16831  -0.13857  -0.12548  -0.11327
 Alpha virt. eigenvalues --   -0.06051  -0.05499  -0.04571  -0.03891  -0.02633
 Alpha virt. eigenvalues --   -0.02340  -0.02000  -0.01558  -0.01503  -0.00760
 Alpha virt. eigenvalues --   -0.00542  -0.00035   0.00082   0.00335   0.00648

  Beta  occ. eigenvalues --  -38.44963 -38.44663 -38.44495 -38.44471 -38.43481
  Beta  occ. eigenvalues --  -38.43366 -38.43163  -2.20620  -2.20457  -2.20312
  Beta  occ. eigenvalues --   -2.20302  -2.19377  -2.19197  -2.18975  -1.14335
  Beta  occ. eigenvalues --   -1.14335  -1.14308  -1.14191  -1.14173  -1.14058
  Beta  occ. eigenvalues --   -1.14037  -1.14002  -1.13994  -1.13963  -1.13942
  Beta  occ. eigenvalues --   -1.13841  -1.13086  -1.13067  -1.13044  -1.12883
  Beta  occ. eigenvalues --   -1.12864  -1.12771  -1.12645  -1.12630  -1.12600
  Beta  occ. eigenvalues --   -0.16498  -0.13411  -0.11905
  Beta virt. eigenvalues --   -0.07627  -0.05790  -0.05291  -0.04219  -0.03772
  Beta virt. eigenvalues --   -0.02320  -0.02144  -0.01430  -0.01373  -0.01077
  Beta virt. eigenvalues --   -0.00397  -0.00246   0.00169   0.00203   0.00496

 Mulliken charges and spin densities:
               1          2
     1  Na  -0.998642   0.019670
     2  Na   0.784847   0.058895
     3  Na  -0.615917   0.120118
     4  Na  -0.576958   0.178525
     5  Na   0.085222  -0.184555
     6  Na   1.200805   0.057123
     7  Na   0.120643   0.750224
 Sum of Mulliken charges =  -0.00000   1.00000

 Dipole moment (field-independent basis, Debye):
    X=              1.4849    Y=             -1.0075    Z=             -0.5085  Tot=              1.8651
 Quadrupole moment (field-independent basis, Debye-Ang):
   XX=            -59.4504   YY=            -65.1904   ZZ=            -70.8864
   XY=             -6.3717   XZ=             -0.4731   YZ=              0.3574

 Normal termination of Gaussian 16 at Tue Nov 28 22:03:23 2023.
