 Gaussian 16, Revision B.01,
 Gaussian 16:  ES64L-G16RevB.01 20-Dec-2017

 -------------------------
 #P B3LYP/6-311+g(d) force
 -------------------------

 -----
 DPGEN
 -----
 Symbolic Z-matrix:
 Charge =  0 Multiplicity = 2

                         Standard orientation:
 ---------------------------------------------------------------------
 Center     Atomic      Atomic             Coordinates (Angstroms)
 Number     Number       Type             X           Y           Z
 ---------------------------------------------------------------------
      1         11           0        1.013620   -2.562974    0.090004
      2         11           0       -0.065208    0.108501   -1.704363
      3         11           0       -3.095569    1.353257   -0.134538
      4         11           0       -2.321157   -1.572997   -0.104858
      5         11           0        1.237185    2.979139    0.217760
      6         11           0        3.299997   -0.167375   -0.302468
      7         11           0       -0.068868   -0.137550    1.938463
 ---------------------------------------------------------------------

 SCF Done:  E(UB3LYP) =  -1136.13176603     A.U. after   19 cycles

 The electronic state is 2-A.
 Alpha  occ. eigenvalues --  -38.44653 -38.44465 -38.43560 -38.43533 -38.43528
 Alpha  occ. eigenvalues --  -38.43467 -38.42797  -2.20460  -2.20293  -2.19498
 Alpha  occ. eigenvalues --   -2.19473  -2.19389  -2.19308  -2.18710  -1.14134
 Alpha  occ. eigenvalues --   -1.14123  -1.14090  -1.14005  -1.13946  -1.13923
 Alpha  occ. eigenvalues --   -1.13243  -1.13162  -1.13149  -1.13126  -1.13106
 Alpha  occ. eigenvalues --   -1.13085  -1.13058  -1.13015  -1.13000  -1.12980
 Alpha  occ. eigenvalues --   -1.12964  -1.12949  -1.12393  -1.12369  -1.12346
 Alpha  occ. eigenvalues --   -0.18697  -0.13440  -0.11983  -0.10698
 Alpha virt. eigenvalues --   -0.06308  -0.05062  -0.04421  -0.03340  -0.02660
 Alpha virt. eigenvalues --   -0.02475  -0.01967  -0.01050  -0.00600  -0.00195
 Alpha virt. eigenvalues --   -0.00023   0.00329   0.00771   0.00803   0.00855

  Beta  occ. eigenvalues --  -38.44647 -38.44463 -38.43531 -38.43517 -38.43497
  Beta  occ. eigenvalues --  -38.43373 -38.42789  -2.20450  -2.20293  -2.19459
  Beta  occ. eigenvalues --   -2.19383  -2.19306  -2.19216  -2.18700  -1.14120
  Beta  occ. eigenvalues --   -1.14110  -1.14085  -1.14008  -1.13931  -1.13919
  Beta  occ. eigenvalues --   -1.13199  -1.13120  -1.13094  -1.13081  -1.13042
  Beta  occ. eigenvalues --   -1.13014  -1.12969  -1.12967  -1.12950  -1.12949
  Beta  occ. eigenvalues --   -1.12895  -1.12868  -1.12388  -1.12351  -1.12318
  Beta  occ. eigenvalues --   -0.17950  -0.13197  -0.11749
  Beta virt. eigenvalues --   -0.06813  -0.06229  -0.05030  -0.04395  -0.02578
  Beta virt. eigenvalues --   -0.01936  -0.01850  -0.01444  -0.00987  -0.00619
  Beta virt. eigenvalues --   -0.00232   0.00120   0.00358   0.00809   0.00837

 Mulliken charges and spin densities:
               1          2
     1  Na   0.292943   0.029265
     2  Na  -0.265041   0.425605
     3  Na   0.011551  -0.106348
     4  Na   0.445407   0.102212
     5  Na  -0.157625  -0.110524
     6  Na   0.067382  -0.027165
     7  Na  -0.394617   0.686955
 Sum of Mulliken charges =  -0.00000   1.00000

 Dipole moment (field-independent basis, Debye):
    X=              0.0552    Y=              0.2696    Z=             -0.0060  Tot=              0.2752
 Quadrupole moment (field-independent basis, Debye-Ang):
   XX=            -53.2645   YY=            -65.3034   ZZ=            -74.7244
   XY=             -1.8592   XZ=             -0.3504   YZ=              0.5580

 Normal termination of Gaussian 16 at Sun Dec  3 17:01:24 2023.
