 Gaussian 16, Revision B.01,
 Gaussian 16:  ES64L-G16RevB.01 20-Dec-2017

 -------------------------
 #P B3LYP/6-311+g(d) force
 -------------------------

 -----
 DPGEN
 -----
 Symbolic Z-matrix:
 Charge =  0 Multiplicity = 2

                         Standard orientation:
 ---------------------------------------------------------------------
 Center     Atomic      Atomic             Coordinates (Angstroms)
 Number     Number       Type             X           Y           Z
 ---------------------------------------------------------------------
      1         11           0       -0.876686   -0.041082   -1.608659
      2         11           0       -2.212116   -2.134733    0.523168
      3         11           0        1.190333   -2.158673   -0.791738
      4         11           0        0.714200   -0.136581    2.231527
      5         11           0       -3.020199    1.620759   -0.000911
      6         11           0        0.788093    2.638194   -0.114236
      7         11           0        3.416375    0.212116   -0.239151
 ---------------------------------------------------------------------

 SCF Done:  E(UB3LYP) =  -1136.13122568     A.U. after   19 cycles

 The electronic state is 2-A.
 Alpha  occ. eigenvalues --  -38.44456 -38.44260 -38.44101 -38.43862 -38.43459
 Alpha  occ. eigenvalues --  -38.43363 -38.43079  -2.20272  -2.20061  -2.19943
 Alpha  occ. eigenvalues --   -2.19686  -2.19346  -2.19272  -2.18983  -1.13945
 Alpha  occ. eigenvalues --   -1.13936  -1.13912  -1.13765  -1.13716  -1.13687
 Alpha  occ. eigenvalues --   -1.13601  -1.13580  -1.13554  -1.13370  -1.13348
 Alpha  occ. eigenvalues --   -1.13319  -1.13059  -1.13005  -1.12984  -1.12953
 Alpha  occ. eigenvalues --   -1.12938  -1.12883  -1.12675  -1.12626  -1.12591
 Alpha  occ. eigenvalues --   -0.18319  -0.13249  -0.11985  -0.10946
 Alpha virt. eigenvalues --   -0.06136  -0.05355  -0.04122  -0.03502  -0.02832
 Alpha virt. eigenvalues --   -0.02752  -0.01824  -0.01162  -0.00369  -0.00172
 Alpha virt. eigenvalues --   -0.00030   0.00309   0.00679   0.00791   0.00835

  Beta  occ. eigenvalues --  -38.44454 -38.44261 -38.44006 -38.43852 -38.43454
  Beta  occ. eigenvalues --  -38.43315 -38.43054  -2.20270  -2.20065  -2.19766
  Beta  occ. eigenvalues --   -2.19668  -2.19267  -2.19257  -2.18941  -1.13945
  Beta  occ. eigenvalues --   -1.13922  -1.13907  -1.13762  -1.13713  -1.13692
  Beta  occ. eigenvalues --   -1.13483  -1.13459  -1.13424  -1.13358  -1.13318
  Beta  occ. eigenvalues --   -1.13310  -1.13000  -1.12971  -1.12933  -1.12925
  Beta  occ. eigenvalues --   -1.12898  -1.12877  -1.12639  -1.12586  -1.12556
  Beta  occ. eigenvalues --   -0.17612  -0.13082  -0.11764
  Beta virt. eigenvalues --   -0.07029  -0.06019  -0.05270  -0.04026  -0.02853
  Beta virt. eigenvalues --   -0.02142  -0.01763  -0.01693  -0.01060  -0.00375
  Beta virt. eigenvalues --   -0.00111   0.00086   0.00360   0.00806   0.00830

 Mulliken charges and spin densities:
               1          2
     1  Na   0.356537   0.253773
     2  Na  -0.130256   0.085193
     3  Na   0.244276   0.117279
     4  Na  -0.540893   0.706902
     5  Na   0.066115  -0.065756
     6  Na  -0.119596  -0.085569
     7  Na   0.123817  -0.011821
 Sum of Mulliken charges =  -0.00000   1.00000

 Dipole moment (field-independent basis, Debye):
    X=             -0.0764    Y=              0.1444    Z=              0.3925  Tot=              0.4252
 Quadrupole moment (field-independent basis, Debye-Ang):
   XX=            -52.7922   YY=            -68.4316   ZZ=            -72.6750
   XY=              0.5931   XZ=             -2.9163   YZ=             -0.3812

 Normal termination of Gaussian 16 at Thu Dec  7 22:19:20 2023.
