 Gaussian 16, Revision B.01,
 Gaussian 16:  ES64L-G16RevB.01 20-Dec-2017

 -------------------------
 #P B3LYP/6-311+g(d) force
 -------------------------

 -----
 DPGEN
 -----
 Symbolic Z-matrix:
 Charge =  0 Multiplicity = 2

                         Standard orientation:
 ---------------------------------------------------------------------
 Center     Atomic      Atomic             Coordinates (Angstroms)
 Number     Number       Type             X           Y           Z
 ---------------------------------------------------------------------
      1         11           0        0.552900    1.582871    1.153828
      2         11           0        2.447190    3.608045   -0.520679
      3         11           0        3.553062   -0.470227   -0.609156
      4         11           0       -0.275090   -1.785065   -0.512495
      5         11           0       -2.362069    0.301236    0.554791
      6         11           0        2.411174   -3.237877    0.406331
      7         11           0       -6.327167    0.001016   -0.472622
 ---------------------------------------------------------------------

 SCF Done:  E(UB3LYP) =  -1136.11669546     A.U. after   20 cycles

 The electronic state is 2-A.
 Alpha  occ. eigenvalues --  -38.45190 -38.44715 -38.44243 -38.43990 -38.43880
 Alpha  occ. eigenvalues --  -38.43762 -38.43120  -2.20974  -2.20514  -2.20112
 Alpha  occ. eigenvalues --   -2.19842  -2.19661  -2.19620  -2.18974  -1.14598
 Alpha  occ. eigenvalues --   -1.14598  -1.14573  -1.14210  -1.14188  -1.14127
 Alpha  occ. eigenvalues --   -1.13807  -1.13776  -1.13762  -1.13500  -1.13489
 Alpha  occ. eigenvalues --   -1.13477  -1.13368  -1.13327  -1.13305  -1.13300
 Alpha  occ. eigenvalues --   -1.13287  -1.13215  -1.12658  -1.12632  -1.12624
 Alpha  occ. eigenvalues --   -0.16845  -0.13535  -0.12589  -0.11405
 Alpha virt. eigenvalues --   -0.06076  -0.05647  -0.04676  -0.03764  -0.02463
 Alpha virt. eigenvalues --   -0.02340  -0.01961  -0.01667  -0.01590  -0.00844
 Alpha virt. eigenvalues --   -0.00351  -0.00066   0.00249   0.00356   0.00582

  Beta  occ. eigenvalues --  -38.45035 -38.44697 -38.44228 -38.43989 -38.43878
  Beta  occ. eigenvalues --  -38.43749 -38.43119  -2.20686  -2.20480  -2.20086
  Beta  occ. eigenvalues --   -2.19840  -2.19656  -2.19598  -2.18979  -1.14403
  Beta  occ. eigenvalues --   -1.14403  -1.14379  -1.14187  -1.14165  -1.14101
  Beta  occ. eigenvalues --   -1.13792  -1.13757  -1.13743  -1.13493  -1.13487
  Beta  occ. eigenvalues --   -1.13476  -1.13362  -1.13323  -1.13297  -1.13288
  Beta  occ. eigenvalues --   -1.13273  -1.13194  -1.12666  -1.12640  -1.12586
  Beta  occ. eigenvalues --   -0.16566  -0.12834  -0.12276
  Beta virt. eigenvalues --   -0.07443  -0.05912  -0.05527  -0.04171  -0.03636
  Beta virt. eigenvalues --   -0.02273  -0.02140  -0.01570  -0.01225  -0.00982
  Beta virt. eigenvalues --   -0.00323  -0.00172   0.00042   0.00429   0.00499

 Mulliken charges and spin densities:
               1          2
     1  Na  -0.058529  -0.091787
     2  Na   0.539244   0.050104
     3  Na  -0.029112   0.170424
     4  Na  -0.415728  -0.080481
     5  Na  -0.303990   0.247089
     6  Na   0.434339   0.044856
     7  Na  -0.166223   0.659796
 Sum of Mulliken charges =  -0.00000   1.00000

 Dipole moment (field-independent basis, Debye):
    X=              0.9348    Y=             -0.5739    Z=             -0.2569  Tot=              1.1266
 Quadrupole moment (field-independent basis, Debye-Ang):
   XX=            -67.4848   YY=            -63.1461   ZZ=            -68.9057
   XY=             -0.2674   XZ=             -0.3048   YZ=             -2.6050

 Normal termination of Gaussian 16 at Tue Nov 28 21:32:14 2023.
