 Gaussian 16, Revision B.01,
 Gaussian 16:  ES64L-G16RevB.01 20-Dec-2017

 -------------------------
 #P B3LYP/6-311+g(d) force
 -------------------------

 -----
 DPGEN
 -----
 Symbolic Z-matrix:
 Charge =  0 Multiplicity = 2

                         Standard orientation:
 ---------------------------------------------------------------------
 Center     Atomic      Atomic             Coordinates (Angstroms)
 Number     Number       Type             X           Y           Z
 ---------------------------------------------------------------------
      1         11           0        3.885637   -0.125305   -0.470410
      2         11           0        1.207259   -1.058102    1.617570
      3         11           0        1.052394    2.416066    0.313992
      4         11           0       -2.263500   -2.363844   -0.593817
      5         11           0       -1.821690   -0.004586    1.721028
      6         11           0       -2.877617    1.912187   -0.934115
      7         11           0        0.817518   -0.776416   -1.654248
 ---------------------------------------------------------------------

 SCF Done:  E(UB3LYP) =  -1136.12498069     A.U. after   21 cycles

 The electronic state is 2-A.
 Alpha  occ. eigenvalues --  -38.44973 -38.44160 -38.44020 -38.43878 -38.43787
 Alpha  occ. eigenvalues --  -38.43696 -38.43503  -2.20785  -2.20030  -2.19791
 Alpha  occ. eigenvalues --   -2.19789  -2.19592  -2.19563  -2.19304  -1.14462
 Alpha  occ. eigenvalues --   -1.14439  -1.14412  -1.13737  -1.13682  -1.13637
 Alpha  occ. eigenvalues --   -1.13507  -1.13470  -1.13443  -1.13434  -1.13416
 Alpha  occ. eigenvalues --   -1.13391  -1.13273  -1.13260  -1.13251  -1.13246
 Alpha  occ. eigenvalues --   -1.13201  -1.13167  -1.12977  -1.12959  -1.12939
 Alpha  occ. eigenvalues --   -0.18092  -0.13644  -0.11207  -0.11127
 Alpha virt. eigenvalues --   -0.06475  -0.05411  -0.04674  -0.03236  -0.02643
 Alpha virt. eigenvalues --   -0.02601  -0.02257  -0.00998  -0.00870  -0.00186
 Alpha virt. eigenvalues --    0.00099   0.00216   0.00350   0.00528   0.00697

  Beta  occ. eigenvalues --  -38.44967 -38.44117 -38.43996 -38.43809 -38.43787
  Beta  occ. eigenvalues --  -38.43654 -38.43495  -2.20773  -2.19950  -2.19744
  Beta  occ. eigenvalues --   -2.19666  -2.19564  -2.19519  -2.19291  -1.14442
  Beta  occ. eigenvalues --   -1.14434  -1.14407  -1.13680  -1.13628  -1.13575
  Beta  occ. eigenvalues --   -1.13439  -1.13418  -1.13409  -1.13386  -1.13332
  Beta  occ. eigenvalues --   -1.13310  -1.13262  -1.13232  -1.13212  -1.13187
  Beta  occ. eigenvalues --   -1.13172  -1.13143  -1.12960  -1.12949  -1.12928
  Beta  occ. eigenvalues --   -0.17377  -0.13427  -0.10960
  Beta virt. eigenvalues --   -0.07316  -0.06302  -0.05332  -0.04087  -0.03016
  Beta virt. eigenvalues --   -0.02208  -0.02059  -0.01730  -0.00930  -0.00527
  Beta virt. eigenvalues --   -0.00067   0.00152   0.00257   0.00482   0.00620

 Mulliken charges and spin densities:
               1          2
     1  Na   0.711318   0.095237
     2  Na  -0.019703   0.235342
     3  Na  -0.503656  -0.033313
     4  Na  -0.072375   0.086968
     5  Na   0.388328   0.091483
     6  Na  -0.117335   0.093502
     7  Na  -0.386577   0.430781
 Sum of Mulliken charges =  -0.00000   1.00000

 Dipole moment (field-independent basis, Debye):
    X=              1.1934    Y=             -0.1298    Z=             -0.2970  Tot=              1.2366
 Quadrupole moment (field-independent basis, Debye-Ang):
   XX=            -49.5289   YY=            -74.8863   ZZ=            -69.4523
   XY=              1.4885   XZ=              0.9664   YZ=             -1.0218

 Normal termination of Gaussian 16 at Thu Dec  7 13:39:34 2023.
