 Gaussian 16, Revision B.01,
 Gaussian 16:  ES64L-G16RevB.01 20-Dec-2017

 -------------------------
 #P B3LYP/6-311+g(d) force
 -------------------------

 -----
 DPGEN
 -----
 Symbolic Z-matrix:
 Charge =  0 Multiplicity = 2

                         Standard orientation:
 ---------------------------------------------------------------------
 Center     Atomic      Atomic             Coordinates (Angstroms)
 Number     Number       Type             X           Y           Z
 ---------------------------------------------------------------------
      1         11           0       -3.239215   -2.010657   -0.066424
      2         11           0        3.740381   -0.571781   -0.945547
      3         11           0       -2.558549    1.996796   -0.686128
      4         11           0        0.865756    2.130152    0.326504
      5         11           0        2.158678   -0.585177    1.512080
      6         11           0        0.139816   -0.728500   -1.713518
      7         11           0       -1.106867   -0.230833    1.573034
 ---------------------------------------------------------------------

 SCF Done:  E(UB3LYP) =  -1136.12137137     A.U. after   24 cycles

 The electronic state is 2-A.
 Alpha  occ. eigenvalues --  -38.44947 -38.44686 -38.44462 -38.44129 -38.43352
 Alpha  occ. eigenvalues --  -38.43233 -38.42728  -2.20772  -2.20536  -2.20268
 Alpha  occ. eigenvalues --   -2.20092  -2.19333  -2.19036  -2.18630  -1.14480
 Alpha  occ. eigenvalues --   -1.14428  -1.14372  -1.14294  -1.14168  -1.14160
 Alpha  occ. eigenvalues --   -1.13950  -1.13914  -1.13885  -1.13769  -1.13728
 Alpha  occ. eigenvalues --   -1.13698  -1.13046  -1.12984  -1.12950  -1.12711
 Alpha  occ. eigenvalues --   -1.12692  -1.12668  -1.12334  -1.12301  -1.12240
 Alpha  occ. eigenvalues --   -0.18686  -0.14020  -0.11457  -0.11044
 Alpha virt. eigenvalues --   -0.06794  -0.05199  -0.04623  -0.03154  -0.02659
 Alpha virt. eigenvalues --   -0.02454  -0.02236  -0.01094  -0.01024   0.00016
 Alpha virt. eigenvalues --    0.00127   0.00281   0.00357   0.00575   0.00641

  Beta  occ. eigenvalues --  -38.44900 -38.44672 -38.44437 -38.44082 -38.43293
  Beta  occ. eigenvalues --  -38.43236 -38.42721  -2.20686  -2.20509  -2.20222
  Beta  occ. eigenvalues --   -2.20009  -2.19228  -2.19044  -2.18622  -1.14422
  Beta  occ. eigenvalues --   -1.14360  -1.14306  -1.14275  -1.14149  -1.14131
  Beta  occ. eigenvalues --   -1.13913  -1.13883  -1.13856  -1.13704  -1.13675
  Beta  occ. eigenvalues --   -1.13625  -1.12975  -1.12893  -1.12883  -1.12706
  Beta  occ. eigenvalues --   -1.12695  -1.12672  -1.12330  -1.12263  -1.12238
  Beta  occ. eigenvalues --   -0.17916  -0.13872  -0.10858
  Beta virt. eigenvalues --   -0.07466  -0.06589  -0.05027  -0.04055  -0.02898
  Beta virt. eigenvalues --   -0.02403  -0.01903  -0.01661  -0.00953  -0.00619
  Beta virt. eigenvalues --    0.00014   0.00151   0.00362   0.00488   0.00677

 Mulliken charges and spin densities:
               1          2
     1  Na   0.187164  -0.083050
     2  Na   0.369098   0.088969
     3  Na  -0.036033   0.150089
     4  Na  -0.127918   0.111579
     5  Na   0.270922   0.096266
     6  Na  -0.635265   0.438286
     7  Na  -0.027968   0.197861
 Sum of Mulliken charges =  -0.00000   1.00000

 Dipole moment (field-independent basis, Debye):
    X=              0.4388    Y=              0.4577    Z=             -0.6313  Tot=              0.8947
 Quadrupole moment (field-independent basis, Debye-Ang):
   XX=            -51.0984   YY=            -75.1544   ZZ=            -69.0581
   XY=             -2.3734   XZ=              1.0751   YZ=             -1.3196

 Normal termination of Gaussian 16 at Thu Dec  7 18:06:24 2023.
