 Gaussian 16, Revision B.01,
 Gaussian 16:  ES64L-G16RevB.01 20-Dec-2017

 -------------------------
 #P B3LYP/6-311+g(d) force
 -------------------------

 -----
 DPGEN
 -----
 Symbolic Z-matrix:
 Charge =  0 Multiplicity = 2

                         Standard orientation:
 ---------------------------------------------------------------------
 Center     Atomic      Atomic             Coordinates (Angstroms)
 Number     Number       Type             X           Y           Z
 ---------------------------------------------------------------------
      1         11           0        1.583999   -2.405902    1.008757
      2         11           0        1.683769    1.900880    0.256878
      3         11           0        4.437720    0.137910   -0.590349
      4         11           0       -1.896789   -0.218197    1.830390
      5         11           0       -1.665661    2.436541    0.018823
      6         11           0       -3.791360   -0.869802   -0.931719
      7         11           0       -0.351677   -0.981430   -1.592780
 ---------------------------------------------------------------------

 SCF Done:  E(UB3LYP) =  -1136.11687035     A.U. after   25 cycles

 The electronic state is 2-A.
 Alpha  occ. eigenvalues --  -38.45212 -38.45059 -38.44827 -38.44245 -38.43732
 Alpha  occ. eigenvalues --  -38.43275 -38.43157  -2.21012  -2.20834  -2.20676
 Alpha  occ. eigenvalues --   -2.20070  -2.19515  -2.19087  -2.19004  -1.14695
 Alpha  occ. eigenvalues --   -1.14679  -1.14635  -1.14497  -1.14488  -1.14450
 Alpha  occ. eigenvalues --   -1.14347  -1.14334  -1.14307  -1.13735  -1.13707
 Alpha  occ. eigenvalues --   -1.13699  -1.13182  -1.13174  -1.13136  -1.12797
 Alpha  occ. eigenvalues --   -1.12765  -1.12728  -1.12689  -1.12669  -1.12617
 Alpha  occ. eigenvalues --   -0.17577  -0.13829  -0.11432  -0.10653
 Alpha virt. eigenvalues --   -0.07470  -0.05178  -0.04682  -0.03160  -0.03011
 Alpha virt. eigenvalues --   -0.02537  -0.02128  -0.01501  -0.01056  -0.00598
 Alpha virt. eigenvalues --   -0.00167   0.00029   0.00217   0.00624   0.00672

  Beta  occ. eigenvalues --  -38.45190 -38.45014 -38.44789 -38.44198 -38.43687
  Beta  occ. eigenvalues --  -38.43282 -38.43161  -2.20973  -2.20750  -2.20608
  Beta  occ. eigenvalues --   -2.19984  -2.19432  -2.19102  -2.19012  -1.14669
  Beta  occ. eigenvalues --   -1.14647  -1.14594  -1.14440  -1.14426  -1.14396
  Beta  occ. eigenvalues --   -1.14302  -1.14274  -1.14254  -1.13672  -1.13647
  Beta  occ. eigenvalues --   -1.13642  -1.13126  -1.13114  -1.13076  -1.12812
  Beta  occ. eigenvalues --   -1.12768  -1.12733  -1.12683  -1.12676  -1.12623
  Beta  occ. eigenvalues --   -0.17099  -0.13341  -0.11174
  Beta virt. eigenvalues --   -0.07324  -0.07052  -0.05044  -0.04180  -0.03030
  Beta virt. eigenvalues --   -0.02723  -0.02047  -0.01595  -0.01251  -0.00714
  Beta virt. eigenvalues --   -0.00485  -0.00030   0.00084   0.00352   0.00684

 Mulliken charges and spin densities:
               1          2
     1  Na  -0.036837   0.189402
     2  Na  -0.544689  -0.026618
     3  Na   0.481872   0.170031
     4  Na   0.156147   0.209775
     5  Na  -0.080419   0.071170
     6  Na   0.243569   0.286053
     7  Na  -0.219644   0.100186
 Sum of Mulliken charges =  -0.00000   1.00000

 Dipole moment (field-independent basis, Debye):
    X=             -0.0247    Y=             -0.5493    Z=              0.1207  Tot=              0.5630
 Quadrupole moment (field-independent basis, Debye-Ang):
   XX=            -51.7897   YY=            -77.3221   ZZ=            -68.0436
   XY=             -3.1931   XZ=             -2.9962   YZ=             -2.6098

 Normal termination of Gaussian 16 at Mon Dec  4 05:16:37 2023.
