 Gaussian 16, Revision B.01,
 Gaussian 16:  ES64L-G16RevB.01 20-Dec-2017

 -------------------------
 #P B3LYP/6-311+g(d) force
 -------------------------

 -----
 DPGEN
 -----
 Symbolic Z-matrix:
 Charge =  0 Multiplicity = 2

                         Standard orientation:
 ---------------------------------------------------------------------
 Center     Atomic      Atomic             Coordinates (Angstroms)
 Number     Number       Type             X           Y           Z
 ---------------------------------------------------------------------
      1         11           0       -3.268832   -1.175711    0.664411
      2         11           0        3.520056   -1.227214    0.199888
      3         11           0       -0.561788   -1.607669   -1.622354
      4         11           0        0.087968   -0.800686    1.923071
      5         11           0       -0.029971    2.312071    1.397149
      6         11           0        1.918873    1.081582   -1.071030
      7         11           0       -1.666305    1.417626   -1.491135
 ---------------------------------------------------------------------

 SCF Done:  E(UB3LYP) =  -1136.12696491     A.U. after   22 cycles

 The electronic state is 2-A.
 Alpha  occ. eigenvalues --  -38.44533 -38.44308 -38.44259 -38.43806 -38.43717
 Alpha  occ. eigenvalues --  -38.43521 -38.42853  -2.20411  -2.20115  -2.20103
 Alpha  occ. eigenvalues --   -2.19614  -2.19600  -2.19429  -2.18739  -1.14099
 Alpha  occ. eigenvalues --   -1.14062  -1.14014  -1.13826  -1.13774  -1.13770
 Alpha  occ. eigenvalues --   -1.13762  -1.13747  -1.13698  -1.13350  -1.13301
 Alpha  occ. eigenvalues --   -1.13264  -1.13246  -1.13246  -1.13202  -1.13112
 Alpha  occ. eigenvalues --   -1.13092  -1.13025  -1.12437  -1.12374  -1.12355
 Alpha  occ. eigenvalues --   -0.18499  -0.13113  -0.12209  -0.11352
 Alpha virt. eigenvalues --   -0.06181  -0.04895  -0.03970  -0.03466  -0.03438
 Alpha virt. eigenvalues --   -0.02957  -0.01885  -0.01041  -0.00434   0.00139
 Alpha virt. eigenvalues --    0.00205   0.00316   0.00426   0.00811   0.00873

  Beta  occ. eigenvalues --  -38.44451 -38.44302 -38.44218 -38.43809 -38.43677
  Beta  occ. eigenvalues --  -38.43503 -38.42823  -2.20263  -2.20092  -2.20042
  Beta  occ. eigenvalues --   -2.19620  -2.19530  -2.19397  -2.18686  -1.13997
  Beta  occ. eigenvalues --   -1.13950  -1.13907  -1.13771  -1.13758  -1.13747
  Beta  occ. eigenvalues --   -1.13737  -1.13704  -1.13656  -1.13351  -1.13263
  Beta  occ. eigenvalues --   -1.13250  -1.13238  -1.13196  -1.13158  -1.13084
  Beta  occ. eigenvalues --   -1.13060  -1.13008  -1.12389  -1.12340  -1.12313
  Beta  occ. eigenvalues --   -0.17640  -0.12966  -0.11223
  Beta virt. eigenvalues --   -0.08082  -0.05980  -0.04652  -0.03533  -0.03058
  Beta virt. eigenvalues --   -0.02806  -0.02247  -0.01777  -0.00834  -0.00239
  Beta virt. eigenvalues --    0.00166   0.00295   0.00344   0.00535   0.00862

 Mulliken charges and spin densities:
               1          2
     1  Na   0.103480  -0.080041
     2  Na  -0.005832  -0.167412
     3  Na  -0.481842   0.184461
     4  Na   0.084519   0.694490
     5  Na  -0.250671  -0.139203
     6  Na   0.237650   0.253861
     7  Na   0.312697   0.253844
 Sum of Mulliken charges =  -0.00000   1.00000

 Dipole moment (field-independent basis, Debye):
    X=             -0.5338    Y=             -0.3026    Z=              0.0594  Tot=              0.6165
 Quadrupole moment (field-independent basis, Debye-Ang):
   XX=            -57.2447   YY=            -73.8650   ZZ=            -65.1352
   XY=             -1.0609   XZ=             -0.4084   YZ=             -0.9351

 Normal termination of Gaussian 16 at Wed Nov 29 17:21:32 2023.
