 Gaussian 16, Revision B.01,
 Gaussian 16:  ES64L-G16RevB.01 20-Dec-2017

 -------------------------
 #P B3LYP/6-311+g(d) force
 -------------------------

 -----
 DPGEN
 -----
 Symbolic Z-matrix:
 Charge =  0 Multiplicity = 2

                         Standard orientation:
 ---------------------------------------------------------------------
 Center     Atomic      Atomic             Coordinates (Angstroms)
 Number     Number       Type             X           Y           Z
 ---------------------------------------------------------------------
      1         11           0       -0.420599    1.637003    0.194336
      2         11           0        2.701904    3.388437    0.037239
      3         11           0        3.102219   -0.025641   -0.467556
      4         11           0        0.491862   -1.535050    1.233262
      5         11           0       -3.169083   -0.803451    0.461155
      6         11           0        2.668115   -3.043974   -0.690308
      7         11           0       -5.374419    0.382676   -0.768129
 ---------------------------------------------------------------------

 SCF Done:  E(UB3LYP) =  -1136.12248163     A.U. after   19 cycles

 The electronic state is 2-A.
 Alpha  occ. eigenvalues --  -38.44438 -38.44344 -38.44103 -38.43995 -38.43737
 Alpha  occ. eigenvalues --  -38.43655 -38.43525  -2.20253  -2.20214  -2.19987
 Alpha  occ. eigenvalues --   -2.19892  -2.19606  -2.19537  -2.19324  -1.14002
 Alpha  occ. eigenvalues --   -1.13954  -1.13949  -1.13833  -1.13818  -1.13812
 Alpha  occ. eigenvalues --   -1.13680  -1.13661  -1.13611  -1.13588  -1.13556
 Alpha  occ. eigenvalues --   -1.13538  -1.13255  -1.13243  -1.13222  -1.13200
 Alpha  occ. eigenvalues --   -1.13184  -1.13169  -1.12991  -1.12987  -1.12949
 Alpha  occ. eigenvalues --   -0.17256  -0.14323  -0.12428  -0.11173
 Alpha virt. eigenvalues --   -0.05614  -0.05149  -0.04870  -0.03961  -0.02595
 Alpha virt. eigenvalues --   -0.02319  -0.01859  -0.01643  -0.01291  -0.00545
 Alpha virt. eigenvalues --   -0.00184   0.00062   0.00444   0.00559   0.00598

  Beta  occ. eigenvalues --  -38.44410 -38.44263 -38.44055 -38.43964 -38.43718
  Beta  occ. eigenvalues --  -38.43647 -38.43514  -2.20206  -2.20063  -2.19903
  Beta  occ. eigenvalues --   -2.19835  -2.19571  -2.19533  -2.19303  -1.13921
  Beta  occ. eigenvalues --   -1.13907  -1.13905  -1.13799  -1.13714  -1.13709
  Beta  occ. eigenvalues --   -1.13630  -1.13609  -1.13550  -1.13542  -1.13501
  Beta  occ. eigenvalues --   -1.13486  -1.13224  -1.13214  -1.13202  -1.13193
  Beta  occ. eigenvalues --   -1.13191  -1.13099  -1.12975  -1.12969  -1.12938
  Beta  occ. eigenvalues --   -0.16589  -0.13546  -0.12296
  Beta virt. eigenvalues --   -0.07651  -0.05283  -0.05029  -0.04374  -0.03639
  Beta virt. eigenvalues --   -0.02377  -0.02001  -0.01608  -0.01374  -0.01010
  Beta virt. eigenvalues --   -0.00240   0.00092   0.00199   0.00563   0.00634

 Mulliken charges and spin densities:
               1          2
     1  Na  -0.760878  -0.106495
     2  Na   0.716204   0.126739
     3  Na  -0.823857   0.348843
     4  Na  -0.586497   0.159735
     5  Na  -0.173552   0.208554
     6  Na   0.737546   0.008737
     7  Na   0.891033   0.253887
 Sum of Mulliken charges =  -0.00000   1.00000

 Dipole moment (field-independent basis, Debye):
    X=              0.3568    Y=             -0.1235    Z=             -0.1240  Tot=              0.3974
 Quadrupole moment (field-independent basis, Debye-Ang):
   XX=            -66.3959   YY=            -61.8634   ZZ=            -69.7903
   XY=             -1.9776   XZ=              1.0647   YZ=             -0.0133

 Normal termination of Gaussian 16 at Tue Nov 28 23:44:22 2023.
