 Gaussian 16, Revision B.01,
 Gaussian 16:  ES64L-G16RevB.01 20-Dec-2017

 -------------------------
 #P B3LYP/6-311+g(d) force
 -------------------------

 -----
 DPGEN
 -----
 Symbolic Z-matrix:
 Charge =  0 Multiplicity = 2

                         Standard orientation:
 ---------------------------------------------------------------------
 Center     Atomic      Atomic             Coordinates (Angstroms)
 Number     Number       Type             X           Y           Z
 ---------------------------------------------------------------------
      1         11           0        3.610716    0.473225    1.194967
      2         11           0       -5.799559   -0.281837   -0.311505
      3         11           0        3.546239   -2.238580   -0.198685
      4         11           0        0.807527   -1.272585   -0.912263
      5         11           0        2.144008    2.398581   -0.915485
      6         11           0       -1.424734    2.149629    0.396956
      7         11           0       -2.884197   -1.228433    0.746014
 ---------------------------------------------------------------------

 SCF Done:  E(UB3LYP) =  -1136.11160239     A.U. after   22 cycles

 The electronic state is 2-A.
 Alpha  occ. eigenvalues --  -38.44756 -38.44706 -38.44402 -38.44387 -38.44142
 Alpha  occ. eigenvalues --  -38.43621 -38.43609  -2.20590  -2.20502  -2.20269
 Alpha  occ. eigenvalues --   -2.20190  -2.19938  -2.19499  -2.19430  -1.14253
 Alpha  occ. eigenvalues --   -1.14245  -1.14227  -1.14198  -1.14166  -1.14107
 Alpha  occ. eigenvalues --   -1.13950  -1.13933  -1.13891  -1.13842  -1.13830
 Alpha  occ. eigenvalues --   -1.13822  -1.13621  -1.13598  -1.13582  -1.13170
 Alpha  occ. eigenvalues --   -1.13158  -1.13125  -1.13118  -1.13102  -1.13049
 Alpha  occ. eigenvalues --   -0.17021  -0.14310  -0.11665  -0.10936
 Alpha virt. eigenvalues --   -0.06546  -0.05989  -0.04180  -0.03554  -0.03208
 Alpha virt. eigenvalues --   -0.02529  -0.01687  -0.01394  -0.01259  -0.00926
 Alpha virt. eigenvalues --   -0.00324  -0.00111   0.00349   0.00440   0.00626

  Beta  occ. eigenvalues --  -38.44747 -38.44650 -38.44336 -38.44310 -38.44149
  Beta  occ. eigenvalues --  -38.43616 -38.43606  -2.20487  -2.20486  -2.20146
  Beta  occ. eigenvalues --   -2.20046  -2.19957  -2.19496  -2.19424  -1.14187
  Beta  occ. eigenvalues --   -1.14185  -1.14170  -1.14156  -1.14147  -1.14108
  Beta  occ. eigenvalues --   -1.13869  -1.13846  -1.13802  -1.13753  -1.13731
  Beta  occ. eigenvalues --   -1.13727  -1.13639  -1.13615  -1.13546  -1.13161
  Beta  occ. eigenvalues --   -1.13146  -1.13117  -1.13105  -1.13098  -1.13038
  Beta  occ. eigenvalues --   -0.16431  -0.13798  -0.11375
  Beta virt. eigenvalues --   -0.07519  -0.06144  -0.05592  -0.03937  -0.03315
  Beta virt. eigenvalues --   -0.02976  -0.02027  -0.01502  -0.01053  -0.01015
  Beta virt. eigenvalues --   -0.00617  -0.00110   0.00031   0.00420   0.00503

 Mulliken charges and spin densities:
               1          2
     1  Na  -0.044898   0.318837
     2  Na   0.228534   0.338513
     3  Na   0.550598  -0.008246
     4  Na  -0.736471   0.377734
     5  Na   0.160766   0.056270
     6  Na  -0.058775  -0.058903
     7  Na  -0.099754  -0.024205
 Sum of Mulliken charges =  -0.00000   1.00000

 Dipole moment (field-independent basis, Debye):
    X=              0.0930    Y=              0.3204    Z=              0.1741  Tot=              0.3763
 Quadrupole moment (field-independent basis, Debye-Ang):
   XX=            -62.9353   YY=            -72.1142   ZZ=            -66.3492
   XY=             -5.1199   XZ=              2.1292   YZ=             -0.5149

 Normal termination of Gaussian 16 at Mon Dec  4 03:45:35 2023.
