 Gaussian 16, Revision B.01,
 Gaussian 16:  ES64L-G16RevB.01 20-Dec-2017

 -------------------------
 #P B3LYP/6-311+g(d) force
 -------------------------

 -----
 DPGEN
 -----
 Symbolic Z-matrix:
 Charge =  0 Multiplicity = 2

                         Standard orientation:
 ---------------------------------------------------------------------
 Center     Atomic      Atomic             Coordinates (Angstroms)
 Number     Number       Type             X           Y           Z
 ---------------------------------------------------------------------
      1         11           0       -0.364525   -0.425390    1.916459
      2         11           0        0.373795   -0.096178   -1.000177
      3         11           0       -3.179157    0.214714   -0.569406
      4         11           0       -1.065461    2.750131   -0.187594
      5         11           0        2.484596    2.093801    0.340438
      6         11           0       -0.889060   -2.909834    0.131580
      7         11           0        2.639811   -1.627244   -0.631301
 ---------------------------------------------------------------------

 SCF Done:  E(UB3LYP) =  -1136.12732509     A.U. after   19 cycles

 The electronic state is 2-A.
 Alpha  occ. eigenvalues --  -38.44036 -38.43931 -38.43801 -38.43799 -38.43540
 Alpha  occ. eigenvalues --  -38.43453 -38.42869  -2.19919  -2.19743  -2.19673
 Alpha  occ. eigenvalues --   -2.19631  -2.19404  -2.19396  -2.19020  -1.13757
 Alpha  occ. eigenvalues --   -1.13538  -1.13499  -1.13420  -1.13406  -1.13403
 Alpha  occ. eigenvalues --   -1.13380  -1.13342  -1.13303  -1.13299  -1.13286
 Alpha  occ. eigenvalues --   -1.13261  -1.13142  -1.13094  -1.13057  -1.13016
 Alpha  occ. eigenvalues --   -1.12999  -1.12991  -1.12701  -1.12658  -1.12602
 Alpha  occ. eigenvalues --   -0.18741  -0.13021  -0.12803  -0.10276
 Alpha virt. eigenvalues --   -0.05475  -0.05354  -0.04961  -0.02927  -0.02790
 Alpha virt. eigenvalues --   -0.01891  -0.01582  -0.01417  -0.00562  -0.00385
 Alpha virt. eigenvalues --    0.00021   0.00305   0.00798   0.00812   0.00859

  Beta  occ. eigenvalues --  -38.44007 -38.43926 -38.43793 -38.43778 -38.43535
  Beta  occ. eigenvalues --  -38.43363 -38.42836  -2.19868  -2.19736  -2.19662
  Beta  occ. eigenvalues --   -2.19594  -2.19392  -2.19237  -2.18966  -1.13717
  Beta  occ. eigenvalues --   -1.13490  -1.13468  -1.13414  -1.13393  -1.13385
  Beta  occ. eigenvalues --   -1.13370  -1.13313  -1.13281  -1.13279  -1.13266
  Beta  occ. eigenvalues --   -1.13232  -1.13092  -1.13051  -1.13033  -1.12997
  Beta  occ. eigenvalues --   -1.12886  -1.12874  -1.12628  -1.12616  -1.12568
  Beta  occ. eigenvalues --   -0.18109  -0.12631  -0.12569
  Beta virt. eigenvalues --   -0.06579  -0.05345  -0.05239  -0.04861  -0.02277
  Beta virt. eigenvalues --   -0.02118  -0.01471  -0.01281  -0.01006  -0.00517
  Beta virt. eigenvalues --   -0.00396   0.00171   0.00381   0.00821   0.00868

 Mulliken charges and spin densities:
               1          2
     1  Na  -0.176321   0.577089
     2  Na  -1.012496   0.009064
     3  Na   0.126731   0.081066
     4  Na   0.146768   0.017922
     5  Na   0.113882   0.101183
     6  Na   0.291640   0.052868
     7  Na   0.509796   0.160809
 Sum of Mulliken charges =  -0.00000   1.00000

 Dipole moment (field-independent basis, Debye):
    X=              0.0343    Y=             -0.0731    Z=              0.3510  Tot=              0.3602
 Quadrupole moment (field-independent basis, Debye-Ang):
   XX=            -57.0955   YY=            -58.3737   ZZ=            -75.8825
   XY=              2.0856   XZ=              1.6660   YZ=              1.3780

 Normal termination of Gaussian 16 at Thu Dec  7 16:59:21 2023.
