 Gaussian 16, Revision B.01,
 Gaussian 16:  ES64L-G16RevB.01 20-Dec-2017

 -------------------------
 #P B3LYP/6-311+g(d) force
 -------------------------

 -----
 DPGEN
 -----
 Symbolic Z-matrix:
 Charge =  0 Multiplicity = 2

                         Standard orientation:
 ---------------------------------------------------------------------
 Center     Atomic      Atomic             Coordinates (Angstroms)
 Number     Number       Type             X           Y           Z
 ---------------------------------------------------------------------
      1         11           0        1.791117    2.196865    0.365406
      2         11           0        0.233020    0.726058   -1.479532
      3         11           0        0.026533   -2.452228   -0.337504
      4         11           0       -2.262694    2.136279   -0.066369
      5         11           0        3.181073   -0.908511   -0.431835
      6         11           0       -3.101631   -1.208952   -0.205381
      7         11           0        0.132581   -0.489510    2.155214
 ---------------------------------------------------------------------

 SCF Done:  E(UB3LYP) =  -1136.12991433     A.U. after   20 cycles

 The electronic state is 2-A.
 Alpha  occ. eigenvalues --  -38.44379 -38.44273 -38.43789 -38.43786 -38.43696
 Alpha  occ. eigenvalues --  -38.43394 -38.42877  -2.20206  -2.20082  -2.19686
 Alpha  occ. eigenvalues --   -2.19611  -2.19581  -2.19405  -2.18784  -1.13876
 Alpha  occ. eigenvalues --   -1.13858  -1.13850  -1.13758  -1.13734  -1.13733
 Alpha  occ. eigenvalues --   -1.13550  -1.13333  -1.13322  -1.13279  -1.13268
 Alpha  occ. eigenvalues --   -1.13257  -1.13238  -1.13209  -1.13185  -1.13061
 Alpha  occ. eigenvalues --   -1.13021  -1.12989  -1.12481  -1.12458  -1.12394
 Alpha  occ. eigenvalues --   -0.18700  -0.13310  -0.12190  -0.10793
 Alpha virt. eigenvalues --   -0.06016  -0.05516  -0.04040  -0.03257  -0.02889
 Alpha virt. eigenvalues --   -0.02486  -0.01918  -0.01212  -0.00361  -0.00094
 Alpha virt. eigenvalues --   -0.00037   0.00299   0.00720   0.00826   0.00917

  Beta  occ. eigenvalues --  -38.44367 -38.44272 -38.43785 -38.43777 -38.43593
  Beta  occ. eigenvalues --  -38.43351 -38.42865  -2.20187  -2.20082  -2.19669
  Beta  occ. eigenvalues --   -2.19612  -2.19390  -2.19330  -2.18768  -1.13848
  Beta  occ. eigenvalues --   -1.13848  -1.13833  -1.13754  -1.13735  -1.13727
  Beta  occ. eigenvalues --   -1.13529  -1.13317  -1.13293  -1.13269  -1.13262
  Beta  occ. eigenvalues --   -1.13237  -1.13132  -1.13074  -1.13053  -1.13009
  Beta  occ. eigenvalues --   -1.12969  -1.12932  -1.12472  -1.12414  -1.12384
  Beta  occ. eigenvalues --   -0.17977  -0.13097  -0.11975
  Beta virt. eigenvalues --   -0.06836  -0.05929  -0.05499  -0.03990  -0.02535
  Beta virt. eigenvalues --   -0.02134  -0.01822  -0.01425  -0.01157  -0.00377
  Beta virt. eigenvalues --   -0.00099   0.00115   0.00345   0.00788   0.00830

 Mulliken charges and spin densities:
               1          2
     1  Na   0.245976   0.069146
     2  Na  -0.385295   0.251565
     3  Na   0.236779   0.080993
     4  Na   0.271020  -0.001182
     5  Na   0.270410   0.021626
     6  Na  -0.034229  -0.052220
     7  Na  -0.604661   0.630072
 Sum of Mulliken charges =  -0.00000   1.00000

 Dipole moment (field-independent basis, Debye):
    X=              0.0578    Y=              0.0047    Z=              0.2081  Tot=              0.2161
 Quadrupole moment (field-independent basis, Debye-Ang):
   XX=            -51.8309   YY=            -67.7316   ZZ=            -73.7710
   XY=             -0.2531   XZ=             -0.2081   YZ=              2.4002

 Normal termination of Gaussian 16 at Tue Dec  5 18:13:10 2023.
