 Gaussian 16, Revision B.01,
 Gaussian 16:  ES64L-G16RevB.01 20-Dec-2017

 -------------------------
 #P B3LYP/6-311+g(d) force
 -------------------------

 -----
 DPGEN
 -----
 Symbolic Z-matrix:
 Charge =  0 Multiplicity = 2

                         Standard orientation:
 ---------------------------------------------------------------------
 Center     Atomic      Atomic             Coordinates (Angstroms)
 Number     Number       Type             X           Y           Z
 ---------------------------------------------------------------------
      1         11           0       -1.369104   -2.106056   -0.536185
      2         11           0       -4.776189   -2.116748    0.574811
      3         11           0       -3.075882    0.640909   -0.175152
      4         11           0       -1.649333    3.811206    0.088600
      5         11           0        0.505453    0.914996   -0.149195
      6         11           0        3.696064   -0.818317   -0.127656
      7         11           0        6.668991   -0.325990    0.324777
 ---------------------------------------------------------------------

 SCF Done:  E(UB3LYP) =  -1136.12250299     A.U. after   19 cycles

 The electronic state is 2-A.
 Alpha  occ. eigenvalues --  -38.44939 -38.44336 -38.44193 -38.44030 -38.43883
 Alpha  occ. eigenvalues --  -38.43745 -38.43497  -2.20775  -2.20146  -2.20009
 Alpha  occ. eigenvalues --   -2.19929  -2.19723  -2.19549  -2.19309  -1.14481
 Alpha  occ. eigenvalues --   -1.14451  -1.14358  -1.13826  -1.13804  -1.13764
 Alpha  occ. eigenvalues --   -1.13683  -1.13648  -1.13642  -1.13641  -1.13626
 Alpha  occ. eigenvalues --   -1.13500  -1.13412  -1.13408  -1.13325  -1.13209
 Alpha  occ. eigenvalues --   -1.13206  -1.13161  -1.12981  -1.12977  -1.12962
 Alpha  occ. eigenvalues --   -0.16990  -0.13779  -0.12543  -0.11282
 Alpha virt. eigenvalues --   -0.06233  -0.05258  -0.04397  -0.04013  -0.02646
 Alpha virt. eigenvalues --   -0.02292  -0.02157  -0.01564  -0.01429  -0.00654
 Alpha virt. eigenvalues --   -0.00598  -0.00069   0.00124   0.00371   0.00742

  Beta  occ. eigenvalues --  -38.44899 -38.44313 -38.44135 -38.44011 -38.43848
  Beta  occ. eigenvalues --  -38.43710 -38.43504  -2.20702  -2.20104  -2.19901
  Beta  occ. eigenvalues --   -2.19894  -2.19663  -2.19484  -2.19328  -1.14436
  Beta  occ. eigenvalues --   -1.14404  -1.14283  -1.13790  -1.13775  -1.13740
  Beta  occ. eigenvalues --   -1.13614  -1.13609  -1.13604  -1.13568  -1.13567
  Beta  occ. eigenvalues --   -1.13474  -1.13376  -1.13366  -1.13264  -1.13163
  Beta  occ. eigenvalues --   -1.13159  -1.13123  -1.13000  -1.12996  -1.12927
  Beta  occ. eigenvalues --   -0.16345  -0.13294  -0.12154
  Beta virt. eigenvalues --   -0.07925  -0.05773  -0.04887  -0.04077  -0.03795
  Beta virt. eigenvalues --   -0.02401  -0.02134  -0.01703  -0.01400  -0.01207
  Beta virt. eigenvalues --   -0.00378  -0.00246   0.00155   0.00293   0.00422

 Mulliken charges and spin densities:
               1          2
     1  Na  -0.450823  -0.080940
     2  Na   0.715633   0.111890
     3  Na  -0.475043   0.434707
     4  Na   1.110846   0.244978
     5  Na  -1.692486   0.068685
     6  Na  -0.434416  -0.050864
     7  Na   1.226289   0.271545
 Sum of Mulliken charges =  -0.00000   1.00000

 Dipole moment (field-independent basis, Debye):
    X=             -1.2522    Y=             -0.4337    Z=              0.2100  Tot=              1.3417
 Quadrupole moment (field-independent basis, Debye-Ang):
   XX=            -56.2921   YY=            -62.0696   ZZ=            -72.8094
   XY=              5.2013   XZ=             -0.7897   YZ=              0.3926

 Normal termination of Gaussian 16 at Tue Nov 28 19:48:06 2023.
