 Gaussian 16, Revision B.01,
 Gaussian 16:  ES64L-G16RevB.01 20-Dec-2017

 -------------------------
 #P B3LYP/6-311+g(d) force
 -------------------------

 -----
 DPGEN
 -----
 Symbolic Z-matrix:
 Charge =  0 Multiplicity = 2

                         Standard orientation:
 ---------------------------------------------------------------------
 Center     Atomic      Atomic             Coordinates (Angstroms)
 Number     Number       Type             X           Y           Z
 ---------------------------------------------------------------------
      1         11           0        0.529107   -1.729865   -1.627091
      2         11           0       -3.607364    1.877134    0.360234
      3         11           0       -2.601952   -0.882363   -0.613692
      4         11           0       -0.622067   -1.765332    1.680980
      5         11           0        3.063121   -1.210944    0.541991
      6         11           0        3.106264    2.525358   -0.001814
      7         11           0        0.132891    1.186012   -0.340608
 ---------------------------------------------------------------------

 SCF Done:  E(UB3LYP) =  -1136.12026219     A.U. after   21 cycles

 The electronic state is 2-A.
 Alpha  occ. eigenvalues --  -38.45053 -38.44495 -38.43924 -38.43875 -38.43849
 Alpha  occ. eigenvalues --  -38.43590 -38.43134  -2.20852  -2.20298  -2.19804
 Alpha  occ. eigenvalues --   -2.19794  -2.19659  -2.19510  -2.19072  -1.14547
 Alpha  occ. eigenvalues --   -1.14508  -1.14463  -1.14000  -1.13944  -1.13936
 Alpha  occ. eigenvalues --   -1.13565  -1.13478  -1.13460  -1.13432  -1.13393
 Alpha  occ. eigenvalues --   -1.13387  -1.13353  -1.13323  -1.13297  -1.13222
 Alpha  occ. eigenvalues --   -1.13201  -1.13099  -1.12750  -1.12718  -1.12673
 Alpha  occ. eigenvalues --   -0.18389  -0.13795  -0.11829  -0.10392
 Alpha virt. eigenvalues --   -0.06976  -0.05888  -0.04113  -0.03326  -0.02443
 Alpha virt. eigenvalues --   -0.02386  -0.01990  -0.01590  -0.00974  -0.00358
 Alpha virt. eigenvalues --   -0.00055   0.00199   0.00267   0.00522   0.00704

  Beta  occ. eigenvalues --  -38.45033 -38.44488 -38.43882 -38.43866 -38.43832
  Beta  occ. eigenvalues --  -38.43567 -38.43072  -2.20815  -2.20285  -2.19778
  Beta  occ. eigenvalues --   -2.19687  -2.19673  -2.19471  -2.18962  -1.14512
  Beta  occ. eigenvalues --   -1.14483  -1.14435  -1.13992  -1.13930  -1.13927
  Beta  occ. eigenvalues --   -1.13531  -1.13445  -1.13392  -1.13380  -1.13360
  Beta  occ. eigenvalues --   -1.13338  -1.13329  -1.13313  -1.13305  -1.13183
  Beta  occ. eigenvalues --   -1.13155  -1.13080  -1.12673  -1.12636  -1.12586
  Beta  occ. eigenvalues --   -0.17697  -0.13594  -0.11697
  Beta virt. eigenvalues --   -0.06878  -0.06435  -0.05740  -0.03865  -0.02789
  Beta virt. eigenvalues --   -0.02282  -0.02004  -0.01586  -0.01158  -0.00797
  Beta virt. eigenvalues --   -0.00170   0.00096   0.00243   0.00427   0.00578

 Mulliken charges and spin densities:
               1          2
     1  Na   0.276240   0.177812
     2  Na   0.161275  -0.003386
     3  Na   1.444423   0.395826
     4  Na  -0.268795   0.346083
     5  Na   0.100188   0.183725
     6  Na   0.314952  -0.133143
     7  Na  -2.028283   0.033082
 Sum of Mulliken charges =  -0.00000   1.00000

 Dipole moment (field-independent basis, Debye):
    X=              0.2361    Y=             -0.1651    Z=              0.0469  Tot=              0.2918
 Quadrupole moment (field-independent basis, Debye-Ang):
   XX=            -52.4390   YY=            -66.5740   ZZ=            -74.2316
   XY=             -2.9110   XZ=             -0.2559   YZ=              2.3665

 Normal termination of Gaussian 16 at Tue Dec  5 16:11:18 2023.
