 Gaussian 16, Revision B.01,
 Gaussian 16:  ES64L-G16RevB.01 20-Dec-2017

 -------------------------
 #P B3LYP/6-311+g(d) force
 -------------------------

 -----
 DPGEN
 -----
 Symbolic Z-matrix:
 Charge =  0 Multiplicity = 2

                         Standard orientation:
 ---------------------------------------------------------------------
 Center     Atomic      Atomic             Coordinates (Angstroms)
 Number     Number       Type             X           Y           Z
 ---------------------------------------------------------------------
      1         11           0       -0.853256   -0.289247    1.489559
      2         11           0        1.952410   -1.921284    0.287548
      3         11           0       -4.169862   -0.304706   -0.127250
      4         11           0        1.590148    1.793108   -0.174869
      5         11           0       -1.325121    2.642488   -0.221298
      6         11           0       -1.493641   -1.923075   -0.958712
      7         11           0        4.299321    0.002716   -0.294977
 ---------------------------------------------------------------------

 SCF Done:  E(UB3LYP) =  -1136.12426850     A.U. after   20 cycles

 The electronic state is 2-A.
 Alpha  occ. eigenvalues --  -38.44387 -38.44251 -38.44146 -38.43778 -38.43507
 Alpha  occ. eigenvalues --  -38.43250 -38.43152  -2.20338  -2.20131  -2.19993
 Alpha  occ. eigenvalues --   -2.19660  -2.19389  -2.19154  -2.19010  -1.14103
 Alpha  occ. eigenvalues --   -1.13994  -1.13952  -1.13794  -1.13788  -1.13769
 Alpha  occ. eigenvalues --   -1.13643  -1.13614  -1.13599  -1.13344  -1.13312
 Alpha  occ. eigenvalues --   -1.13286  -1.13072  -1.13056  -1.13004  -1.12897
 Alpha  occ. eigenvalues --   -1.12831  -1.12805  -1.12670  -1.12650  -1.12615
 Alpha  occ. eigenvalues --   -0.18151  -0.14480  -0.12128  -0.10778
 Alpha virt. eigenvalues --   -0.06400  -0.05383  -0.04153  -0.03759  -0.02963
 Alpha virt. eigenvalues --   -0.02172  -0.01680  -0.01193  -0.00785  -0.00550
 Alpha virt. eigenvalues --   -0.00192  -0.00020   0.00523   0.00701   0.00744

  Beta  occ. eigenvalues --  -38.44345 -38.44244 -38.44066 -38.43711 -38.43491
  Beta  occ. eigenvalues --  -38.43243 -38.43152  -2.20266  -2.20124  -2.19842
  Beta  occ. eigenvalues --   -2.19535  -2.19367  -2.19146  -2.19012  -1.14066
  Beta  occ. eigenvalues --   -1.13929  -1.13893  -1.13789  -1.13781  -1.13712
  Beta  occ. eigenvalues --   -1.13540  -1.13514  -1.13507  -1.13271  -1.13226
  Beta  occ. eigenvalues --   -1.13200  -1.13061  -1.13038  -1.12946  -1.12875
  Beta  occ. eigenvalues --   -1.12819  -1.12806  -1.12672  -1.12651  -1.12602
  Beta  occ. eigenvalues --   -0.17544  -0.13742  -0.11866
  Beta virt. eigenvalues --   -0.07253  -0.06225  -0.05223  -0.03679  -0.03321
  Beta virt. eigenvalues --   -0.02634  -0.01898  -0.01340  -0.00858  -0.00506
  Beta virt. eigenvalues --   -0.00264  -0.00004   0.00096   0.00648   0.00755

 Mulliken charges and spin densities:
               1          2
     1  Na  -0.472050   0.202875
     2  Na  -0.178160   0.051644
     3  Na   0.281333   0.459076
     4  Na  -0.709071  -0.010618
     5  Na   0.000620  -0.010367
     6  Na   0.089059  -0.029044
     7  Na   0.988269   0.336435
 Sum of Mulliken charges =  -0.00000   1.00000

 Dipole moment (field-independent basis, Debye):
    X=             -0.4814    Y=             -0.3764    Z=              0.1051  Tot=              0.6201
 Quadrupole moment (field-independent basis, Debye-Ang):
   XX=            -63.9409   YY=            -72.4404   ZZ=            -65.5846
   XY=             -3.1022   XZ=             -0.7799   YZ=              0.2566

 Normal termination of Gaussian 16 at Tue Nov 28 22:22:32 2023.
