 Gaussian 16, Revision B.01,
 Gaussian 16:  ES64L-G16RevB.01 20-Dec-2017

 -------------------------
 #P B3LYP/6-311+g(d) force
 -------------------------

 -----
 DPGEN
 -----
 Symbolic Z-matrix:
 Charge =  0 Multiplicity = 2

                         Standard orientation:
 ---------------------------------------------------------------------
 Center     Atomic      Atomic             Coordinates (Angstroms)
 Number     Number       Type             X           Y           Z
 ---------------------------------------------------------------------
      1         11           0        2.496314   -3.385746    0.242961
      2         11           0        3.796520   -0.415448   -0.176568
      3         11           0       -3.046674    1.489809   -0.449984
      4         11           0        2.541730    2.635877    0.163188
      5         11           0       -1.305458   -2.926747   -0.443775
      6         11           0       -4.090805   -1.369705    0.551777
      7         11           0       -0.391627    3.971960    0.112400
 ---------------------------------------------------------------------

 SCF Done:  E(UB3LYP) =  -1136.11195954     A.U. after   24 cycles

 The electronic state is 2-A.
 Alpha  occ. eigenvalues --  -38.46087 -38.45644 -38.44219 -38.44038 -38.44026
 Alpha  occ. eigenvalues --  -38.43742 -38.43625  -2.21839  -2.21428  -2.20037
 Alpha  occ. eigenvalues --   -2.19886  -2.19849  -2.19540  -2.19433  -1.15534
 Alpha  occ. eigenvalues --   -1.15516  -1.15447  -1.15119  -1.15096  -1.15052
 Alpha  occ. eigenvalues --   -1.13718  -1.13707  -1.13688  -1.13557  -1.13528
 Alpha  occ. eigenvalues --   -1.13517  -1.13516  -1.13511  -1.13497  -1.13201
 Alpha  occ. eigenvalues --   -1.13195  -1.13177  -1.13095  -1.13090  -1.13072
 Alpha  occ. eigenvalues --   -0.15944  -0.14212  -0.13465  -0.10576
 Alpha virt. eigenvalues --   -0.07738  -0.05120  -0.03902  -0.03745  -0.03145
 Alpha virt. eigenvalues --   -0.02686  -0.02292  -0.02025  -0.01644  -0.00245
 Alpha virt. eigenvalues --   -0.00006   0.00098   0.00257   0.00428   0.00487

  Beta  occ. eigenvalues --  -38.46059 -38.45614 -38.44193 -38.44004 -38.43999
  Beta  occ. eigenvalues --  -38.43714 -38.43602  -2.21792  -2.21377  -2.19993
  Beta  occ. eigenvalues --   -2.19822  -2.19803  -2.19488  -2.19392  -1.15506
  Beta  occ. eigenvalues --   -1.15489  -1.15381  -1.15088  -1.15068  -1.14981
  Beta  occ. eigenvalues --   -1.13682  -1.13681  -1.13638  -1.13511  -1.13487
  Beta  occ. eigenvalues --   -1.13485  -1.13483  -1.13475  -1.13445  -1.13168
  Beta  occ. eigenvalues --   -1.13165  -1.13131  -1.13069  -1.13067  -1.13032
  Beta  occ. eigenvalues --   -0.15436  -0.13698  -0.12918
  Beta virt. eigenvalues --   -0.07822  -0.07093  -0.04776  -0.03667  -0.03281
  Beta virt. eigenvalues --   -0.02585  -0.02512  -0.02097  -0.01890  -0.01498
  Beta virt. eigenvalues --   -0.00031   0.00225   0.00243   0.00411   0.00462

 Mulliken charges and spin densities:
               1          2
     1  Na  -0.008618   0.137513
     2  Na  -0.234690   0.005412
     3  Na  -0.379964   0.192979
     4  Na   0.134164   0.134038
     5  Na  -0.307618   0.189985
     6  Na   0.377319   0.187416
     7  Na   0.419407   0.152658
 Sum of Mulliken charges =  -0.00000   1.00000

 Dipole moment (field-independent basis, Debye):
    X=             -1.4837    Y=             -0.7095    Z=             -0.0555  Tot=              1.6455
 Quadrupole moment (field-independent basis, Debye-Ang):
   XX=            -62.2419   YY=            -66.4230   ZZ=            -72.1024
   XY=              0.5125   XZ=             -0.1635   YZ=              0.0489

 Normal termination of Gaussian 16 at Sun Dec  3 19:35:06 2023.
