 Gaussian 16, Revision B.01,
 Gaussian 16:  ES64L-G16RevB.01 20-Dec-2017

 -------------------------
 #P B3LYP/6-311+g(d) force
 -------------------------

 -----
 DPGEN
 -----
 Symbolic Z-matrix:
 Charge =  0 Multiplicity = 2

                         Standard orientation:
 ---------------------------------------------------------------------
 Center     Atomic      Atomic             Coordinates (Angstroms)
 Number     Number       Type             X           Y           Z
 ---------------------------------------------------------------------
      1         11           0        2.357583   -2.154121   -0.530119
      2         11           0       -0.156414   -0.265026   -1.301952
      3         11           0        3.090239    1.113623   -0.078441
      4         11           0       -1.987879   -2.328483    0.371497
      5         11           0       -2.996885    0.638036   -0.583762
      6         11           0        0.090990    0.144033    2.295568
      7         11           0       -0.397634    2.851937   -0.172792
 ---------------------------------------------------------------------

 SCF Done:  E(UB3LYP) =  -1136.13232883     A.U. after   20 cycles

 The electronic state is 2-A.
 Alpha  occ. eigenvalues --  -38.44450 -38.43999 -38.43978 -38.43779 -38.43566
 Alpha  occ. eigenvalues --  -38.43091 -38.42914  -2.20248  -2.19874  -2.19844
 Alpha  occ. eigenvalues --   -2.19605  -2.19419  -2.19129  -2.18762  -1.13927
 Alpha  occ. eigenvalues --   -1.13908  -1.13887  -1.13599  -1.13521  -1.13501
 Alpha  occ. eigenvalues --   -1.13496  -1.13471  -1.13454  -1.13303  -1.13253
 Alpha  occ. eigenvalues --   -1.13234  -1.13111  -1.13070  -1.13059  -1.12817
 Alpha  occ. eigenvalues --   -1.12781  -1.12754  -1.12445  -1.12426  -1.12392
 Alpha  occ. eigenvalues --   -0.18467  -0.13373  -0.12007  -0.10889
 Alpha virt. eigenvalues --   -0.05842  -0.05309  -0.04408  -0.03286  -0.02730
 Alpha virt. eigenvalues --   -0.02681  -0.01739  -0.01152  -0.00453  -0.00314
 Alpha virt. eigenvalues --   -0.00036   0.00318   0.00709   0.00833   0.00891

  Beta  occ. eigenvalues --  -38.44449 -38.43961 -38.43886 -38.43769 -38.43559
  Beta  occ. eigenvalues --  -38.43054 -38.42911  -2.20249  -2.19846  -2.19636
  Beta  occ. eigenvalues --   -2.19588  -2.19408  -2.19064  -2.18759  -1.13919
  Beta  occ. eigenvalues --   -1.13909  -1.13883  -1.13575  -1.13488  -1.13481
  Beta  occ. eigenvalues --   -1.13362  -1.13330  -1.13302  -1.13285  -1.13239
  Beta  occ. eigenvalues --   -1.13219  -1.13104  -1.13057  -1.13036  -1.12762
  Beta  occ. eigenvalues --   -1.12726  -1.12712  -1.12442  -1.12416  -1.12380
  Beta  occ. eigenvalues --   -0.17781  -0.13129  -0.11787
  Beta virt. eigenvalues --   -0.06934  -0.05793  -0.05220  -0.04340  -0.02580
  Beta virt. eigenvalues --   -0.02010  -0.01681  -0.01581  -0.01070  -0.00449
  Beta virt. eigenvalues --   -0.00334   0.00126   0.00371   0.00794   0.00847

 Mulliken charges and spin densities:
               1          2
     1  Na   0.251926   0.078373
     2  Na  -0.530329  -0.082176
     3  Na   0.090634   0.013787
     4  Na   0.132899   0.150114
     5  Na   0.547389   0.071529
     6  Na  -0.551040   0.713124
     7  Na   0.058522   0.055250
 Sum of Mulliken charges =  -0.00000   1.00000

 Dipole moment (field-independent basis, Debye):
    X=              0.2760    Y=             -0.0420    Z=              0.2852  Tot=              0.3991
 Quadrupole moment (field-independent basis, Debye-Ang):
   XX=            -54.8983   YY=            -64.5317   ZZ=            -74.0246
   XY=              1.1659   XZ=              0.1289   YZ=             -0.8221

 Normal termination of Gaussian 16 at Thu Dec  7 02:31:13 2023.
