 Gaussian 16, Revision B.01,
 Gaussian 16:  ES64L-G16RevB.01 20-Dec-2017

 -------------------------
 #P B3LYP/6-311+g(d) force
 -------------------------

 -----
 DPGEN
 -----
 Symbolic Z-matrix:
 Charge =  0 Multiplicity = 2

                         Standard orientation:
 ---------------------------------------------------------------------
 Center     Atomic      Atomic             Coordinates (Angstroms)
 Number     Number       Type             X           Y           Z
 ---------------------------------------------------------------------
      1         11           0       -0.563489    3.365944   -0.183708
      2         11           0       -2.993585    1.721638    1.696709
      3         11           0       -3.946024   -1.049067   -0.883460
      4         11           0       -1.043820   -2.857398   -1.044898
      5         11           0        1.570112   -2.936337    1.122898
      6         11           0        4.105410   -0.406209    0.540869
      7         11           0        2.871396    2.161429   -1.248410
 ---------------------------------------------------------------------

 SCF Done:  E(UB3LYP) =  -1136.10729236     A.U. after   23 cycles

 The electronic state is 2-A.
 Alpha  occ. eigenvalues --  -38.45223 -38.44969 -38.44681 -38.44640 -38.44509
 Alpha  occ. eigenvalues --  -38.43871 -38.43826  -2.20982  -2.20713  -2.20464
 Alpha  occ. eigenvalues --   -2.20411  -2.20286  -2.19664  -2.19626  -1.14665
 Alpha  occ. eigenvalues --   -1.14651  -1.14628  -1.14398  -1.14389  -1.14344
 Alpha  occ. eigenvalues --   -1.14127  -1.14116  -1.14093  -1.14075  -1.14050
 Alpha  occ. eigenvalues --   -1.14045  -1.13967  -1.13960  -1.13923  -1.13321
 Alpha  occ. eigenvalues --   -1.13312  -1.13299  -1.13280  -1.13276  -1.13256
 Alpha  occ. eigenvalues --   -0.15529  -0.13687  -0.13170  -0.10633
 Alpha virt. eigenvalues --   -0.07658  -0.05106  -0.04492  -0.03604  -0.03508
 Alpha virt. eigenvalues --   -0.02201  -0.01809  -0.01644  -0.01278  -0.01130
 Alpha virt. eigenvalues --   -0.00826  -0.00206   0.00016   0.00363   0.00568

  Beta  occ. eigenvalues --  -38.45224 -38.44962 -38.44626 -38.44598 -38.44503
  Beta  occ. eigenvalues --  -38.43821 -38.43772  -2.20988  -2.20703  -2.20364
  Beta  occ. eigenvalues --   -2.20336  -2.20281  -2.19571  -2.19525  -1.14673
  Beta  occ. eigenvalues --   -1.14658  -1.14600  -1.14394  -1.14386  -1.14313
  Beta  occ. eigenvalues --   -1.14059  -1.14050  -1.14026  -1.14020  -1.14001
  Beta  occ. eigenvalues --   -1.13983  -1.13968  -1.13960  -1.13884  -1.13257
  Beta  occ. eigenvalues --   -1.13251  -1.13238  -1.13213  -1.13210  -1.13189
  Beta  occ. eigenvalues --   -0.15032  -0.12970  -0.12516
  Beta virt. eigenvalues --   -0.07814  -0.07545  -0.04557  -0.03959  -0.03439
  Beta virt. eigenvalues --   -0.03338  -0.02023  -0.01510  -0.01338  -0.01028
  Beta virt. eigenvalues --   -0.00948  -0.00717   0.00021   0.00195   0.00411

 Mulliken charges and spin densities:
               1          2
     1  Na  -0.117130   0.060827
     2  Na  -0.040466   0.179683
     3  Na   0.219806   0.188890
     4  Na  -0.342730   0.077872
     5  Na   0.100258   0.248618
     6  Na   0.078295   0.025276
     7  Na   0.101968   0.218833
 Sum of Mulliken charges =  -0.00000   1.00000

 Dipole moment (field-independent basis, Debye):
    X=             -0.2990    Y=              0.2283    Z=              0.1970  Tot=              0.4247
 Quadrupole moment (field-independent basis, Debye-Ang):
   XX=            -60.0062   YY=            -73.0202   ZZ=            -68.0985
   XY=             -1.8239   XZ=              0.1055   YZ=             -1.8574

 Normal termination of Gaussian 16 at Sun Dec  3 14:13:42 2023.
