 Gaussian 16, Revision B.01,
 Gaussian 16:  ES64L-G16RevB.01 20-Dec-2017

 -------------------------
 #P B3LYP/6-311+g(d) force
 -------------------------

 -----
 DPGEN
 -----
 Symbolic Z-matrix:
 Charge =  0 Multiplicity = 2

                         Standard orientation:
 ---------------------------------------------------------------------
 Center     Atomic      Atomic             Coordinates (Angstroms)
 Number     Number       Type             X           Y           Z
 ---------------------------------------------------------------------
      1         11           0       -3.939241    0.951089    0.739429
      2         11           0        0.071789   -0.151410    2.055352
      3         11           0       -2.111307   -1.856835   -0.440173
      4         11           0        1.052794   -1.856633   -1.225788
      5         11           0        2.142360    2.310776   -0.666787
      6         11           0       -1.007423    1.134701   -1.314274
      7         11           0        3.791029   -0.531689    0.852240
 ---------------------------------------------------------------------

 SCF Done:  E(UB3LYP) =  -1136.12135416     A.U. after   25 cycles

 The electronic state is 2-A.
 Alpha  occ. eigenvalues --  -38.45883 -38.45181 -38.44525 -38.43603 -38.43465
 Alpha  occ. eigenvalues --  -38.43307 -38.42660  -2.21658  -2.20959  -2.20306
 Alpha  occ. eigenvalues --   -2.19504  -2.19270  -2.19199  -2.18523  -1.15345
 Alpha  occ. eigenvalues --   -1.15304  -1.15267  -1.14631  -1.14603  -1.14589
 Alpha  occ. eigenvalues --   -1.13977  -1.13970  -1.13939  -1.13200  -1.13162
 Alpha  occ. eigenvalues --   -1.13133  -1.12940  -1.12934  -1.12899  -1.12888
 Alpha  occ. eigenvalues --   -1.12867  -1.12815  -1.12205  -1.12175  -1.12157
 Alpha  occ. eigenvalues --   -0.18037  -0.13786  -0.11294  -0.10986
 Alpha virt. eigenvalues --   -0.07264  -0.05118  -0.04627  -0.03239  -0.02899
 Alpha virt. eigenvalues --   -0.02509  -0.02398  -0.01132  -0.01123  -0.00306
 Alpha virt. eigenvalues --    0.00019   0.00170   0.00212   0.00638   0.00655

  Beta  occ. eigenvalues --  -38.45832 -38.45157 -38.44519 -38.43545 -38.43438
  Beta  occ. eigenvalues --  -38.43300 -38.42640  -2.21561  -2.20914  -2.20296
  Beta  occ. eigenvalues --   -2.19403  -2.19223  -2.19189  -2.18488  -1.15275
  Beta  occ. eigenvalues --   -1.15243  -1.15191  -1.14595  -1.14573  -1.14561
  Beta  occ. eigenvalues --   -1.13970  -1.13961  -1.13932  -1.13138  -1.13083
  Beta  occ. eigenvalues --   -1.13046  -1.12904  -1.12897  -1.12873  -1.12861
  Beta  occ. eigenvalues --   -1.12856  -1.12802  -1.12178  -1.12147  -1.12125
  Beta  occ. eigenvalues --   -0.17349  -0.13594  -0.10732
  Beta virt. eigenvalues --   -0.07564  -0.06881  -0.05111  -0.04145  -0.02914
  Beta virt. eigenvalues --   -0.02566  -0.01951  -0.01689  -0.01048  -0.00819
  Beta virt. eigenvalues --   -0.00291   0.00062   0.00195   0.00363   0.00709

 Mulliken charges and spin densities:
               1          2
     1  Na   0.416202   0.034233
     2  Na  -0.440562   0.363775
     3  Na   0.516221   0.056647
     4  Na  -0.335566   0.031482
     5  Na  -0.140854  -0.014956
     6  Na  -0.418058   0.319769
     7  Na   0.402617   0.209049
 Sum of Mulliken charges =  -0.00000   1.00000

 Dipole moment (field-independent basis, Debye):
    X=              0.1591    Y=             -0.3546    Z=              0.8797  Tot=              0.9617
 Quadrupole moment (field-independent basis, Debye-Ang):
   XX=            -48.9758   YY=            -76.9387   ZZ=            -69.3503
   XY=             -1.0575   XZ=             -0.4820   YZ=             -0.5651

 Normal termination of Gaussian 16 at Thu Dec  7 15:11:57 2023.
