 Gaussian 16, Revision B.01,
 Gaussian 16:  ES64L-G16RevB.01 20-Dec-2017

 -------------------------
 #P B3LYP/6-311+g(d) force
 -------------------------

 -----
 DPGEN
 -----
 Symbolic Z-matrix:
 Charge =  0 Multiplicity = 2

                         Standard orientation:
 ---------------------------------------------------------------------
 Center     Atomic      Atomic             Coordinates (Angstroms)
 Number     Number       Type             X           Y           Z
 ---------------------------------------------------------------------
      1         11           0       -3.587087    0.456986   -1.325114
      2         11           0        0.086108    1.583634   -0.082024
      3         11           0        1.151197   -1.421542    1.706100
      4         11           0       -2.338162   -0.013682    1.994319
      5         11           0        2.980668   -1.433545   -0.962040
      6         11           0        2.516846    2.420243   -0.077400
      7         11           0       -0.809570   -1.592095   -1.253840
 ---------------------------------------------------------------------

 SCF Done:  E(UB3LYP) =  -1136.11734677     A.U. after   20 cycles

 The electronic state is 2-A.
 Alpha  occ. eigenvalues --  -38.44781 -38.44724 -38.44476 -38.44152 -38.43949
 Alpha  occ. eigenvalues --  -38.43111 -38.43015  -2.20591  -2.20556  -2.20284
 Alpha  occ. eigenvalues --   -2.20003  -2.19813  -2.19111  -2.18896  -1.14257
 Alpha  occ. eigenvalues --   -1.14244  -1.14225  -1.14220  -1.14201  -1.14158
 Alpha  occ. eigenvalues --   -1.13979  -1.13933  -1.13906  -1.13717  -1.13678
 Alpha  occ. eigenvalues --   -1.13588  -1.13489  -1.13463  -1.13433  -1.13255
 Alpha  occ. eigenvalues --   -1.12746  -1.12729  -1.12494  -1.12473  -1.12334
 Alpha  occ. eigenvalues --   -0.18256  -0.13756  -0.11577  -0.11267
 Alpha virt. eigenvalues --   -0.06436  -0.05247  -0.04696  -0.03219  -0.02817
 Alpha virt. eigenvalues --   -0.02401  -0.02269  -0.01254  -0.00794   0.00027
 Alpha virt. eigenvalues --    0.00131   0.00183   0.00397   0.00560   0.00767

  Beta  occ. eigenvalues --  -38.44744 -38.44660 -38.44464 -38.44120 -38.43912
  Beta  occ. eigenvalues --  -38.43102 -38.43018  -2.20524  -2.20439  -2.20262
  Beta  occ. eigenvalues --   -2.19944  -2.19747  -2.19100  -2.18901  -1.14202
  Beta  occ. eigenvalues --   -1.14194  -1.14178  -1.14140  -1.14120  -1.14074
  Beta  occ. eigenvalues --   -1.13963  -1.13917  -1.13891  -1.13681  -1.13624
  Beta  occ. eigenvalues --   -1.13542  -1.13445  -1.13417  -1.13369  -1.13258
  Beta  occ. eigenvalues --   -1.12727  -1.12707  -1.12491  -1.12477  -1.12336
  Beta  occ. eigenvalues --   -0.17555  -0.13509  -0.11188
  Beta virt. eigenvalues --   -0.07620  -0.06261  -0.04597  -0.04483  -0.03098
  Beta virt. eigenvalues --   -0.02187  -0.01963  -0.01905  -0.00755  -0.00723
  Beta virt. eigenvalues --    0.00168   0.00176   0.00294   0.00463   0.00672

 Mulliken charges and spin densities:
               1          2
     1  Na   0.705659   0.089832
     2  Na  -0.907144   0.321118
     3  Na   0.156805   0.196538
     4  Na   0.179309   0.199468
     5  Na   0.417551   0.119735
     6  Na   0.000032  -0.172879
     7  Na  -0.552212   0.246189
 Sum of Mulliken charges =  -0.00000   1.00000

 Dipole moment (field-independent basis, Debye):
    X=             -0.9237    Y=             -0.9317    Z=             -0.0526  Tot=              1.3131
 Quadrupole moment (field-independent basis, Debye-Ang):
   XX=            -49.3178   YY=            -79.5543   ZZ=            -65.5457
   XY=             -4.1834   XZ=             -1.0619   YZ=              0.0840

 Normal termination of Gaussian 16 at Fri Dec  8 05:54:11 2023.
