 Gaussian 16, Revision B.01,
 Gaussian 16:  ES64L-G16RevB.01 20-Dec-2017

 -------------------------
 #P B3LYP/6-311+g(d) force
 -------------------------

 -----
 DPGEN
 -----
 Symbolic Z-matrix:
 Charge =  0 Multiplicity = 2

                         Standard orientation:
 ---------------------------------------------------------------------
 Center     Atomic      Atomic             Coordinates (Angstroms)
 Number     Number       Type             X           Y           Z
 ---------------------------------------------------------------------
      1         11           0       -4.575126    0.908713   -0.028205
      2         11           0       -4.042780   -2.118765    0.002723
      3         11           0       -0.393819   -3.182395    0.047008
      4         11           0       -1.298130    3.200031   -0.058187
      5         11           0        4.836324    0.376589   -0.081006
      6         11           0        3.651869   -2.630804    0.001292
      7         11           0        1.821662    3.446631    0.116376
 ---------------------------------------------------------------------

 SCF Done:  E(UB3LYP) =  -1136.10412532     A.U. after   20 cycles

 The electronic state is 2-A.
 Alpha  occ. eigenvalues --  -38.44872 -38.44833 -38.44781 -38.44779 -38.44591
 Alpha  occ. eigenvalues --  -38.44344 -38.44334  -2.20641  -2.20622  -2.20566
 Alpha  occ. eigenvalues --   -2.20540  -2.20409  -2.20126  -2.20118  -1.14350
 Alpha  occ. eigenvalues --   -1.14294  -1.14291  -1.14285  -1.14276  -1.14274
 Alpha  occ. eigenvalues --   -1.14239  -1.14227  -1.14211  -1.14209  -1.14194
 Alpha  occ. eigenvalues --   -1.14139  -1.14050  -1.14037  -1.14030  -1.13873
 Alpha  occ. eigenvalues --   -1.13798  -1.13785  -1.13771  -1.13760  -1.13692
 Alpha  occ. eigenvalues --   -0.15309  -0.14024  -0.13242  -0.11225
 Alpha virt. eigenvalues --   -0.07725  -0.04991  -0.04668  -0.03576  -0.03412
 Alpha virt. eigenvalues --   -0.02579  -0.02054  -0.01977  -0.01306  -0.01017
 Alpha virt. eigenvalues --   -0.00769  -0.00452  -0.00054   0.00374   0.00422

  Beta  occ. eigenvalues --  -38.44839 -38.44790 -38.44767 -38.44728 -38.44535
  Beta  occ. eigenvalues --  -38.44336 -38.44317  -2.20640  -2.20563  -2.20472
  Beta  occ. eigenvalues --   -2.20445  -2.20305  -2.20113  -2.20090  -1.14338
  Beta  occ. eigenvalues --   -1.14310  -1.14266  -1.14252  -1.14238  -1.14203
  Beta  occ. eigenvalues --   -1.14160  -1.14155  -1.14151  -1.14140  -1.14114
  Beta  occ. eigenvalues --   -1.14097  -1.13980  -1.13972  -1.13963  -1.13847
  Beta  occ. eigenvalues --   -1.13790  -1.13776  -1.13755  -1.13744  -1.13666
  Beta  occ. eigenvalues --   -0.14721  -0.13471  -0.12564
  Beta virt. eigenvalues --   -0.07994  -0.07733  -0.04521  -0.04132  -0.03405
  Beta virt. eigenvalues --   -0.03067  -0.02455  -0.02043  -0.01818  -0.01150
  Beta virt. eigenvalues --   -0.00625  -0.00452   0.00030   0.00187   0.00323

 Mulliken charges and spin densities:
               1          2
     1  Na   0.040999   0.279276
     2  Na   0.300407  -0.069332
     3  Na  -0.439518   0.545032
     4  Na  -0.049730   0.056389
     5  Na  -0.121640   0.233539
     6  Na   0.113512  -0.024326
     7  Na   0.155969  -0.020577
 Sum of Mulliken charges =  -0.00000   1.00000

 Dipole moment (field-independent basis, Debye):
    X=              0.0739    Y=             -0.1122    Z=             -0.0054  Tot=              0.1344
 Quadrupole moment (field-independent basis, Debye-Ang):
   XX=            -58.3909   YY=            -65.9067   ZZ=            -75.5462
   XY=              2.4217   XZ=              0.2169   YZ=             -0.1197

 Normal termination of Gaussian 16 at Mon Dec  4 03:45:14 2023.
