 Gaussian 16, Revision B.01,
 Gaussian 16:  ES64L-G16RevB.01 20-Dec-2017

 -------------------------
 #P B3LYP/6-311+g(d) force
 -------------------------

 -----
 DPGEN
 -----
 Symbolic Z-matrix:
 Charge =  0 Multiplicity = 2

                         Standard orientation:
 ---------------------------------------------------------------------
 Center     Atomic      Atomic             Coordinates (Angstroms)
 Number     Number       Type             X           Y           Z
 ---------------------------------------------------------------------
      1         11           0        0.620972    1.499741    0.073998
      2         11           0       -0.304213   -0.053992   -1.925462
      3         11           0        3.117314    0.191455    0.005619
      4         11           0        0.853522   -1.489089   -0.009082
      5         11           0       -0.400689   -0.169020    1.926286
      6         11           0       -1.829881   -1.313261   -0.072239
      7         11           0       -2.057026    1.334166    0.000880
 ---------------------------------------------------------------------

 SCF Done:  E(UB3LYP) =  -1136.03587843     A.U. after   40 cycles

 The electronic state is 2-A.
 Alpha  occ. eigenvalues --  -38.45357 -38.45158 -38.44959 -38.44221 -38.43984
 Alpha  occ. eigenvalues --  -38.43613 -38.43566  -2.21645  -2.21446  -2.20917
 Alpha  occ. eigenvalues --   -2.20542  -2.20201  -2.19990  -2.19930  -1.15587
 Alpha  occ. eigenvalues --   -1.15364  -1.15324  -1.15258  -1.15142  -1.15082
 Alpha  occ. eigenvalues --   -1.14718  -1.14617  -1.14507  -1.14395  -1.14297
 Alpha  occ. eigenvalues --   -1.14097  -1.14089  -1.13773  -1.13692  -1.13654
 Alpha  occ. eigenvalues --   -1.13598  -1.13551  -1.13521  -1.13434  -1.13349
 Alpha  occ. eigenvalues --   -0.22340  -0.14456  -0.13188  -0.11928
 Alpha virt. eigenvalues --   -0.05994  -0.04171  -0.03924  -0.03632  -0.02869
 Alpha virt. eigenvalues --   -0.02592  -0.01635  -0.00313  -0.00174   0.00262
 Alpha virt. eigenvalues --    0.00649   0.00933   0.00984   0.01035   0.01154

  Beta  occ. eigenvalues --  -38.45250 -38.45061 -38.44964 -38.44195 -38.43964
  Beta  occ. eigenvalues --  -38.43584 -38.43534  -2.21455  -2.21273  -2.20927
  Beta  occ. eigenvalues --   -2.20504  -2.20172  -2.19949  -2.19884  -1.15478
  Beta  occ. eigenvalues --   -1.15260  -1.15178  -1.15123  -1.15014  -1.14950
  Beta  occ. eigenvalues --   -1.14722  -1.14625  -1.14499  -1.14376  -1.14267
  Beta  occ. eigenvalues --   -1.14071  -1.13994  -1.13691  -1.13675  -1.13639
  Beta  occ. eigenvalues --   -1.13507  -1.13484  -1.13435  -1.13416  -1.13328
  Beta  occ. eigenvalues --   -0.21417  -0.14121  -0.11636
  Beta virt. eigenvalues --   -0.08710  -0.05943  -0.03685  -0.03346  -0.03192
  Beta virt. eigenvalues --   -0.02069  -0.01910  -0.01562  -0.00189  -0.00060
  Beta virt. eigenvalues --    0.00302   0.00680   0.00958   0.01047   0.01141

 Mulliken charges and spin densities:
               1          2
     1  Na  -0.376821   0.089996
     2  Na   0.273665   0.449374
     3  Na  -0.227917  -0.071102
     4  Na  -0.610943  -0.052021
     5  Na   0.312828   0.479260
     6  Na   0.360716   0.078968
     7  Na   0.268472   0.025525
 Sum of Mulliken charges =  -0.00000   1.00000

 Dipole moment (field-independent basis, Debye):
    X=              0.6716    Y=              0.1565    Z=              0.0135  Tot=              0.6897
 Quadrupole moment (field-independent basis, Debye-Ang):
   XX=            -54.3253   YY=            -77.0763   ZZ=            -65.7083
   XY=             -0.1314   XZ=              0.0275   YZ=              3.9371

 Normal termination of Gaussian 16 at Sat Dec  9 07:17:45 2023.
