 Gaussian 16, Revision B.01,
 Gaussian 16:  ES64L-G16RevB.01 20-Dec-2017

 -------------------------
 #P B3LYP/6-311+g(d) force
 -------------------------

 -----
 DPGEN
 -----
 Symbolic Z-matrix:
 Charge =  0 Multiplicity = 2

                         Standard orientation:
 ---------------------------------------------------------------------
 Center     Atomic      Atomic             Coordinates (Angstroms)
 Number     Number       Type             X           Y           Z
 ---------------------------------------------------------------------
      1         11           0       -0.741506    1.645093   -0.182260
      2         11           0        0.240765    0.146352    1.977282
      3         11           0       -3.113199    0.131372   -0.050371
      4         11           0       -0.776166   -1.666565    0.196863
      5         11           0        0.322288   -0.415878   -1.955414
      6         11           0        1.994543   -1.310129    0.175721
      7         11           0        2.073274    1.469755   -0.161822
 ---------------------------------------------------------------------

 SCF Done:  E(UB3LYP) =  -1136.07512466     A.U. after   22 cycles

 The electronic state is 2-A.
 Alpha  occ. eigenvalues --  -38.44906 -38.44728 -38.44651 -38.43687 -38.43461
 Alpha  occ. eigenvalues --  -38.43117 -38.43002  -2.21093  -2.20904  -2.20591
 Alpha  occ. eigenvalues --   -2.19878  -2.19567  -2.19370  -2.19228  -1.14905
 Alpha  occ. eigenvalues --   -1.14743  -1.14723  -1.14686  -1.14537  -1.14523
 Alpha  occ. eigenvalues --   -1.14347  -1.14269  -1.14195  -1.13654  -1.13647
 Alpha  occ. eigenvalues --   -1.13495  -1.13366  -1.13171  -1.13124  -1.13036
 Alpha  occ. eigenvalues --   -1.13025  -1.12898  -1.12879  -1.12859  -1.12768
 Alpha  occ. eigenvalues --   -0.21657  -0.14143  -0.12799  -0.12036
 Alpha virt. eigenvalues --   -0.05800  -0.04033  -0.03840  -0.03823  -0.02997
 Alpha virt. eigenvalues --   -0.02843  -0.01566  -0.00324  -0.00221   0.00288
 Alpha virt. eigenvalues --    0.00624   0.00859   0.00989   0.01010   0.01134

  Beta  occ. eigenvalues --  -38.44801 -38.44654 -38.44632 -38.43668 -38.43447
  Beta  occ. eigenvalues --  -38.43093 -38.42980  -2.20904  -2.20731  -2.20599
  Beta  occ. eigenvalues --   -2.19852  -2.19548  -2.19337  -2.19196  -1.14788
  Beta  occ. eigenvalues --   -1.14619  -1.14599  -1.14553  -1.14411  -1.14393
  Beta  occ. eigenvalues --   -1.14351  -1.14277  -1.14184  -1.13645  -1.13632
  Beta  occ. eigenvalues --   -1.13411  -1.13356  -1.13119  -1.13106  -1.13018
  Beta  occ. eigenvalues --   -1.12931  -1.12884  -1.12850  -1.12786  -1.12757
  Beta  occ. eigenvalues --   -0.20749  -0.13822  -0.11721
  Beta virt. eigenvalues --   -0.08478  -0.05760  -0.03901  -0.03420  -0.03052
  Beta virt. eigenvalues --   -0.02213  -0.02009  -0.01496  -0.00263  -0.00052
  Beta virt. eigenvalues --    0.00321   0.00651   0.00848   0.01037   0.01119

 Mulliken charges and spin densities:
               1          2
     1  Na  -0.256221   0.046958
     2  Na   0.178729   0.483974
     3  Na  -0.200277  -0.073769
     4  Na  -0.479912  -0.080896
     5  Na   0.144786   0.520502
     6  Na   0.459220   0.055709
     7  Na   0.153675   0.047522
 Sum of Mulliken charges =  -0.00000   1.00000

 Dipole moment (field-independent basis, Debye):
    X=             -0.4833    Y=              0.1146    Z=             -0.0632  Tot=              0.5008
 Quadrupole moment (field-independent basis, Debye-Ang):
   XX=            -55.1329   YY=            -76.5994   ZZ=            -65.0275
   XY=              0.3342   XZ=              0.1116   YZ=             -1.3425

 Normal termination of Gaussian 16 at Fri Dec  8 18:03:53 2023.
