 Gaussian 16, Revision B.01,
 Gaussian 16:  ES64L-G16RevB.01 20-Dec-2017

 -------------------------
 #P B3LYP/6-311+g(d) force
 -------------------------

 -----
 DPGEN
 -----
 Symbolic Z-matrix:
 Charge =  0 Multiplicity = 2

                         Standard orientation:
 ---------------------------------------------------------------------
 Center     Atomic      Atomic             Coordinates (Angstroms)
 Number     Number       Type             X           Y           Z
 ---------------------------------------------------------------------
      1         11           0       -0.108110   -0.147721   -1.650455
      2         11           0        1.971167    1.624880    0.444158
      3         11           0       -0.579541   -2.744144    0.042320
      4         11           0       -3.313118   -0.355095   -0.172952
      5         11           0       -0.596861    3.042347   -0.425186
      6         11           0       -0.401646   -0.038163    2.096966
      7         11           0        3.028110   -1.382104   -0.334850
 ---------------------------------------------------------------------

 SCF Done:  E(UB3LYP) =  -1136.13395115     A.U. after   19 cycles

 The electronic state is 2-A.
 Alpha  occ. eigenvalues --  -38.44395 -38.43810 -38.43771 -38.43678 -38.43453
 Alpha  occ. eigenvalues --  -38.43311 -38.43168  -2.20187  -2.19674  -2.19665
 Alpha  occ. eigenvalues --   -2.19491  -2.19304  -2.19282  -2.19109  -1.13865
 Alpha  occ. eigenvalues --   -1.13843  -1.13826  -1.13407  -1.13375  -1.13328
 Alpha  occ. eigenvalues --   -1.13282  -1.13278  -1.13262  -1.13178  -1.13155
 Alpha  occ. eigenvalues --   -1.13124  -1.13045  -1.12977  -1.12965  -1.12937
 Alpha  occ. eigenvalues --   -1.12915  -1.12883  -1.12781  -1.12756  -1.12715
 Alpha  occ. eigenvalues --   -0.18639  -0.12979  -0.12355  -0.10937
 Alpha virt. eigenvalues --   -0.05864  -0.04931  -0.04571  -0.03303  -0.02862
 Alpha virt. eigenvalues --   -0.02685  -0.01721  -0.01133  -0.00264  -0.00156
 Alpha virt. eigenvalues --    0.00011   0.00340   0.00766   0.00881   0.00924

  Beta  occ. eigenvalues --  -38.44392 -38.43801 -38.43677 -38.43671 -38.43447
  Beta  occ. eigenvalues --  -38.43249 -38.43156  -2.20186  -2.19663  -2.19491
  Beta  occ. eigenvalues --   -2.19482  -2.19296  -2.19168  -2.19092  -1.13846
  Beta  occ. eigenvalues --   -1.13844  -1.13825  -1.13394  -1.13327  -1.13263
  Beta  occ. eigenvalues --   -1.13211  -1.13180  -1.13156  -1.13151  -1.13141
  Beta  occ. eigenvalues --   -1.13126  -1.13039  -1.12949  -1.12928  -1.12890
  Beta  occ. eigenvalues --   -1.12845  -1.12802  -1.12763  -1.12714  -1.12712
  Beta  occ. eigenvalues --   -0.17893  -0.12759  -0.12131
  Beta virt. eigenvalues --   -0.06989  -0.05846  -0.04856  -0.04520  -0.02492
  Beta virt. eigenvalues --   -0.02171  -0.01651  -0.01626  -0.01059  -0.00276
  Beta virt. eigenvalues --   -0.00144   0.00111   0.00365   0.00778   0.00925

 Mulliken charges and spin densities:
               1          2
     1  Na  -0.313984   0.525393
     2  Na   0.322482   0.161400
     3  Na   0.207437  -0.014285
     4  Na   0.043681  -0.103632
     5  Na   0.014787  -0.061924
     6  Na  -0.278686   0.545023
     7  Na   0.004283  -0.051975
 Sum of Mulliken charges =  -0.00000   1.00000

 Dipole moment (field-independent basis, Debye):
    X=             -0.6413    Y=             -0.2894    Z=              0.0518  Tot=              0.7055
 Quadrupole moment (field-independent basis, Debye-Ang):
   XX=            -56.9416   YY=            -63.0354   ZZ=            -73.5013
   XY=             -1.5198   XZ=              0.4813   YZ=             -0.4101

 Normal termination of Gaussian 16 at Thu Dec  7 16:38:10 2023.
