 Gaussian 16, Revision B.01,
 Gaussian 16:  ES64L-G16RevB.01 20-Dec-2017

 -------------------------
 #P B3LYP/6-311+g(d) force
 -------------------------

 -----
 DPGEN
 -----
 Symbolic Z-matrix:
 Charge =  0 Multiplicity = 2

                         Standard orientation:
 ---------------------------------------------------------------------
 Center     Atomic      Atomic             Coordinates (Angstroms)
 Number     Number       Type             X           Y           Z
 ---------------------------------------------------------------------
      1         11           0       -2.540286   -1.679137    0.514865
      2         11           0        0.566637   -2.237765   -1.370900
      3         11           0       -4.652416    1.058043   -0.323271
      4         11           0        1.525807   -0.738556    2.228892
      5         11           0       -0.585729    1.007094   -0.269792
      6         11           0        1.690464    2.910096   -0.059656
      7         11           0        3.995523   -0.319775   -0.720137
 ---------------------------------------------------------------------

 SCF Done:  E(UB3LYP) =  -1136.11008514     A.U. after   29 cycles

 The electronic state is 2-A.
 Alpha  occ. eigenvalues --  -38.45965 -38.44420 -38.44402 -38.44338 -38.44147
 Alpha  occ. eigenvalues --  -38.43622 -38.43361  -2.21716  -2.20198  -2.20191
 Alpha  occ. eigenvalues --   -2.20126  -2.19959  -2.19528  -2.19175  -1.15393
 Alpha  occ. eigenvalues --   -1.15363  -1.15350  -1.13898  -1.13856  -1.13848
 Alpha  occ. eigenvalues --   -1.13825  -1.13814  -1.13812  -1.13792  -1.13750
 Alpha  occ. eigenvalues --   -1.13745  -1.13654  -1.13644  -1.13569  -1.13250
 Alpha  occ. eigenvalues --   -1.13233  -1.13167  -1.12851  -1.12822  -1.12794
 Alpha  occ. eigenvalues --   -0.17334  -0.13626  -0.11452  -0.10501
 Alpha virt. eigenvalues --   -0.07727  -0.05457  -0.04439  -0.03261  -0.02995
 Alpha virt. eigenvalues --   -0.02365  -0.02168  -0.01839  -0.01083  -0.00716
 Alpha virt. eigenvalues --   -0.00363  -0.00098   0.00200   0.00480   0.00637

  Beta  occ. eigenvalues --  -38.45942 -38.44372 -38.44359 -38.44251 -38.44147
  Beta  occ. eigenvalues --  -38.43625 -38.43380  -2.21676  -2.20138  -2.20083
  Beta  occ. eigenvalues --   -2.19965  -2.19962  -2.19534  -2.19211  -1.15348
  Beta  occ. eigenvalues --   -1.15338  -1.15321  -1.13864  -1.13792  -1.13777
  Beta  occ. eigenvalues --   -1.13768  -1.13759  -1.13739  -1.13682  -1.13656
  Beta  occ. eigenvalues --   -1.13647  -1.13641  -1.13632  -1.13547  -1.13268
  Beta  occ. eigenvalues --   -1.13227  -1.13164  -1.12881  -1.12833  -1.12819
  Beta  occ. eigenvalues --   -0.16882  -0.13027  -0.11355
  Beta virt. eigenvalues --   -0.07470  -0.06979  -0.05227  -0.04015  -0.02928
  Beta virt. eigenvalues --   -0.02785  -0.02125  -0.01745  -0.01516  -0.00829
  Beta virt. eigenvalues --   -0.00378  -0.00173   0.00028   0.00308   0.00542

 Mulliken charges and spin densities:
               1          2
     1  Na   0.445028   0.055559
     2  Na   0.333350   0.152709
     3  Na   0.161553   0.344708
     4  Na   0.176423   0.091159
     5  Na  -1.662941  -0.128846
     6  Na   0.531392  -0.024319
     7  Na   0.015195   0.509031
 Sum of Mulliken charges =  -0.00000   1.00000

 Dipole moment (field-independent basis, Debye):
    X=             -0.1015    Y=             -0.7181    Z=              1.2257  Tot=              1.4242
 Quadrupole moment (field-independent basis, Debye-Ang):
   XX=            -63.4254   YY=            -72.1425   ZZ=            -64.6249
   XY=              1.8918   XZ=              3.8544   YZ=             -2.6657

 Normal termination of Gaussian 16 at Mon Dec  4 03:16:15 2023.
