 Gaussian 16, Revision B.01,
 Gaussian 16:  ES64L-G16RevB.01 20-Dec-2017

 -------------------------
 #P B3LYP/6-311+g(d) force
 -------------------------

 -----
 DPGEN
 -----
 Symbolic Z-matrix:
 Charge =  0 Multiplicity = 2

                         Standard orientation:
 ---------------------------------------------------------------------
 Center     Atomic      Atomic             Coordinates (Angstroms)
 Number     Number       Type             X           Y           Z
 ---------------------------------------------------------------------
      1         11           0        1.917988    2.346731    0.335701
      2         11           0       -0.881151    0.049031    2.507058
      3         11           0       -3.488933   -0.072362   -0.369314
      4         11           0       -0.462198   -2.148060   -0.493200
      5         11           0       -1.022929    1.634664   -0.918002
      6         11           0        2.407568   -1.437803    0.836723
      7         11           0        1.529655   -0.372201   -1.898966
 ---------------------------------------------------------------------

 SCF Done:  E(UB3LYP) =  -1136.12805581     A.U. after   21 cycles

 The electronic state is 2-A.
 Alpha  occ. eigenvalues --  -38.45154 -38.44237 -38.43999 -38.43988 -38.42910
 Alpha  occ. eigenvalues --  -38.42891 -38.42866  -2.20960  -2.20069  -2.19972
 Alpha  occ. eigenvalues --   -2.19869  -2.18836  -2.18827  -2.18700  -1.14614
 Alpha  occ. eigenvalues --   -1.14593  -1.14573  -1.13782  -1.13721  -1.13713
 Alpha  occ. eigenvalues --   -1.13694  -1.13682  -1.13559  -1.13530  -1.13487
 Alpha  occ. eigenvalues --   -1.13483  -1.12558  -1.12518  -1.12504  -1.12501
 Alpha  occ. eigenvalues --   -1.12471  -1.12422  -1.12358  -1.12349  -1.12344
 Alpha  occ. eigenvalues --   -0.18717  -0.13243  -0.11957  -0.11623
 Alpha virt. eigenvalues --   -0.05900  -0.04591  -0.04474  -0.03497  -0.03368
 Alpha virt. eigenvalues --   -0.02999  -0.01564  -0.00636  -0.00499   0.00097
 Alpha virt. eigenvalues --    0.00312   0.00377   0.00493   0.00748   0.00878

  Beta  occ. eigenvalues --  -38.45058 -38.44236 -38.43978 -38.43951 -38.42895
  Beta  occ. eigenvalues --  -38.42871 -38.42863  -2.20782  -2.20068  -2.19884
  Beta  occ. eigenvalues --   -2.19851  -2.18811  -2.18793  -2.18697  -1.14494
  Beta  occ. eigenvalues --   -1.14467  -1.14445  -1.13779  -1.13707  -1.13693
  Beta  occ. eigenvalues --   -1.13682  -1.13612  -1.13512  -1.13500  -1.13470
  Beta  occ. eigenvalues --   -1.13444  -1.12535  -1.12499  -1.12462  -1.12461
  Beta  occ. eigenvalues --   -1.12446  -1.12411  -1.12351  -1.12345  -1.12332
  Beta  occ. eigenvalues --   -0.17925  -0.13111  -0.11452
  Beta virt. eigenvalues --   -0.07924  -0.05613  -0.04433  -0.03946  -0.03342
  Beta virt. eigenvalues --   -0.02457  -0.02268  -0.01491  -0.00577  -0.00174
  Beta virt. eigenvalues --    0.00237   0.00345   0.00395   0.00676   0.00876

 Mulliken charges and spin densities:
               1          2
     1  Na  -0.051216   0.095533
     2  Na  -0.372457   0.468006
     3  Na   0.583356  -0.166535
     4  Na  -0.215640   0.246769
     5  Na  -0.541903   0.262008
     6  Na  -0.027641   0.211482
     7  Na   0.625501  -0.117264
 Sum of Mulliken charges =  -0.00000   1.00000

 Dipole moment (field-independent basis, Debye):
    X=             -0.3193    Y=             -0.2687    Z=              0.6356  Tot=              0.7604
 Quadrupole moment (field-independent basis, Debye-Ang):
   XX=            -56.4268   YY=            -75.6557   ZZ=            -63.8989
   XY=              0.4358   XZ=              1.4662   YZ=              0.7283

 Normal termination of Gaussian 16 at Thu Dec  7 16:32:54 2023.
