 Gaussian 16, Revision B.01,
 Gaussian 16:  ES64L-G16RevB.01 20-Dec-2017

 -------------------------
 #P B3LYP/6-311+g(d) force
 -------------------------

 -----
 DPGEN
 -----
 Symbolic Z-matrix:
 Charge =  0 Multiplicity = 2

                         Standard orientation:
 ---------------------------------------------------------------------
 Center     Atomic      Atomic             Coordinates (Angstroms)
 Number     Number       Type             X           Y           Z
 ---------------------------------------------------------------------
      1         11           0       -2.554682   -2.758989   -0.516489
      2         11           0        1.255919   -3.423644   -0.549419
      3         11           0        3.350355   -1.852866    1.249065
      4         11           0        3.557281    1.535216   -0.565089
      5         11           0        1.014900    3.729604   -0.410021
      6         11           0       -4.448793   -0.105129    0.292663
      7         11           0       -2.174980    2.875808    0.499290
 ---------------------------------------------------------------------

 SCF Done:  E(UB3LYP) =  -1136.10750757     A.U. after   25 cycles

 The electronic state is 2-A.
 Alpha  occ. eigenvalues --  -38.45034 -38.45029 -38.44869 -38.44395 -38.44329
 Alpha  occ. eigenvalues --  -38.44304 -38.43864  -2.20819  -2.20793  -2.20654
 Alpha  occ. eigenvalues --   -2.20175  -2.20111  -2.20101  -2.19660  -1.14513
 Alpha  occ. eigenvalues --   -1.14479  -1.14473  -1.14462  -1.14461  -1.14443
 Alpha  occ. eigenvalues --   -1.14316  -1.14308  -1.14278  -1.13838  -1.13826
 Alpha  occ. eigenvalues --   -1.13806  -1.13804  -1.13792  -1.13784  -1.13756
 Alpha  occ. eigenvalues --   -1.13735  -1.13701  -1.13314  -1.13305  -1.13279
 Alpha  occ. eigenvalues --   -0.15497  -0.13822  -0.13565  -0.10592
 Alpha virt. eigenvalues --   -0.07941  -0.04979  -0.04447  -0.03511  -0.03411
 Alpha virt. eigenvalues --   -0.02474  -0.02202  -0.01783  -0.01416  -0.00832
 Alpha virt. eigenvalues --   -0.00744  -0.00137   0.00164   0.00227   0.00627

  Beta  occ. eigenvalues --  -38.45038 -38.45008 -38.44851 -38.44349 -38.44331
  Beta  occ. eigenvalues --  -38.44236 -38.43789  -2.20805  -2.20785  -2.20625
  Beta  occ. eigenvalues --   -2.20121  -2.20090  -2.19974  -2.19519  -1.14485
  Beta  occ. eigenvalues --   -1.14480  -1.14472  -1.14458  -1.14431  -1.14420
  Beta  occ. eigenvalues --   -1.14298  -1.14290  -1.14243  -1.13806  -1.13803
  Beta  occ. eigenvalues --   -1.13780  -1.13770  -1.13744  -1.13742  -1.13672
  Beta  occ. eigenvalues --   -1.13654  -1.13622  -1.13218  -1.13211  -1.13189
  Beta  occ. eigenvalues --   -0.14990  -0.13161  -0.12818
  Beta virt. eigenvalues --   -0.08064  -0.07456  -0.04553  -0.04038  -0.03244
  Beta virt. eigenvalues --   -0.03091  -0.02176  -0.02024  -0.01612  -0.01345
  Beta virt. eigenvalues --   -0.00676  -0.00362   0.00040   0.00187   0.00406

 Mulliken charges and spin densities:
               1          2
     1  Na  -0.174437   0.211108
     2  Na  -0.091375   0.093913
     3  Na  -0.048247   0.094009
     4  Na  -0.302176   0.313019
     5  Na   0.566023  -0.016241
     6  Na   0.417976  -0.010746
     7  Na  -0.367763   0.314938
 Sum of Mulliken charges =  -0.00000   1.00000

 Dipole moment (field-independent basis, Debye):
    X=              0.3388    Y=             -0.9584    Z=              0.1933  Tot=              1.0347
 Quadrupole moment (field-independent basis, Debye-Ang):
   XX=            -61.0276   YY=            -69.8311   ZZ=            -70.1365
   XY=             -2.2604   XZ=              1.1401   YZ=              1.4155

 Normal termination of Gaussian 16 at Sun Dec  3 13:39:32 2023.
