 Gaussian 16, Revision B.01,
 Gaussian 16:  ES64L-G16RevB.01 20-Dec-2017

 -------------------------
 #P B3LYP/6-311+g(d) force
 -------------------------

 -----
 DPGEN
 -----
 Symbolic Z-matrix:
 Charge =  0 Multiplicity = 2

                         Standard orientation:
 ---------------------------------------------------------------------
 Center     Atomic      Atomic             Coordinates (Angstroms)
 Number     Number       Type             X           Y           Z
 ---------------------------------------------------------------------
      1         11           0        0.392433   -1.981908    0.142635
      2         11           0       -0.061319    0.135959    1.848395
      3         11           0        2.634799   -0.416133    0.078277
      4         11           0        0.153226   -0.155112   -1.838421
      5         11           0        1.022628    2.081433   -0.112855
      6         11           0       -2.234588   -1.277063   -0.070611
      7         11           0       -1.907180    1.612823   -0.047420
 ---------------------------------------------------------------------

 SCF Done:  E(UB3LYP) =  -1136.09041926     A.U. after   19 cycles

 The electronic state is 2-A.
 Alpha  occ. eigenvalues --  -38.44190 -38.44159 -38.43819 -38.43680 -38.43634
 Alpha  occ. eigenvalues --  -38.43370 -38.43116  -2.20385  -2.20349  -2.19948
 Alpha  occ. eigenvalues --   -2.19869  -2.19706  -2.19425  -2.19210  -1.14318
 Alpha  occ. eigenvalues --   -1.14197  -1.14061  -1.14032  -1.14011  -1.13953
 Alpha  occ. eigenvalues --   -1.13876  -1.13632  -1.13548  -1.13499  -1.13451
 Alpha  occ. eigenvalues --   -1.13447  -1.13375  -1.13304  -1.13186  -1.13160
 Alpha  occ. eigenvalues --   -1.13058  -1.13017  -1.12875  -1.12856  -1.12774
 Alpha  occ. eigenvalues --   -0.21462  -0.13808  -0.12863  -0.12300
 Alpha virt. eigenvalues --   -0.05104  -0.04354  -0.04028  -0.03688  -0.03251
 Alpha virt. eigenvalues --   -0.02981  -0.01096  -0.00476  -0.00113   0.00356
 Alpha virt. eigenvalues --    0.00743   0.00806   0.01016   0.01138   0.01185

  Beta  occ. eigenvalues --  -38.44095 -38.44062 -38.43809 -38.43657 -38.43624
  Beta  occ. eigenvalues --  -38.43360 -38.43103  -2.20215  -2.20175  -2.19920
  Beta  occ. eigenvalues --   -2.19854  -2.19695  -2.19414  -2.19193  -1.14233
  Beta  occ. eigenvalues --   -1.14081  -1.13993  -1.13926  -1.13895  -1.13829
  Beta  occ. eigenvalues --   -1.13797  -1.13606  -1.13544  -1.13444  -1.13437
  Beta  occ. eigenvalues --   -1.13361  -1.13356  -1.13249  -1.13180  -1.13155
  Beta  occ. eigenvalues --   -1.13021  -1.13000  -1.12869  -1.12790  -1.12770
  Beta  occ. eigenvalues --   -0.20612  -0.13446  -0.12495
  Beta virt. eigenvalues --   -0.08112  -0.05133  -0.04344  -0.03999  -0.02731
  Beta virt. eigenvalues --   -0.02321  -0.01893  -0.01022  -0.00435   0.00038
  Beta virt. eigenvalues --    0.00380   0.00716   0.00785   0.01055   0.01145

 Mulliken charges and spin densities:
               1          2
     1  Na   0.105411   0.094715
     2  Na  -0.209936   0.466511
     3  Na   0.075889  -0.070988
     4  Na  -0.204459   0.499795
     5  Na   0.149467   0.039371
     6  Na   0.022116  -0.040169
     7  Na   0.061513   0.010765
 Sum of Mulliken charges =  -0.00000   1.00000

 Dipole moment (field-independent basis, Debye):
    X=             -0.0187    Y=              0.2826    Z=             -0.0212  Tot=              0.2840
 Quadrupole moment (field-independent basis, Debye-Ang):
   XX=            -59.7686   YY=            -70.0848   ZZ=            -67.8938
   XY=              0.1839   XZ=              0.4490   YZ=             -0.4127

 Normal termination of Gaussian 16 at Fri Dec  8 19:45:09 2023.
