 Gaussian 16, Revision B.01,
 Gaussian 16:  ES64L-G16RevB.01 20-Dec-2017

 -------------------------
 #P B3LYP/6-311+g(d) force
 -------------------------

 -----
 DPGEN
 -----
 Symbolic Z-matrix:
 Charge =  0 Multiplicity = 2

                         Standard orientation:
 ---------------------------------------------------------------------
 Center     Atomic      Atomic             Coordinates (Angstroms)
 Number     Number       Type             X           Y           Z
 ---------------------------------------------------------------------
      1         11           0       -0.743646    2.468154    0.482692
      2         11           0       -1.345973   -1.790449   -1.318067
      3         11           0       -3.734815   -0.030847    0.158974
      4         11           0        0.660658    0.952871   -1.795988
      5         11           0       -0.345916   -0.809429    2.078913
      6         11           0        2.922055    1.333127    0.197656
      7         11           0        2.587638   -2.123427    0.195820
 ---------------------------------------------------------------------

 SCF Done:  E(UB3LYP) =  -1136.12568071     A.U. after   21 cycles

 The electronic state is 2-A.
 Alpha  occ. eigenvalues --  -38.45118 -38.44486 -38.44332 -38.43713 -38.43539
 Alpha  occ. eigenvalues --  -38.43465 -38.43162  -2.20892  -2.20329  -2.20151
 Alpha  occ. eigenvalues --   -2.19564  -2.19482  -2.19251  -2.19014  -1.14572
 Alpha  occ. eigenvalues --   -1.14552  -1.14529  -1.14059  -1.13981  -1.13939
 Alpha  occ. eigenvalues --   -1.13827  -1.13801  -1.13756  -1.13260  -1.13207
 Alpha  occ. eigenvalues --   -1.13185  -1.13173  -1.13128  -1.13096  -1.12922
 Alpha  occ. eigenvalues --   -1.12915  -1.12900  -1.12704  -1.12687  -1.12609
 Alpha  occ. eigenvalues --   -0.18114  -0.13321  -0.11583  -0.11220
 Alpha virt. eigenvalues --   -0.06630  -0.05096  -0.04078  -0.03413  -0.03075
 Alpha virt. eigenvalues --   -0.02846  -0.02162  -0.01047  -0.00367  -0.00192
 Alpha virt. eigenvalues --    0.00054   0.00262   0.00419   0.00707   0.00825

  Beta  occ. eigenvalues --  -38.45123 -38.44484 -38.44260 -38.43662 -38.43485
  Beta  occ. eigenvalues --  -38.43468 -38.43148  -2.20903  -2.20327  -2.20019
  Beta  occ. eigenvalues --   -2.19472  -2.19383  -2.19258  -2.18989  -1.14569
  Beta  occ. eigenvalues --   -1.14559  -1.14533  -1.14050  -1.13972  -1.13943
  Beta  occ. eigenvalues --   -1.13739  -1.13705  -1.13659  -1.13190  -1.13136
  Beta  occ. eigenvalues --   -1.13121  -1.13111  -1.13058  -1.13021  -1.12925
  Beta  occ. eigenvalues --   -1.12910  -1.12905  -1.12687  -1.12651  -1.12592
  Beta  occ. eigenvalues --   -0.17366  -0.13192  -0.11398
  Beta virt. eigenvalues --   -0.07292  -0.06457  -0.05057  -0.03595  -0.03105
  Beta virt. eigenvalues --   -0.02430  -0.02103  -0.01829  -0.00951  -0.00279
  Beta virt. eigenvalues --   -0.00037   0.00078   0.00298   0.00576   0.00787

 Mulliken charges and spin densities:
               1          2
     1  Na  -0.251920   0.105392
     2  Na  -0.011992   0.250162
     3  Na   0.176732  -0.110800
     4  Na   0.393944   0.244983
     5  Na  -0.421765   0.604673
     6  Na   0.212973  -0.038460
     7  Na  -0.097973  -0.055950
 Sum of Mulliken charges =  -0.00000   1.00000

 Dipole moment (field-independent basis, Debye):
    X=             -0.5315    Y=              0.1159    Z=              0.3668  Tot=              0.6562
 Quadrupole moment (field-independent basis, Debye-Ang):
   XX=            -51.0309   YY=            -72.6086   ZZ=            -70.8926
   XY=              0.1764   XZ=             -0.1892   YZ=              2.6460

 Normal termination of Gaussian 16 at Thu Dec  7 23:16:56 2023.
