 Gaussian 16, Revision B.01,
 Gaussian 16:  ES64L-G16RevB.01 20-Dec-2017

 -------------------------
 #P B3LYP/6-311+g(d) force
 -------------------------

 -----
 DPGEN
 -----
 Symbolic Z-matrix:
 Charge =  0 Multiplicity = 2

                         Standard orientation:
 ---------------------------------------------------------------------
 Center     Atomic      Atomic             Coordinates (Angstroms)
 Number     Number       Type             X           Y           Z
 ---------------------------------------------------------------------
      1         11           0        2.947024   -0.347973    0.526033
      2         11           0        2.826370    2.962072   -0.230947
      3         11           0       -3.788037    0.594039    0.524087
      4         11           0        5.193606   -2.668921   -0.336289
      5         11           0       -6.735985   -1.161962   -0.446120
      6         11           0        0.115276    1.909088   -0.283967
      7         11           0       -0.558254   -1.286344    0.247203
 ---------------------------------------------------------------------

 SCF Done:  E(UB3LYP) =  -1136.11029667     A.U. after   23 cycles

 The electronic state is 2-A.
 Alpha  occ. eigenvalues --  -38.45662 -38.45345 -38.44631 -38.44298 -38.43957
 Alpha  occ. eigenvalues --  -38.43579 -38.43143  -2.21482  -2.21123  -2.20385
 Alpha  occ. eigenvalues --   -2.20184  -2.19862  -2.19329  -2.19003  -1.15148
 Alpha  occ. eigenvalues --   -1.15140  -1.15071  -1.14763  -1.14762  -1.14731
 Alpha  occ. eigenvalues --   -1.14084  -1.14070  -1.14019  -1.13936  -1.13813
 Alpha  occ. eigenvalues --   -1.13804  -1.13536  -1.13521  -1.13463  -1.13001
 Alpha  occ. eigenvalues --   -1.12999  -1.12982  -1.12713  -1.12691  -1.12593
 Alpha  occ. eigenvalues --   -0.17114  -0.14098  -0.11942  -0.11568
 Alpha virt. eigenvalues --   -0.06853  -0.05192  -0.04628  -0.03913  -0.03050
 Alpha virt. eigenvalues --   -0.02638  -0.01996  -0.01717  -0.01140  -0.00912
 Alpha virt. eigenvalues --   -0.00489  -0.00309  -0.00108   0.00403   0.00492

  Beta  occ. eigenvalues --  -38.45583 -38.45245 -38.44647 -38.44239 -38.43946
  Beta  occ. eigenvalues --  -38.43598 -38.43133  -2.21338  -2.20936  -2.20421
  Beta  occ. eigenvalues --   -2.20076  -2.19849  -2.19365  -2.18985  -1.15051
  Beta  occ. eigenvalues --   -1.15042  -1.14969  -1.14636  -1.14635  -1.14607
  Beta  occ. eigenvalues --   -1.14114  -1.14100  -1.14001  -1.13871  -1.13736
  Beta  occ. eigenvalues --   -1.13731  -1.13525  -1.13514  -1.13414  -1.13025
  Beta  occ. eigenvalues --   -1.13024  -1.13005  -1.12681  -1.12676  -1.12594
  Beta  occ. eigenvalues --   -0.16427  -0.13302  -0.11443
  Beta virt. eigenvalues --   -0.08516  -0.06479  -0.04805  -0.04253  -0.03630
  Beta virt. eigenvalues --   -0.02610  -0.02427  -0.01564  -0.01546  -0.01052
  Beta virt. eigenvalues --   -0.00407  -0.00311  -0.00232   0.00061   0.00492

 Mulliken charges and spin densities:
               1          2
     1  Na  -0.444290   0.065931
     2  Na   1.568325   0.096458
     3  Na  -0.063210   0.055939
     4  Na   0.164304  -0.108632
     5  Na   0.270954   0.402143
     6  Na  -1.514839   0.202463
     7  Na   0.018757   0.285699
 Sum of Mulliken charges =  -0.00000   1.00000

 Dipole moment (field-independent basis, Debye):
    X=             -1.6435    Y=              0.2708    Z=             -0.3352  Tot=              1.6991
 Quadrupole moment (field-independent basis, Debye-Ang):
   XX=            -59.3074   YY=            -65.2075   ZZ=            -72.9903
   XY=              6.3603   XZ=             -0.3323   YZ=              2.0844

 Normal termination of Gaussian 16 at Wed Nov 29 04:15:03 2023.
