 Gaussian 16, Revision B.01,
 Gaussian 16:  ES64L-G16RevB.01 20-Dec-2017

 -------------------------
 #P B3LYP/6-311+g(d) force
 -------------------------

 -----
 DPGEN
 -----
 Symbolic Z-matrix:
 Charge =  0 Multiplicity = 2

                         Standard orientation:
 ---------------------------------------------------------------------
 Center     Atomic      Atomic             Coordinates (Angstroms)
 Number     Number       Type             X           Y           Z
 ---------------------------------------------------------------------
      1         11           0        0.002554   -2.048341    0.415992
      2         11           0       -2.777960   -3.078291   -0.272831
      3         11           0       -3.033638    0.010380   -0.616908
      4         11           0       -2.832285    3.353292   -0.290190
      5         11           0       -0.529573    1.788802    1.023530
      6         11           0        3.139385   -0.721264    0.464907
      7         11           0        6.031516    0.695423   -0.724501
 ---------------------------------------------------------------------

 SCF Done:  E(UB3LYP) =  -1136.12209748     A.U. after   19 cycles

 The electronic state is 2-A.
 Alpha  occ. eigenvalues --  -38.44885 -38.44415 -38.44310 -38.44214 -38.43688
 Alpha  occ. eigenvalues --  -38.43663 -38.43101  -2.20724  -2.20265  -2.20204
 Alpha  occ. eigenvalues --   -2.20013  -2.19577  -2.19547  -2.18893  -1.14409
 Alpha  occ. eigenvalues --   -1.14404  -1.14357  -1.13936  -1.13913  -1.13907
 Alpha  occ. eigenvalues --   -1.13891  -1.13888  -1.13809  -1.13647  -1.13646
 Alpha  occ. eigenvalues --   -1.13627  -1.13333  -1.13250  -1.13244  -1.13196
 Alpha  occ. eigenvalues --   -1.13176  -1.13101  -1.12585  -1.12575  -1.12542
 Alpha  occ. eigenvalues --   -0.17222  -0.13699  -0.13139  -0.11011
 Alpha virt. eigenvalues --   -0.05950  -0.05678  -0.04386  -0.04168  -0.02553
 Alpha virt. eigenvalues --   -0.02052  -0.01922  -0.01752  -0.01424  -0.00775
 Alpha virt. eigenvalues --   -0.00500   0.00119   0.00354   0.00392   0.00646

  Beta  occ. eigenvalues --  -38.44860 -38.44411 -38.44282 -38.44107 -38.43657
  Beta  occ. eigenvalues --  -38.43649 -38.43107  -2.20679  -2.20258  -2.20154
  Beta  occ. eigenvalues --   -2.19813  -2.19528  -2.19514  -2.18914  -1.14380
  Beta  occ. eigenvalues --   -1.14375  -1.14318  -1.13922  -1.13907  -1.13900
  Beta  occ. eigenvalues --   -1.13859  -1.13849  -1.13772  -1.13511  -1.13510
  Beta  occ. eigenvalues --   -1.13496  -1.13305  -1.13214  -1.13206  -1.13167
  Beta  occ. eigenvalues --   -1.13158  -1.13069  -1.12606  -1.12596  -1.12498
  Beta  occ. eigenvalues --   -0.16786  -0.13399  -0.12397
  Beta virt. eigenvalues --   -0.07579  -0.05697  -0.05332  -0.04042  -0.03835
  Beta virt. eigenvalues --   -0.02325  -0.01916  -0.01698  -0.01445  -0.01066
  Beta virt. eigenvalues --   -0.00400  -0.00165   0.00278   0.00468   0.00564

 Mulliken charges and spin densities:
               1          2
     1  Na  -1.069485  -0.027730
     2  Na   0.808417   0.129772
     3  Na  -0.914682   0.287947
     4  Na   1.279081   0.032518
     5  Na  -0.613662   0.084911
     6  Na   0.038767   0.023946
     7  Na   0.471564   0.468636
 Sum of Mulliken charges =  -0.00000   1.00000

 Dipole moment (field-independent basis, Debye):
    X=             -1.9858    Y=              1.1447    Z=             -0.1366  Tot=              2.2961
 Quadrupole moment (field-independent basis, Debye-Ang):
   XX=            -67.4418   YY=            -58.1137   ZZ=            -71.1958
   XY=             -1.0512   XZ=              0.1388   YZ=             -1.2323

 Normal termination of Gaussian 16 at Wed Nov 29 02:45:07 2023.
