 Gaussian 16, Revision B.01,
 Gaussian 16:  ES64L-G16RevB.01 20-Dec-2017

 -------------------------
 #P B3LYP/6-311+g(d) force
 -------------------------

 -----
 DPGEN
 -----
 Symbolic Z-matrix:
 Charge =  0 Multiplicity = 2

                         Standard orientation:
 ---------------------------------------------------------------------
 Center     Atomic      Atomic             Coordinates (Angstroms)
 Number     Number       Type             X           Y           Z
 ---------------------------------------------------------------------
      1         11           0       -0.533138   -0.365731    1.930613
      2         11           0       -2.572993   -1.562681   -0.387372
      3         11           0        1.206516   -2.511069    0.149266
      4         11           0        3.098226    0.339693   -0.025395
      5         11           0        0.908299    2.442934    0.067334
      6         11           0        0.175721   -0.274768   -1.663347
      7         11           0       -2.282631    1.931623   -0.071099
 ---------------------------------------------------------------------

 SCF Done:  E(UB3LYP) =  -1136.13521762     A.U. after   19 cycles

 The electronic state is 2-A.
 Alpha  occ. eigenvalues --  -38.43995 -38.43975 -38.43616 -38.43457 -38.43386
 Alpha  occ. eigenvalues --  -38.43186 -38.43003  -2.19876  -2.19841  -2.19482
 Alpha  occ. eigenvalues --   -2.19358  -2.19329  -2.19210  -2.18932  -1.13586
 Alpha  occ. eigenvalues --   -1.13531  -1.13527  -1.13516  -1.13513  -1.13463
 Alpha  occ. eigenvalues --   -1.13168  -1.13145  -1.13124  -1.13122  -1.13061
 Alpha  occ. eigenvalues --   -1.12982  -1.12968  -1.12951  -1.12927  -1.12881
 Alpha  occ. eigenvalues --   -1.12834  -1.12814  -1.12604  -1.12586  -1.12568
 Alpha  occ. eigenvalues --   -0.19194  -0.13323  -0.12567  -0.10856
 Alpha virt. eigenvalues --   -0.05667  -0.05213  -0.04344  -0.03296  -0.02896
 Alpha virt. eigenvalues --   -0.02487  -0.01535  -0.01064  -0.00201  -0.00007
 Alpha virt. eigenvalues --    0.00006   0.00359   0.00813   0.00904   0.00953

  Beta  occ. eigenvalues --  -38.43994 -38.43963 -38.43612 -38.43447 -38.43299
  Beta  occ. eigenvalues --  -38.43117 -38.42997  -2.19877  -2.19822  -2.19478
  Beta  occ. eigenvalues --   -2.19345  -2.19169  -2.19083  -2.18925  -1.13589
  Beta  occ. eigenvalues --   -1.13524  -1.13514  -1.13502  -1.13476  -1.13454
  Beta  occ. eigenvalues --   -1.13167  -1.13128  -1.13113  -1.13101  -1.13005
  Beta  occ. eigenvalues --   -1.12960  -1.12885  -1.12842  -1.12822  -1.12795
  Beta  occ. eigenvalues --   -1.12753  -1.12724  -1.12597  -1.12581  -1.12538
  Beta  occ. eigenvalues --   -0.18459  -0.13083  -0.12303
  Beta virt. eigenvalues --   -0.06905  -0.05635  -0.05194  -0.04322  -0.02505
  Beta virt. eigenvalues --   -0.02089  -0.01456  -0.01411  -0.01011  -0.00255
  Beta virt. eigenvalues --   -0.00028   0.00136   0.00389   0.00850   0.00922

 Mulliken charges and spin densities:
               1          2
     1  Na  -0.571639   0.678674
     2  Na   0.344807  -0.075157
     3  Na   0.416348  -0.065225
     4  Na   0.083309  -0.004580
     5  Na   0.132676  -0.035820
     6  Na  -0.518355   0.517288
     7  Na   0.112854  -0.015180
 Sum of Mulliken charges =  -0.00000   1.00000

 Dipole moment (field-independent basis, Debye):
    X=             -0.1709    Y=             -0.2713    Z=              0.0908  Tot=              0.3333
 Quadrupole moment (field-independent basis, Debye-Ang):
   XX=            -55.2288   YY=            -64.9116   ZZ=            -73.7634
   XY=             -0.2789   XZ=              1.3309   YZ=              0.1903

 Normal termination of Gaussian 16 at Thu Dec  7 06:31:44 2023.
