 Gaussian 16, Revision B.01,
 Gaussian 16:  ES64L-G16RevB.01 20-Dec-2017

 -------------------------
 #P B3LYP/6-311+g(d) force
 -------------------------

 -----
 DPGEN
 -----
 Symbolic Z-matrix:
 Charge =  0 Multiplicity = 2

                         Standard orientation:
 ---------------------------------------------------------------------
 Center     Atomic      Atomic             Coordinates (Angstroms)
 Number     Number       Type             X           Y           Z
 ---------------------------------------------------------------------
      1         11           0        1.377623    2.152980    0.097619
      2         11           0        4.848109    0.845642   -0.687812
      3         11           0        5.244245   -1.892763    0.585160
      4         11           0        1.656923   -0.915066   -0.358689
      5         11           0       -1.353057    0.532596    0.186928
      6         11           0       -5.015540    0.119522    1.247131
      7         11           0       -6.758302   -0.842911   -1.070337
 ---------------------------------------------------------------------

 SCF Done:  E(UB3LYP) =  -1136.11497836     A.U. after   22 cycles

 The electronic state is 2-A.
 Alpha  occ. eigenvalues --  -38.44781 -38.44762 -38.44292 -38.43849 -38.43695
 Alpha  occ. eigenvalues --  -38.43646 -38.43566  -2.20628  -2.20573  -2.20097
 Alpha  occ. eigenvalues --   -2.19707  -2.19550  -2.19531  -2.19424  -1.14349
 Alpha  occ. eigenvalues --   -1.14324  -1.14257  -1.14222  -1.14219  -1.14213
 Alpha  occ. eigenvalues --   -1.13755  -1.13747  -1.13744  -1.13428  -1.13375
 Alpha  occ. eigenvalues --   -1.13354  -1.13235  -1.13207  -1.13199  -1.13176
 Alpha  occ. eigenvalues --   -1.13170  -1.13136  -1.13092  -1.13085  -1.13011
 Alpha  occ. eigenvalues --   -0.16821  -0.14238  -0.12565  -0.10137
 Alpha virt. eigenvalues --   -0.06916  -0.05318  -0.04566  -0.03667  -0.02740
 Alpha virt. eigenvalues --   -0.02660  -0.02129  -0.01882  -0.00988  -0.00750
 Alpha virt. eigenvalues --   -0.00334   0.00027   0.00251   0.00425   0.00600

  Beta  occ. eigenvalues --  -38.44763 -38.44743 -38.44295 -38.43823 -38.43661
  Beta  occ. eigenvalues --  -38.43594 -38.43544  -2.20595  -2.20539  -2.20105
  Beta  occ. eigenvalues --   -2.19662  -2.19465  -2.19456  -2.19382  -1.14315
  Beta  occ. eigenvalues --   -1.14288  -1.14237  -1.14198  -1.14195  -1.14190
  Beta  occ. eigenvalues --   -1.13763  -1.13754  -1.13737  -1.13388  -1.13348
  Beta  occ. eigenvalues --   -1.13307  -1.13178  -1.13148  -1.13131  -1.13129
  Beta  occ. eigenvalues --   -1.13119  -1.13093  -1.13060  -1.13049  -1.12972
  Beta  occ. eigenvalues --   -0.16214  -0.13996  -0.12409
  Beta virt. eigenvalues --   -0.06894  -0.06240  -0.04974  -0.04311  -0.03361
  Beta virt. eigenvalues --   -0.02640  -0.02274  -0.01998  -0.01411  -0.00882
  Beta virt. eigenvalues --   -0.00454  -0.00119   0.00326   0.00357   0.00529

 Mulliken charges and spin densities:
               1          2
     1  Na   0.246367   0.732092
     2  Na   0.086920  -0.044169
     3  Na   0.399042   0.151218
     4  Na  -0.225811   0.523629
     5  Na  -0.571177  -0.362051
     6  Na   0.002113  -0.081068
     7  Na   0.062546   0.080348
 Sum of Mulliken charges =  -0.00000   1.00000

 Dipole moment (field-independent basis, Debye):
    X=             -0.8752    Y=             -0.1869    Z=             -0.2234  Tot=              0.9224
 Quadrupole moment (field-independent basis, Debye-Ang):
   XX=            -59.0069   YY=            -70.3648   ZZ=            -66.1436
   XY=              0.9633   XZ=              4.8694   YZ=              2.5437

 Normal termination of Gaussian 16 at Tue Nov 28 19:00:33 2023.
