 Gaussian 16, Revision B.01,
 Gaussian 16:  ES64L-G16RevB.01 20-Dec-2017

 -------------------------
 #P B3LYP/6-311+g(d) force
 -------------------------

 -----
 DPGEN
 -----
 Symbolic Z-matrix:
 Charge =  0 Multiplicity = 2

                         Standard orientation:
 ---------------------------------------------------------------------
 Center     Atomic      Atomic             Coordinates (Angstroms)
 Number     Number       Type             X           Y           Z
 ---------------------------------------------------------------------
      1         11           0       -2.409892    2.235197    0.011089
      2         11           0        0.691148   -0.707723    2.094885
      3         11           0        0.126390   -3.212044   -0.574265
      4         11           0       -2.883841   -1.169579    0.207559
      5         11           0       -0.352484    0.195344   -1.380061
      6         11           0        3.440687   -0.347217   -0.359466
      7         11           0        1.387992    3.006022    0.000259
 ---------------------------------------------------------------------

 SCF Done:  E(UB3LYP) =  -1136.13060426     A.U. after   20 cycles

 The electronic state is 2-A.
 Alpha  occ. eigenvalues --  -38.44760 -38.44328 -38.44048 -38.43940 -38.43842
 Alpha  occ. eigenvalues --  -38.43360 -38.43118  -2.20509  -2.20091  -2.19880
 Alpha  occ. eigenvalues --   -2.19739  -2.19668  -2.19195  -2.19068  -1.14187
 Alpha  occ. eigenvalues --   -1.14160  -1.14153  -1.13772  -1.13757  -1.13721
 Alpha  occ. eigenvalues --   -1.13575  -1.13544  -1.13512  -1.13412  -1.13393
 Alpha  occ. eigenvalues --   -1.13376  -1.13363  -1.13326  -1.13294  -1.12859
 Alpha  occ. eigenvalues --   -1.12826  -1.12810  -1.12766  -1.12708  -1.12696
 Alpha  occ. eigenvalues --   -0.17802  -0.12809  -0.12509  -0.09995
 Alpha virt. eigenvalues --   -0.06197  -0.05419  -0.05177  -0.03043  -0.02768
 Alpha virt. eigenvalues --   -0.02072  -0.01710  -0.01503  -0.00934  -0.00877
 Alpha virt. eigenvalues --   -0.00013   0.00314   0.00677   0.00728   0.00770

  Beta  occ. eigenvalues --  -38.44758 -38.44328 -38.44043 -38.43923 -38.43841
  Beta  occ. eigenvalues --  -38.43266 -38.43075  -2.20509  -2.20092  -2.19873
  Beta  occ. eigenvalues --   -2.19709  -2.19667  -2.19021  -2.18991  -1.14169
  Beta  occ. eigenvalues --   -1.14162  -1.14155  -1.13761  -1.13757  -1.13725
  Beta  occ. eigenvalues --   -1.13571  -1.13518  -1.13511  -1.13383  -1.13362
  Beta  occ. eigenvalues --   -1.13359  -1.13358  -1.13316  -1.13295  -1.12744
  Beta  occ. eigenvalues --   -1.12706  -1.12699  -1.12687  -1.12655  -1.12637
  Beta  occ. eigenvalues --   -0.17174  -0.12622  -0.12298
  Beta virt. eigenvalues --   -0.06249  -0.06116  -0.05390  -0.05027  -0.02344
  Beta virt. eigenvalues --   -0.02127  -0.01638  -0.01409  -0.01106  -0.00941
  Beta virt. eigenvalues --   -0.00904   0.00179   0.00379   0.00698   0.00781

 Mulliken charges and spin densities:
               1          2
     1  Na   0.005911  -0.031709
     2  Na  -0.501802   0.708523
     3  Na   0.106425   0.023878
     4  Na   0.181915   0.056118
     5  Na   0.196983   0.392142
     6  Na   0.044252  -0.069693
     7  Na  -0.033684  -0.079260
 Sum of Mulliken charges =  -0.00000   1.00000

 Dipole moment (field-independent basis, Debye):
    X=              0.2335    Y=              0.1270    Z=             -0.0429  Tot=              0.2693
 Quadrupole moment (field-independent basis, Debye-Ang):
   XX=            -55.3327   YY=            -58.4146   ZZ=            -78.1196
   XY=             -0.0535   XZ=             -2.4563   YZ=              1.8935

 Normal termination of Gaussian 16 at Thu Dec  7 10:42:36 2023.
