 Gaussian 16, Revision B.01,
 Gaussian 16:  ES64L-G16RevB.01 20-Dec-2017

 -------------------------
 #P B3LYP/6-311+g(d) force
 -------------------------

 -----
 DPGEN
 -----
 Symbolic Z-matrix:
 Charge =  0 Multiplicity = 2

                         Standard orientation:
 ---------------------------------------------------------------------
 Center     Atomic      Atomic             Coordinates (Angstroms)
 Number     Number       Type             X           Y           Z
 ---------------------------------------------------------------------
      1         11           0        0.534142    2.496584   -0.789930
      2         11           0       -2.689433   -1.963356    0.200100
      3         11           0        0.626115    1.164347    2.606419
      4         11           0       -2.972513    1.504911   -0.297737
      5         11           0        3.472191   -0.259389   -0.517391
      6         11           0        0.211953   -0.722063   -2.017652
      7         11           0        0.817546   -2.221035    0.816192
 ---------------------------------------------------------------------

 SCF Done:  E(UB3LYP) =  -1136.12773926     A.U. after   20 cycles

 The electronic state is 2-A.
 Alpha  occ. eigenvalues --  -38.44877 -38.44720 -38.44503 -38.44159 -38.43449
 Alpha  occ. eigenvalues --  -38.43295 -38.43118  -2.20667  -2.20496  -2.20369
 Alpha  occ. eigenvalues --   -2.19924  -2.19243  -2.19148  -2.18932  -1.14312
 Alpha  occ. eigenvalues --   -1.14293  -1.14282  -1.14170  -1.14151  -1.14141
 Alpha  occ. eigenvalues --   -1.14058  -1.14020  -1.13969  -1.13605  -1.13584
 Alpha  occ. eigenvalues --   -1.13564  -1.12920  -1.12900  -1.12892  -1.12840
 Alpha  occ. eigenvalues --   -1.12816  -1.12758  -1.12629  -1.12601  -1.12554
 Alpha  occ. eigenvalues --   -0.17651  -0.12664  -0.11839  -0.11614
 Alpha virt. eigenvalues --   -0.06210  -0.05030  -0.04500  -0.03494  -0.03288
 Alpha virt. eigenvalues --   -0.03061  -0.01880  -0.00882  -0.00397  -0.00216
 Alpha virt. eigenvalues --   -0.00085   0.00232   0.00472   0.00597   0.00837

  Beta  occ. eigenvalues --  -38.44769 -38.44718 -38.44449 -38.44161 -38.43450
  Beta  occ. eigenvalues --  -38.43276 -38.43110  -2.20494  -2.20466  -2.20270
  Beta  occ. eigenvalues --   -2.19929  -2.19245  -2.19116  -2.18921  -1.14173
  Beta  occ. eigenvalues --   -1.14160  -1.14154  -1.14147  -1.14142  -1.14141
  Beta  occ. eigenvalues --   -1.13997  -1.13946  -1.13895  -1.13602  -1.13586
  Beta  occ. eigenvalues --   -1.13570  -1.12916  -1.12900  -1.12894  -1.12822
  Beta  occ. eigenvalues --   -1.12770  -1.12741  -1.12616  -1.12575  -1.12549
  Beta  occ. eigenvalues --   -0.16932  -0.12548  -0.11618
  Beta virt. eigenvalues --   -0.07623  -0.06102  -0.05008  -0.03884  -0.03105
  Beta virt. eigenvalues --   -0.02689  -0.02157  -0.01790  -0.00869  -0.00269
  Beta virt. eigenvalues --   -0.00091  -0.00058   0.00346   0.00572   0.00745

 Mulliken charges and spin densities:
               1          2
     1  Na  -0.308493  -0.036542
     2  Na   0.079733  -0.079422
     3  Na  -0.140634   0.467530
     4  Na   0.017270  -0.036867
     5  Na   0.388647  -0.046321
     6  Na   0.183527   0.441666
     7  Na  -0.220051   0.289956
 Sum of Mulliken charges =  -0.00000   1.00000

 Dipole moment (field-independent basis, Debye):
    X=              0.5473    Y=              0.0773    Z=              0.0301  Tot=              0.5536
 Quadrupole moment (field-independent basis, Debye-Ang):
   XX=            -56.3556   YY=            -72.9003   ZZ=            -67.1727
   XY=             -0.2622   XZ=             -0.8753   YZ=             -0.1133

 Normal termination of Gaussian 16 at Sun Dec  3 13:34:33 2023.
