 Gaussian 16, Revision B.01,
 Gaussian 16:  ES64L-G16RevB.01 20-Dec-2017

 -------------------------
 #P B3LYP/6-311+g(d) force
 -------------------------

 -----
 DPGEN
 -----
 Symbolic Z-matrix:
 Charge =  0 Multiplicity = 2

                         Standard orientation:
 ---------------------------------------------------------------------
 Center     Atomic      Atomic             Coordinates (Angstroms)
 Number     Number       Type             X           Y           Z
 ---------------------------------------------------------------------
      1         11           0       -1.256710   -1.664384    0.927988
      2         11           0        1.561855    0.702380    1.835123
      3         11           0        1.185125    3.214474   -0.469544
      4         11           0       -2.128364    1.327111   -0.287436
      5         11           0       -4.502679   -0.649442   -0.486506
      6         11           0        2.718105    0.002970   -0.894667
      7         11           0        2.422668   -2.933108   -0.624958
 ---------------------------------------------------------------------

 SCF Done:  E(UB3LYP) =  -1136.12121655     A.U. after   21 cycles

 The electronic state is 2-A.
 Alpha  occ. eigenvalues --  -38.44602 -38.44491 -38.44394 -38.44077 -38.43676
 Alpha  occ. eigenvalues --  -38.43516 -38.43457  -2.20472  -2.20321  -2.20240
 Alpha  occ. eigenvalues --   -2.19899  -2.19606  -2.19344  -2.19276  -1.14198
 Alpha  occ. eigenvalues --   -1.14123  -1.14065  -1.14045  -1.13972  -1.13958
 Alpha  occ. eigenvalues --   -1.13931  -1.13919  -1.13807  -1.13597  -1.13567
 Alpha  occ. eigenvalues --   -1.13485  -1.13321  -1.13300  -1.13244  -1.12991
 Alpha  occ. eigenvalues --   -1.12977  -1.12953  -1.12946  -1.12929  -1.12917
 Alpha  occ. eigenvalues --   -0.17491  -0.14208  -0.12184  -0.10366
 Alpha virt. eigenvalues --   -0.06465  -0.05439  -0.04740  -0.03507  -0.02732
 Alpha virt. eigenvalues --   -0.02387  -0.01780  -0.01269  -0.01104  -0.00752
 Alpha virt. eigenvalues --   -0.00193   0.00229   0.00312   0.00650   0.00688

  Beta  occ. eigenvalues --  -38.44555 -38.44462 -38.44388 -38.44030 -38.43641
  Beta  occ. eigenvalues --  -38.43496 -38.43450  -2.20389  -2.20267  -2.20232
  Beta  occ. eigenvalues --   -2.19815  -2.19543  -2.19309  -2.19262  -1.14140
  Beta  occ. eigenvalues --   -1.14056  -1.14014  -1.14000  -1.13943  -1.13928
  Beta  occ. eigenvalues --   -1.13913  -1.13891  -1.13792  -1.13541  -1.13499
  Beta  occ. eigenvalues --   -1.13424  -1.13278  -1.13252  -1.13195  -1.12969
  Beta  occ. eigenvalues --   -1.12943  -1.12932  -1.12926  -1.12916  -1.12907
  Beta  occ. eigenvalues --   -0.16897  -0.13854  -0.11929
  Beta virt. eigenvalues --   -0.06778  -0.06292  -0.05093  -0.04572  -0.03095
  Beta virt. eigenvalues --   -0.02311  -0.02189  -0.01193  -0.01142  -0.00982
  Beta virt. eigenvalues --   -0.00459   0.00095   0.00325   0.00457   0.00716

 Mulliken charges and spin densities:
               1          2
     1  Na  -0.521021   0.176025
     2  Na  -0.223954   0.308372
     3  Na   0.479115   0.080687
     4  Na  -0.806399   0.037513
     5  Na   0.947425   0.131129
     6  Na  -0.233141   0.365288
     7  Na   0.357974  -0.099013
 Sum of Mulliken charges =  -0.00000   1.00000

 Dipole moment (field-independent basis, Debye):
    X=             -1.2359    Y=             -0.0676    Z=              0.3731  Tot=              1.2928
 Quadrupole moment (field-independent basis, Debye-Ang):
   XX=            -61.8405   YY=            -63.3671   ZZ=            -71.5988
   XY=              5.1834   XZ=              3.5713   YZ=             -0.3899

 Normal termination of Gaussian 16 at Tue Nov 28 23:53:46 2023.
