 Gaussian 16, Revision B.01,
 Gaussian 16:  ES64L-G16RevB.01 20-Dec-2017

 -------------------------
 #P B3LYP/6-311+g(d) force
 -------------------------

 -----
 DPGEN
 -----
 Symbolic Z-matrix:
 Charge =  0 Multiplicity = 2

                         Standard orientation:
 ---------------------------------------------------------------------
 Center     Atomic      Atomic             Coordinates (Angstroms)
 Number     Number       Type             X           Y           Z
 ---------------------------------------------------------------------
      1         11           0       -0.337371    1.358776   -1.010732
      2         11           0        1.853063    3.333384    0.874408
      3         11           0        2.937132    0.552720   -0.570890
      4         11           0        0.561310   -2.160562   -0.137858
      5         11           0       -2.937206   -0.556055   -1.039189
      6         11           0        3.873684   -2.321509    0.809528
      7         11           0       -5.950612   -0.206754    1.074735
 ---------------------------------------------------------------------

 SCF Done:  E(UB3LYP) =  -1136.12386617     A.U. after   19 cycles

 The electronic state is 2-A.
 Alpha  occ. eigenvalues --  -38.44917 -38.44409 -38.43949 -38.43786 -38.43746
 Alpha  occ. eigenvalues --  -38.43701 -38.43394  -2.20704  -2.20218  -2.19839
 Alpha  occ. eigenvalues --   -2.19605  -2.19583  -2.19559  -2.19202  -1.14335
 Alpha  occ. eigenvalues --   -1.14335  -1.14307  -1.13916  -1.13915  -1.13804
 Alpha  occ. eigenvalues --   -1.13564  -1.13530  -1.13447  -1.13286  -1.13268
 Alpha  occ. eigenvalues --   -1.13264  -1.13262  -1.13229  -1.13226  -1.13219
 Alpha  occ. eigenvalues --   -1.13200  -1.13158  -1.12895  -1.12876  -1.12835
 Alpha  occ. eigenvalues --   -0.16990  -0.13760  -0.12353  -0.11351
 Alpha virt. eigenvalues --   -0.05733  -0.05611  -0.04702  -0.03769  -0.02402
 Alpha virt. eigenvalues --   -0.02328  -0.02236  -0.01663  -0.00925  -0.00569
 Alpha virt. eigenvalues --   -0.00547  -0.00101   0.00026   0.00414   0.00648

  Beta  occ. eigenvalues --  -38.44785 -38.44389 -38.43939 -38.43771 -38.43733
  Beta  occ. eigenvalues --  -38.43678 -38.43399  -2.20459  -2.20183  -2.19822
  Beta  occ. eigenvalues --   -2.19579  -2.19543  -2.19535  -2.19219  -1.14169
  Beta  occ. eigenvalues --   -1.14168  -1.14144  -1.13893  -1.13892  -1.13768
  Beta  occ. eigenvalues --   -1.13540  -1.13521  -1.13433  -1.13264  -1.13246
  Beta  occ. eigenvalues --   -1.13243  -1.13240  -1.13213  -1.13206  -1.13203
  Beta  occ. eigenvalues --   -1.13177  -1.13131  -1.12912  -1.12895  -1.12795
  Beta  occ. eigenvalues --   -0.16594  -0.12903  -0.12191
  Beta virt. eigenvalues --   -0.07702  -0.05590  -0.05180  -0.04363  -0.03638
  Beta virt. eigenvalues --   -0.02223  -0.02023  -0.01618  -0.01347  -0.00675
  Beta virt. eigenvalues --   -0.00348  -0.00222   0.00041   0.00215   0.00566

 Mulliken charges and spin densities:
               1          2
     1  Na  -0.527571   0.052583
     2  Na   0.456169   0.114492
     3  Na  -0.220433   0.120447
     4  Na  -0.254548   0.125698
     5  Na   0.057796  -0.160252
     6  Na   0.449792   0.070901
     7  Na   0.038795   0.676131
 Sum of Mulliken charges =  -0.00000   1.00000

 Dipole moment (field-independent basis, Debye):
    X=              0.8674    Y=              0.0127    Z=              0.7887  Tot=              1.1725
 Quadrupole moment (field-independent basis, Debye-Ang):
   XX=            -63.7468   YY=            -66.0221   ZZ=            -67.5911
   XY=             -1.6574   XZ=              0.3985   YZ=              1.0224

 Normal termination of Gaussian 16 at Tue Nov 28 22:27:52 2023.
