 Gaussian 16, Revision B.01,
 Gaussian 16:  ES64L-G16RevB.01 20-Dec-2017

 -------------------------
 #P B3LYP/6-311+g(d) force
 -------------------------

 -----
 DPGEN
 -----
 Symbolic Z-matrix:
 Charge =  0 Multiplicity = 2

                         Standard orientation:
 ---------------------------------------------------------------------
 Center     Atomic      Atomic             Coordinates (Angstroms)
 Number     Number       Type             X           Y           Z
 ---------------------------------------------------------------------
      1         11           0       -0.308125    0.360544   -1.565223
      2         11           0       -2.812228   -1.870091   -0.449107
      3         11           0        1.168348    2.734411   -0.224156
      4         11           0        0.248619   -0.224841    2.058582
      5         11           0        3.320207   -0.364533   -0.322461
      6         11           0        0.719928   -2.800927    0.081577
      7         11           0       -2.336748    2.165437    0.420789
 ---------------------------------------------------------------------

 SCF Done:  E(UB3LYP) =  -1136.13543680     A.U. after   19 cycles

 The electronic state is 2-A.
 Alpha  occ. eigenvalues --  -38.44113 -38.44004 -38.43898 -38.43688 -38.43645
 Alpha  occ. eigenvalues --  -38.43599 -38.43260  -2.19921  -2.19794  -2.19681
 Alpha  occ. eigenvalues --   -2.19539  -2.19518  -2.19440  -2.19211  -1.13596
 Alpha  occ. eigenvalues --   -1.13584  -1.13554  -1.13471  -1.13444  -1.13442
 Alpha  occ. eigenvalues --   -1.13358  -1.13330  -1.13326  -1.13278  -1.13219
 Alpha  occ. eigenvalues --   -1.13200  -1.13162  -1.13146  -1.13132  -1.13111
 Alpha  occ. eigenvalues --   -1.13091  -1.13051  -1.12895  -1.12843  -1.12829
 Alpha  occ. eigenvalues --   -0.18205  -0.12755  -0.12500  -0.10539
 Alpha virt. eigenvalues --   -0.05594  -0.05481  -0.04895  -0.03146  -0.02845
 Alpha virt. eigenvalues --   -0.02393  -0.01615  -0.01377  -0.00538  -0.00503
 Alpha virt. eigenvalues --   -0.00029   0.00325   0.00763   0.00805   0.00851

  Beta  occ. eigenvalues --  -38.44104 -38.44001 -38.43889 -38.43680 -38.43593
  Beta  occ. eigenvalues --  -38.43551 -38.43210  -2.19906  -2.19789  -2.19665
  Beta  occ. eigenvalues --   -2.19529  -2.19434  -2.19344  -2.19118  -1.13585
  Beta  occ. eigenvalues --   -1.13560  -1.13546  -1.13463  -1.13442  -1.13431
  Beta  occ. eigenvalues --   -1.13334  -1.13320  -1.13318  -1.13263  -1.13178
  Beta  occ. eigenvalues --   -1.13156  -1.13136  -1.13094  -1.13057  -1.13051
  Beta  occ. eigenvalues --   -1.13020  -1.12993  -1.12829  -1.12780  -1.12759
  Beta  occ. eigenvalues --   -0.17516  -0.12550  -0.12233
  Beta virt. eigenvalues --   -0.06736  -0.05531  -0.05396  -0.04815  -0.02394
  Beta virt. eigenvalues --   -0.02185  -0.01506  -0.01415  -0.01266  -0.00573
  Beta virt. eigenvalues --   -0.00524   0.00118   0.00366   0.00805   0.00830

 Mulliken charges and spin densities:
               1          2
     1  Na  -0.117802   0.449393
     2  Na   0.002982  -0.033380
     3  Na   0.235017  -0.017738
     4  Na  -0.273934   0.642010
     5  Na  -0.045365  -0.053716
     6  Na   0.157723  -0.024659
     7  Na   0.041379   0.038089
 Sum of Mulliken charges =  -0.00000   1.00000

 Dipole moment (field-independent basis, Debye):
    X=             -0.0893    Y=              0.1608    Z=              0.1401  Tot=              0.2313
 Quadrupole moment (field-independent basis, Debye-Ang):
   XX=            -56.2796   YY=            -61.2641   ZZ=            -75.2749
   XY=             -0.5769   XZ=             -1.4075   YZ=              1.4747

 Normal termination of Gaussian 16 at Fri Dec  8 07:38:31 2023.
