 Gaussian 16, Revision B.01,
 Gaussian 16:  ES64L-G16RevB.01 20-Dec-2017

 -------------------------
 #P B3LYP/6-311+g(d) force
 -------------------------

 -----
 DPGEN
 -----
 Symbolic Z-matrix:
 Charge =  0 Multiplicity = 2

                         Standard orientation:
 ---------------------------------------------------------------------
 Center     Atomic      Atomic             Coordinates (Angstroms)
 Number     Number       Type             X           Y           Z
 ---------------------------------------------------------------------
      1         11           0       -1.721545   -2.028097   -0.290644
      2         11           0       -2.320513    2.742673   -0.135223
      3         11           0        3.611930    1.415793   -0.821820
      4         11           0        0.069515    0.644092    0.093883
      5         11           0       -4.587898   -0.601038    0.232658
      6         11           0        2.196232   -1.688339   -1.222640
      7         11           0        2.752279   -0.485085    2.143787
 ---------------------------------------------------------------------

 SCF Done:  E(UB3LYP) =  -1136.10566468     A.U. after   37 cycles

 The electronic state is 2-A.
 Alpha  occ. eigenvalues --  -38.45653 -38.45161 -38.44540 -38.43940 -38.43821
 Alpha  occ. eigenvalues --  -38.43806 -38.43717  -2.21410  -2.20954  -2.20386
 Alpha  occ. eigenvalues --   -2.19803  -2.19766  -2.19633  -2.19521  -1.15105
 Alpha  occ. eigenvalues --   -1.15096  -1.15065  -1.14622  -1.14612  -1.14560
 Alpha  occ. eigenvalues --   -1.14050  -1.14008  -1.13989  -1.13494  -1.13469
 Alpha  occ. eigenvalues --   -1.13463  -1.13453  -1.13415  -1.13398  -1.13312
 Alpha  occ. eigenvalues --   -1.13304  -1.13249  -1.13179  -1.13174  -1.13131
 Alpha  occ. eigenvalues --   -0.17599  -0.14533  -0.11397  -0.10421
 Alpha virt. eigenvalues --   -0.07710  -0.05925  -0.04200  -0.03293  -0.03053
 Alpha virt. eigenvalues --   -0.02387  -0.01988  -0.01789  -0.01086  -0.00875
 Alpha virt. eigenvalues --   -0.00202  -0.00046   0.00078   0.00430   0.00496

  Beta  occ. eigenvalues --  -38.45712 -38.45106 -38.44439 -38.43900 -38.43807
  Beta  occ. eigenvalues --  -38.43784 -38.43677  -2.21525  -2.20852  -2.20197
  Beta  occ. eigenvalues --   -2.19726  -2.19700  -2.19636  -2.19450  -1.15181
  Beta  occ. eigenvalues --   -1.15162  -1.15135  -1.14546  -1.14541  -1.14492
  Beta  occ. eigenvalues --   -1.13917  -1.13884  -1.13865  -1.13450  -1.13430
  Beta  occ. eigenvalues --   -1.13406  -1.13397  -1.13378  -1.13339  -1.13316
  Beta  occ. eigenvalues --   -1.13301  -1.13233  -1.13127  -1.13118  -1.13087
  Beta  occ. eigenvalues --   -0.17272  -0.13984  -0.10913
  Beta virt. eigenvalues --   -0.07575  -0.06697  -0.05928  -0.03955  -0.03012
  Beta virt. eigenvalues --   -0.02833  -0.01881  -0.01687  -0.01402  -0.00766
  Beta virt. eigenvalues --   -0.00354  -0.00274   0.00017   0.00350   0.00526

 Mulliken charges and spin densities:
               1          2
     1  Na   0.302021   0.204710
     2  Na   0.028463   0.101740
     3  Na   0.732019  -0.277042
     4  Na  -2.137495   0.204963
     5  Na   0.075827   0.048619
     6  Na   0.705709   0.334278
     7  Na   0.293456   0.382731
 Sum of Mulliken charges =  -0.00000   1.00000

 Dipole moment (field-independent basis, Debye):
    X=              0.3723    Y=              0.0140    Z=             -0.4864  Tot=              0.6127
 Quadrupole moment (field-independent basis, Debye-Ang):
   XX=            -51.9182   YY=            -70.7277   ZZ=            -73.4210
   XY=             -0.6648   XZ=             -5.6490   YZ=             -2.9450

 Normal termination of Gaussian 16 at Tue Dec  5 14:36:23 2023.
