 Gaussian 16, Revision B.01,
 Gaussian 16:  ES64L-G16RevB.01 20-Dec-2017

 -------------------------
 #P B3LYP/6-311+g(d) force
 -------------------------

 -----
 DPGEN
 -----
 Symbolic Z-matrix:
 Charge =  0 Multiplicity = 2

                         Standard orientation:
 ---------------------------------------------------------------------
 Center     Atomic      Atomic             Coordinates (Angstroms)
 Number     Number       Type             X           Y           Z
 ---------------------------------------------------------------------
      1         11           0        3.329443    0.062401    1.158542
      2         11           0       -1.201838    2.157792   -0.230389
      3         11           0        2.480445   -2.860502   -0.683897
      4         11           0       -2.492907   -0.562266    2.096746
      5         11           0       -4.185061   -0.342962   -0.958332
      6         11           0       -0.133093   -1.386514   -0.781015
      7         11           0        2.203012    2.932050   -0.601654
 ---------------------------------------------------------------------

 SCF Done:  E(UB3LYP) =  -1136.11402174     A.U. after   26 cycles

 The electronic state is 2-A.
 Alpha  occ. eigenvalues --  -38.46503 -38.44606 -38.44479 -38.44003 -38.43863
 Alpha  occ. eigenvalues --  -38.43327 -38.43315  -2.22243  -2.20391  -2.20304
 Alpha  occ. eigenvalues --   -2.19807  -2.19718  -2.19167  -2.19092  -1.15922
 Alpha  occ. eigenvalues --   -1.15913  -1.15869  -1.14071  -1.14040  -1.14008
 Alpha  occ. eigenvalues --   -1.13959  -1.13956  -1.13904  -1.13504  -1.13495
 Alpha  occ. eigenvalues --   -1.13411  -1.13399  -1.13387  -1.13366  -1.12840
 Alpha  occ. eigenvalues --   -1.12812  -1.12794  -1.12766  -1.12754  -1.12743
 Alpha  occ. eigenvalues --   -0.17019  -0.13996  -0.11868  -0.09921
 Alpha virt. eigenvalues --   -0.07443  -0.05611  -0.05205  -0.03199  -0.02762
 Alpha virt. eigenvalues --   -0.02399  -0.02179  -0.01433  -0.01270  -0.00504
 Alpha virt. eigenvalues --   -0.00236  -0.00079   0.00164   0.00315   0.00515

  Beta  occ. eigenvalues --  -38.46514 -38.44562 -38.44396 -38.43977 -38.43825
  Beta  occ. eigenvalues --  -38.43322 -38.43321  -2.22267  -2.20308  -2.20148
  Beta  occ. eigenvalues --   -2.19760  -2.19652  -2.19161  -2.19104  -1.15942
  Beta  occ. eigenvalues --   -1.15903  -1.15888  -1.14013  -1.13984  -1.13951
  Beta  occ. eigenvalues --   -1.13850  -1.13848  -1.13800  -1.13473  -1.13444
  Beta  occ. eigenvalues --   -1.13376  -1.13355  -1.13334  -1.13327  -1.12824
  Beta  occ. eigenvalues --   -1.12809  -1.12786  -1.12776  -1.12758  -1.12741
  Beta  occ. eigenvalues --   -0.16491  -0.13653  -0.11662
  Beta virt. eigenvalues --   -0.07149  -0.06564  -0.05434  -0.04630  -0.03027
  Beta virt. eigenvalues --   -0.02631  -0.01940  -0.01514  -0.01454  -0.00906
  Beta virt. eigenvalues --   -0.00401  -0.00032   0.00075   0.00367   0.00484

 Mulliken charges and spin densities:
               1          2
     1  Na  -0.180318   0.322269
     2  Na  -0.156437   0.127214
     3  Na   0.941205  -0.142779
     4  Na   0.166611   0.373640
     5  Na   1.016855   0.074785
     6  Na  -1.864430   0.309960
     7  Na   0.076513  -0.065090
 Sum of Mulliken charges =  -0.00000   1.00000

 Dipole moment (field-independent basis, Debye):
    X=             -1.7732    Y=             -0.3438    Z=             -0.6774  Tot=              1.9291
 Quadrupole moment (field-independent basis, Debye-Ang):
   XX=            -49.4615   YY=            -73.4339   ZZ=            -72.2041
   XY=             -1.3982   XZ=              7.3367   YZ=              0.4788

 Normal termination of Gaussian 16 at Sun Dec  3 22:46:41 2023.
