 Gaussian 16, Revision B.01,
 Gaussian 16:  ES64L-G16RevB.01 20-Dec-2017

 -------------------------
 #P B3LYP/6-311+g(d) force
 -------------------------

 -----
 DPGEN
 -----
 Symbolic Z-matrix:
 Charge =  0 Multiplicity = 2

                         Standard orientation:
 ---------------------------------------------------------------------
 Center     Atomic      Atomic             Coordinates (Angstroms)
 Number     Number       Type             X           Y           Z
 ---------------------------------------------------------------------
      1         11           0       -0.209757    0.052396   -1.718044
      2         11           0        2.869811   -1.932193   -0.019886
      3         11           0        0.196413   -0.038378    1.864954
      4         11           0       -2.835898    0.679681   -0.154617
      5         11           0        2.803333    0.793876   -0.290975
      6         11           0       -2.504740   -2.474161    0.087258
      7         11           0       -0.319163    2.918780    0.231311
 ---------------------------------------------------------------------

 SCF Done:  E(UB3LYP) =  -1136.12590466     A.U. after   20 cycles

 The electronic state is 2-A.
 Alpha  occ. eigenvalues --  -38.44477 -38.44253 -38.44068 -38.43733 -38.43657
 Alpha  occ. eigenvalues --  -38.43622 -38.42737  -2.20349  -2.20192  -2.19989
 Alpha  occ. eigenvalues --   -2.19671  -2.19525  -2.19463  -2.18610  -1.14303
 Alpha  occ. eigenvalues --   -1.13972  -1.13968  -1.13832  -1.13815  -1.13722
 Alpha  occ. eigenvalues --   -1.13718  -1.13650  -1.13615  -1.13353  -1.13310
 Alpha  occ. eigenvalues --   -1.13276  -1.13203  -1.13149  -1.13144  -1.13134
 Alpha  occ. eigenvalues --   -1.13116  -1.13105  -1.12279  -1.12267  -1.12262
 Alpha  occ. eigenvalues --   -0.18721  -0.13957  -0.11870  -0.10665
 Alpha virt. eigenvalues --   -0.05995  -0.05551  -0.04283  -0.03658  -0.02497
 Alpha virt. eigenvalues --   -0.02454  -0.01826  -0.01219  -0.00687  -0.00134
 Alpha virt. eigenvalues --    0.00012   0.00335   0.00698   0.00804   0.00901

  Beta  occ. eigenvalues --  -38.44477 -38.44242 -38.44060 -38.43664 -38.43660
  Beta  occ. eigenvalues --  -38.43534 -38.42730  -2.20352  -2.20176  -2.19978
  Beta  occ. eigenvalues --   -2.19544  -2.19470  -2.19363  -2.18603  -1.14305
  Beta  occ. eigenvalues --   -1.13972  -1.13953  -1.13819  -1.13775  -1.13716
  Beta  occ. eigenvalues --   -1.13703  -1.13625  -1.13610  -1.13266  -1.13218
  Beta  occ. eigenvalues --   -1.13185  -1.13141  -1.13110  -1.13109  -1.13095
  Beta  occ. eigenvalues --   -1.13031  -1.13026  -1.12276  -1.12264  -1.12230
  Beta  occ. eigenvalues --   -0.17976  -0.13731  -0.11681
  Beta virt. eigenvalues --   -0.06756  -0.05896  -0.05494  -0.04284  -0.02843
  Beta virt. eigenvalues --   -0.01829  -0.01711  -0.01472  -0.01081  -0.00748
  Beta virt. eigenvalues --   -0.00112   0.00148   0.00357   0.00776   0.00801

 Mulliken charges and spin densities:
               1          2
     1  Na  -0.003636   0.371229
     2  Na  -0.133527  -0.116074
     3  Na  -0.298911   0.605814
     4  Na   0.304744   0.069150
     5  Na   0.334120   0.149497
     6  Na  -0.198184  -0.092512
     7  Na  -0.004607   0.012896
 Sum of Mulliken charges =  -0.00000   1.00000

 Dipole moment (field-independent basis, Debye):
    X=              0.2238    Y=             -0.2704    Z=              0.0424  Tot=              0.3536
 Quadrupole moment (field-independent basis, Debye-Ang):
   XX=            -57.9864   YY=            -62.0416   ZZ=            -75.2540
   XY=             -1.3890   XZ=             -0.6471   YZ=             -0.1877

 Normal termination of Gaussian 16 at Tue Dec  5 17:00:59 2023.
