 Gaussian 16, Revision B.01,
 Gaussian 16:  ES64L-G16RevB.01 20-Dec-2017

 -------------------------
 #P B3LYP/6-311+g(d) force
 -------------------------

 -----
 DPGEN
 -----
 Symbolic Z-matrix:
 Charge =  0 Multiplicity = 2

                         Standard orientation:
 ---------------------------------------------------------------------
 Center     Atomic      Atomic             Coordinates (Angstroms)
 Number     Number       Type             X           Y           Z
 ---------------------------------------------------------------------
      1         11           0        0.213348   -0.304116   -1.927334
      2         11           0        0.224558    2.864477   -0.378549
      3         11           0        3.039780    0.826903    0.020645
      4         11           0        0.018406   -0.003172    1.942167
      5         11           0        1.395281   -2.599197    0.433972
      6         11           0       -2.011455   -1.987107   -0.540730
      7         11           0       -2.879918    1.202212    0.449829
 ---------------------------------------------------------------------

 SCF Done:  E(UB3LYP) =  -1136.13956475     A.U. after   18 cycles

 The electronic state is 2-A.
 Alpha  occ. eigenvalues --  -38.43858 -38.43723 -38.43688 -38.43527 -38.43487
 Alpha  occ. eigenvalues --  -38.43480 -38.43431  -2.19676  -2.19637  -2.19620
 Alpha  occ. eigenvalues --   -2.19358  -2.19354  -2.19340  -2.19266  -1.13356
 Alpha  occ. eigenvalues --   -1.13348  -1.13330  -1.13315  -1.13304  -1.13281
 Alpha  occ. eigenvalues --   -1.13259  -1.13258  -1.13245  -1.13042  -1.13032
 Alpha  occ. eigenvalues --   -1.13025  -1.13020  -1.13004  -1.13003  -1.12990
 Alpha  occ. eigenvalues --   -1.12967  -1.12948  -1.12945  -1.12930  -1.12887
 Alpha  occ. eigenvalues --   -0.18611  -0.12756  -0.12520  -0.11194
 Alpha virt. eigenvalues --   -0.05368  -0.04976  -0.04713  -0.03262  -0.03193
 Alpha virt. eigenvalues --   -0.02874  -0.01341  -0.01081  -0.00302  -0.00128
 Alpha virt. eigenvalues --    0.00012   0.00377   0.00840   0.00897   0.00917

  Beta  occ. eigenvalues --  -38.43857 -38.43642 -38.43607 -38.43521 -38.43476
  Beta  occ. eigenvalues --  -38.43465 -38.43425  -2.19676  -2.19488  -2.19472
  Beta  occ. eigenvalues --   -2.19346  -2.19334  -2.19323  -2.19257  -1.13345
  Beta  occ. eigenvalues --   -1.13342  -1.13310  -1.13239  -1.13210  -1.13173
  Beta  occ. eigenvalues --   -1.13157  -1.13154  -1.13145  -1.13030  -1.13007
  Beta  occ. eigenvalues --   -1.13000  -1.12998  -1.12988  -1.12976  -1.12970
  Beta  occ. eigenvalues --   -1.12952  -1.12934  -1.12932  -1.12918  -1.12880
  Beta  occ. eigenvalues --   -0.17864  -0.12511  -0.12262
  Beta virt. eigenvalues --   -0.07277  -0.05362  -0.04922  -0.04627  -0.02497
  Beta virt. eigenvalues --   -0.02424  -0.01839  -0.01258  -0.00996  -0.00284
  Beta virt. eigenvalues --   -0.00170   0.00106   0.00400   0.00879   0.00903

 Mulliken charges and spin densities:
               1          2
     1  Na  -0.079900   0.532702
     2  Na  -0.033560  -0.033374
     3  Na   0.006289  -0.115960
     4  Na  -0.204365   0.674457
     5  Na   0.114229  -0.052744
     6  Na   0.210601   0.025669
     7  Na  -0.013293  -0.030750
 Sum of Mulliken charges =  -0.00000   1.00000

 Dipole moment (field-independent basis, Debye):
    X=              0.2414    Y=             -0.0120    Z=              0.0518  Tot=              0.2472
 Quadrupole moment (field-independent basis, Debye-Ang):
   XX=            -59.1733   YY=            -63.4274   ZZ=            -71.9837
   XY=             -0.3373   XZ=              0.2987   YZ=             -0.5793

 Normal termination of Gaussian 16 at Tue Dec  5 17:44:52 2023.
