 Gaussian 16, Revision B.01,
 Gaussian 16:  ES64L-G16RevB.01 20-Dec-2017

 -------------------------
 #P B3LYP/6-311+g(d) force
 -------------------------

 -----
 DPGEN
 -----
 Symbolic Z-matrix:
 Charge =  0 Multiplicity = 2

                         Standard orientation:
 ---------------------------------------------------------------------
 Center     Atomic      Atomic             Coordinates (Angstroms)
 Number     Number       Type             X           Y           Z
 ---------------------------------------------------------------------
      1         11           0       -4.796472    1.822311    0.496051
      2         11           0       -1.467751    1.913548    0.035451
      3         11           0        1.761230   -0.182652   -0.585681
      4         11           0       -5.593808   -2.108377    0.752000
      5         11           0        7.209903   -0.561211    1.219319
      6         11           0        5.036798    0.309419   -0.729604
      7         11           0       -2.149901   -1.193038   -1.187536
 ---------------------------------------------------------------------

 SCF Done:  E(UB3LYP) =  -1136.10828935     A.U. after   22 cycles

 The electronic state is 2-A.
 Alpha  occ. eigenvalues --  -38.45617 -38.44792 -38.44484 -38.44426 -38.44390
 Alpha  occ. eigenvalues --  -38.44017 -38.43881  -2.21377  -2.20580  -2.20261
 Alpha  occ. eigenvalues --   -2.20242  -2.20182  -2.19853  -2.19662  -1.15077
 Alpha  occ. eigenvalues --   -1.15065  -1.14957  -1.14266  -1.14230  -1.14228
 Alpha  occ. eigenvalues --   -1.13951  -1.13939  -1.13904  -1.13890  -1.13887
 Alpha  occ. eigenvalues --   -1.13857  -1.13854  -1.13811  -1.13793  -1.13528
 Alpha  occ. eigenvalues --   -1.13507  -1.13503  -1.13344  -1.13340  -1.13270
 Alpha  occ. eigenvalues --   -0.16086  -0.14264  -0.11804  -0.11253
 Alpha virt. eigenvalues --   -0.07440  -0.05251  -0.04329  -0.03515  -0.03012
 Alpha virt. eigenvalues --   -0.02893  -0.02555  -0.01575  -0.01347  -0.00915
 Alpha virt. eigenvalues --   -0.00614  -0.00092  -0.00029   0.00317   0.00364

  Beta  occ. eigenvalues --  -38.45590 -38.44788 -38.44420 -38.44375 -38.44343
  Beta  occ. eigenvalues --  -38.44018 -38.43874  -2.21327  -2.20571  -2.20170
  Beta  occ. eigenvalues --   -2.20122  -2.20099  -2.19855  -2.19649  -1.15041
  Beta  occ. eigenvalues --   -1.15028  -1.14917  -1.14260  -1.14225  -1.14222
  Beta  occ. eigenvalues --   -1.13896  -1.13882  -1.13822  -1.13805  -1.13803
  Beta  occ. eigenvalues --   -1.13800  -1.13781  -1.13746  -1.13712  -1.13527
  Beta  occ. eigenvalues --   -1.13508  -1.13504  -1.13335  -1.13330  -1.13263
  Beta  occ. eigenvalues --   -0.15464  -0.14040  -0.11444
  Beta virt. eigenvalues --   -0.07683  -0.07105  -0.04874  -0.04064  -0.03299
  Beta virt. eigenvalues --   -0.02824  -0.02535  -0.02124  -0.01431  -0.01156
  Beta virt. eigenvalues --   -0.00614  -0.00203  -0.00013   0.00088   0.00395

 Mulliken charges and spin densities:
               1          2
     1  Na   0.378955   0.063739
     2  Na  -0.088566   0.326458
     3  Na  -0.805169  -0.008009
     4  Na   0.107386   0.285491
     5  Na   0.304857   0.016320
     6  Na   0.172301  -0.003951
     7  Na  -0.069764   0.319951
 Sum of Mulliken charges =  -0.00000   1.00000

 Dipole moment (field-independent basis, Debye):
    X=              0.3095    Y=             -0.1433    Z=              0.4093  Tot=              0.5328
 Quadrupole moment (field-independent basis, Debye-Ang):
   XX=            -56.2673   YY=            -69.1247   ZZ=            -68.6513
   XY=             -1.8377   XZ=              3.8877   YZ=             -0.7189

 Normal termination of Gaussian 16 at Sun Dec  3 23:35:20 2023.
