 Gaussian 16, Revision B.01,
 Gaussian 16:  ES64L-G16RevB.01 20-Dec-2017

 -------------------------
 #P B3LYP/6-311+g(d) force
 -------------------------

 -----
 DPGEN
 -----
 Symbolic Z-matrix:
 Charge =  0 Multiplicity = 2

                         Standard orientation:
 ---------------------------------------------------------------------
 Center     Atomic      Atomic             Coordinates (Angstroms)
 Number     Number       Type             X           Y           Z
 ---------------------------------------------------------------------
      1         11           0       -3.000371    1.505697   -0.216133
      2         11           0        0.419626    0.108619   -1.740067
      3         11           0       -3.249241   -1.943748    0.253479
      4         11           0        0.477222    2.983331   -0.150108
      5         11           0        1.833231   -2.754431   -0.705811
      6         11           0        3.462580    0.521617    0.624008
      7         11           0        0.056953   -0.421085    1.934633
 ---------------------------------------------------------------------

 SCF Done:  E(UB3LYP) =  -1136.12583725     A.U. after   21 cycles

 The electronic state is 2-A.
 Alpha  occ. eigenvalues --  -38.45063 -38.44599 -38.44372 -38.44265 -38.43701
 Alpha  occ. eigenvalues --  -38.43592 -38.42940  -2.20836  -2.20398  -2.20149
 Alpha  occ. eigenvalues --   -2.20019  -2.19503  -2.19483  -2.18758  -1.14509
 Alpha  occ. eigenvalues --   -1.14480  -1.14469  -1.14085  -1.14046  -1.14004
 Alpha  occ. eigenvalues --   -1.13841  -1.13814  -1.13780  -1.13691  -1.13673
 Alpha  occ. eigenvalues --   -1.13659  -1.13204  -1.13166  -1.13151  -1.13135
 Alpha  occ. eigenvalues --   -1.13128  -1.13079  -1.12449  -1.12425  -1.12386
 Alpha  occ. eigenvalues --   -0.17548  -0.13111  -0.11759  -0.10588
 Alpha virt. eigenvalues --   -0.06495  -0.05639  -0.04573  -0.03201  -0.02696
 Alpha virt. eigenvalues --   -0.02471  -0.02210  -0.01391  -0.00973  -0.00548
 Alpha virt. eigenvalues --   -0.00159   0.00238   0.00544   0.00650   0.00689

  Beta  occ. eigenvalues --  -38.45036 -38.44537 -38.44372 -38.44267 -38.43672
  Beta  occ. eigenvalues --  -38.43524 -38.42939  -2.20788  -2.20284  -2.20150
  Beta  occ. eigenvalues --   -2.20024  -2.19451  -2.19359  -2.18761  -1.14460
  Beta  occ. eigenvalues --   -1.14449  -1.14438  -1.14005  -1.13970  -1.13914
  Beta  occ. eigenvalues --   -1.13838  -1.13815  -1.13778  -1.13689  -1.13678
  Beta  occ. eigenvalues --   -1.13662  -1.13149  -1.13115  -1.13099  -1.13078
  Beta  occ. eigenvalues --   -1.13046  -1.12990  -1.12445  -1.12425  -1.12378
  Beta  occ. eigenvalues --   -0.16890  -0.12917  -0.11481
  Beta virt. eigenvalues --   -0.06894  -0.06226  -0.05583  -0.04467  -0.02654
  Beta virt. eigenvalues --   -0.02094  -0.02058  -0.01544  -0.01256  -0.00933
  Beta virt. eigenvalues --   -0.00546   0.00004   0.00305   0.00665   0.00731

 Mulliken charges and spin densities:
               1          2
     1  Na  -0.069017  -0.052402
     2  Na   0.342027   0.416138
     3  Na  -0.003452  -0.045792
     4  Na  -0.129819  -0.050570
     5  Na  -0.103567   0.024007
     6  Na   0.118120   0.178170
     7  Na  -0.154292   0.530449
 Sum of Mulliken charges =  -0.00000   1.00000

 Dipole moment (field-independent basis, Debye):
    X=              0.2478    Y=             -0.1253    Z=              0.2522  Tot=              0.3751
 Quadrupole moment (field-independent basis, Debye-Ang):
   XX=            -53.7474   YY=            -65.2097   ZZ=            -75.1264
   XY=              0.3728   XZ=              1.4670   YZ=              1.0157

 Normal termination of Gaussian 16 at Thu Dec  7 17:33:50 2023.
