 Gaussian 16, Revision B.01,
 Gaussian 16:  ES64L-G16RevB.01 20-Dec-2017

 -------------------------
 #P B3LYP/6-311+g(d) force
 -------------------------

 -----
 DPGEN
 -----
 Symbolic Z-matrix:
 Charge =  0 Multiplicity = 2

                         Standard orientation:
 ---------------------------------------------------------------------
 Center     Atomic      Atomic             Coordinates (Angstroms)
 Number     Number       Type             X           Y           Z
 ---------------------------------------------------------------------
      1         11           0       -0.058193   -0.463897   -1.810592
      2         11           0        1.192421   -2.508356    0.363497
      3         11           0        2.929347    0.183920   -0.424502
      4         11           0        0.946513    2.696494    0.235368
      5         11           0       -2.461232   -2.000895   -0.016087
      6         11           0       -2.437516    2.071498   -0.269242
      7         11           0       -0.111340    0.021235    1.921559
 ---------------------------------------------------------------------

 SCF Done:  E(UB3LYP) =  -1136.13789568     A.U. after   19 cycles

 The electronic state is 2-A.
 Alpha  occ. eigenvalues --  -38.43957 -38.43919 -38.43539 -38.43515 -38.43418
 Alpha  occ. eigenvalues --  -38.43378 -38.43343  -2.19748  -2.19732  -2.19450
 Alpha  occ. eigenvalues --   -2.19446  -2.19365  -2.19247  -2.19233  -1.13426
 Alpha  occ. eigenvalues --   -1.13419  -1.13407  -1.13397  -1.13388  -1.13365
 Alpha  occ. eigenvalues --   -1.13202  -1.13153  -1.13114  -1.13082  -1.13061
 Alpha  occ. eigenvalues --   -1.13048  -1.13032  -1.13000  -1.12980  -1.12953
 Alpha  occ. eigenvalues --   -1.12916  -1.12892  -1.12883  -1.12871  -1.12833
 Alpha  occ. eigenvalues --   -0.18780  -0.12764  -0.12686  -0.10935
 Alpha virt. eigenvalues --   -0.05598  -0.05046  -0.04664  -0.03153  -0.03100
 Alpha virt. eigenvalues --   -0.02646  -0.01335  -0.01227  -0.00261  -0.00230
 Alpha virt. eigenvalues --    0.00020   0.00373   0.00843   0.00861   0.00940

  Beta  occ. eigenvalues --  -38.43955 -38.43917 -38.43525 -38.43428 -38.43373
  Beta  occ. eigenvalues --  -38.43345 -38.43334  -2.19747  -2.19731  -2.19428
  Beta  occ. eigenvalues --   -2.19288  -2.19241  -2.19231  -2.19219  -1.13416
  Beta  occ. eigenvalues --   -1.13409  -1.13403  -1.13391  -1.13385  -1.13364
  Beta  occ. eigenvalues --   -1.13169  -1.13091  -1.13065  -1.13022  -1.12974
  Beta  occ. eigenvalues --   -1.12959  -1.12947  -1.12936  -1.12909  -1.12892
  Beta  occ. eigenvalues --   -1.12885  -1.12877  -1.12857  -1.12839  -1.12826
  Beta  occ. eigenvalues --   -0.18028  -0.12528  -0.12446
  Beta virt. eigenvalues --   -0.07002  -0.05604  -0.04958  -0.04641  -0.02367
  Beta virt. eigenvalues --   -0.02336  -0.01603  -0.01246  -0.01158  -0.00286
  Beta virt. eigenvalues --   -0.00255   0.00126   0.00395   0.00844   0.00900

 Mulliken charges and spin densities:
               1          2
     1  Na  -0.263408   0.650825
     2  Na   0.358627   0.019271
     3  Na   0.134857   0.025123
     4  Na   0.086541  -0.029828
     5  Na  -0.007263  -0.150288
     6  Na  -0.117206  -0.111787
     7  Na  -0.192147   0.596684
 Sum of Mulliken charges =  -0.00000   1.00000

 Dipole moment (field-independent basis, Debye):
    X=             -0.4187    Y=             -0.1196    Z=             -0.0063  Tot=              0.4355
 Quadrupole moment (field-independent basis, Debye-Ang):
   XX=            -58.9666   YY=            -61.6426   ZZ=            -73.3294
   XY=              0.2266   XZ=              0.0829   YZ=             -1.0970

 Normal termination of Gaussian 16 at Fri Dec  8 02:04:59 2023.
