 Gaussian 16, Revision B.01,
 Gaussian 16:  ES64L-G16RevB.01 20-Dec-2017

 -------------------------
 #P B3LYP/6-311+g(d) force
 -------------------------

 -----
 DPGEN
 -----
 Symbolic Z-matrix:
 Charge =  0 Multiplicity = 2

                         Standard orientation:
 ---------------------------------------------------------------------
 Center     Atomic      Atomic             Coordinates (Angstroms)
 Number     Number       Type             X           Y           Z
 ---------------------------------------------------------------------
      1         11           0        0.900649   -2.609192   -0.184125
      2         11           0        0.989412    2.924702   -0.244091
      3         11           0       -2.517328    1.533226    0.109332
      4         11           0       -2.339399   -1.990896   -0.291240
      5         11           0       -0.172084    0.111367    2.226522
      6         11           0        3.217518   -0.400464    0.077987
      7         11           0       -0.078768    0.431256   -1.694384
 ---------------------------------------------------------------------

 SCF Done:  E(UB3LYP) =  -1136.13639789     A.U. after   18 cycles

 The electronic state is 2-A.
 Alpha  occ. eigenvalues --  -38.44028 -38.43933 -38.43884 -38.43797 -38.43484
 Alpha  occ. eigenvalues --  -38.43371 -38.43201  -2.19882  -2.19744  -2.19740
 Alpha  occ. eigenvalues --   -2.19629  -2.19342  -2.19327  -2.19080  -1.13542
 Alpha  occ. eigenvalues --   -1.13513  -1.13503  -1.13446  -1.13426  -1.13408
 Alpha  occ. eigenvalues --   -1.13404  -1.13379  -1.13372  -1.13356  -1.13278
 Alpha  occ. eigenvalues --   -1.13245  -1.13023  -1.13004  -1.12993  -1.12972
 Alpha  occ. eigenvalues --   -1.12970  -1.12950  -1.12753  -1.12739  -1.12717
 Alpha  occ. eigenvalues --   -0.18533  -0.12807  -0.12569  -0.11009
 Alpha virt. eigenvalues --   -0.05644  -0.05078  -0.04686  -0.03190  -0.03032
 Alpha virt. eigenvalues --   -0.02875  -0.01365  -0.01226  -0.00392  -0.00191
 Alpha virt. eigenvalues --   -0.00050   0.00358   0.00805   0.00860   0.00931

  Beta  occ. eigenvalues --  -38.43934 -38.43923 -38.43876 -38.43791 -38.43479
  Beta  occ. eigenvalues --  -38.43310 -38.43196  -2.19744  -2.19734  -2.19689
  Beta  occ. eigenvalues --   -2.19621  -2.19321  -2.19230  -2.19074  -1.13449
  Beta  occ. eigenvalues --   -1.13432  -1.13410  -1.13395  -1.13386  -1.13381
  Beta  occ. eigenvalues --   -1.13372  -1.13362  -1.13347  -1.13346  -1.13260
  Beta  occ. eigenvalues --   -1.13243  -1.13009  -1.12978  -1.12959  -1.12935
  Beta  occ. eigenvalues --   -1.12892  -1.12876  -1.12748  -1.12723  -1.12708
  Beta  occ. eigenvalues --   -0.17799  -0.12604  -0.12336
  Beta virt. eigenvalues --   -0.07048  -0.05621  -0.05021  -0.04645  -0.02399
  Beta virt. eigenvalues --   -0.02272  -0.01793  -0.01280  -0.01156  -0.00447
  Beta virt. eigenvalues --   -0.00234   0.00107   0.00390   0.00828   0.00900

 Mulliken charges and spin densities:
               1          2
     1  Na   0.044800  -0.011570
     2  Na   0.191694  -0.083507
     3  Na   0.342970   0.008796
     4  Na   0.138408  -0.012639
     5  Na  -0.574204   0.738661
     6  Na   0.016816  -0.048288
     7  Na  -0.160484   0.408546
 Sum of Mulliken charges =  -0.00000   1.00000

 Dipole moment (field-independent basis, Debye):
    X=              0.0001    Y=              0.3608    Z=              0.2195  Tot=              0.4223
 Quadrupole moment (field-independent basis, Debye-Ang):
   XX=            -58.6914   YY=            -62.8976   ZZ=            -73.1517
   XY=              0.8862   XZ=              0.4756   YZ=              0.7700

 Normal termination of Gaussian 16 at Thu Dec  7 11:50:46 2023.
