 Gaussian 16, Revision B.01,
 Gaussian 16:  ES64L-G16RevB.01 20-Dec-2017

 -------------------------
 #P B3LYP/6-311+g(d) force
 -------------------------

 -----
 DPGEN
 -----
 Symbolic Z-matrix:
 Charge =  0 Multiplicity = 2

                         Standard orientation:
 ---------------------------------------------------------------------
 Center     Atomic      Atomic             Coordinates (Angstroms)
 Number     Number       Type             X           Y           Z
 ---------------------------------------------------------------------
      1         11           0        0.990238    0.315272    1.377817
      2         11           0       -2.037561   -1.726450    1.783333
      3         11           0       -1.259166   -1.521775   -1.543090
      4         11           0        2.423264   -1.810175   -0.930843
      5         11           0        3.978409    0.865917    0.172077
      6         11           0       -3.346600    0.732147   -0.482718
      7         11           0       -0.748585    3.145063   -0.376577
 ---------------------------------------------------------------------

 SCF Done:  E(UB3LYP) =  -1136.12025248     A.U. after   22 cycles

 The electronic state is 2-A.
 Alpha  occ. eigenvalues --  -38.45338 -38.44498 -38.44200 -38.43997 -38.43909
 Alpha  occ. eigenvalues --  -38.43724 -38.43298  -2.21150  -2.20331  -2.20032
 Alpha  occ. eigenvalues --   -2.19866  -2.19752  -2.19572  -2.19053  -1.14822
 Alpha  occ. eigenvalues --   -1.14802  -1.14792  -1.14028  -1.13983  -1.13946
 Alpha  occ. eigenvalues --   -1.13710  -1.13697  -1.13656  -1.13555  -1.13513
 Alpha  occ. eigenvalues --   -1.13497  -1.13402  -1.13398  -1.13380  -1.13240
 Alpha  occ. eigenvalues --   -1.13221  -1.13205  -1.12733  -1.12726  -1.12698
 Alpha  occ. eigenvalues --   -0.17573  -0.14185  -0.11413  -0.10759
 Alpha virt. eigenvalues --   -0.07033  -0.05504  -0.04590  -0.03459  -0.02644
 Alpha virt. eigenvalues --   -0.02464  -0.02279  -0.01411  -0.00724  -0.00483
 Alpha virt. eigenvalues --   -0.00252   0.00178   0.00251   0.00693   0.00739

  Beta  occ. eigenvalues --  -38.45334 -38.44475 -38.44171 -38.43954 -38.43843
  Beta  occ. eigenvalues --  -38.43689 -38.43316  -2.21144  -2.20291  -2.19980
  Beta  occ. eigenvalues --   -2.19788  -2.19629  -2.19508  -2.19086  -1.14809
  Beta  occ. eigenvalues --   -1.14799  -1.14789  -1.13991  -1.13950  -1.13927
  Beta  occ. eigenvalues --   -1.13675  -1.13657  -1.13614  -1.13499  -1.13457
  Beta  occ. eigenvalues --   -1.13435  -1.13317  -1.13315  -1.13293  -1.13200
  Beta  occ. eigenvalues --   -1.13166  -1.13153  -1.12755  -1.12749  -1.12715
  Beta  occ. eigenvalues --   -0.16978  -0.13992  -0.11229
  Beta virt. eigenvalues --   -0.07034  -0.06832  -0.05082  -0.04279  -0.03227
  Beta virt. eigenvalues --   -0.02385  -0.02114  -0.01509  -0.01201  -0.00435
  Beta virt. eigenvalues --   -0.00354  -0.00129   0.00248   0.00381   0.00782

 Mulliken charges and spin densities:
               1          2
     1  Na   0.391318   0.279402
     2  Na  -0.394763   0.152934
     3  Na   0.165535   0.321204
     4  Na  -0.566217   0.106841
     5  Na   0.403632   0.006309
     6  Na   0.364556   0.249149
     7  Na  -0.364061  -0.115839
 Sum of Mulliken charges =  -0.00000   1.00000

 Dipole moment (field-independent basis, Debye):
    X=              1.1703    Y=             -0.1510    Z=             -0.0620  Tot=              1.1816
 Quadrupole moment (field-independent basis, Debye-Ang):
   XX=            -47.8619   YY=            -73.2575   ZZ=            -73.4419
   XY=              4.2962   XZ=             -1.7956   YZ=             -0.8551

 Normal termination of Gaussian 16 at Wed Nov 29 01:36:45 2023.
