 Gaussian 16, Revision B.01,
 Gaussian 16:  ES64L-G16RevB.01 20-Dec-2017

 -------------------------
 #P B3LYP/6-311+g(d) force
 -------------------------

 -----
 DPGEN
 -----
 Symbolic Z-matrix:
 Charge =  0 Multiplicity = 2

                         Standard orientation:
 ---------------------------------------------------------------------
 Center     Atomic      Atomic             Coordinates (Angstroms)
 Number     Number       Type             X           Y           Z
 ---------------------------------------------------------------------
      1         11           0        3.822828   -1.206046   -1.234531
      2         11           0       -1.632907    1.210317    1.583072
      3         11           0        0.995845   -1.150777    1.685196
      4         11           0        2.262376    2.377482    0.370954
      5         11           0        0.058033    0.308131   -1.160165
      6         11           0       -2.074505   -2.170341    0.429938
      7         11           0       -3.431671    0.631234   -1.674465
 ---------------------------------------------------------------------

 SCF Done:  E(UB3LYP) =  -1136.12137655     A.U. after   25 cycles

 The electronic state is 2-A.
 Alpha  occ. eigenvalues --  -38.45250 -38.45000 -38.44069 -38.43807 -38.43575
 Alpha  occ. eigenvalues --  -38.43425 -38.42761  -2.21008  -2.20851  -2.19853
 Alpha  occ. eigenvalues --   -2.19724  -2.19384  -2.19260  -2.18629  -1.14671
 Alpha  occ. eigenvalues --   -1.14648  -1.14610  -1.14551  -1.14483  -1.14469
 Alpha  occ. eigenvalues --   -1.13539  -1.13519  -1.13481  -1.13452  -1.13385
 Alpha  occ. eigenvalues --   -1.13329  -1.13054  -1.13034  -1.13012  -1.12952
 Alpha  occ. eigenvalues --   -1.12919  -1.12880  -1.12342  -1.12299  -1.12229
 Alpha  occ. eigenvalues --   -0.18017  -0.13586  -0.11382  -0.10730
 Alpha virt. eigenvalues --   -0.06432  -0.05561  -0.04826  -0.02944  -0.02594
 Alpha virt. eigenvalues --   -0.02365  -0.02217  -0.01381  -0.01018  -0.00327
 Alpha virt. eigenvalues --    0.00126   0.00170   0.00260   0.00404   0.00591

  Beta  occ. eigenvalues --  -38.45174 -38.44958 -38.44049 -38.43798 -38.43546
  Beta  occ. eigenvalues --  -38.43423 -38.42751  -2.20865  -2.20777  -2.19820
  Beta  occ. eigenvalues --   -2.19710  -2.19332  -2.19257  -2.18615  -1.14571
  Beta  occ. eigenvalues --   -1.14550  -1.14517  -1.14500  -1.14417  -1.14414
  Beta  occ. eigenvalues --   -1.13518  -1.13491  -1.13448  -1.13424  -1.13369
  Beta  occ. eigenvalues --   -1.13326  -1.13014  -1.12995  -1.12982  -1.12949
  Beta  occ. eigenvalues --   -1.12918  -1.12870  -1.12337  -1.12262  -1.12222
  Beta  occ. eigenvalues --   -0.17422  -0.13088  -0.10589
  Beta virt. eigenvalues --   -0.07807  -0.05900  -0.05315  -0.04529  -0.02718
  Beta virt. eigenvalues --   -0.02221  -0.01898  -0.01772  -0.01013  -0.00842
  Beta virt. eigenvalues --   -0.00152   0.00190   0.00288   0.00376   0.00485

 Mulliken charges and spin densities:
               1          2
     1  Na   0.063110   0.277432
     2  Na   0.238384   0.265522
     3  Na   0.062340   0.068304
     4  Na   0.039465   0.171525
     5  Na  -0.598858   0.098888
     6  Na  -0.058162   0.004378
     7  Na   0.253721   0.113951
 Sum of Mulliken charges =  -0.00000   1.00000

 Dipole moment (field-independent basis, Debye):
    X=              0.2686    Y=              0.0914    Z=              0.3234  Tot=              0.4302
 Quadrupole moment (field-independent basis, Debye-Ang):
   XX=            -52.9722   YY=            -71.9453   ZZ=            -68.6822
   XY=              0.3600   XZ=             -1.7901   YZ=              7.7420

 Normal termination of Gaussian 16 at Thu Dec  7 11:22:05 2023.
