 Gaussian 16, Revision B.01,
 Gaussian 16:  ES64L-G16RevB.01 20-Dec-2017

 -------------------------
 #P B3LYP/6-311+g(d) force
 -------------------------

 -----
 DPGEN
 -----
 Symbolic Z-matrix:
 Charge =  0 Multiplicity = 2

                         Standard orientation:
 ---------------------------------------------------------------------
 Center     Atomic      Atomic             Coordinates (Angstroms)
 Number     Number       Type             X           Y           Z
 ---------------------------------------------------------------------
      1         11           0       -2.737745    1.205288   -0.515381
      2         11           0        0.107709    3.282668    0.441533
      3         11           0        3.269397   -0.695091    0.951361
      4         11           0       -5.249963   -1.137711    0.332635
      5         11           0        6.036993   -0.712906   -0.387468
      6         11           0        0.444814   -0.036592   -0.873417
      7         11           0       -1.871206   -1.905656    0.050738
 ---------------------------------------------------------------------

 SCF Done:  E(UB3LYP) =  -1136.11820940     A.U. after   20 cycles

 The electronic state is 2-A.
 Alpha  occ. eigenvalues --  -38.44391 -38.44300 -38.44075 -38.44072 -38.43950
 Alpha  occ. eigenvalues --  -38.43795 -38.43736  -2.20262  -2.20197  -2.19872
 Alpha  occ. eigenvalues --   -2.19868  -2.19754  -2.19657  -2.19615  -1.14006
 Alpha  occ. eigenvalues --   -1.13965  -1.13893  -1.13856  -1.13841  -1.13786
 Alpha  occ. eigenvalues --   -1.13567  -1.13530  -1.13519  -1.13517  -1.13516
 Alpha  occ. eigenvalues --   -1.13484  -1.13417  -1.13415  -1.13375  -1.13353
 Alpha  occ. eigenvalues --   -1.13334  -1.13277  -1.13271  -1.13249  -1.13235
 Alpha  occ. eigenvalues --   -0.17307  -0.13788  -0.12163  -0.11097
 Alpha virt. eigenvalues --   -0.06395  -0.05291  -0.04597  -0.03380  -0.03154
 Alpha virt. eigenvalues --   -0.02201  -0.02005  -0.01441  -0.01088  -0.00856
 Alpha virt. eigenvalues --   -0.00339   0.00028   0.00218   0.00502   0.00682

  Beta  occ. eigenvalues --  -38.44370 -38.44248 -38.44044 -38.44031 -38.43927
  Beta  occ. eigenvalues --  -38.43800 -38.43688  -2.20224  -2.20107  -2.19819
  Beta  occ. eigenvalues --   -2.19785  -2.19712  -2.19628  -2.19575  -1.13965
  Beta  occ. eigenvalues --   -1.13938  -1.13835  -1.13800  -1.13799  -1.13703
  Beta  occ. eigenvalues --   -1.13537  -1.13481  -1.13480  -1.13474  -1.13460
  Beta  occ. eigenvalues --   -1.13433  -1.13387  -1.13383  -1.13350  -1.13323
  Beta  occ. eigenvalues --   -1.13281  -1.13270  -1.13265  -1.13220  -1.13169
  Beta  occ. eigenvalues --   -0.16598  -0.13580  -0.11692
  Beta virt. eigenvalues --   -0.07568  -0.06153  -0.04762  -0.04395  -0.03140
  Beta virt. eigenvalues --   -0.02765  -0.02064  -0.01666  -0.01182  -0.00813
  Beta virt. eigenvalues --   -0.00559  -0.00141   0.00217   0.00378   0.00552

 Mulliken charges and spin densities:
               1          2
     1  Na  -0.169944   0.341870
     2  Na   0.190252   0.235762
     3  Na  -0.204013   0.064010
     4  Na   0.429897   0.109827
     5  Na   0.277553   0.097063
     6  Na  -0.500216  -0.019436
     7  Na  -0.023528   0.170905
 Sum of Mulliken charges =  -0.00000   1.00000

 Dipole moment (field-independent basis, Debye):
    X=             -0.6263    Y=              0.1418    Z=              0.0747  Tot=              0.6465
 Quadrupole moment (field-independent basis, Debye-Ang):
   XX=            -59.1152   YY=            -68.0781   ZZ=            -68.7836
   XY=              4.0522   XZ=             -3.6146   YZ=              0.0917

 Normal termination of Gaussian 16 at Tue Nov 28 23:04:14 2023.
