 Gaussian 16, Revision B.01,
 Gaussian 16:  ES64L-G16RevB.01 20-Dec-2017

 -------------------------
 #P B3LYP/6-311+g(d) force
 -------------------------

 -----
 DPGEN
 -----
 Symbolic Z-matrix:
 Charge =  0 Multiplicity = 2

                         Standard orientation:
 ---------------------------------------------------------------------
 Center     Atomic      Atomic             Coordinates (Angstroms)
 Number     Number       Type             X           Y           Z
 ---------------------------------------------------------------------
      1         11           0       -2.512720    1.587021    1.617804
      2         11           0        0.144531   -1.040152   -1.667112
      3         11           0       -0.492638   -0.428227    1.946953
      4         11           0       -3.154441   -1.613172   -0.973956
      5         11           0        2.825155   -1.951285    0.793033
      6         11           0        3.293957    1.385886   -0.066460
      7         11           0       -0.103844    2.059928   -1.650262
 ---------------------------------------------------------------------

 SCF Done:  E(UB3LYP) =  -1136.11402796     A.U. after   26 cycles

 The electronic state is 2-A.
 Alpha  occ. eigenvalues --  -38.45515 -38.45409 -38.43947 -38.43755 -38.43703
 Alpha  occ. eigenvalues --  -38.43470 -38.43288  -2.21292  -2.21167  -2.19803
 Alpha  occ. eigenvalues --   -2.19581  -2.19560  -2.19297  -2.19149  -1.14962
 Alpha  occ. eigenvalues --   -1.14926  -1.14905  -1.14852  -1.14809  -1.14802
 Alpha  occ. eigenvalues --   -1.13571  -1.13425  -1.13407  -1.13310  -1.13256
 Alpha  occ. eigenvalues --   -1.13232  -1.13207  -1.13201  -1.13187  -1.12968
 Alpha  occ. eigenvalues --   -1.12944  -1.12913  -1.12836  -1.12810  -1.12755
 Alpha  occ. eigenvalues --   -0.17577  -0.13333  -0.11872  -0.11188
 Alpha virt. eigenvalues --   -0.06732  -0.05293  -0.04213  -0.03380  -0.03146
 Alpha virt. eigenvalues --   -0.02644  -0.02342  -0.01339  -0.00473  -0.00395
 Alpha virt. eigenvalues --    0.00040   0.00174   0.00335   0.00587   0.00618

  Beta  occ. eigenvalues --  -38.45452 -38.45397 -38.43902 -38.43732 -38.43686
  Beta  occ. eigenvalues --  -38.43442 -38.43279  -2.21176  -2.21146  -2.19721
  Beta  occ. eigenvalues --   -2.19553  -2.19517  -2.19245  -2.19137  -1.14873
  Beta  occ. eigenvalues --   -1.14849  -1.14836  -1.14828  -1.14796  -1.14780
  Beta  occ. eigenvalues --   -1.13515  -1.13364  -1.13354  -1.13291  -1.13231
  Beta  occ. eigenvalues --   -1.13198  -1.13177  -1.13174  -1.13158  -1.12938
  Beta  occ. eigenvalues --   -1.12902  -1.12872  -1.12815  -1.12787  -1.12751
  Beta  occ. eigenvalues --   -0.16937  -0.13032  -0.10915
  Beta virt. eigenvalues --   -0.08186  -0.06400  -0.04847  -0.03891  -0.03101
  Beta virt. eigenvalues --   -0.02647  -0.02273  -0.02014  -0.00960  -0.00402
  Beta virt. eigenvalues --   -0.00151   0.00197   0.00244   0.00452   0.00630

 Mulliken charges and spin densities:
               1          2
     1  Na   0.523810   0.038877
     2  Na  -0.221344   0.441145
     3  Na  -0.775039   0.266400
     4  Na   0.137653  -0.010747
     5  Na   0.439634  -0.142524
     6  Na   0.119775  -0.034572
     7  Na  -0.224489   0.441421
 Sum of Mulliken charges =  -0.00000   1.00000

 Dipole moment (field-independent basis, Debye):
    X=             -0.1368    Y=              0.1235    Z=             -0.2804  Tot=              0.3355
 Quadrupole moment (field-independent basis, Debye-Ang):
   XX=            -51.9072   YY=            -62.3347   ZZ=            -81.0688
   XY=              2.7281   XZ=              2.5580   YZ=              2.6569

 Normal termination of Gaussian 16 at Sun Dec  3 17:54:08 2023.
