 Gaussian 16, Revision B.01,
 Gaussian 16:  ES64L-G16RevB.01 20-Dec-2017

 -------------------------
 #P B3LYP/6-311+g(d) force
 -------------------------

 -----
 DPGEN
 -----
 Symbolic Z-matrix:
 Charge =  0 Multiplicity = 2

                         Standard orientation:
 ---------------------------------------------------------------------
 Center     Atomic      Atomic             Coordinates (Angstroms)
 Number     Number       Type             X           Y           Z
 ---------------------------------------------------------------------
      1         11           0       -3.953517   -0.620089    0.154818
      2         11           0       -0.773765    1.475562    1.680577
      3         11           0        1.963071   -0.992666    1.819776
      4         11           0       -0.834656   -2.006165   -0.192893
      5         11           0        2.689022   -1.226408   -1.537668
      6         11           0        2.176072    1.896740   -0.035752
      7         11           0       -1.266226    1.473026   -1.888858
 ---------------------------------------------------------------------

 SCF Done:  E(UB3LYP) =  -1136.12849577     A.U. after   22 cycles

 The electronic state is 2-A.
 Alpha  occ. eigenvalues --  -38.44826 -38.44502 -38.43990 -38.43949 -38.43494
 Alpha  occ. eigenvalues --  -38.43480 -38.43315  -2.20593  -2.20291  -2.19854
 Alpha  occ. eigenvalues --   -2.19772  -2.19337  -2.19323  -2.19132  -1.14266
 Alpha  occ. eigenvalues --   -1.14256  -1.14225  -1.13970  -1.13937  -1.13900
 Alpha  occ. eigenvalues --   -1.13531  -1.13518  -1.13478  -1.13430  -1.13425
 Alpha  occ. eigenvalues --   -1.13387  -1.13037  -1.13003  -1.12993  -1.12982
 Alpha  occ. eigenvalues --   -1.12968  -1.12935  -1.12832  -1.12826  -1.12734
 Alpha  occ. eigenvalues --   -0.17892  -0.13453  -0.11319  -0.11196
 Alpha virt. eigenvalues --   -0.06480  -0.05037  -0.04818  -0.03173  -0.02923
 Alpha virt. eigenvalues --   -0.02799  -0.02171  -0.00789  -0.00704  -0.00325
 Alpha virt. eigenvalues --    0.00094   0.00230   0.00318   0.00523   0.00728

  Beta  occ. eigenvalues --  -38.44831 -38.44453 -38.43946 -38.43910 -38.43474
  Beta  occ. eigenvalues --  -38.43456 -38.43307  -2.20603  -2.20199  -2.19774
  Beta  occ. eigenvalues --   -2.19699  -2.19316  -2.19270  -2.19120  -1.14269
  Beta  occ. eigenvalues --   -1.14263  -1.14232  -1.13906  -1.13875  -1.13834
  Beta  occ. eigenvalues --   -1.13475  -1.13465  -1.13412  -1.13375  -1.13374
  Beta  occ. eigenvalues --   -1.13335  -1.13010  -1.12978  -1.12961  -1.12959
  Beta  occ. eigenvalues --   -1.12915  -1.12902  -1.12822  -1.12799  -1.12731
  Beta  occ. eigenvalues --   -0.17152  -0.13291  -0.11036
  Beta virt. eigenvalues --   -0.07520  -0.06262  -0.04760  -0.04347  -0.03020
  Beta virt. eigenvalues --   -0.02358  -0.02111  -0.01885  -0.00767  -0.00289
  Beta virt. eigenvalues --   -0.00219   0.00208   0.00323   0.00350   0.00654

 Mulliken charges and spin densities:
               1          2
     1  Na   0.307826  -0.084512
     2  Na  -0.116694   0.203626
     3  Na   0.253229   0.122373
     4  Na  -0.480820   0.100897
     5  Na   0.023968   0.248892
     6  Na   0.160551   0.169898
     7  Na  -0.148060   0.238826
 Sum of Mulliken charges =  -0.00000   1.00000

 Dipole moment (field-independent basis, Debye):
    X=             -0.7312    Y=              0.1866    Z=             -0.1236  Tot=              0.7647
 Quadrupole moment (field-independent basis, Debye-Ang):
   XX=            -52.0894   YY=            -77.4216   ZZ=            -65.1687
   XY=             -0.4292   XZ=             -1.1122   YZ=             -1.2128

 Normal termination of Gaussian 16 at Sun Dec  3 22:09:46 2023.
