 Gaussian 16, Revision B.01,
 Gaussian 16:  ES64L-G16RevB.01 20-Dec-2017

 -------------------------
 #P B3LYP/6-311+g(d) force
 -------------------------

 -----
 DPGEN
 -----
 Symbolic Z-matrix:
 Charge =  0 Multiplicity = 2

                         Standard orientation:
 ---------------------------------------------------------------------
 Center     Atomic      Atomic             Coordinates (Angstroms)
 Number     Number       Type             X           Y           Z
 ---------------------------------------------------------------------
      1         11           0       -2.849040   -1.190196   -0.526523
      2         11           0        1.407598    1.840388   -1.100420
      3         11           0        0.085470   -0.810620   -2.073488
      4         11           0        3.375959   -0.396579    0.249191
      5         11           0       -1.944326    2.262803    0.202345
      6         11           0       -0.112184    0.749114    2.289130
      7         11           0        0.036523   -2.454911    0.959766
 ---------------------------------------------------------------------

 SCF Done:  E(UB3LYP) =  -1136.13034394     A.U. after   21 cycles

 The electronic state is 2-A.
 Alpha  occ. eigenvalues --  -38.44443 -38.44313 -38.44251 -38.43872 -38.43508
 Alpha  occ. eigenvalues --  -38.43501 -38.42906  -2.20307  -2.20151  -2.20101
 Alpha  occ. eigenvalues --   -2.19701  -2.19399  -2.19350  -2.18750  -1.13967
 Alpha  occ. eigenvalues --   -1.13950  -1.13928  -1.13848  -1.13793  -1.13780
 Alpha  occ. eigenvalues --   -1.13772  -1.13764  -1.13741  -1.13385  -1.13353
 Alpha  occ. eigenvalues --   -1.13330  -1.13111  -1.13043  -1.13040  -1.13007
 Alpha  occ. eigenvalues --   -1.12996  -1.12962  -1.12442  -1.12401  -1.12388
 Alpha  occ. eigenvalues --   -0.18370  -0.12771  -0.12126  -0.11873
 Alpha virt. eigenvalues --   -0.05866  -0.04505  -0.04260  -0.03696  -0.03500
 Alpha virt. eigenvalues --   -0.03365  -0.01577  -0.00693  -0.00323   0.00074
 Alpha virt. eigenvalues --    0.00168   0.00383   0.00600   0.00812   0.00897

  Beta  occ. eigenvalues --  -38.44364 -38.44316 -38.44185 -38.43864 -38.43478
  Beta  occ. eigenvalues --  -38.43471 -38.42907  -2.20161  -2.20108  -2.20031
  Beta  occ. eigenvalues --   -2.19688  -2.19346  -2.19297  -2.18753  -1.13873
  Beta  occ. eigenvalues --   -1.13835  -1.13830  -1.13787  -1.13766  -1.13755
  Beta  occ. eigenvalues --   -1.13747  -1.13707  -1.13684  -1.13361  -1.13344
  Beta  occ. eigenvalues --   -1.13325  -1.13061  -1.13004  -1.12998  -1.12965
  Beta  occ. eigenvalues --   -1.12961  -1.12920  -1.12436  -1.12396  -1.12392
  Beta  occ. eigenvalues --   -0.17543  -0.12606  -0.11715
  Beta virt. eigenvalues --   -0.08089  -0.05653  -0.04459  -0.03827  -0.03116
  Beta virt. eigenvalues --   -0.02994  -0.02405  -0.01481  -0.00641  -0.00113
  Beta virt. eigenvalues --    0.00083   0.00227   0.00410   0.00773   0.00916

 Mulliken charges and spin densities:
               1          2
     1  Na   0.242950  -0.047288
     2  Na   0.199438   0.110113
     3  Na  -0.146681   0.347625
     4  Na   0.047644  -0.087629
     5  Na   0.016912   0.063305
     6  Na  -0.260094   0.357039
     7  Na  -0.100168   0.256835
 Sum of Mulliken charges =  -0.00000   1.00000

 Dipole moment (field-independent basis, Debye):
    X=              0.3004    Y=             -0.3099    Z=              0.1370  Tot=              0.4528
 Quadrupole moment (field-independent basis, Debye-Ang):
   XX=            -58.7686   YY=            -71.9030   ZZ=            -66.1667
   XY=             -0.6199   XZ=              2.4583   YZ=             -2.5446

 Normal termination of Gaussian 16 at Mon Dec  4 03:37:27 2023.
