 Gaussian 16, Revision B.01,
 Gaussian 16:  ES64L-G16RevB.01 20-Dec-2017

 -------------------------
 #P B3LYP/6-311+g(d) force
 -------------------------

 -----
 DPGEN
 -----
 Symbolic Z-matrix:
 Charge =  0 Multiplicity = 2

                         Standard orientation:
 ---------------------------------------------------------------------
 Center     Atomic      Atomic             Coordinates (Angstroms)
 Number     Number       Type             X           Y           Z
 ---------------------------------------------------------------------
      1         11           0       -0.489357   -3.405708   -0.272952
      2         11           0        2.701587   -2.963575    1.177308
      3         11           0       -3.637860   -2.211746   -0.956297
      4         11           0        5.160111    3.079363   -0.839214
      5         11           0        4.208894    0.364069    0.097025
      6         11           0       -4.407000    1.102651    0.071951
      7         11           0       -3.536375    4.034946    0.722177
 ---------------------------------------------------------------------

 SCF Done:  E(UB3LYP) =  -1136.10632412     A.U. after   18 cycles

 The electronic state is 2-A.
 Alpha  occ. eigenvalues --  -38.44935 -38.44888 -38.44754 -38.44586 -38.44439
 Alpha  occ. eigenvalues --  -38.44054 -38.43895  -2.20724  -2.20691  -2.20560
 Alpha  occ. eigenvalues --   -2.20337  -2.20255  -2.19847  -2.19690  -1.14374
 Alpha  occ. eigenvalues --   -1.14363  -1.14346  -1.14345  -1.14327  -1.14326
 Alpha  occ. eigenvalues --   -1.14208  -1.14204  -1.14190  -1.14028  -1.14022
 Alpha  occ. eigenvalues --   -1.13982  -1.13941  -1.13888  -1.13887  -1.13523
 Alpha  occ. eigenvalues --   -1.13520  -1.13505  -1.13360  -1.13359  -1.13339
 Alpha  occ. eigenvalues --   -0.15195  -0.14229  -0.13008  -0.11850
 Alpha virt. eigenvalues --   -0.07070  -0.05216  -0.04043  -0.03416  -0.03165
 Alpha virt. eigenvalues --   -0.02492  -0.02351  -0.01902  -0.01779  -0.01486
 Alpha virt. eigenvalues --   -0.01111  -0.00868  -0.00130   0.00492   0.00662

  Beta  occ. eigenvalues --  -38.44858 -38.44825 -38.44682 -38.44607 -38.44390
  Beta  occ. eigenvalues --  -38.44064 -38.43902  -2.20580  -2.20575  -2.20424
  Beta  occ. eigenvalues --   -2.20382  -2.20163  -2.19871  -2.19708  -1.14276
  Beta  occ. eigenvalues --   -1.14268  -1.14266  -1.14255  -1.14248  -1.14246
  Beta  occ. eigenvalues --   -1.14117  -1.14115  -1.14108  -1.14064  -1.14056
  Beta  occ. eigenvalues --   -1.13968  -1.13881  -1.13826  -1.13825  -1.13542
  Beta  occ. eigenvalues --   -1.13540  -1.13484  -1.13376  -1.13375  -1.13315
  Beta  occ. eigenvalues --   -0.14573  -0.13520  -0.12316
  Beta virt. eigenvalues --   -0.08876  -0.06737  -0.04777  -0.03575  -0.03254
  Beta virt. eigenvalues --   -0.02998  -0.02302  -0.02163  -0.01703  -0.01547
  Beta virt. eigenvalues --   -0.01061  -0.00692  -0.00494   0.00001   0.00478

 Mulliken charges and spin densities:
               1          2
     1  Na  -0.168834  -0.110053
     2  Na  -0.058629   0.277551
     3  Na   0.306608   0.343781
     4  Na   1.129841   0.026539
     5  Na  -1.095246   0.243343
     6  Na  -0.561296  -0.020984
     7  Na   0.447555   0.239822
 Sum of Mulliken charges =  -0.00000   1.00000

 Dipole moment (field-independent basis, Debye):
    X=             -0.0848    Y=              0.7514    Z=              0.0649  Tot=              0.7590
 Quadrupole moment (field-independent basis, Debye-Ang):
   XX=            -68.7069   YY=            -54.2995   ZZ=            -72.1919
   XY=              3.1347   XZ=              1.5530   YZ=             -0.8238

 Normal termination of Gaussian 16 at Sun Dec  3 21:52:54 2023.
