 Gaussian 16, Revision B.01,
 Gaussian 16:  ES64L-G16RevB.01 20-Dec-2017

 -------------------------
 #P B3LYP/6-311+g(d) force
 -------------------------

 -----
 DPGEN
 -----
 Symbolic Z-matrix:
 Charge =  0 Multiplicity = 2

                         Standard orientation:
 ---------------------------------------------------------------------
 Center     Atomic      Atomic             Coordinates (Angstroms)
 Number     Number       Type             X           Y           Z
 ---------------------------------------------------------------------
      1         11           0        1.758190    0.096486   -1.678394
      2         11           0       -0.828854   -1.646943   -1.444470
      3         11           0        2.124963   -2.366918    0.834660
      4         11           0        1.909280    2.588323    0.673969
      5         11           0       -1.176448    1.740444   -0.795417
      6         11           0       -3.291785   -0.141904    0.375083
      7         11           0       -0.495345   -0.269487    2.034569
 ---------------------------------------------------------------------

 SCF Done:  E(UB3LYP) =  -1136.13284618     A.U. after   20 cycles

 The electronic state is 2-A.
 Alpha  occ. eigenvalues --  -38.44320 -38.43706 -38.43692 -38.43655 -38.43601
 Alpha  occ. eigenvalues --  -38.43292 -38.43233  -2.20209  -2.19623  -2.19593
 Alpha  occ. eigenvalues --   -2.19514  -2.19457  -2.19233  -2.19043  -1.13879
 Alpha  occ. eigenvalues --   -1.13853  -1.13832  -1.13394  -1.13311  -1.13277
 Alpha  occ. eigenvalues --   -1.13250  -1.13239  -1.13210  -1.13183  -1.13163
 Alpha  occ. eigenvalues --   -1.13128  -1.13120  -1.13101  -1.13076  -1.12925
 Alpha  occ. eigenvalues --   -1.12902  -1.12833  -1.12707  -1.12702  -1.12679
 Alpha  occ. eigenvalues --   -0.18762  -0.13065  -0.11913  -0.11837
 Alpha virt. eigenvalues --   -0.05314  -0.04944  -0.04557  -0.03429  -0.03278
 Alpha virt. eigenvalues --   -0.03049  -0.01367  -0.00882  -0.00546   0.00298
 Alpha virt. eigenvalues --    0.00334   0.00360   0.00645   0.00792   0.00884

  Beta  occ. eigenvalues --  -38.44240 -38.43689 -38.43657 -38.43640 -38.43563
  Beta  occ. eigenvalues --  -38.43274 -38.43228  -2.20062  -2.19589  -2.19537
  Beta  occ. eigenvalues --   -2.19446  -2.19431  -2.19205  -2.19034  -1.13783
  Beta  occ. eigenvalues --   -1.13745  -1.13724  -1.13322  -1.13302  -1.13251
  Beta  occ. eigenvalues --   -1.13226  -1.13186  -1.13162  -1.13132  -1.13121
  Beta  occ. eigenvalues --   -1.13096  -1.13089  -1.13072  -1.13049  -1.12907
  Beta  occ. eigenvalues --   -1.12853  -1.12818  -1.12699  -1.12688  -1.12673
  Beta  occ. eigenvalues --   -0.17939  -0.12887  -0.11669
  Beta virt. eigenvalues --   -0.07862  -0.05128  -0.04833  -0.04135  -0.03014
  Beta virt. eigenvalues --   -0.02625  -0.02184  -0.01292  -0.00802  -0.00214
  Beta virt. eigenvalues --    0.00286   0.00383   0.00458   0.00802   0.00859

 Mulliken charges and spin densities:
               1          2
     1  Na   0.385669   0.104957
     2  Na  -0.169765   0.252181
     3  Na  -0.107579  -0.037180
     4  Na   0.045903  -0.074932
     5  Na  -0.534639   0.223562
     6  Na   0.966352  -0.061574
     7  Na  -0.585939   0.592986
 Sum of Mulliken charges =  -0.00000   1.00000

 Dipole moment (field-independent basis, Debye):
    X=             -0.2205    Y=             -0.2766    Z=              0.3272  Tot=              0.4819
 Quadrupole moment (field-independent basis, Debye-Ang):
   XX=            -58.7329   YY=            -70.4558   ZZ=            -66.4150
   XY=              0.1661   XZ=              1.4141   YZ=              0.4606

 Normal termination of Gaussian 16 at Wed Nov 29 16:56:19 2023.
