 Gaussian 16, Revision B.01,
 Gaussian 16:  ES64L-G16RevB.01 20-Dec-2017

 -------------------------
 #P B3LYP/6-311+g(d) force
 -------------------------

 -----
 DPGEN
 -----
 Symbolic Z-matrix:
 Charge =  0 Multiplicity = 2

                         Standard orientation:
 ---------------------------------------------------------------------
 Center     Atomic      Atomic             Coordinates (Angstroms)
 Number     Number       Type             X           Y           Z
 ---------------------------------------------------------------------
      1         11           0       -2.845532    2.622657   -0.278054
      2         11           0       -4.992521   -0.072106   -0.556221
      3         11           0       -2.105729   -1.918256    0.642498
      4         11           0        0.569658   -2.060276   -0.974261
      5         11           0        0.215692    0.736535    0.945484
      6         11           0        3.343455   -0.023299    1.273174
      7         11           0        5.814978    0.714745   -1.052621
 ---------------------------------------------------------------------

 SCF Done:  E(UB3LYP) =  -1136.11217745     A.U. after   21 cycles

 The electronic state is 2-A.
 Alpha  occ. eigenvalues --  -38.44586 -38.44319 -38.44314 -38.44272 -38.44196
 Alpha  occ. eigenvalues --  -38.44113 -38.44094  -2.20419  -2.20199  -2.20093
 Alpha  occ. eigenvalues --   -2.20056  -2.19974  -2.19969  -2.19894  -1.14102
 Alpha  occ. eigenvalues --   -1.14089  -1.14056  -1.13877  -1.13873  -1.13801
 Alpha  occ. eigenvalues --   -1.13744  -1.13742  -1.13726  -1.13717  -1.13714
 Alpha  occ. eigenvalues --   -1.13699  -1.13652  -1.13648  -1.13631  -1.13625
 Alpha  occ. eigenvalues --   -1.13589  -1.13584  -1.13573  -1.13560  -1.13525
 Alpha  occ. eigenvalues --   -0.17002  -0.13827  -0.11837  -0.11096
 Alpha virt. eigenvalues --   -0.06824  -0.06094  -0.04268  -0.03509  -0.02919
 Alpha virt. eigenvalues --   -0.02617  -0.02061  -0.01699  -0.01068  -0.00469
 Alpha virt. eigenvalues --   -0.00360  -0.00275   0.00107   0.00374   0.00516

  Beta  occ. eigenvalues --  -38.44584 -38.44256 -38.44252 -38.44250 -38.44169
  Beta  occ. eigenvalues --  -38.44110 -38.44085  -2.20415  -2.20080  -2.20018
  Beta  occ. eigenvalues --   -2.19973  -2.19929  -2.19923  -2.19918  -1.14104
  Beta  occ. eigenvalues --   -1.14082  -1.14046  -1.13806  -1.13796  -1.13712
  Beta  occ. eigenvalues --   -1.13701  -1.13685  -1.13674  -1.13663  -1.13660
  Beta  occ. eigenvalues --   -1.13642  -1.13616  -1.13611  -1.13601  -1.13591
  Beta  occ. eigenvalues --   -1.13589  -1.13583  -1.13552  -1.13534  -1.13519
  Beta  occ. eigenvalues --   -0.16508  -0.13486  -0.11435
  Beta virt. eigenvalues --   -0.07785  -0.06178  -0.05771  -0.04021  -0.03190
  Beta virt. eigenvalues --   -0.02621  -0.02343  -0.01750  -0.01451  -0.00840
  Beta virt. eigenvalues --   -0.00269  -0.00198  -0.00074   0.00249   0.00495

 Mulliken charges and spin densities:
               1          2
     1  Na   0.901013  -0.119275
     2  Na  -0.381832   0.046705
     3  Na   0.623321   0.403892
     4  Na   0.153470  -0.082785
     5  Na  -1.085740   0.397464
     6  Na  -0.267777   0.016034
     7  Na   0.057545   0.337965
 Sum of Mulliken charges =  -0.00000   1.00000

 Dipole moment (field-independent basis, Debye):
    X=             -0.3860    Y=             -0.6739    Z=             -0.6754  Tot=              1.0292
 Quadrupole moment (field-independent basis, Debye-Ang):
   XX=            -67.8479   YY=            -70.8014   ZZ=            -64.9485
   XY=              0.2125   XZ=             -3.3994   YZ=             -0.9358

 Normal termination of Gaussian 16 at Tue Nov 28 23:03:55 2023.
