 Gaussian 16, Revision B.01,
 Gaussian 16:  ES64L-G16RevB.01 20-Dec-2017

 -------------------------
 #P B3LYP/6-311+g(d) force
 -------------------------

 -----
 DPGEN
 -----
 Symbolic Z-matrix:
 Charge =  0 Multiplicity = 2

                         Standard orientation:
 ---------------------------------------------------------------------
 Center     Atomic      Atomic             Coordinates (Angstroms)
 Number     Number       Type             X           Y           Z
 ---------------------------------------------------------------------
      1         11           0        3.001058   -0.785723    0.053460
      2         11           0        0.588521    0.370816   -1.855290
      3         11           0        1.616858    2.161894    0.693048
      4         11           0       -0.482508   -0.216791    1.867756
      5         11           0       -2.012847    2.085917   -0.516606
      6         11           0        0.248365   -2.482494   -0.325779
      7         11           0       -2.959446   -1.133619    0.083411
 ---------------------------------------------------------------------

 SCF Done:  E(UB3LYP) =  -1136.13607429     A.U. after   19 cycles

 The electronic state is 2-A.
 Alpha  occ. eigenvalues --  -38.44010 -38.43968 -38.43601 -38.43527 -38.43490
 Alpha  occ. eigenvalues --  -38.43300 -38.42837  -2.19895  -2.19825  -2.19559
 Alpha  occ. eigenvalues --   -2.19496  -2.19337  -2.19190  -2.18761  -1.13580
 Alpha  occ. eigenvalues --   -1.13550  -1.13550  -1.13532  -1.13479  -1.13464
 Alpha  occ. eigenvalues --   -1.13239  -1.13194  -1.13178  -1.13173  -1.13145
 Alpha  occ. eigenvalues --   -1.13127  -1.13008  -1.12989  -1.12967  -1.12865
 Alpha  occ. eigenvalues --   -1.12847  -1.12809  -1.12457  -1.12432  -1.12371
 Alpha  occ. eigenvalues --   -0.19074  -0.13420  -0.12200  -0.11192
 Alpha virt. eigenvalues --   -0.05721  -0.05070  -0.04098  -0.03522  -0.02998
 Alpha virt. eigenvalues --   -0.02698  -0.01577  -0.00914  -0.00160   0.00046
 Alpha virt. eigenvalues --    0.00060   0.00369   0.00787   0.00922   0.00948

  Beta  occ. eigenvalues --  -38.44006 -38.43967 -38.43526 -38.43477 -38.43453
  Beta  occ. eigenvalues --  -38.43279 -38.42826  -2.19892  -2.19825  -2.19423
  Beta  occ. eigenvalues --   -2.19360  -2.19316  -2.19155  -2.18746  -1.13576
  Beta  occ. eigenvalues --   -1.13554  -1.13522  -1.13520  -1.13471  -1.13464
  Beta  occ. eigenvalues --   -1.13152  -1.13099  -1.13086  -1.13080  -1.13051
  Beta  occ. eigenvalues --   -1.13038  -1.12975  -1.12961  -1.12952  -1.12838
  Beta  occ. eigenvalues --   -1.12806  -1.12780  -1.12449  -1.12397  -1.12356
  Beta  occ. eigenvalues --   -0.18329  -0.13192  -0.11925
  Beta virt. eigenvalues --   -0.07245  -0.05626  -0.05058  -0.04032  -0.02796
  Beta virt. eigenvalues --   -0.02224  -0.01650  -0.01491  -0.00841  -0.00081
  Beta virt. eigenvalues --    0.00029   0.00109   0.00401   0.00881   0.00921

 Mulliken charges and spin densities:
               1          2
     1  Na   0.229571  -0.033979
     2  Na  -0.357657   0.549098
     3  Na   0.167427   0.074051
     4  Na  -0.401575   0.544580
     5  Na   0.035014  -0.029588
     6  Na   0.140370  -0.060420
     7  Na   0.186849  -0.043742
 Sum of Mulliken charges =  -0.00000   1.00000

 Dipole moment (field-independent basis, Debye):
    X=             -0.0579    Y=              0.0293    Z=              0.0240  Tot=              0.0692
 Quadrupole moment (field-independent basis, Debye-Ang):
   XX=            -54.8726   YY=            -68.0330   ZZ=            -71.5732
   XY=              0.0024   XZ=              1.7704   YZ=              0.8193

 Normal termination of Gaussian 16 at Tue Dec  5 20:58:19 2023.
