 Gaussian 16, Revision B.01,
 Gaussian 16:  ES64L-G16RevB.01 20-Dec-2017

 -------------------------
 #P B3LYP/6-311+g(d) force
 -------------------------

 -----
 DPGEN
 -----
 Symbolic Z-matrix:
 Charge =  0 Multiplicity = 2

                         Standard orientation:
 ---------------------------------------------------------------------
 Center     Atomic      Atomic             Coordinates (Angstroms)
 Number     Number       Type             X           Y           Z
 ---------------------------------------------------------------------
      1         11           0        0.004681   -0.234527   -1.549108
      2         11           0       -0.978021   -2.603778    0.275540
      3         11           0       -0.438625    2.945043   -0.313512
      4         11           0       -0.332170    0.313058    2.078998
      5         11           0        2.695203   -1.703091   -0.256726
      6         11           0        2.421323    1.340807    0.125752
      7         11           0       -3.372391   -0.057512   -0.360944
 ---------------------------------------------------------------------

 SCF Done:  E(UB3LYP) =  -1136.13550277     A.U. after   20 cycles

 The electronic state is 2-A.
 Alpha  occ. eigenvalues --  -38.44542 -38.43571 -38.43569 -38.43540 -38.43488
 Alpha  occ. eigenvalues --  -38.43268 -38.43148  -2.20331  -2.19437  -2.19435
 Alpha  occ. eigenvalues --   -2.19429  -2.19411  -2.19151  -2.19116  -1.14006
 Alpha  occ. eigenvalues --   -1.13977  -1.13975  -1.13216  -1.13169  -1.13126
 Alpha  occ. eigenvalues --   -1.13112  -1.13105  -1.13078  -1.13074  -1.13057
 Alpha  occ. eigenvalues --   -1.13053  -1.13037  -1.13028  -1.12995  -1.12838
 Alpha  occ. eigenvalues --   -1.12818  -1.12772  -1.12769  -1.12756  -1.12742
 Alpha  occ. eigenvalues --   -0.18743  -0.13131  -0.12383  -0.10755
 Alpha virt. eigenvalues --   -0.05942  -0.04792  -0.04705  -0.03234  -0.02863
 Alpha virt. eigenvalues --   -0.02487  -0.01784  -0.01042  -0.00313  -0.00215
 Alpha virt. eigenvalues --   -0.00014   0.00335   0.00775   0.00888   0.00901

  Beta  occ. eigenvalues --  -38.44536 -38.43569 -38.43559 -38.43481 -38.43443
  Beta  occ. eigenvalues --  -38.43263 -38.43092  -2.20321  -2.19433  -2.19420
  Beta  occ. eigenvalues --   -2.19403  -2.19252  -2.19109  -2.19050  -1.13983
  Beta  occ. eigenvalues --   -1.13972  -1.13969  -1.13216  -1.13155  -1.13103
  Beta  occ. eigenvalues --   -1.13079  -1.13072  -1.13060  -1.13034  -1.13030
  Beta  occ. eigenvalues --   -1.12994  -1.12974  -1.12930  -1.12914  -1.12798
  Beta  occ. eigenvalues --   -1.12761  -1.12753  -1.12744  -1.12710  -1.12678
  Beta  occ. eigenvalues --   -0.18018  -0.12896  -0.12157
  Beta virt. eigenvalues --   -0.06827  -0.05891  -0.04774  -0.04653  -0.02456
  Beta virt. eigenvalues --   -0.02121  -0.01688  -0.01446  -0.00984  -0.00317
  Beta virt. eigenvalues --   -0.00250   0.00127   0.00369   0.00812   0.00892

 Mulliken charges and spin densities:
               1          2
     1  Na  -0.424051   0.393648
     2  Na   0.201898   0.041191
     3  Na   0.073487  -0.050025
     4  Na  -0.454089   0.596236
     5  Na   0.213646   0.005172
     6  Na   0.343340   0.083650
     7  Na   0.045768  -0.069873
 Sum of Mulliken charges =  -0.00000   1.00000

 Dipole moment (field-independent basis, Debye):
    X=             -0.5804    Y=             -0.0639    Z=              0.1210  Tot=              0.5963
 Quadrupole moment (field-independent basis, Debye-Ang):
   XX=            -55.4423   YY=            -63.3871   ZZ=            -74.2713
   XY=             -1.2149   XZ=              0.8793   YZ=             -1.0320

 Normal termination of Gaussian 16 at Thu Dec  7 17:21:50 2023.
