 Gaussian 16, Revision B.01,
 Gaussian 16:  ES64L-G16RevB.01 20-Dec-2017

 -------------------------
 #P B3LYP/6-311+g(d) force
 -------------------------

 -----
 DPGEN
 -----
 Symbolic Z-matrix:
 Charge =  0 Multiplicity = 2

                         Standard orientation:
 ---------------------------------------------------------------------
 Center     Atomic      Atomic             Coordinates (Angstroms)
 Number     Number       Type             X           Y           Z
 ---------------------------------------------------------------------
      1         11           0       -1.394085   -1.079429    1.566533
      2         11           0        2.710366   -2.121616    0.365699
      3         11           0        1.002273    1.458356    1.372135
      4         11           0       -3.461553   -1.209286   -0.750660
      5         11           0        0.339283   -0.433711   -1.696009
      6         11           0       -2.576328    2.131962   -0.116427
      7         11           0        3.380045    1.253724   -0.741271
 ---------------------------------------------------------------------

 SCF Done:  E(UB3LYP) =  -1136.11786947     A.U. after   26 cycles

 The electronic state is 2-A.
 Alpha  occ. eigenvalues --  -38.44902 -38.44680 -38.44490 -38.44308 -38.44299
 Alpha  occ. eigenvalues --  -38.43766 -38.42852  -2.20725  -2.20518  -2.20327
 Alpha  occ. eigenvalues --   -2.20084  -2.20077  -2.19654  -2.18731  -1.14430
 Alpha  occ. eigenvalues --   -1.14373  -1.14345  -1.14198  -1.14174  -1.14135
 Alpha  occ. eigenvalues --   -1.14032  -1.13968  -1.13963  -1.13759  -1.13758
 Alpha  occ. eigenvalues --   -1.13741  -1.13731  -1.13728  -1.13720  -1.13333
 Alpha  occ. eigenvalues --   -1.13308  -1.13261  -1.12418  -1.12396  -1.12350
 Alpha  occ. eigenvalues --   -0.18066  -0.14312  -0.10829  -0.10682
 Alpha virt. eigenvalues --   -0.06789  -0.06270  -0.04588  -0.02973  -0.02681
 Alpha virt. eigenvalues --   -0.02373  -0.02325  -0.01512  -0.00786  -0.00609
 Alpha virt. eigenvalues --    0.00124   0.00144   0.00253   0.00475   0.00581

  Beta  occ. eigenvalues --  -38.44869 -38.44657 -38.44476 -38.44307 -38.44293
  Beta  occ. eigenvalues --  -38.43707 -38.42814  -2.20664  -2.20477  -2.20301
  Beta  occ. eigenvalues --   -2.20084  -2.20068  -2.19548  -2.18664  -1.14380
  Beta  occ. eigenvalues --   -1.14328  -1.14299  -1.14169  -1.14143  -1.14107
  Beta  occ. eigenvalues --   -1.14012  -1.13948  -1.13940  -1.13757  -1.13749
  Beta  occ. eigenvalues --   -1.13736  -1.13724  -1.13724  -1.13702  -1.13259
  Beta  occ. eigenvalues --   -1.13220  -1.13186  -1.12375  -1.12328  -1.12301
  Beta  occ. eigenvalues --   -0.17379  -0.14074  -0.10568
  Beta virt. eigenvalues --   -0.07016  -0.06588  -0.06196  -0.03929  -0.02872
  Beta virt. eigenvalues --   -0.02472  -0.01868  -0.01536  -0.01364  -0.00590
  Beta virt. eigenvalues --   -0.00378   0.00137   0.00169   0.00360   0.00592

 Mulliken charges and spin densities:
               1          2
     1  Na  -0.138145   0.227340
     2  Na  -0.017190   0.060956
     3  Na  -0.216869   0.153170
     4  Na   0.471409   0.243475
     5  Na  -0.418011   0.222996
     6  Na  -0.149201   0.039226
     7  Na   0.468006   0.052837
 Sum of Mulliken charges =  -0.00000   1.00000

 Dipole moment (field-independent basis, Debye):
    X=              0.1247    Y=             -0.1294    Z=             -0.4987  Tot=              0.5301
 Quadrupole moment (field-independent basis, Debye-Ang):
   XX=            -48.5862   YY=            -74.9904   ZZ=            -70.9156
   XY=              0.1957   XZ=              1.0946   YZ=             -2.9012

 Normal termination of Gaussian 16 at Thu Dec  7 17:29:44 2023.
