 Gaussian 16, Revision B.01,
 Gaussian 16:  ES64L-G16RevB.01 20-Dec-2017

 -------------------------
 #P B3LYP/6-311+g(d) force
 -------------------------

 -----
 DPGEN
 -----
 Symbolic Z-matrix:
 Charge =  0 Multiplicity = 2

                         Standard orientation:
 ---------------------------------------------------------------------
 Center     Atomic      Atomic             Coordinates (Angstroms)
 Number     Number       Type             X           Y           Z
 ---------------------------------------------------------------------
      1         11           0       -0.781967    0.318041   -0.508477
      2         11           0       -7.104136   -0.563836    0.264086
      3         11           0       -3.931164    0.086395   -0.504305
      4         11           0        3.098620    0.003107   -1.522141
      5         11           0        4.813712   -1.583430    0.014833
      6         11           0        1.694343   -0.676996    1.638718
      7         11           0        2.210592    2.416719    0.617287
 ---------------------------------------------------------------------

 SCF Done:  E(UB3LYP) =  -1136.10282933     A.U. after   26 cycles

 The electronic state is 2-A.
 Alpha  occ. eigenvalues --  -38.45890 -38.45357 -38.44245 -38.44239 -38.43739
 Alpha  occ. eigenvalues --  -38.43732 -38.43274  -2.21748  -2.21282  -2.20116
 Alpha  occ. eigenvalues --   -2.20035  -2.19614  -2.19604  -2.19085  -1.15452
 Alpha  occ. eigenvalues --   -1.15418  -1.15357  -1.15039  -1.14944  -1.14901
 Alpha  occ. eigenvalues --   -1.13783  -1.13766  -1.13711  -1.13676  -1.13676
 Alpha  occ. eigenvalues --   -1.13660  -1.13321  -1.13292  -1.13265  -1.13244
 Alpha  occ. eigenvalues --   -1.13235  -1.13218  -1.12754  -1.12753  -1.12749
 Alpha  occ. eigenvalues --   -0.18099  -0.13883  -0.11970  -0.10851
 Alpha virt. eigenvalues --   -0.07852  -0.06132  -0.03774  -0.03175  -0.02807
 Alpha virt. eigenvalues --   -0.02504  -0.02170  -0.02010  -0.01500  -0.01204
 Alpha virt. eigenvalues --   -0.00762  -0.00035   0.00153   0.00369   0.00528

  Beta  occ. eigenvalues --  -38.45881 -38.45367 -38.44171 -38.44165 -38.43741
  Beta  occ. eigenvalues --  -38.43683 -38.43285  -2.21734  -2.21303  -2.19979
  Beta  occ. eigenvalues --   -2.19897  -2.19619  -2.19514  -2.19113  -1.15427
  Beta  occ. eigenvalues --   -1.15408  -1.15341  -1.15053  -1.14938  -1.14915
  Beta  occ. eigenvalues --   -1.13690  -1.13665  -1.13622  -1.13582  -1.13582
  Beta  occ. eigenvalues --   -1.13570  -1.13337  -1.13245  -1.13235  -1.13224
  Beta  occ. eigenvalues --   -1.13200  -1.13158  -1.12779  -1.12777  -1.12720
  Beta  occ. eigenvalues --   -0.17610  -0.13464  -0.11670
  Beta virt. eigenvalues --   -0.07745  -0.07175  -0.05609  -0.03552  -0.03092
  Beta virt. eigenvalues --   -0.02410  -0.02274  -0.01900  -0.01746  -0.01051
  Beta virt. eigenvalues --   -0.00764  -0.00513   0.00140   0.00232   0.00458

 Mulliken charges and spin densities:
               1          2
     1  Na  -1.435432   0.066180
     2  Na   0.469104   0.280406
     3  Na  -0.323225   0.046263
     4  Na   0.635828   0.037463
     5  Na  -0.094319  -0.021188
     6  Na   0.442117   0.206620
     7  Na   0.305927   0.384256
 Sum of Mulliken charges =  -0.00000   1.00000

 Dipole moment (field-independent basis, Debye):
    X=              1.7245    Y=              0.1263    Z=              0.8767  Tot=              1.9387
 Quadrupole moment (field-independent basis, Debye-Ang):
   XX=            -68.1921   YY=            -74.0975   ZZ=            -62.4680
   XY=              1.4184   XZ=              1.1583   YZ=             -1.6092

 Normal termination of Gaussian 16 at Tue Dec  5 15:44:57 2023.
