 Gaussian 16, Revision B.01,
 Gaussian 16:  ES64L-G16RevB.01 20-Dec-2017

 -------------------------
 #P B3LYP/6-311+g(d) force
 -------------------------

 -----
 DPGEN
 -----
 Symbolic Z-matrix:
 Charge =  0 Multiplicity = 2

                         Standard orientation:
 ---------------------------------------------------------------------
 Center     Atomic      Atomic             Coordinates (Angstroms)
 Number     Number       Type             X           Y           Z
 ---------------------------------------------------------------------
      1         11           0        0.222080   -0.312499   -1.567151
      2         11           0       -2.673924    1.648396   -0.239195
      3         11           0        2.191544    0.650713    1.362649
      4         11           0        0.820366    2.968816   -0.210166
      5         11           0       -3.567733   -1.820090   -0.001458
      6         11           0        3.394353   -1.875273   -0.755677
      7         11           0       -0.386685   -1.260062    1.410999
 ---------------------------------------------------------------------

 SCF Done:  E(UB3LYP) =  -1136.12414369     A.U. after   21 cycles

 The electronic state is 2-A.
 Alpha  occ. eigenvalues --  -38.44580 -38.44486 -38.44321 -38.44270 -38.43909
 Alpha  occ. eigenvalues --  -38.43544 -38.42961  -2.20366  -2.20266  -2.20203
 Alpha  occ. eigenvalues --   -2.20062  -2.19796  -2.19475  -2.18801  -1.14057
 Alpha  occ. eigenvalues --   -1.14036  -1.13986  -1.13949  -1.13936  -1.13930
 Alpha  occ. eigenvalues --   -1.13896  -1.13844  -1.13798  -1.13731  -1.13716
 Alpha  occ. eigenvalues --   -1.13679  -1.13507  -1.13457  -1.13389  -1.13153
 Alpha  occ. eigenvalues --   -1.13144  -1.13080  -1.12485  -1.12461  -1.12432
 Alpha  occ. eigenvalues --   -0.18104  -0.13577  -0.11841  -0.10559
 Alpha virt. eigenvalues --   -0.06591  -0.05834  -0.04323  -0.03187  -0.02575
 Alpha virt. eigenvalues --   -0.02360  -0.02156  -0.01690  -0.00660  -0.00301
 Alpha virt. eigenvalues --   -0.00072   0.00145   0.00528   0.00622   0.00674

  Beta  occ. eigenvalues --  -38.44573 -38.44488 -38.44273 -38.44236 -38.43856
  Beta  occ. eigenvalues --  -38.43495 -38.42961  -2.20353  -2.20272  -2.20115
  Beta  occ. eigenvalues --   -2.19999  -2.19700  -2.19387  -2.18804  -1.14039
  Beta  occ. eigenvalues --   -1.14028  -1.13982  -1.13938  -1.13928  -1.13899
  Beta  occ. eigenvalues --   -1.13881  -1.13786  -1.13728  -1.13689  -1.13661
  Beta  occ. eigenvalues --   -1.13639  -1.13442  -1.13372  -1.13324  -1.13095
  Beta  occ. eigenvalues --   -1.13072  -1.13012  -1.12485  -1.12451  -1.12431
  Beta  occ. eigenvalues --   -0.17480  -0.13348  -0.11574
  Beta virt. eigenvalues --   -0.06863  -0.06398  -0.05638  -0.04034  -0.02830
  Beta virt. eigenvalues --   -0.02320  -0.01869  -0.01595  -0.01274  -0.00608
  Beta virt. eigenvalues --   -0.00068   0.00004   0.00202   0.00623   0.00677

 Mulliken charges and spin densities:
               1          2
     1  Na  -0.431320   0.595272
     2  Na   0.001573   0.042801
     3  Na   0.517554   0.275229
     4  Na  -0.151206  -0.077233
     5  Na   0.342010  -0.045445
     6  Na  -0.042277   0.040252
     7  Na  -0.236334   0.169124
 Sum of Mulliken charges =  -0.00000   1.00000

 Dipole moment (field-independent basis, Debye):
    X=             -0.7416    Y=             -0.4070    Z=             -0.1396  Tot=              0.8574
 Quadrupole moment (field-independent basis, Debye-Ang):
   XX=            -50.5531   YY=            -67.8100   ZZ=            -74.5673
   XY=              0.5868   XZ=              1.1731   YZ=              1.2513

 Normal termination of Gaussian 16 at Thu Dec  7 15:49:10 2023.
