 Gaussian 16, Revision B.01,
 Gaussian 16:  ES64L-G16RevB.01 20-Dec-2017

 -------------------------
 #P B3LYP/6-311+g(d) force
 -------------------------

 -----
 DPGEN
 -----
 Symbolic Z-matrix:
 Charge =  0 Multiplicity = 2

                         Standard orientation:
 ---------------------------------------------------------------------
 Center     Atomic      Atomic             Coordinates (Angstroms)
 Number     Number       Type             X           Y           Z
 ---------------------------------------------------------------------
      1         11           0       -3.911407   -0.621221   -0.505929
      2         11           0        0.499204   -3.192054    1.315053
      3         11           0        3.214607    2.169104   -0.105957
      4         11           0       -2.773305    2.374552    0.999532
      5         11           0        3.388431   -1.555637   -0.098775
      6         11           0        0.460390    3.565580   -0.445473
      7         11           0       -0.877920   -2.740324   -1.158451
 ---------------------------------------------------------------------

 SCF Done:  E(UB3LYP) =  -1136.10514476     A.U. after   24 cycles

 The electronic state is 2-A.
 Alpha  occ. eigenvalues --  -38.45277 -38.44912 -38.44660 -38.44468 -38.44354
 Alpha  occ. eigenvalues --  -38.43717 -38.43685  -2.21109  -2.20662  -2.20426
 Alpha  occ. eigenvalues --   -2.20320  -2.20150  -2.19520  -2.19505  -1.14879
 Alpha  occ. eigenvalues --   -1.14755  -1.14726  -1.14345  -1.14326  -1.14302
 Alpha  occ. eigenvalues --   -1.14098  -1.14080  -1.14051  -1.13994  -1.13946
 Alpha  occ. eigenvalues --   -1.13925  -1.13845  -1.13820  -1.13795  -1.13179
 Alpha  occ. eigenvalues --   -1.13161  -1.13160  -1.13155  -1.13136  -1.13135
 Alpha  occ. eigenvalues --   -0.15930  -0.13784  -0.13339  -0.10103
 Alpha virt. eigenvalues --   -0.07585  -0.05290  -0.04175  -0.03739  -0.03120
 Alpha virt. eigenvalues --   -0.02433  -0.02137  -0.01493  -0.01381  -0.01043
 Alpha virt. eigenvalues --   -0.00366   0.00074   0.00213   0.00342   0.00587

  Beta  occ. eigenvalues --  -38.45274 -38.44907 -38.44629 -38.44426 -38.44342
  Beta  occ. eigenvalues --  -38.43640 -38.43635  -2.21109  -2.20657  -2.20369
  Beta  occ. eigenvalues --   -2.20243  -2.20136  -2.19424  -2.19366  -1.14865
  Beta  occ. eigenvalues --   -1.14760  -1.14709  -1.14345  -1.14325  -1.14275
  Beta  occ. eigenvalues --   -1.14061  -1.14044  -1.14001  -1.13943  -1.13890
  Beta  occ. eigenvalues --   -1.13879  -1.13828  -1.13817  -1.13751  -1.13107
  Beta  occ. eigenvalues --   -1.13101  -1.13073  -1.13073  -1.13057  -1.13033
  Beta  occ. eigenvalues --   -0.15488  -0.13186  -0.12547
  Beta virt. eigenvalues --   -0.07703  -0.06913  -0.05090  -0.03787  -0.03498
  Beta virt. eigenvalues --   -0.02683  -0.02045  -0.01889  -0.01354  -0.01242
  Beta virt. eigenvalues --   -0.00869   0.00001   0.00117   0.00275   0.00511

 Mulliken charges and spin densities:
               1          2
     1  Na   0.080446   0.014105
     2  Na   0.257029   0.006384
     3  Na   0.248046  -0.009409
     4  Na  -0.042159   0.166205
     5  Na  -0.186690   0.454117
     6  Na  -0.314774   0.187826
     7  Na  -0.041898   0.180771
 Sum of Mulliken charges =  -0.00000   1.00000

 Dipole moment (field-independent basis, Debye):
    X=             -0.8480    Y=             -0.9782    Z=              0.3215  Tot=              1.3340
 Quadrupole moment (field-independent basis, Debye-Ang):
   XX=            -70.6359   YY=            -68.7622   ZZ=            -65.0623
   XY=              0.9822   XZ=              1.1333   YZ=             -0.0524

 Normal termination of Gaussian 16 at Sun Dec  3 14:38:18 2023.
