 Gaussian 16, Revision B.01,
 Gaussian 16:  ES64L-G16RevB.01 20-Dec-2017

 -------------------------
 #P B3LYP/6-311+g(d) force
 -------------------------

 -----
 DPGEN
 -----
 Symbolic Z-matrix:
 Charge =  0 Multiplicity = 2

                         Standard orientation:
 ---------------------------------------------------------------------
 Center     Atomic      Atomic             Coordinates (Angstroms)
 Number     Number       Type             X           Y           Z
 ---------------------------------------------------------------------
      1         11           0        3.218594   -0.067041   -0.064561
      2         11           0       -0.111755   -0.031368    2.211807
      3         11           0       -0.141277   -0.016435   -1.681023
      4         11           0        0.815543    2.970391   -0.082170
      5         11           0        1.061970   -2.857800   -0.176761
      6         11           0       -2.186759    1.764124   -0.167008
      7         11           0       -2.656315   -1.761870   -0.040285
 ---------------------------------------------------------------------

 SCF Done:  E(UB3LYP) =  -1136.13794036     A.U. after   19 cycles

 The electronic state is 2-A.
 Alpha  occ. eigenvalues --  -38.43910 -38.43894 -38.43821 -38.43701 -38.43544
 Alpha  occ. eigenvalues --  -38.43462 -38.43336  -2.19743  -2.19699  -2.19635
 Alpha  occ. eigenvalues --   -2.19517  -2.19382  -2.19370  -2.19299  -1.13401
 Alpha  occ. eigenvalues --   -1.13376  -1.13373  -1.13364  -1.13358  -1.13348
 Alpha  occ. eigenvalues --   -1.13322  -1.13297  -1.13256  -1.13196  -1.13180
 Alpha  occ. eigenvalues --   -1.13163  -1.13150  -1.13078  -1.13048  -1.13030
 Alpha  occ. eigenvalues --   -1.13016  -1.12963  -1.12953  -1.12912  -1.12904
 Alpha  occ. eigenvalues --   -0.18430  -0.12794  -0.12472  -0.10850
 Alpha virt. eigenvalues --   -0.05487  -0.05096  -0.05017  -0.03120  -0.02943
 Alpha virt. eigenvalues --   -0.02792  -0.01383  -0.01218  -0.00509  -0.00355
 Alpha virt. eigenvalues --   -0.00039   0.00358   0.00798   0.00853   0.00880

  Beta  occ. eigenvalues --  -38.43910 -38.43817 -38.43789 -38.43699 -38.43542
  Beta  occ. eigenvalues --  -38.43453 -38.43274  -2.19702  -2.19631  -2.19549
  Beta  occ. eigenvalues --   -2.19516  -2.19381  -2.19358  -2.19186  -1.13368
  Beta  occ. eigenvalues --   -1.13362  -1.13352  -1.13310  -1.13288  -1.13271
  Beta  occ. eigenvalues --   -1.13257  -1.13232  -1.13224  -1.13188  -1.13167
  Beta  occ. eigenvalues --   -1.13160  -1.13132  -1.13066  -1.13035  -1.13020
  Beta  occ. eigenvalues --   -1.12985  -1.12951  -1.12891  -1.12837  -1.12825
  Beta  occ. eigenvalues --   -0.17689  -0.12576  -0.12279
  Beta virt. eigenvalues --   -0.06880  -0.05508  -0.05104  -0.04899  -0.02320
  Beta virt. eigenvalues --   -0.02198  -0.01698  -0.01306  -0.01138  -0.00569
  Beta virt. eigenvalues --   -0.00415   0.00118   0.00383   0.00829   0.00876

 Mulliken charges and spin densities:
               1          2
     1  Na   0.000664  -0.073322
     2  Na  -0.603709   0.809372
     3  Na  -0.132997   0.409342
     4  Na   0.054028  -0.050475
     5  Na   0.077400  -0.088819
     6  Na   0.421256   0.046412
     7  Na   0.183358  -0.052510
 Sum of Mulliken charges =  -0.00000   1.00000

 Dipole moment (field-independent basis, Debye):
    X=              0.1194    Y=             -0.1841    Z=              0.1511  Tot=              0.2664
 Quadrupole moment (field-independent basis, Debye-Ang):
   XX=            -59.4661   YY=            -60.5307   ZZ=            -74.0476
   XY=              1.3024   XZ=             -0.0027   YZ=              0.0259

 Normal termination of Gaussian 16 at Thu Dec  7 17:49:46 2023.
