 Gaussian 16, Revision B.01,
 Gaussian 16:  ES64L-G16RevB.01 20-Dec-2017

 -------------------------
 #P B3LYP/6-311+g(d) force
 -------------------------

 -----
 DPGEN
 -----
 Symbolic Z-matrix:
 Charge =  0 Multiplicity = 2

                         Standard orientation:
 ---------------------------------------------------------------------
 Center     Atomic      Atomic             Coordinates (Angstroms)
 Number     Number       Type             X           Y           Z
 ---------------------------------------------------------------------
      1         11           0        0.492550    3.331891    0.454333
      2         11           0        3.437847   -1.613185   -0.334560
      3         11           0       -1.484941   -0.871356    1.862324
      4         11           0        3.567743    1.526487   -0.318328
      5         11           0       -2.670913    2.369959   -0.637079
      6         11           0        0.224100   -3.541372   -0.141306
      7         11           0       -3.566386   -1.202425   -0.885385
 ---------------------------------------------------------------------

 SCF Done:  E(UB3LYP) =  -1136.11167113     A.U. after   23 cycles

 The electronic state is 2-A.
 Alpha  occ. eigenvalues --  -38.45810 -38.44987 -38.44422 -38.44229 -38.44124
 Alpha  occ. eigenvalues --  -38.44021 -38.43512  -2.21561  -2.20755  -2.20182
 Alpha  occ. eigenvalues --   -2.20041  -2.19921  -2.19827  -2.19302  -1.15240
 Alpha  occ. eigenvalues --   -1.15228  -1.15184  -1.14446  -1.14418  -1.14387
 Alpha  occ. eigenvalues --   -1.13855  -1.13837  -1.13812  -1.13705  -1.13677
 Alpha  occ. eigenvalues --   -1.13662  -1.13647  -1.13591  -1.13558  -1.13489
 Alpha  occ. eigenvalues --   -1.13472  -1.13440  -1.12968  -1.12955  -1.12937
 Alpha  occ. eigenvalues --   -0.16129  -0.13703  -0.12900  -0.10162
 Alpha virt. eigenvalues --   -0.07197  -0.06240  -0.03714  -0.03655  -0.03114
 Alpha virt. eigenvalues --   -0.02448  -0.02132  -0.01599  -0.01401  -0.01234
 Alpha virt. eigenvalues --   -0.00181   0.00046   0.00251   0.00476   0.00532

  Beta  occ. eigenvalues --  -38.45800 -38.44970 -38.44398 -38.44160 -38.44101
  Beta  occ. eigenvalues --  -38.43996 -38.43475  -2.21542  -2.20730  -2.20137
  Beta  occ. eigenvalues --   -2.19914  -2.19883  -2.19785  -2.19233  -1.15225
  Beta  occ. eigenvalues --   -1.15213  -1.15162  -1.14435  -1.14407  -1.14327
  Beta  occ. eigenvalues --   -1.13822  -1.13809  -1.13782  -1.13620  -1.13609
  Beta  occ. eigenvalues --   -1.13596  -1.13568  -1.13562  -1.13522  -1.13463
  Beta  occ. eigenvalues --   -1.13446  -1.13391  -1.12921  -1.12908  -1.12889
  Beta  occ. eigenvalues --   -0.15659  -0.12988  -0.12434
  Beta virt. eigenvalues --   -0.07255  -0.06922  -0.05988  -0.03527  -0.03127
  Beta virt. eigenvalues --   -0.02655  -0.02207  -0.01852  -0.01435  -0.01197
  Beta virt. eigenvalues --   -0.01090   0.00063   0.00277   0.00396   0.00556

 Mulliken charges and spin densities:
               1          2
     1  Na  -0.396070   0.170138
     2  Na  -0.218658   0.093352
     3  Na   0.227715   0.090458
     4  Na   0.318387   0.093716
     5  Na   0.158393   0.086559
     6  Na   0.024962   0.099383
     7  Na  -0.114729   0.366394
 Sum of Mulliken charges =  -0.00000   1.00000

 Dipole moment (field-independent basis, Debye):
    X=             -0.8681    Y=             -0.6357    Z=              0.2056  Tot=              1.0954
 Quadrupole moment (field-independent basis, Debye-Ang):
   XX=            -71.2432   YY=            -64.3543   ZZ=            -67.9130
   XY=              0.0334   XZ=             -0.0550   YZ=              1.7078

 Normal termination of Gaussian 16 at Mon Dec  4 04:00:22 2023.
