 Gaussian 16, Revision B.01,
 Gaussian 16:  ES64L-G16RevB.01 20-Dec-2017

 -------------------------
 #P B3LYP/6-311+g(d) force
 -------------------------

 -----
 DPGEN
 -----
 Symbolic Z-matrix:
 Charge =  0 Multiplicity = 2

                         Standard orientation:
 ---------------------------------------------------------------------
 Center     Atomic      Atomic             Coordinates (Angstroms)
 Number     Number       Type             X           Y           Z
 ---------------------------------------------------------------------
      1         11           0       -3.241305    0.158939   -0.447950
      2         11           0       -2.504749    3.432263   -0.067542
      3         11           0        4.250891    1.116424   -0.039412
      4         11           0       -3.797585   -3.300815    0.303309
      5         11           0        5.836733   -1.640462   -0.081874
      6         11           0        0.136533    1.915601    0.493322
      7         11           0       -0.680519   -1.681949   -0.159853
 ---------------------------------------------------------------------

 SCF Done:  E(UB3LYP) =  -1136.11633202     A.U. after   20 cycles

 The electronic state is 2-A.
 Alpha  occ. eigenvalues --  -38.44791 -38.44780 -38.44448 -38.43891 -38.43840
 Alpha  occ. eigenvalues --  -38.43800 -38.43631  -2.20619  -2.20572  -2.20320
 Alpha  occ. eigenvalues --   -2.19685  -2.19647  -2.19607  -2.19490  -1.14345
 Alpha  occ. eigenvalues --   -1.14291  -1.14245  -1.14241  -1.14216  -1.14165
 Alpha  occ. eigenvalues --   -1.14026  -1.14007  -1.13895  -1.13380  -1.13346
 Alpha  occ. eigenvalues --   -1.13333  -1.13332  -1.13318  -1.13304  -1.13283
 Alpha  occ. eigenvalues --   -1.13263  -1.13217  -1.13136  -1.13132  -1.13097
 Alpha  occ. eigenvalues --   -0.16892  -0.13382  -0.12826  -0.10529
 Alpha virt. eigenvalues --   -0.06723  -0.05523  -0.04382  -0.03770  -0.02993
 Alpha virt. eigenvalues --   -0.02455  -0.02042  -0.01623  -0.01181  -0.00950
 Alpha virt. eigenvalues --   -0.00223  -0.00064   0.00309   0.00393   0.00519

  Beta  occ. eigenvalues --  -38.44783 -38.44733 -38.44417 -38.43852 -38.43844
  Beta  occ. eigenvalues --  -38.43765 -38.43598  -2.20556  -2.20533  -2.20267
  Beta  occ. eigenvalues --   -2.19635  -2.19597  -2.19585  -2.19428  -1.14292
  Beta  occ. eigenvalues --   -1.14237  -1.14229  -1.14225  -1.14189  -1.14107
  Beta  occ. eigenvalues --   -1.13983  -1.13962  -1.13852  -1.13352  -1.13309
  Beta  occ. eigenvalues --   -1.13296  -1.13282  -1.13276  -1.13269  -1.13264
  Beta  occ. eigenvalues --   -1.13259  -1.13192  -1.13090  -1.13080  -1.13057
  Beta  occ. eigenvalues --   -0.16258  -0.13136  -0.12442
  Beta virt. eigenvalues --   -0.07117  -0.06381  -0.05198  -0.04055  -0.03382
  Beta virt. eigenvalues --   -0.02565  -0.02323  -0.01911  -0.01548  -0.00932
  Beta virt. eigenvalues --   -0.00559   0.00054   0.00198   0.00403   0.00502

 Mulliken charges and spin densities:
               1          2
     1  Na  -0.398522   0.389619
     2  Na   1.179453   0.227829
     3  Na  -0.292871  -0.061386
     4  Na   0.934534   0.092316
     5  Na   0.132720   0.221919
     6  Na  -0.851627   0.049386
     7  Na  -0.703686   0.080317
 Sum of Mulliken charges =  -0.00000   1.00000

 Dipole moment (field-independent basis, Debye):
    X=             -1.6452    Y=             -1.3174    Z=              0.1620  Tot=              2.1139
 Quadrupole moment (field-independent basis, Debye-Ang):
   XX=            -70.3430   YY=            -53.8866   ZZ=            -73.5235
   XY=              3.2736   XZ=             -0.8880   YZ=             -0.7043

 Normal termination of Gaussian 16 at Wed Nov 29 03:44:52 2023.
