 Gaussian 16, Revision B.01,
 Gaussian 16:  ES64L-G16RevB.01 20-Dec-2017

 -------------------------
 #P B3LYP/6-311+g(d) force
 -------------------------

 -----
 DPGEN
 -----
 Symbolic Z-matrix:
 Charge =  0 Multiplicity = 2

                         Standard orientation:
 ---------------------------------------------------------------------
 Center     Atomic      Atomic             Coordinates (Angstroms)
 Number     Number       Type             X           Y           Z
 ---------------------------------------------------------------------
      1         11           0       -2.709445    1.497610   -0.033311
      2         11           0        1.306739   -2.479916   -0.433857
      3         11           0        1.325384    2.627408   -0.005081
      4         11           0        3.227873   -0.267618    0.000404
      5         11           0        0.102367   -0.100094    2.096295
      6         11           0       -2.924707   -1.644832    0.102306
      7         11           0       -0.328210    0.367442   -1.726756
 ---------------------------------------------------------------------

 SCF Done:  E(UB3LYP) =  -1136.12960813     A.U. after   21 cycles

 The electronic state is 2-A.
 Alpha  occ. eigenvalues --  -38.44542 -38.44340 -38.44326 -38.43959 -38.43544
 Alpha  occ. eigenvalues --  -38.43134 -38.42952  -2.20409  -2.20194  -2.20152
 Alpha  occ. eigenvalues --   -2.19816  -2.19486  -2.19007  -2.18796  -1.14124
 Alpha  occ. eigenvalues --   -1.14060  -1.14039  -1.13934  -1.13886  -1.13837
 Alpha  occ. eigenvalues --   -1.13809  -1.13791  -1.13751  -1.13483  -1.13445
 Alpha  occ. eigenvalues --   -1.13432  -1.13164  -1.13131  -1.13107  -1.12692
 Alpha  occ. eigenvalues --   -1.12656  -1.12641  -1.12478  -1.12456  -1.12436
 Alpha  occ. eigenvalues --   -0.18525  -0.13739  -0.11774  -0.10843
 Alpha virt. eigenvalues --   -0.06206  -0.05502  -0.04045  -0.03605  -0.02762
 Alpha virt. eigenvalues --   -0.02575  -0.01914  -0.01212  -0.00392  -0.00208
 Alpha virt. eigenvalues --   -0.00059   0.00343   0.00674   0.00767   0.00840

  Beta  occ. eigenvalues --  -38.44541 -38.44339 -38.44321 -38.43864 -38.43478
  Beta  occ. eigenvalues --  -38.43123 -38.42949  -2.20410  -2.20188  -2.20153
  Beta  occ. eigenvalues --   -2.19641  -2.19365  -2.18990  -2.18794  -1.14127
  Beta  occ. eigenvalues --   -1.14045  -1.14038  -1.13934  -1.13870  -1.13822
  Beta  occ. eigenvalues --   -1.13795  -1.13788  -1.13753  -1.13366  -1.13322
  Beta  occ. eigenvalues --   -1.13305  -1.13083  -1.13041  -1.13022  -1.12684
  Beta  occ. eigenvalues --   -1.12642  -1.12613  -1.12475  -1.12440  -1.12431
  Beta  occ. eigenvalues --   -0.17791  -0.13542  -0.11549
  Beta virt. eigenvalues --   -0.06943  -0.06084  -0.05507  -0.03992  -0.02833
  Beta virt. eigenvalues --   -0.01944  -0.01810  -0.01597  -0.01153  -0.00438
  Beta virt. eigenvalues --   -0.00235   0.00104   0.00372   0.00758   0.00827

 Mulliken charges and spin densities:
               1          2
     1  Na   0.312968  -0.052120
     2  Na   0.032666  -0.011817
     3  Na   0.085823  -0.082638
     4  Na   0.151795  -0.000248
     5  Na  -0.465896   0.702664
     6  Na  -0.032664  -0.025222
     7  Na  -0.084692   0.469381
 Sum of Mulliken charges =  -0.00000   1.00000

 Dipole moment (field-independent basis, Debye):
    X=             -0.4012    Y=              0.0219    Z=              0.2013  Tot=              0.4494
 Quadrupole moment (field-independent basis, Debye-Ang):
   XX=            -53.0913   YY=            -67.7839   ZZ=            -73.9980
   XY=              1.3072   XZ=             -0.4040   YZ=              0.9119

 Normal termination of Gaussian 16 at Thu Dec  7 15:35:14 2023.
