 Gaussian 16, Revision B.01,
 Gaussian 16:  ES64L-G16RevB.01 20-Dec-2017

 -------------------------
 #P B3LYP/6-311+g(d) force
 -------------------------

 -----
 DPGEN
 -----
 Symbolic Z-matrix:
 Charge =  0 Multiplicity = 2

                         Standard orientation:
 ---------------------------------------------------------------------
 Center     Atomic      Atomic             Coordinates (Angstroms)
 Number     Number       Type             X           Y           Z
 ---------------------------------------------------------------------
      1         11           0        2.429585    2.136043    0.228540
      2         11           0        1.139554   -1.417314    1.691968
      3         11           0        3.637306   -1.013392   -0.708920
      4         11           0        0.187656   -2.583026   -0.993359
      5         11           0       -0.108380    3.039394   -0.476892
      6         11           0       -2.209330    0.036508    0.538188
      7         11           0       -5.076391   -0.198214   -0.279524
 ---------------------------------------------------------------------

 SCF Done:  E(UB3LYP) =  -1136.11253169     A.U. after   20 cycles

 The electronic state is 2-A.
 Alpha  occ. eigenvalues --  -38.45339 -38.45296 -38.43957 -38.43951 -38.43719
 Alpha  occ. eigenvalues --  -38.43536 -38.43043  -2.21159  -2.21148  -2.19805
 Alpha  occ. eigenvalues --   -2.19800  -2.19559  -2.19414  -2.18897  -1.14935
 Alpha  occ. eigenvalues --   -1.14825  -1.14797  -1.14788  -1.14764  -1.14727
 Alpha  occ. eigenvalues --   -1.13650  -1.13464  -1.13447  -1.13437  -1.13415
 Alpha  occ. eigenvalues --   -1.13409  -1.13252  -1.13179  -1.13176  -1.13064
 Alpha  occ. eigenvalues --   -1.13043  -1.13020  -1.12586  -1.12568  -1.12538
 Alpha  occ. eigenvalues --   -0.17380  -0.13554  -0.12795  -0.10572
 Alpha virt. eigenvalues --   -0.06958  -0.04989  -0.04781  -0.03561  -0.02710
 Alpha virt. eigenvalues --   -0.02552  -0.01654  -0.01385  -0.00953  -0.00670
 Alpha virt. eigenvalues --   -0.00556  -0.00077   0.00227   0.00594   0.00715

  Beta  occ. eigenvalues --  -38.45328 -38.45273 -38.43935 -38.43883 -38.43632
  Beta  occ. eigenvalues --  -38.43532 -38.43042  -2.21137  -2.21113  -2.19776
  Beta  occ. eigenvalues --   -2.19663  -2.19411  -2.19398  -2.18903  -1.14911
  Beta  occ. eigenvalues --   -1.14812  -1.14772  -1.14761  -1.14732  -1.14705
  Beta  occ. eigenvalues --   -1.13633  -1.13417  -1.13395  -1.13370  -1.13355
  Beta  occ. eigenvalues --   -1.13314  -1.13150  -1.13069  -1.13066  -1.13065
  Beta  occ. eigenvalues --   -1.13045  -1.12987  -1.12595  -1.12550  -1.12511
  Beta  occ. eigenvalues --   -0.16894  -0.12731  -0.12514
  Beta virt. eigenvalues --   -0.07200  -0.06825  -0.04705  -0.04451  -0.03106
  Beta virt. eigenvalues --   -0.02592  -0.02279  -0.01360  -0.00991  -0.00653
  Beta virt. eigenvalues --   -0.00427  -0.00338   0.00114   0.00363   0.00666

 Mulliken charges and spin densities:
               1          2
     1  Na  -0.429250   0.074862
     2  Na   0.767743   0.097314
     3  Na  -0.083089   0.446679
     4  Na   0.377870  -0.024234
     5  Na   0.644315   0.000212
     6  Na  -1.341123   0.112066
     7  Na   0.063534   0.293101
 Sum of Mulliken charges =  -0.00000   1.00000

 Dipole moment (field-independent basis, Debye):
    X=              0.7854    Y=             -1.4397    Z=             -0.2900  Tot=              1.6654
 Quadrupole moment (field-independent basis, Debye-Ang):
   XX=            -73.8266   YY=            -68.9595   ZZ=            -62.2767
   XY=             -2.2863   XZ=              3.7371   YZ=              2.0350

 Normal termination of Gaussian 16 at Mon Dec  4 05:30:01 2023.
