 Gaussian 16, Revision B.01,
 Gaussian 16:  ES64L-G16RevB.01 20-Dec-2017

 -------------------------
 #P B3LYP/6-311+g(d) force
 -------------------------

 -----
 DPGEN
 -----
 Symbolic Z-matrix:
 Charge =  0 Multiplicity = 2

                         Standard orientation:
 ---------------------------------------------------------------------
 Center     Atomic      Atomic             Coordinates (Angstroms)
 Number     Number       Type             X           Y           Z
 ---------------------------------------------------------------------
      1         11           0       -0.522569   -0.198468    2.043101
      2         11           0        1.681970    0.080807   -1.704072
      3         11           0       -1.173057    2.305042   -0.880639
      4         11           0       -0.859937   -1.924762   -1.017927
      5         11           0        1.936097    1.788709    0.846926
      6         11           0        2.368303   -1.671235    0.488104
      7         11           0       -3.430807   -0.380092    0.224507
 ---------------------------------------------------------------------

 SCF Done:  E(UB3LYP) =  -1136.13096570     A.U. after   20 cycles

 The electronic state is 2-A.
 Alpha  occ. eigenvalues --  -38.44214 -38.44193 -38.43845 -38.43648 -38.43405
 Alpha  occ. eigenvalues --  -38.43287 -38.43173  -2.20093  -2.20048  -2.19841
 Alpha  occ. eigenvalues --   -2.19565  -2.19219  -2.19195  -2.19067  -1.13767
 Alpha  occ. eigenvalues --   -1.13755  -1.13725  -1.13719  -1.13689  -1.13673
 Alpha  occ. eigenvalues --   -1.13632  -1.13502  -1.13469  -1.13213  -1.13194
 Alpha  occ. eigenvalues --   -1.13172  -1.12903  -1.12885  -1.12873  -1.12866
 Alpha  occ. eigenvalues --   -1.12847  -1.12793  -1.12760  -1.12732  -1.12681
 Alpha  occ. eigenvalues --   -0.18959  -0.13549  -0.11752  -0.11665
 Alpha virt. eigenvalues --   -0.05843  -0.04897  -0.04361  -0.03482  -0.03089
 Alpha virt. eigenvalues --   -0.02944  -0.01541  -0.00691  -0.00401   0.00050
 Alpha virt. eigenvalues --    0.00343   0.00397   0.00568   0.00827   0.00899

  Beta  occ. eigenvalues --  -38.44214 -38.44111 -38.43792 -38.43639 -38.43386
  Beta  occ. eigenvalues --  -38.43271 -38.43152  -2.20051  -2.19944  -2.19745
  Beta  occ. eigenvalues --   -2.19552  -2.19185  -2.19170  -2.19031  -1.13725
  Beta  occ. eigenvalues --   -1.13717  -1.13688  -1.13669  -1.13619  -1.13592
  Beta  occ. eigenvalues --   -1.13581  -1.13428  -1.13403  -1.13192  -1.13177
  Beta  occ. eigenvalues --   -1.13142  -1.12876  -1.12860  -1.12851  -1.12832
  Beta  occ. eigenvalues --   -1.12822  -1.12768  -1.12736  -1.12686  -1.12659
  Beta  occ. eigenvalues --   -0.18162  -0.13399  -0.11474
  Beta virt. eigenvalues --   -0.07679  -0.05688  -0.04851  -0.03833  -0.03202
  Beta virt. eigenvalues --   -0.02362  -0.01968  -0.01473  -0.00641  -0.00157
  Beta virt. eigenvalues --    0.00110   0.00337   0.00430   0.00785   0.00892

 Mulliken charges and spin densities:
               1          2
     1  Na  -0.383834   0.411959
     2  Na   0.105438   0.427088
     3  Na  -0.402187   0.015118
     4  Na  -0.388768   0.059249
     5  Na   0.171959   0.042488
     6  Na   0.463179   0.031989
     7  Na   0.434211   0.012110
 Sum of Mulliken charges =  -0.00000   1.00000

 Dipole moment (field-independent basis, Debye):
    X=             -0.4828    Y=             -0.0396    Z=              0.2452  Tot=              0.5429
 Quadrupole moment (field-independent basis, Debye-Ang):
   XX=            -55.5976   YY=            -72.8942   ZZ=            -67.3070
   XY=             -0.7652   XZ=              1.4240   YZ=             -1.1792

 Normal termination of Gaussian 16 at Fri Dec  8 07:39:11 2023.
