 Gaussian 16, Revision B.01,
 Gaussian 16:  ES64L-G16RevB.01 20-Dec-2017

 -------------------------
 #P B3LYP/6-311+g(d) force
 -------------------------

 -----
 DPGEN
 -----
 Symbolic Z-matrix:
 Charge =  0 Multiplicity = 2

                         Standard orientation:
 ---------------------------------------------------------------------
 Center     Atomic      Atomic             Coordinates (Angstroms)
 Number     Number       Type             X           Y           Z
 ---------------------------------------------------------------------
      1         11           0        0.814712   -2.983907   -0.112483
      2         11           0        1.119710    2.855787   -0.182812
      3         11           0        2.884683   -0.090394   -0.420723
      4         11           0       -2.111771    2.105789    0.297294
      5         11           0       -3.002488   -1.375369    0.028182
      6         11           0       -0.452919   -0.161940   -1.607225
      7         11           0        0.748074   -0.349966    1.997768
 ---------------------------------------------------------------------

 SCF Done:  E(UB3LYP) =  -1136.13735896     A.U. after   19 cycles

 The electronic state is 2-A.
 Alpha  occ. eigenvalues --  -38.44071 -38.43945 -38.43763 -38.43737 -38.43476
 Alpha  occ. eigenvalues --  -38.43443 -38.43076  -2.19874  -2.19779  -2.19616
 Alpha  occ. eigenvalues --   -2.19599  -2.19371  -2.19283  -2.19034  -1.13562
 Alpha  occ. eigenvalues --   -1.13532  -1.13509  -1.13459  -1.13455  -1.13410
 Alpha  occ. eigenvalues --   -1.13316  -1.13287  -1.13284  -1.13264  -1.13241
 Alpha  occ. eigenvalues --   -1.13233  -1.13028  -1.13001  -1.12984  -1.12947
 Alpha  occ. eigenvalues --   -1.12940  -1.12931  -1.12718  -1.12668  -1.12662
 Alpha  occ. eigenvalues --   -0.18478  -0.12995  -0.12611  -0.10483
 Alpha virt. eigenvalues --   -0.05747  -0.05065  -0.05053  -0.03205  -0.02882
 Alpha virt. eigenvalues --   -0.02346  -0.01399  -0.01304  -0.00518  -0.00432
 Alpha virt. eigenvalues --   -0.00008   0.00361   0.00818   0.00828   0.00892

  Beta  occ. eigenvalues --  -38.44072 -38.43938 -38.43757 -38.43724 -38.43440
  Beta  occ. eigenvalues --  -38.43389 -38.43016  -2.19877  -2.19771  -2.19596
  Beta  occ. eigenvalues --   -2.19591  -2.19279  -2.19211  -2.18926  -1.13557
  Beta  occ. eigenvalues --   -1.13527  -1.13514  -1.13456  -1.13421  -1.13408
  Beta  occ. eigenvalues --   -1.13299  -1.13281  -1.13243  -1.13241  -1.13233
  Beta  occ. eigenvalues --   -1.13229  -1.12944  -1.12934  -1.12923  -1.12918
  Beta  occ. eigenvalues --   -1.12889  -1.12867  -1.12643  -1.12590  -1.12581
  Beta  occ. eigenvalues --   -0.17770  -0.12783  -0.12395
  Beta virt. eigenvalues --   -0.06616  -0.05735  -0.05053  -0.04911  -0.02454
  Beta virt. eigenvalues --   -0.02161  -0.01383  -0.01273  -0.01231  -0.00547
  Beta virt. eigenvalues --   -0.00467   0.00153   0.00399   0.00817   0.00860

 Mulliken charges and spin densities:
               1          2
     1  Na   0.203019  -0.116241
     2  Na  -0.015217  -0.024076
     3  Na   0.356080   0.033212
     4  Na  -0.038226  -0.002039
     5  Na   0.062523  -0.099989
     6  Na  -0.039556   0.449835
     7  Na  -0.528623   0.759297
 Sum of Mulliken charges =  -0.00000   1.00000

 Dipole moment (field-independent basis, Debye):
    X=             -0.1772    Y=             -0.3226    Z=              0.0949  Tot=              0.3801
 Quadrupole moment (field-independent basis, Debye-Ang):
   XX=            -58.9202   YY=            -59.2301   ZZ=            -75.2219
   XY=              0.5609   XZ=             -2.5886   YZ=              0.4443

 Normal termination of Gaussian 16 at Tue Dec  5 19:34:35 2023.
