 Gaussian 16, Revision B.01,
 Gaussian 16:  ES64L-G16RevB.01 20-Dec-2017

 -------------------------
 #P B3LYP/6-311+g(d) force
 -------------------------

 -----
 DPGEN
 -----
 Symbolic Z-matrix:
 Charge =  0 Multiplicity = 2

                         Standard orientation:
 ---------------------------------------------------------------------
 Center     Atomic      Atomic             Coordinates (Angstroms)
 Number     Number       Type             X           Y           Z
 ---------------------------------------------------------------------
      1         11           0        3.100229   -2.047274    0.348611
      2         11           0        0.933249   -0.016345   -1.775826
      3         11           0       -3.669142   -0.130540    0.634182
      4         11           0        0.068873   -0.310958    1.931712
      5         11           0       -1.052695    2.259370   -0.622237
      6         11           0        2.123727    2.385029    0.368938
      7         11           0       -1.504240   -2.139281   -0.885381
 ---------------------------------------------------------------------

 SCF Done:  E(UB3LYP) =  -1136.12970358     A.U. after   20 cycles

 The electronic state is 2-A.
 Alpha  occ. eigenvalues --  -38.44295 -38.44274 -38.44098 -38.43959 -38.43917
 Alpha  occ. eigenvalues --  -38.43315 -38.43242  -2.20109  -2.20093  -2.19850
 Alpha  occ. eigenvalues --   -2.19795  -2.19746  -2.19252  -2.19111  -1.13793
 Alpha  occ. eigenvalues --   -1.13765  -1.13757  -1.13753  -1.13736  -1.13712
 Alpha  occ. eigenvalues --   -1.13528  -1.13511  -1.13488  -1.13487  -1.13453
 Alpha  occ. eigenvalues --   -1.13420  -1.13409  -1.13409  -1.13381  -1.12966
 Alpha  occ. eigenvalues --   -1.12891  -1.12876  -1.12780  -1.12776  -1.12716
 Alpha  occ. eigenvalues --   -0.18138  -0.13047  -0.11817  -0.10987
 Alpha virt. eigenvalues --   -0.06181  -0.05528  -0.04167  -0.03293  -0.02900
 Alpha virt. eigenvalues --   -0.02729  -0.01947  -0.01321  -0.00628  -0.00054
 Alpha virt. eigenvalues --    0.00034   0.00264   0.00541   0.00692   0.00754

  Beta  occ. eigenvalues --  -38.44288 -38.44204 -38.44102 -38.43932 -38.43913
  Beta  occ. eigenvalues --  -38.43243 -38.43230  -2.20081  -2.19981  -2.19858
  Beta  occ. eigenvalues --   -2.19749  -2.19740  -2.19122  -2.19091  -1.13756
  Beta  occ. eigenvalues --   -1.13741  -1.13725  -1.13705  -1.13665  -1.13619
  Beta  occ. eigenvalues --   -1.13530  -1.13510  -1.13493  -1.13449  -1.13409
  Beta  occ. eigenvalues --   -1.13407  -1.13404  -1.13379  -1.13371  -1.12890
  Beta  occ. eigenvalues --   -1.12806  -1.12784  -1.12754  -1.12726  -1.12702
  Beta  occ. eigenvalues --   -0.17376  -0.12894  -0.11614
  Beta virt. eigenvalues --   -0.07107  -0.05987  -0.05460  -0.03993  -0.02819
  Beta virt. eigenvalues --   -0.02237  -0.01899  -0.01663  -0.01230  -0.00460
  Beta virt. eigenvalues --    0.00030   0.00038   0.00288   0.00676   0.00751

 Mulliken charges and spin densities:
               1          2
     1  Na  -0.059672  -0.067203
     2  Na   0.271614   0.254198
     3  Na   0.194187   0.026962
     4  Na  -0.444100   0.669840
     5  Na  -0.122993   0.096027
     6  Na   0.179094  -0.013166
     7  Na  -0.018130   0.033342
 Sum of Mulliken charges =  -0.00000   1.00000

 Dipole moment (field-independent basis, Debye):
    X=             -0.0344    Y=              0.0701    Z=              0.3657  Tot=              0.3739
 Quadrupole moment (field-independent basis, Debye-Ang):
   XX=            -53.1642   YY=            -68.1030   ZZ=            -72.2682
   XY=              0.5956   XZ=              0.3040   YZ=              1.1548

 Normal termination of Gaussian 16 at Thu Dec  7 05:39:42 2023.
