 Gaussian 16, Revision B.01,
 Gaussian 16:  ES64L-G16RevB.01 20-Dec-2017

 -------------------------
 #P B3LYP/6-311+g(d) force
 -------------------------

 -----
 DPGEN
 -----
 Symbolic Z-matrix:
 Charge =  0 Multiplicity = 2

                         Standard orientation:
 ---------------------------------------------------------------------
 Center     Atomic      Atomic             Coordinates (Angstroms)
 Number     Number       Type             X           Y           Z
 ---------------------------------------------------------------------
      1         11           0       -1.406889    0.232920    1.704029
      2         11           0        1.804751   -1.420767    0.626195
      3         11           0       -3.859519   -0.757102   -0.115062
      4         11           0        1.565985    1.258567   -0.804694
      5         11           0       -2.138023    2.525520   -0.364581
      6         11           0       -0.950723   -2.117141   -1.098030
      7         11           0        4.984419    0.278003    0.052143
 ---------------------------------------------------------------------

 SCF Done:  E(UB3LYP) =  -1136.11867648     A.U. after   23 cycles

 The electronic state is 2-A.
 Alpha  occ. eigenvalues --  -38.45208 -38.44343 -38.44060 -38.43869 -38.43724
 Alpha  occ. eigenvalues --  -38.43289 -38.43247  -2.21101  -2.20180  -2.19874
 Alpha  occ. eigenvalues --   -2.19748  -2.19631  -2.19135  -2.19072  -1.14800
 Alpha  occ. eigenvalues --   -1.14769  -1.14720  -1.13916  -1.13866  -1.13782
 Alpha  occ. eigenvalues --   -1.13523  -1.13517  -1.13474  -1.13421  -1.13397
 Alpha  occ. eigenvalues --   -1.13345  -1.13329  -1.13310  -1.13224  -1.12814
 Alpha  occ. eigenvalues --   -1.12789  -1.12783  -1.12755  -1.12742  -1.12700
 Alpha  occ. eigenvalues --   -0.18014  -0.14434  -0.11426  -0.10720
 Alpha virt. eigenvalues --   -0.07203  -0.05091  -0.04419  -0.03468  -0.03217
 Alpha virt. eigenvalues --   -0.02189  -0.01624  -0.01331  -0.01081  -0.00848
 Alpha virt. eigenvalues --   -0.00420   0.00067   0.00329   0.00617   0.00772

  Beta  occ. eigenvalues --  -38.45197 -38.44336 -38.43965 -38.43800 -38.43708
  Beta  occ. eigenvalues --  -38.43288 -38.43244  -2.21085  -2.20173  -2.19697
  Beta  occ. eigenvalues --   -2.19618  -2.19605  -2.19137  -2.19069  -1.14788
  Beta  occ. eigenvalues --   -1.14728  -1.14712  -1.13910  -1.13863  -1.13750
  Beta  occ. eigenvalues --   -1.13402  -1.13396  -1.13362  -1.13333  -1.13315
  Beta  occ. eigenvalues --   -1.13310  -1.13290  -1.13255  -1.13185  -1.12819
  Beta  occ. eigenvalues --   -1.12790  -1.12759  -1.12755  -1.12742  -1.12679
  Beta  occ. eigenvalues --   -0.17439  -0.13730  -0.11167
  Beta virt. eigenvalues --   -0.07236  -0.07013  -0.04969  -0.03613  -0.03201
  Beta virt. eigenvalues --   -0.03036  -0.02131  -0.01248  -0.01063  -0.00547
  Beta virt. eigenvalues --   -0.00384  -0.00257   0.00163   0.00425   0.00697

 Mulliken charges and spin densities:
               1          2
     1  Na  -0.206201   0.145099
     2  Na   0.047246  -0.005174
     3  Na   0.344880   0.423787
     4  Na  -0.459112   0.058044
     5  Na   0.064892  -0.095261
     6  Na  -0.199088  -0.030738
     7  Na   0.407385   0.504242
 Sum of Mulliken charges =  -0.00000   1.00000

 Dipole moment (field-independent basis, Debye):
    X=             -0.1671    Y=             -0.0742    Z=              0.2397  Tot=              0.3015
 Quadrupole moment (field-independent basis, Debye-Ang):
   XX=            -67.2989   YY=            -76.7060   ZZ=            -60.8541
   XY=             -1.8922   XZ=              1.3035   YZ=             -3.0898

 Normal termination of Gaussian 16 at Wed Nov 29 02:35:40 2023.
