 Gaussian 16, Revision B.01,
 Gaussian 16:  ES64L-G16RevB.01 20-Dec-2017

 -------------------------
 #P B3LYP/6-311+g(d) force
 -------------------------

 -----
 DPGEN
 -----
 Symbolic Z-matrix:
 Charge =  0 Multiplicity = 2

                         Standard orientation:
 ---------------------------------------------------------------------
 Center     Atomic      Atomic             Coordinates (Angstroms)
 Number     Number       Type             X           Y           Z
 ---------------------------------------------------------------------
      1         11           0        1.702724   -2.208137   -0.247693
      2         11           0       -1.748373   -2.092594   -0.133262
      3         11           0       -3.297179    0.849066   -0.083909
      4         11           0        0.613491    2.706568   -0.006864
      5         11           0        2.934346    0.417612    0.119445
      6         11           0       -0.209405   -0.062786    2.038046
      7         11           0        0.004396    0.390270   -1.685763
 ---------------------------------------------------------------------

 SCF Done:  E(UB3LYP) =  -1136.13126829     A.U. after   19 cycles

 The electronic state is 2-A.
 Alpha  occ. eigenvalues --  -38.44658 -38.44121 -38.43695 -38.43377 -38.43352
 Alpha  occ. eigenvalues --  -38.43119 -38.43046  -2.20455  -2.20047  -2.19604
 Alpha  occ. eigenvalues --   -2.19360  -2.19272  -2.19026  -2.18965  -1.14127
 Alpha  occ. eigenvalues --   -1.14116  -1.14093  -1.13780  -1.13691  -1.13687
 Alpha  occ. eigenvalues --   -1.13280  -1.13241  -1.13215  -1.13129  -1.13035
 Alpha  occ. eigenvalues --   -1.12968  -1.12944  -1.12930  -1.12896  -1.12689
 Alpha  occ. eigenvalues --   -1.12669  -1.12654  -1.12634  -1.12610  -1.12590
 Alpha  occ. eigenvalues --   -0.19124  -0.13465  -0.12236  -0.10973
 Alpha virt. eigenvalues --   -0.06140  -0.04868  -0.04187  -0.03460  -0.02805
 Alpha virt. eigenvalues --   -0.02640  -0.01878  -0.00877  -0.00175  -0.00048
 Alpha virt. eigenvalues --    0.00000   0.00351   0.00812   0.00886   0.00916

  Beta  occ. eigenvalues --  -38.44658 -38.44116 -38.43600 -38.43369 -38.43284
  Beta  occ. eigenvalues --  -38.43113 -38.43039  -2.20457  -2.20040  -2.19429
  Beta  occ. eigenvalues --   -2.19261  -2.19236  -2.19018  -2.18956  -1.14125
  Beta  occ. eigenvalues --   -1.14107  -1.14097  -1.13779  -1.13692  -1.13651
  Beta  occ. eigenvalues --   -1.13167  -1.13117  -1.13091  -1.13052  -1.12975
  Beta  occ. eigenvalues --   -1.12918  -1.12900  -1.12894  -1.12863  -1.12672
  Beta  occ. eigenvalues --   -1.12651  -1.12635  -1.12629  -1.12598  -1.12562
  Beta  occ. eigenvalues --   -0.18360  -0.13239  -0.11978
  Beta virt. eigenvalues --   -0.07011  -0.06102  -0.04860  -0.04179  -0.02633
  Beta virt. eigenvalues --   -0.02009  -0.01804  -0.01545  -0.00815  -0.00226
  Beta virt. eigenvalues --   -0.00055   0.00115   0.00368   0.00845   0.00931

 Mulliken charges and spin densities:
               1          2
     1  Na   0.111764   0.010306
     2  Na   0.202111   0.022237
     3  Na   0.116729  -0.115253
     4  Na   0.342078  -0.075373
     5  Na   0.290854   0.090514
     6  Na  -0.585456   0.637889
     7  Na  -0.478079   0.429679
 Sum of Mulliken charges =  -0.00000   1.00000

 Dipole moment (field-independent basis, Debye):
    X=             -0.5979    Y=              0.2530    Z=              0.2067  Tot=              0.6813
 Quadrupole moment (field-independent basis, Debye-Ang):
   XX=            -53.9647   YY=            -66.8643   ZZ=            -73.2593
   XY=             -0.9033   XZ=              0.5588   YZ=              1.0791

 Normal termination of Gaussian 16 at Thu Dec  7 02:35:00 2023.
