 Gaussian 16, Revision B.01,
 Gaussian 16:  ES64L-G16RevB.01 20-Dec-2017

 -------------------------
 #P B3LYP/6-311+g(d) force
 -------------------------

 -----
 DPGEN
 -----
 Symbolic Z-matrix:
 Charge =  0 Multiplicity = 2

                         Standard orientation:
 ---------------------------------------------------------------------
 Center     Atomic      Atomic             Coordinates (Angstroms)
 Number     Number       Type             X           Y           Z
 ---------------------------------------------------------------------
      1         11           0       -3.022807    1.023023   -0.053365
      2         11           0       -2.339506   -2.245506   -0.116419
      3         11           0        0.276551   -0.227252    1.583179
      4         11           0        1.196423   -2.734130   -0.027383
      5         11           0       -0.612184    3.326101   -0.112972
      6         11           0        1.132012   -0.142566   -1.511339
      7         11           0        3.369511    1.000330    0.238299
 ---------------------------------------------------------------------

 SCF Done:  E(UB3LYP) =  -1136.12243567     A.U. after   23 cycles

 The electronic state is 2-A.
 Alpha  occ. eigenvalues --  -38.44978 -38.44364 -38.44262 -38.44141 -38.43875
 Alpha  occ. eigenvalues --  -38.43216 -38.42909  -2.20791  -2.20167  -2.20134
 Alpha  occ. eigenvalues --   -2.19949  -2.19693  -2.19199  -2.18873  -1.14495
 Alpha  occ. eigenvalues --   -1.14435  -1.14423  -1.13909  -1.13842  -1.13807
 Alpha  occ. eigenvalues --   -1.13802  -1.13775  -1.13763  -1.13635  -1.13614
 Alpha  occ. eigenvalues --   -1.13585  -1.13360  -1.13351  -1.13337  -1.12899
 Alpha  occ. eigenvalues --   -1.12829  -1.12820  -1.12569  -1.12509  -1.12463
 Alpha  occ. eigenvalues --   -0.18321  -0.13283  -0.12631  -0.09758
 Alpha virt. eigenvalues --   -0.06644  -0.05277  -0.05184  -0.02956  -0.02617
 Alpha virt. eigenvalues --   -0.02080  -0.01716  -0.01455  -0.00813  -0.00755
 Alpha virt. eigenvalues --    0.00043   0.00301   0.00650   0.00692   0.00813

  Beta  occ. eigenvalues --  -38.44970 -38.44366 -38.44245 -38.44141 -38.43874
  Beta  occ. eigenvalues --  -38.43155 -38.42830  -2.20781  -2.20142  -2.20138
  Beta  occ. eigenvalues --   -2.19952  -2.19692  -2.19090  -2.18728  -1.14482
  Beta  occ. eigenvalues --   -1.14420  -1.14407  -1.13895  -1.13808  -1.13798
  Beta  occ. eigenvalues --   -1.13779  -1.13776  -1.13752  -1.13639  -1.13599
  Beta  occ. eigenvalues --   -1.13589  -1.13354  -1.13346  -1.13340  -1.12819
  Beta  occ. eigenvalues --   -1.12747  -1.12740  -1.12470  -1.12402  -1.12356
  Beta  occ. eigenvalues --   -0.17653  -0.13081  -0.12425
  Beta virt. eigenvalues --   -0.06600  -0.05929  -0.05211  -0.05112  -0.02276
  Beta virt. eigenvalues --   -0.02017  -0.01934  -0.01423  -0.00886  -0.00802
  Beta virt. eigenvalues --   -0.00704   0.00218   0.00366   0.00667   0.00804

 Mulliken charges and spin densities:
               1          2
     1  Na  -0.067316  -0.023341
     2  Na  -0.066932  -0.015765
     3  Na  -0.235841   0.610658
     4  Na   0.550781   0.064578
     5  Na  -0.080419  -0.069798
     6  Na  -0.208000   0.589943
     7  Na   0.107726  -0.156275
 Sum of Mulliken charges =  -0.00000   1.00000

 Dipole moment (field-independent basis, Debye):
    X=              0.4381    Y=              0.1816    Z=              0.1540  Tot=              0.4987
 Quadrupole moment (field-independent basis, Debye-Ang):
   XX=            -54.3280   YY=            -57.6780   ZZ=            -79.8042
   XY=              3.1267   XZ=              1.8757   YZ=              0.0411

 Normal termination of Gaussian 16 at Thu Dec  7 15:08:24 2023.
