 Gaussian 16, Revision B.01,
 Gaussian 16:  ES64L-G16RevB.01 20-Dec-2017

 -------------------------
 #P B3LYP/6-311+g(d) force
 -------------------------

 -----
 DPGEN
 -----
 Symbolic Z-matrix:
 Charge =  0 Multiplicity = 2

                         Standard orientation:
 ---------------------------------------------------------------------
 Center     Atomic      Atomic             Coordinates (Angstroms)
 Number     Number       Type             X           Y           Z
 ---------------------------------------------------------------------
      1         11           0        0.716877    0.517615    0.528690
      2         11           0        1.186079    3.532214    0.114576
      3         11           0        3.474475    0.876921   -1.036338
      4         11           0        3.114803   -1.728825    1.239660
      5         11           0        0.748229   -2.962339   -0.582666
      6         11           0       -3.443883   -0.582960   -0.794554
      7         11           0       -5.796578    0.347375    0.530633
 ---------------------------------------------------------------------

 SCF Done:  E(UB3LYP) =  -1136.11234779     A.U. after   19 cycles

 The electronic state is 2-A.
 Alpha  occ. eigenvalues --  -38.44852 -38.44336 -38.44264 -38.43963 -38.43851
 Alpha  occ. eigenvalues --  -38.43450 -38.43393  -2.20706  -2.20208  -2.20084
 Alpha  occ. eigenvalues --   -2.19911  -2.19680  -2.19294  -2.19208  -1.14401
 Alpha  occ. eigenvalues --   -1.14371  -1.14295  -1.13900  -1.13877  -1.13848
 Alpha  occ. eigenvalues --   -1.13748  -1.13727  -1.13693  -1.13614  -1.13585
 Alpha  occ. eigenvalues --   -1.13564  -1.13335  -1.13324  -1.13284  -1.13156
 Alpha  occ. eigenvalues --   -1.12924  -1.12923  -1.12851  -1.12847  -1.12754
 Alpha  occ. eigenvalues --   -0.17475  -0.13176  -0.12666  -0.10525
 Alpha virt. eigenvalues --   -0.06506  -0.05629  -0.04368  -0.03489  -0.02582
 Alpha virt. eigenvalues --   -0.02467  -0.01721  -0.01523  -0.01256  -0.00898
 Alpha virt. eigenvalues --   -0.00369  -0.00200   0.00263   0.00454   0.00573

  Beta  occ. eigenvalues --  -38.44798 -38.44315 -38.44227 -38.43936 -38.43832
  Beta  occ. eigenvalues --  -38.43410 -38.43399  -2.20607  -2.20171  -2.20016
  Beta  occ. eigenvalues --   -2.19864  -2.19647  -2.19237  -2.19206  -1.14338
  Beta  occ. eigenvalues --   -1.14299  -1.14215  -1.13879  -1.13854  -1.13793
  Beta  occ. eigenvalues --   -1.13702  -1.13671  -1.13652  -1.13587  -1.13539
  Beta  occ. eigenvalues --   -1.13519  -1.13311  -1.13294  -1.13266  -1.13122
  Beta  occ. eigenvalues --   -1.12895  -1.12889  -1.12843  -1.12840  -1.12723
  Beta  occ. eigenvalues --   -0.16855  -0.12689  -0.12442
  Beta virt. eigenvalues --   -0.07084  -0.06119  -0.05396  -0.03999  -0.03128
  Beta virt. eigenvalues --   -0.02345  -0.02164  -0.01571  -0.01336  -0.00981
  Beta virt. eigenvalues --   -0.00547  -0.00069   0.00055   0.00323   0.00486

 Mulliken charges and spin densities:
               1          2
     1  Na  -1.859671   0.136360
     2  Na   0.221048  -0.050949
     3  Na   0.693488   0.366076
     4  Na   0.817211   0.235435
     5  Na   0.044907   0.126216
     6  Na  -0.374201   0.069862
     7  Na   0.457219   0.117001
 Sum of Mulliken charges =  -0.00000   1.00000

 Dipole moment (field-independent basis, Debye):
    X=              2.0489    Y=              0.1855    Z=             -0.0199  Tot=              2.0574
 Quadrupole moment (field-independent basis, Debye-Ang):
   XX=            -71.6723   YY=            -63.0458   ZZ=            -64.5904
   XY=             -2.7948   XZ=             -3.7018   YZ=              1.5906

 Normal termination of Gaussian 16 at Mon Nov 27 04:21:50 2023.
