 Gaussian 16, Revision B.01,
 Gaussian 16:  ES64L-G16RevB.01 20-Dec-2017

 -------------------------
 #P B3LYP/6-311+g(d) force
 -------------------------

 -----
 DPGEN
 -----
 Symbolic Z-matrix:
 Charge =  0 Multiplicity = 2

                         Standard orientation:
 ---------------------------------------------------------------------
 Center     Atomic      Atomic             Coordinates (Angstroms)
 Number     Number       Type             X           Y           Z
 ---------------------------------------------------------------------
      1         11           0       -3.495511   -0.205307   -1.156260
      2         11           0       -1.603369    2.202009    0.483257
      3         11           0        2.097811    1.903819   -0.136768
      4         11           0        3.646995   -0.949072   -0.544193
      5         11           0       -1.920698   -1.570106    1.270911
      6         11           0        0.185605   -0.851301   -1.499927
      7         11           0        1.089167   -0.530043    1.582980
 ---------------------------------------------------------------------

 SCF Done:  E(UB3LYP) =  -1136.12248273     A.U. after   26 cycles

 The electronic state is 2-A.
 Alpha  occ. eigenvalues --  -38.44772 -38.44752 -38.44624 -38.43680 -38.43642
 Alpha  occ. eigenvalues --  -38.43294 -38.42750  -2.20641  -2.20604  -2.20475
 Alpha  occ. eigenvalues --   -2.19678  -2.19547  -2.19186  -2.18561  -1.14375
 Alpha  occ. eigenvalues --   -1.14292  -1.14275  -1.14267  -1.14258  -1.14216
 Alpha  occ. eigenvalues --   -1.14149  -1.14110  -1.14104  -1.13405  -1.13359
 Alpha  occ. eigenvalues --   -1.13272  -1.13207  -1.13183  -1.13173  -1.12875
 Alpha  occ. eigenvalues --   -1.12861  -1.12790  -1.12244  -1.12234  -1.12195
 Alpha  occ. eigenvalues --   -0.18769  -0.14597  -0.11285  -0.10785
 Alpha virt. eigenvalues --   -0.06902  -0.05226  -0.04837  -0.03105  -0.02770
 Alpha virt. eigenvalues --   -0.02388  -0.02134  -0.01040  -0.00813  -0.00190
 Alpha virt. eigenvalues --    0.00118   0.00260   0.00374   0.00639   0.00748

  Beta  occ. eigenvalues --  -38.44747 -38.44738 -38.44584 -38.43606 -38.43601
  Beta  occ. eigenvalues --  -38.43289 -38.42747  -2.20596  -2.20579  -2.20399
  Beta  occ. eigenvalues --   -2.19547  -2.19477  -2.19179  -2.18559  -1.14331
  Beta  occ. eigenvalues --   -1.14261  -1.14255  -1.14242  -1.14236  -1.14191
  Beta  occ. eigenvalues --   -1.14099  -1.14058  -1.14051  -1.13313  -1.13258
  Beta  occ. eigenvalues --   -1.13180  -1.13148  -1.13130  -1.13103  -1.12864
  Beta  occ. eigenvalues --   -1.12853  -1.12778  -1.12239  -1.12229  -1.12188
  Beta  occ. eigenvalues --   -0.18099  -0.14280  -0.10633
  Beta virt. eigenvalues --   -0.07372  -0.06673  -0.05171  -0.04204  -0.02920
  Beta virt. eigenvalues --   -0.02539  -0.01651  -0.01496  -0.00956  -0.00474
  Beta virt. eigenvalues --   -0.00115   0.00162   0.00319   0.00464   0.00710

 Mulliken charges and spin densities:
               1          2
     1  Na   0.949613   0.284899
     2  Na  -0.740811  -0.025912
     3  Na  -0.086059   0.013092
     4  Na   1.074433   0.136656
     5  Na  -0.059807   0.024475
     6  Na  -0.951123   0.244289
     7  Na  -0.186246   0.322502
 Sum of Mulliken charges =  -0.00000   1.00000

 Dipole moment (field-independent basis, Debye):
    X=              0.4730    Y=             -0.5007    Z=             -0.4462  Tot=              0.8207
 Quadrupole moment (field-independent basis, Debye-Ang):
   XX=            -46.9232   YY=            -78.9804   ZZ=            -68.5566
   XY=             -0.3067   XZ=             -0.0764   YZ=             -1.1877

 Normal termination of Gaussian 16 at Thu Dec  7 04:06:12 2023.
