 Gaussian 16, Revision B.01,
 Gaussian 16:  ES64L-G16RevB.01 20-Dec-2017

 -------------------------
 #P B3LYP/6-311+g(d) force
 -------------------------

 -----
 DPGEN
 -----
 Symbolic Z-matrix:
 Charge =  0 Multiplicity = 2

                         Standard orientation:
 ---------------------------------------------------------------------
 Center     Atomic      Atomic             Coordinates (Angstroms)
 Number     Number       Type             X           Y           Z
 ---------------------------------------------------------------------
      1         11           0       -3.058597   -1.010467   -0.493954
      2         11           0       -2.095826    2.115350    0.091321
      3         11           0        0.208642    0.251911   -1.563436
      4         11           0        3.120499   -0.577471   -0.040432
      5         11           0        0.535046   -2.744862   -0.156017
      6         11           0        1.762042    2.456844    0.105968
      7         11           0       -0.471806   -0.491305    2.056550
 ---------------------------------------------------------------------

 SCF Done:  E(UB3LYP) =  -1136.13644649     A.U. after   19 cycles

 The electronic state is 2-A.
 Alpha  occ. eigenvalues --  -38.44309 -38.44203 -38.43720 -38.43469 -38.43392
 Alpha  occ. eigenvalues --  -38.43173 -38.43067  -2.20133  -2.20055  -2.19567
 Alpha  occ. eigenvalues --   -2.19355  -2.19243  -2.19163  -2.18942  -1.13800
 Alpha  occ. eigenvalues --   -1.13797  -1.13772  -1.13732  -1.13720  -1.13697
 Alpha  occ. eigenvalues --   -1.13251  -1.13234  -1.13200  -1.13024  -1.12988
 Alpha  occ. eigenvalues --   -1.12976  -1.12971  -1.12901  -1.12873  -1.12846
 Alpha  occ. eigenvalues --   -1.12801  -1.12770  -1.12619  -1.12607  -1.12567
 Alpha  occ. eigenvalues --   -0.18637  -0.13383  -0.12240  -0.10594
 Alpha virt. eigenvalues --   -0.05908  -0.05335  -0.04420  -0.03315  -0.02803
 Alpha virt. eigenvalues --   -0.02376  -0.01754  -0.01090  -0.00389  -0.00342
 Alpha virt. eigenvalues --   -0.00022   0.00345   0.00750   0.00866   0.00882

  Beta  occ. eigenvalues --  -38.44297 -38.44201 -38.43715 -38.43390 -38.43376
  Beta  occ. eigenvalues --  -38.43118 -38.43060  -2.20113  -2.20055  -2.19561
  Beta  occ. eigenvalues --   -2.19241  -2.19181  -2.19064  -2.18934  -1.13788
  Beta  occ. eigenvalues --   -1.13766  -1.13758  -1.13729  -1.13712  -1.13694
  Beta  occ. eigenvalues --   -1.13246  -1.13207  -1.13195  -1.12962  -1.12911
  Beta  occ. eigenvalues --   -1.12892  -1.12868  -1.12862  -1.12850  -1.12782
  Beta  occ. eigenvalues --   -1.12735  -1.12700  -1.12611  -1.12566  -1.12565
  Beta  occ. eigenvalues --   -0.17931  -0.13156  -0.12017
  Beta virt. eigenvalues --   -0.06700  -0.05834  -0.05331  -0.04368  -0.02563
  Beta virt. eigenvalues --   -0.02039  -0.01648  -0.01352  -0.01022  -0.00416
  Beta virt. eigenvalues --   -0.00388   0.00144   0.00383   0.00820   0.00874

 Mulliken charges and spin densities:
               1          2
     1  Na   0.184706  -0.004075
     2  Na   0.126193   0.013541
     3  Na  -0.264833   0.376185
     4  Na   0.159147  -0.026717
     5  Na   0.236037  -0.050653
     6  Na   0.115626  -0.015631
     7  Na  -0.556876   0.707350
 Sum of Mulliken charges =  -0.00000   1.00000

 Dipole moment (field-independent basis, Debye):
    X=             -0.1328    Y=             -0.0422    Z=              0.1008  Tot=              0.1719
 Quadrupole moment (field-independent basis, Debye-Ang):
   XX=            -53.8721   YY=            -64.5857   ZZ=            -74.8081
   XY=              0.1644   XZ=              1.4946   YZ=              1.8369

 Normal termination of Gaussian 16 at Thu Dec  7 03:22:17 2023.
