 Gaussian 16, Revision B.01,
 Gaussian 16:  ES64L-G16RevB.01 20-Dec-2017

 -------------------------
 #P B3LYP/6-311+g(d) force
 -------------------------

 -----
 DPGEN
 -----
 Symbolic Z-matrix:
 Charge =  0 Multiplicity = 2

                         Standard orientation:
 ---------------------------------------------------------------------
 Center     Atomic      Atomic             Coordinates (Angstroms)
 Number     Number       Type             X           Y           Z
 ---------------------------------------------------------------------
      1         11           0        1.243536   -0.358690    2.212709
      2         11           0        0.536736    1.843557   -0.134797
      3         11           0       -1.942411   -1.047168   -1.613436
      4         11           0        3.650028    0.628192   -0.782015
      5         11           0       -3.125405    1.661497    0.051408
      6         11           0        1.213938   -1.425290   -0.852438
      7         11           0       -1.576421   -1.302098    1.118570
 ---------------------------------------------------------------------

 SCF Done:  E(UB3LYP) =  -1136.11988310     A.U. after   23 cycles

 The electronic state is 2-A.
 Alpha  occ. eigenvalues --  -38.44615 -38.44375 -38.44150 -38.43564 -38.43400
 Alpha  occ. eigenvalues --  -38.43323 -38.43170  -2.20455  -2.20337  -2.20083
 Alpha  occ. eigenvalues --   -2.19441  -2.19402  -2.19167  -2.19151  -1.14145
 Alpha  occ. eigenvalues --   -1.14142  -1.14102  -1.14080  -1.13992  -1.13897
 Alpha  occ. eigenvalues --   -1.13782  -1.13710  -1.13692  -1.13152  -1.13148
 Alpha  occ. eigenvalues --   -1.13103  -1.13064  -1.13026  -1.12977  -1.12870
 Alpha  occ. eigenvalues --   -1.12829  -1.12822  -1.12806  -1.12791  -1.12761
 Alpha  occ. eigenvalues --   -0.19165  -0.14172  -0.11831  -0.11167
 Alpha virt. eigenvalues --   -0.06438  -0.04895  -0.04622  -0.03359  -0.02728
 Alpha virt. eigenvalues --   -0.02378  -0.02152  -0.00906  -0.00673   0.00096
 Alpha virt. eigenvalues --    0.00183   0.00335   0.00529   0.00752   0.00840

  Beta  occ. eigenvalues --  -38.44599 -38.44324 -38.44069 -38.43551 -38.43385
  Beta  occ. eigenvalues --  -38.43322 -38.43134  -2.20426  -2.20244  -2.19935
  Beta  occ. eigenvalues --   -2.19422  -2.19380  -2.19148  -2.19104  -1.14114
  Beta  occ. eigenvalues --   -1.14091  -1.14082  -1.14062  -1.13922  -1.13825
  Beta  occ. eigenvalues --   -1.13678  -1.13608  -1.13586  -1.13145  -1.13102
  Beta  occ. eigenvalues --   -1.13062  -1.13030  -1.13015  -1.12966  -1.12830
  Beta  occ. eigenvalues --   -1.12816  -1.12803  -1.12789  -1.12764  -1.12712
  Beta  occ. eigenvalues --   -0.18415  -0.13958  -0.10915
  Beta virt. eigenvalues --   -0.07846  -0.06177  -0.04749  -0.04039  -0.02986
  Beta virt. eigenvalues --   -0.02274  -0.01897  -0.01739  -0.00793  -0.00292
  Beta virt. eigenvalues --    0.00172   0.00247   0.00394   0.00704   0.00790

 Mulliken charges and spin densities:
               1          2
     1  Na   0.003449   0.064895
     2  Na  -0.698059   0.340870
     3  Na   0.494919   0.073800
     4  Na   0.693290  -0.031417
     5  Na  -0.121665  -0.237280
     6  Na  -0.680116   0.293214
     7  Na   0.308182   0.495919
 Sum of Mulliken charges =  -0.00000   1.00000

 Dipole moment (field-independent basis, Debye):
    X=              0.8556    Y=             -0.1501    Z=              0.0924  Tot=              0.8736
 Quadrupole moment (field-independent basis, Debye-Ang):
   XX=            -52.0317   YY=            -77.1477   ZZ=            -66.2244
   XY=              1.0319   XZ=             -0.1949   YZ=              2.5416

 Normal termination of Gaussian 16 at Tue Dec  5 16:33:53 2023.
