 Gaussian 16, Revision B.01,
 Gaussian 16:  ES64L-G16RevB.01 20-Dec-2017

 -------------------------
 #P B3LYP/6-311+g(d) force
 -------------------------

 -----
 DPGEN
 -----
 Symbolic Z-matrix:
 Charge =  0 Multiplicity = 2

                         Standard orientation:
 ---------------------------------------------------------------------
 Center     Atomic      Atomic             Coordinates (Angstroms)
 Number     Number       Type             X           Y           Z
 ---------------------------------------------------------------------
      1         11           0        0.186137   -0.608745    2.435173
      2         11           0       -1.809616   -2.528658   -0.040863
      3         11           0        3.432731    0.400224   -0.814399
      4         11           0        2.345204   -2.669535   -0.368025
      5         11           0        1.102344    3.258306   -0.530186
      6         11           0       -3.494146   -0.357655   -1.452116
      7         11           0       -1.762654    2.506062    0.770416
 ---------------------------------------------------------------------

 SCF Done:  E(UB3LYP) =  -1136.11585637     A.U. after   19 cycles

 The electronic state is 2-A.
 Alpha  occ. eigenvalues --  -38.44980 -38.44534 -38.44409 -38.44233 -38.44223
 Alpha  occ. eigenvalues --  -38.44143 -38.44134  -2.20766  -2.20301  -2.20189
 Alpha  occ. eigenvalues --   -2.20050  -2.20027  -2.19931  -2.19914  -1.14412
 Alpha  occ. eigenvalues --   -1.14402  -1.14376  -1.13983  -1.13973  -1.13942
 Alpha  occ. eigenvalues --   -1.13876  -1.13855  -1.13832  -1.13816  -1.13706
 Alpha  occ. eigenvalues --   -1.13690  -1.13680  -1.13661  -1.13609  -1.13601
 Alpha  occ. eigenvalues --   -1.13588  -1.13584  -1.13574  -1.13566  -1.13544
 Alpha  occ. eigenvalues --   -0.16504  -0.13272  -0.12677  -0.11053
 Alpha virt. eigenvalues --   -0.06583  -0.06136  -0.04140  -0.03737  -0.03321
 Alpha virt. eigenvalues --   -0.02451  -0.01671  -0.01432  -0.01205  -0.00979
 Alpha virt. eigenvalues --   -0.00304   0.00204   0.00356   0.00469   0.00597

  Beta  occ. eigenvalues --  -38.44873 -38.44538 -38.44403 -38.44220 -38.44176
  Beta  occ. eigenvalues --  -38.44134 -38.44113  -2.20567  -2.20310  -2.20179
  Beta  occ. eigenvalues --   -2.20027  -2.19943  -2.19914  -2.19876  -1.14279
  Beta  occ. eigenvalues --   -1.14266  -1.14235  -1.13986  -1.13982  -1.13939
  Beta  occ. eigenvalues --   -1.13873  -1.13834  -1.13829  -1.13774  -1.13699
  Beta  occ. eigenvalues --   -1.13669  -1.13618  -1.13595  -1.13585  -1.13575
  Beta  occ. eigenvalues --   -1.13562  -1.13560  -1.13555  -1.13545  -1.13518
  Beta  occ. eigenvalues --   -0.15896  -0.12723  -0.12585
  Beta virt. eigenvalues --   -0.07514  -0.06415  -0.05806  -0.03606  -0.03501
  Beta virt. eigenvalues --   -0.02754  -0.01880  -0.01571  -0.01322  -0.01066
  Beta virt. eigenvalues --   -0.00990   0.00012   0.00367   0.00479   0.00612

 Mulliken charges and spin densities:
               1          2
     1  Na   0.024396   0.511452
     2  Na  -0.211621   0.054464
     3  Na  -0.112524   0.217998
     4  Na   0.165371  -0.056358
     5  Na   0.088565  -0.105626
     6  Na   0.238936   0.190755
     7  Na  -0.193123   0.187316
 Sum of Mulliken charges =  -0.00000   1.00000

 Dipole moment (field-independent basis, Debye):
    X=              0.0402    Y=             -0.1418    Z=              0.0184  Tot=              0.1486
 Quadrupole moment (field-independent basis, Debye-Ang):
   XX=            -66.9404   YY=            -63.6012   ZZ=            -70.7733
   XY=             -3.0942   XZ=              0.1280   YZ=             -0.4983

 Normal termination of Gaussian 16 at Sun Dec  3 22:13:57 2023.
