 Gaussian 16, Revision B.01,
 Gaussian 16:  ES64L-G16RevB.01 20-Dec-2017

 -------------------------
 #P B3LYP/6-311+g(d) force
 -------------------------

 -----
 DPGEN
 -----
 Symbolic Z-matrix:
 Charge =  0 Multiplicity = 2

                         Standard orientation:
 ---------------------------------------------------------------------
 Center     Atomic      Atomic             Coordinates (Angstroms)
 Number     Number       Type             X           Y           Z
 ---------------------------------------------------------------------
      1         11           0       -2.863225    1.149342   -0.405526
      2         11           0        0.055828    3.116019    0.268749
      3         11           0        2.031074   -2.295463   -0.746680
      4         11           0        0.106748    0.277553   -1.635427
      5         11           0        0.026443   -0.700385    2.027211
      6         11           0       -2.403853   -2.289905    0.190192
      7         11           0        3.046984    0.742839    0.301482
 ---------------------------------------------------------------------

 SCF Done:  E(UB3LYP) =  -1136.13608432     A.U. after   19 cycles

 The electronic state is 2-A.
 Alpha  occ. eigenvalues --  -38.44159 -38.43935 -38.43796 -38.43775 -38.43774
 Alpha  occ. eigenvalues --  -38.43362 -38.43332  -2.19986  -2.19766  -2.19638
 Alpha  occ. eigenvalues --   -2.19624  -2.19573  -2.19301  -2.19144  -1.13659
 Alpha  occ. eigenvalues --   -1.13653  -1.13628  -1.13463  -1.13428  -1.13389
 Alpha  occ. eigenvalues --   -1.13324  -1.13301  -1.13282  -1.13273  -1.13268
 Alpha  occ. eigenvalues --   -1.13253  -1.13230  -1.13221  -1.13206  -1.12987
 Alpha  occ. eigenvalues --   -1.12941  -1.12933  -1.12816  -1.12804  -1.12780
 Alpha  occ. eigenvalues --   -0.18159  -0.13128  -0.12203  -0.10697
 Alpha virt. eigenvalues --   -0.05639  -0.05369  -0.04853  -0.03241  -0.02961
 Alpha virt. eigenvalues --   -0.02468  -0.01578  -0.01240  -0.00594  -0.00428
 Alpha virt. eigenvalues --   -0.00031   0.00347   0.00746   0.00809   0.00832

  Beta  occ. eigenvalues --  -38.44152 -38.43926 -38.43774 -38.43772 -38.43692
  Beta  occ. eigenvalues --  -38.43329 -38.43304  -2.19976  -2.19752  -2.19594
  Beta  occ. eigenvalues --   -2.19575  -2.19473  -2.19196  -2.19142  -1.13651
  Beta  occ. eigenvalues --   -1.13638  -1.13611  -1.13445  -1.13413  -1.13384
  Beta  occ. eigenvalues --   -1.13285  -1.13249  -1.13249  -1.13235  -1.13228
  Beta  occ. eigenvalues --   -1.13219  -1.13185  -1.13155  -1.13121  -1.12914
  Beta  occ. eigenvalues --   -1.12877  -1.12854  -1.12808  -1.12794  -1.12769
  Beta  occ. eigenvalues --   -0.17473  -0.12891  -0.11972
  Beta virt. eigenvalues --   -0.06892  -0.05551  -0.05305  -0.04704  -0.02562
  Beta virt. eigenvalues --   -0.02284  -0.01570  -0.01424  -0.01122  -0.00584
  Beta virt. eigenvalues --   -0.00442   0.00116   0.00392   0.00825   0.00837

 Mulliken charges and spin densities:
               1          2
     1  Na   0.089837  -0.032757
     2  Na  -0.166198   0.014724
     3  Na   0.183462   0.038840
     4  Na   0.102236   0.305033
     5  Na  -0.373526   0.667636
     6  Na   0.063879  -0.079200
     7  Na   0.100310   0.085722
 Sum of Mulliken charges =  -0.00000   1.00000

 Dipole moment (field-independent basis, Debye):
    X=              0.1169    Y=             -0.1352    Z=              0.1140  Tot=              0.2120
 Quadrupole moment (field-independent basis, Debye-Ang):
   XX=            -56.9547   YY=            -62.5677   ZZ=            -74.3302
   XY=              0.2998   XZ=              0.9518   YZ=              2.4211

 Normal termination of Gaussian 16 at Thu Dec  7 07:41:11 2023.
