 Gaussian 16, Revision B.01,
 Gaussian 16:  ES64L-G16RevB.01 20-Dec-2017

 -------------------------
 #P B3LYP/6-311+g(d) force
 -------------------------

 -----
 DPGEN
 -----
 Symbolic Z-matrix:
 Charge =  0 Multiplicity = 2

                         Standard orientation:
 ---------------------------------------------------------------------
 Center     Atomic      Atomic             Coordinates (Angstroms)
 Number     Number       Type             X           Y           Z
 ---------------------------------------------------------------------
      1         11           0        2.450608    1.792605   -0.562431
      2         11           0       -0.419922    3.264181   -0.972451
      3         11           0       -2.843591    1.667223    0.771101
      4         11           0        3.389265   -1.124937    0.196947
      5         11           0        0.391376   -0.422308    2.007120
      6         11           0       -2.819103   -1.845063   -0.560023
      7         11           0       -0.148632   -3.331700   -0.880263
 ---------------------------------------------------------------------

 SCF Done:  E(UB3LYP) =  -1136.12031700     A.U. after   19 cycles

 The electronic state is 2-A.
 Alpha  occ. eigenvalues --  -38.45008 -38.44511 -38.44193 -38.44105 -38.44031
 Alpha  occ. eigenvalues --  -38.43976 -38.43783  -2.20794  -2.20325  -2.20003
 Alpha  occ. eigenvalues --   -2.19897  -2.19846  -2.19825  -2.19602  -1.14461
 Alpha  occ. eigenvalues --   -1.14448  -1.14404  -1.14019  -1.13978  -1.13962
 Alpha  occ. eigenvalues --   -1.13740  -1.13667  -1.13639  -1.13564  -1.13556
 Alpha  occ. eigenvalues --   -1.13540  -1.13508  -1.13500  -1.13490  -1.13475
 Alpha  occ. eigenvalues --   -1.13461  -1.13460  -1.13261  -1.13258  -1.13229
 Alpha  occ. eigenvalues --   -0.16932  -0.13438  -0.13019  -0.10577
 Alpha virt. eigenvalues --   -0.06555  -0.06082  -0.03988  -0.03860  -0.03342
 Alpha virt. eigenvalues --   -0.01961  -0.01879  -0.01427  -0.01082  -0.00960
 Alpha virt. eigenvalues --   -0.00129   0.00230   0.00399   0.00422   0.00708

  Beta  occ. eigenvalues --  -38.44937 -38.44510 -38.44179 -38.44087 -38.43992
  Beta  occ. eigenvalues --  -38.43947 -38.43753  -2.20661  -2.20325  -2.19981
  Beta  occ. eigenvalues --   -2.19862  -2.19777  -2.19773  -2.19549  -1.14374
  Beta  occ. eigenvalues --   -1.14361  -1.14303  -1.14023  -1.13975  -1.13954
  Beta  occ. eigenvalues --   -1.13710  -1.13655  -1.13610  -1.13539  -1.13536
  Beta  occ. eigenvalues --   -1.13511  -1.13471  -1.13457  -1.13452  -1.13436
  Beta  occ. eigenvalues --   -1.13407  -1.13402  -1.13226  -1.13223  -1.13180
  Beta  occ. eigenvalues --   -0.16399  -0.13116  -0.12518
  Beta virt. eigenvalues --   -0.07144  -0.06307  -0.05993  -0.03728  -0.03287
  Beta virt. eigenvalues --   -0.02770  -0.01790  -0.01447  -0.01269  -0.01050
  Beta virt. eigenvalues --   -0.00797   0.00147   0.00407   0.00483   0.00561

 Mulliken charges and spin densities:
               1          2
     1  Na  -0.266063   0.116759
     2  Na  -0.026470   0.104492
     3  Na   0.078519   0.152429
     4  Na   0.553770   0.027550
     5  Na  -0.285207   0.398864
     6  Na  -0.039932   0.051377
     7  Na  -0.014616   0.148529
 Sum of Mulliken charges =  -0.00000   1.00000

 Dipole moment (field-independent basis, Debye):
    X=              0.3941    Y=             -0.4768    Z=              0.2280  Tot=              0.6592
 Quadrupole moment (field-independent basis, Debye-Ang):
   XX=            -57.8206   YY=            -70.2455   ZZ=            -72.3905
   XY=             -6.9098   XZ=             -0.9107   YZ=             -0.0110

 Normal termination of Gaussian 16 at Sun Dec  3 12:51:15 2023.
