 Gaussian 16, Revision B.01,
 Gaussian 16:  ES64L-G16RevB.01 20-Dec-2017

 -------------------------
 #P B3LYP/6-311+g(d) force
 -------------------------

 -----
 DPGEN
 -----
 Symbolic Z-matrix:
 Charge =  0 Multiplicity = 2

                         Standard orientation:
 ---------------------------------------------------------------------
 Center     Atomic      Atomic             Coordinates (Angstroms)
 Number     Number       Type             X           Y           Z
 ---------------------------------------------------------------------
      1         11           0       -2.593971   -1.954889    0.194151
      2         11           0       -0.010495   -0.159740   -1.824640
      3         11           0        0.289763    2.823168   -0.170186
      4         11           0        0.122969   -0.259309    1.927577
      5         11           0        2.252314   -2.531666   -0.337347
      6         11           0        3.191717    1.026695    0.270173
      7         11           0       -3.252298    1.055740   -0.059727
 ---------------------------------------------------------------------

 SCF Done:  E(UB3LYP) =  -1136.13041761     A.U. after   21 cycles

 The electronic state is 2-A.
 Alpha  occ. eigenvalues --  -38.44780 -38.44661 -38.44174 -38.43955 -38.43610
 Alpha  occ. eigenvalues --  -38.43604 -38.42740  -2.20578  -2.20474  -2.20007
 Alpha  occ. eigenvalues --   -2.19803  -2.19483  -2.19393  -2.18577  -1.14256
 Alpha  occ. eigenvalues --   -1.14233  -1.14213  -1.14176  -1.14136  -1.14109
 Alpha  occ. eigenvalues --   -1.13667  -1.13664  -1.13650  -1.13485  -1.13434
 Alpha  occ. eigenvalues --   -1.13420  -1.13169  -1.13123  -1.13104  -1.13058
 Alpha  occ. eigenvalues --   -1.13048  -1.13038  -1.12263  -1.12244  -1.12213
 Alpha  occ. eigenvalues --   -0.18043  -0.13501  -0.11708  -0.10531
 Alpha virt. eigenvalues --   -0.06374  -0.05708  -0.04272  -0.03407  -0.02591
 Alpha virt. eigenvalues --   -0.02492  -0.02102  -0.01414  -0.00707  -0.00362
 Alpha virt. eigenvalues --   -0.00083   0.00309   0.00637   0.00707   0.00753

  Beta  occ. eigenvalues --  -38.44775 -38.44660 -38.44169 -38.43878 -38.43605
  Beta  occ. eigenvalues --  -38.43525 -38.42736  -2.20571  -2.20475  -2.20000
  Beta  occ. eigenvalues --   -2.19662  -2.19387  -2.19338  -2.18573  -1.14232
  Beta  occ. eigenvalues --   -1.14230  -1.14212  -1.14180  -1.14124  -1.14107
  Beta  occ. eigenvalues --   -1.13666  -1.13650  -1.13635  -1.13389  -1.13336
  Beta  occ. eigenvalues --   -1.13316  -1.13072  -1.13050  -1.13047  -1.13036
  Beta  occ. eigenvalues --   -1.13019  -1.12980  -1.12260  -1.12229  -1.12203
  Beta  occ. eigenvalues --   -0.17331  -0.13324  -0.11469
  Beta virt. eigenvalues --   -0.06726  -0.06224  -0.05701  -0.04204  -0.02709
  Beta virt. eigenvalues --   -0.01982  -0.01880  -0.01543  -0.01263  -0.00765
  Beta virt. eigenvalues --   -0.00383   0.00081   0.00339   0.00721   0.00754

 Mulliken charges and spin densities:
               1          2
     1  Na   0.233885  -0.036630
     2  Na  -0.044116   0.662977
     3  Na  -0.145487  -0.081579
     4  Na  -0.129840   0.573623
     5  Na  -0.060140  -0.099086
     6  Na   0.157233   0.008681
     7  Na  -0.011535  -0.027985
 Sum of Mulliken charges =  -0.00000   1.00000

 Dipole moment (field-independent basis, Debye):
    X=             -0.1314    Y=             -0.0641    Z=              0.1373  Tot=              0.2006
 Quadrupole moment (field-independent basis, Debye-Ang):
   XX=            -51.2027   YY=            -66.6175   ZZ=            -75.7046
   XY=             -0.0027   XZ=              0.3313   YZ=              0.2878

 Normal termination of Gaussian 16 at Thu Dec  7 06:38:45 2023.
