 Gaussian 16, Revision B.01,
 Gaussian 16:  ES64L-G16RevB.01 20-Dec-2017

 -------------------------
 #P B3LYP/6-311+g(d) force
 -------------------------

 -----
 DPGEN
 -----
 Symbolic Z-matrix:
 Charge =  0 Multiplicity = 2

                         Standard orientation:
 ---------------------------------------------------------------------
 Center     Atomic      Atomic             Coordinates (Angstroms)
 Number     Number       Type             X           Y           Z
 ---------------------------------------------------------------------
      1         11           0       -3.186721   -1.076896   -0.255814
      2         11           0        1.550309    2.773611   -0.614159
      3         11           0       -2.054122    2.186038   -0.008682
      4         11           0       -0.038033   -0.138706   -0.974295
      5         11           0       -0.010642   -2.968705    0.017280
      6         11           0        0.654614    0.364854    2.296344
      7         11           0        3.084594   -1.140196   -0.460675
 ---------------------------------------------------------------------

 SCF Done:  E(UB3LYP) =  -1136.13204253     A.U. after   19 cycles

 The electronic state is 2-A.
 Alpha  occ. eigenvalues --  -38.44276 -38.43887 -38.43871 -38.43845 -38.43753
 Alpha  occ. eigenvalues --  -38.43501 -38.42632  -2.20082  -2.19708  -2.19696
 Alpha  occ. eigenvalues --   -2.19693  -2.19572  -2.19354  -2.18726  -1.13764
 Alpha  occ. eigenvalues --   -1.13734  -1.13714  -1.13444  -1.13415  -1.13380
 Alpha  occ. eigenvalues --   -1.13373  -1.13348  -1.13347  -1.13340  -1.13314
 Alpha  occ. eigenvalues --   -1.13296  -1.13246  -1.13226  -1.13206  -1.13019
 Alpha  occ. eigenvalues --   -1.12972  -1.12959  -1.12430  -1.12391  -1.12345
 Alpha  occ. eigenvalues --   -0.18286  -0.12843  -0.12590  -0.10343
 Alpha virt. eigenvalues --   -0.05829  -0.05325  -0.04916  -0.02779  -0.02770
 Alpha virt. eigenvalues --   -0.02247  -0.01671  -0.01398  -0.00687  -0.00591
 Alpha virt. eigenvalues --   -0.00046   0.00303   0.00753   0.00779   0.00845

  Beta  occ. eigenvalues --  -38.44265 -38.43872 -38.43868 -38.43842 -38.43753
  Beta  occ. eigenvalues --  -38.43385 -38.42604  -2.20064  -2.19706  -2.19692
  Beta  occ. eigenvalues --   -2.19670  -2.19574  -2.19139  -2.18680  -1.13745
  Beta  occ. eigenvalues --   -1.13714  -1.13703  -1.13442  -1.13414  -1.13360
  Beta  occ. eigenvalues --   -1.13352  -1.13337  -1.13327  -1.13321  -1.13303
  Beta  occ. eigenvalues --   -1.13298  -1.13241  -1.13225  -1.13209  -1.12874
  Beta  occ. eigenvalues --   -1.12824  -1.12808  -1.12368  -1.12359  -1.12313
  Beta  occ. eigenvalues --   -0.17635  -0.12653  -0.12382
  Beta virt. eigenvalues --   -0.06374  -0.05781  -0.05252  -0.04837  -0.02124
  Beta virt. eigenvalues --   -0.02064  -0.01614  -0.01366  -0.01173  -0.00659
  Beta virt. eigenvalues --   -0.00612   0.00170   0.00377   0.00786   0.00809

 Mulliken charges and spin densities:
               1          2
     1  Na   0.229898   0.031736
     2  Na   0.175853   0.066549
     3  Na   0.386149   0.065464
     4  Na  -0.825122   0.141284
     5  Na   0.338812   0.077934
     6  Na  -0.539865   0.580511
     7  Na   0.234274   0.036521
 Sum of Mulliken charges =  -0.00000   1.00000

 Dipole moment (field-independent basis, Debye):
    X=              0.1852    Y=             -0.0338    Z=              0.1315  Tot=              0.2296
 Quadrupole moment (field-independent basis, Debye-Ang):
   XX=            -55.1521   YY=            -59.3234   ZZ=            -76.7172
   XY=             -0.0108   XZ=             -1.3890   YZ=             -0.8963

 Normal termination of Gaussian 16 at Thu Dec  7 13:15:11 2023.
