 Gaussian 16, Revision B.01,
 Gaussian 16:  ES64L-G16RevB.01 20-Dec-2017

 -------------------------
 #P B3LYP/6-311+g(d) force
 -------------------------

 -----
 DPGEN
 -----
 Symbolic Z-matrix:
 Charge =  0 Multiplicity = 2

                         Standard orientation:
 ---------------------------------------------------------------------
 Center     Atomic      Atomic             Coordinates (Angstroms)
 Number     Number       Type             X           Y           Z
 ---------------------------------------------------------------------
      1         11           0        3.466005    1.047715    0.031729
      2         11           0        0.374651    0.179023   -1.522714
      3         11           0       -0.095211    2.914805   -0.147030
      4         11           0       -3.304796    1.160558    0.226333
      5         11           0       -0.489848   -0.568964    2.049849
      6         11           0       -2.110102   -2.425639   -0.837731
      7         11           0        2.159301   -2.307498    0.199563
 ---------------------------------------------------------------------

 SCF Done:  E(UB3LYP) =  -1136.12895140     A.U. after   19 cycles

 The electronic state is 2-A.
 Alpha  occ. eigenvalues --  -38.44767 -38.44764 -38.43993 -38.43829 -38.43749
 Alpha  occ. eigenvalues --  -38.43357 -38.43337  -2.20537  -2.20529  -2.19793
 Alpha  occ. eigenvalues --   -2.19615  -2.19580  -2.19285  -2.19162  -1.14217
 Alpha  occ. eigenvalues --   -1.14205  -1.14187  -1.14179  -1.14176  -1.14174
 Alpha  occ. eigenvalues --   -1.13471  -1.13464  -1.13422  -1.13285  -1.13264
 Alpha  occ. eigenvalues --   -1.13255  -1.13252  -1.13211  -1.13194  -1.13038
 Alpha  occ. eigenvalues --   -1.12957  -1.12892  -1.12825  -1.12819  -1.12765
 Alpha  occ. eigenvalues --   -0.17755  -0.13046  -0.12039  -0.10309
 Alpha virt. eigenvalues --   -0.06335  -0.05729  -0.04534  -0.03160  -0.02740
 Alpha virt. eigenvalues --   -0.02255  -0.02061  -0.01542  -0.00740  -0.00527
 Alpha virt. eigenvalues --   -0.00087   0.00273   0.00640   0.00731   0.00749

  Beta  occ. eigenvalues --  -38.44770 -38.44760 -38.43987 -38.43795 -38.43670
  Beta  occ. eigenvalues --  -38.43334 -38.43305  -2.20543  -2.20524  -2.19786
  Beta  occ. eigenvalues --   -2.19554  -2.19433  -2.19192  -2.19159  -1.14215
  Beta  occ. eigenvalues --   -1.14192  -1.14186  -1.14181  -1.14174  -1.14173
  Beta  occ. eigenvalues --   -1.13465  -1.13442  -1.13420  -1.13231  -1.13218
  Beta  occ. eigenvalues --   -1.13215  -1.13155  -1.13112  -1.13085  -1.12990
  Beta  occ. eigenvalues --   -1.12893  -1.12828  -1.12811  -1.12792  -1.12757
  Beta  occ. eigenvalues --   -0.17122  -0.12858  -0.11767
  Beta virt. eigenvalues --   -0.06595  -0.06212  -0.05642  -0.04399  -0.02568
  Beta virt. eigenvalues --   -0.02080  -0.01966  -0.01421  -0.01309  -0.00750
  Beta virt. eigenvalues --   -0.00515   0.00088   0.00321   0.00726   0.00743

 Mulliken charges and spin densities:
               1          2
     1  Na  -0.051025  -0.072864
     2  Na   0.294229   0.406289
     3  Na  -0.101514  -0.100346
     4  Na   0.098242   0.026784
     5  Na  -0.277890   0.639693
     6  Na  -0.085818   0.094836
     7  Na   0.123777   0.005607
 Sum of Mulliken charges =  -0.00000   1.00000

 Dipole moment (field-independent basis, Debye):
    X=              0.2039    Y=              0.1070    Z=              0.2163  Tot=              0.3159
 Quadrupole moment (field-independent basis, Debye-Ang):
   XX=            -50.3801   YY=            -65.1870   ZZ=            -76.4915
   XY=             -0.1638   XZ=              1.2822   YZ=              1.7133

 Normal termination of Gaussian 16 at Thu Dec  7 18:18:17 2023.
