 Gaussian 16, Revision B.01,
 Gaussian 16:  ES64L-G16RevB.01 20-Dec-2017

 -------------------------
 #P B3LYP/6-311+g(d) force
 -------------------------

 -----
 DPGEN
 -----
 Symbolic Z-matrix:
 Charge =  0 Multiplicity = 2

                         Standard orientation:
 ---------------------------------------------------------------------
 Center     Atomic      Atomic             Coordinates (Angstroms)
 Number     Number       Type             X           Y           Z
 ---------------------------------------------------------------------
      1         11           0       -1.815669   -1.206671    2.023191
      2         11           0       -3.904341    1.195731   -0.038762
      3         11           0        3.389072    1.053418    0.478095
      4         11           0       -3.742861   -1.688912   -1.155571
      5         11           0        6.074756   -0.896242   -0.364098
      6         11           0       -0.694395    2.189848   -0.318688
      7         11           0        0.693439   -0.647172   -0.624166
 ---------------------------------------------------------------------

 SCF Done:  E(UB3LYP) =  -1136.10845898     A.U. after   25 cycles

 The electronic state is 2-A.
 Alpha  occ. eigenvalues --  -38.45799 -38.44703 -38.44578 -38.44383 -38.43705
 Alpha  occ. eigenvalues --  -38.43480 -38.43199  -2.21598  -2.20550  -2.20398
 Alpha  occ. eigenvalues --   -2.20266  -2.19510  -2.19344  -2.18946  -1.15272
 Alpha  occ. eigenvalues --   -1.15230  -1.15206  -1.14233  -1.14209  -1.14187
 Alpha  occ. eigenvalues --   -1.14123  -1.14057  -1.14024  -1.13925  -1.13911
 Alpha  occ. eigenvalues --   -1.13858  -1.13205  -1.13196  -1.13098  -1.13022
 Alpha  occ. eigenvalues --   -1.12999  -1.12962  -1.12621  -1.12619  -1.12587
 Alpha  occ. eigenvalues --   -0.17636  -0.13703  -0.11690  -0.10777
 Alpha virt. eigenvalues --   -0.07482  -0.05464  -0.04488  -0.03322  -0.03160
 Alpha virt. eigenvalues --   -0.02552  -0.02337  -0.01538  -0.01236  -0.00865
 Alpha virt. eigenvalues --   -0.00452  -0.00070   0.00212   0.00464   0.00467

  Beta  occ. eigenvalues --  -38.45723 -38.44697 -38.44554 -38.44321 -38.43700
  Beta  occ. eigenvalues --  -38.43439 -38.43220  -2.21458  -2.20539  -2.20355
  Beta  occ. eigenvalues --   -2.20155  -2.19499  -2.19269  -2.18986  -1.15162
  Beta  occ. eigenvalues --   -1.15137  -1.15108  -1.14225  -1.14206  -1.14161
  Beta  occ. eigenvalues --   -1.14080  -1.14030  -1.13982  -1.13849  -1.13834
  Beta  occ. eigenvalues --   -1.13772  -1.13195  -1.13186  -1.13104  -1.12977
  Beta  occ. eigenvalues --   -1.12948  -1.12896  -1.12649  -1.12647  -1.12612
  Beta  occ. eigenvalues --   -0.16843  -0.13640  -0.10818
  Beta virt. eigenvalues --   -0.07582  -0.07055  -0.05382  -0.04028  -0.03040
  Beta virt. eigenvalues --   -0.02755  -0.02141  -0.01651  -0.01341  -0.00937
  Beta virt. eigenvalues --   -0.00801  -0.00436   0.00100   0.00266   0.00514

 Mulliken charges and spin densities:
               1          2
     1  Na   0.061618   0.437899
     2  Na   0.003108   0.300719
     3  Na   0.206334  -0.022873
     4  Na   0.322324   0.127666
     5  Na   0.168710  -0.118533
     6  Na   0.132076   0.155629
     7  Na  -0.894170   0.119495
 Sum of Mulliken charges =  -0.00000   1.00000

 Dipole moment (field-independent basis, Debye):
    X=             -2.1023    Y=             -0.5441    Z=              0.4967  Tot=              2.2276
 Quadrupole moment (field-independent basis, Debye-Ang):
   XX=            -81.0834   YY=            -67.3193   ZZ=            -63.3249
   XY=             -1.9480   XZ=             -2.8098   YZ=              5.4018

 Normal termination of Gaussian 16 at Wed Nov 29 01:44:49 2023.
