 Gaussian 16, Revision B.01,
 Gaussian 16:  ES64L-G16RevB.01 20-Dec-2017

 -------------------------
 #P B3LYP/6-311+g(d) force
 -------------------------

 -----
 DPGEN
 -----
 Symbolic Z-matrix:
 Charge =  0 Multiplicity = 2

                         Standard orientation:
 ---------------------------------------------------------------------
 Center     Atomic      Atomic             Coordinates (Angstroms)
 Number     Number       Type             X           Y           Z
 ---------------------------------------------------------------------
      1         11           0       -0.197875   -0.110125   -1.822373
      2         11           0       -2.903311    0.837541    0.061181
      3         11           0        0.221718    0.061252    1.883950
      4         11           0        2.807865    0.922453   -0.265216
      5         11           0       -0.069927    2.938417    0.038184
      6         11           0        1.844938   -2.228768    0.091395
      7         11           0       -1.703408   -2.420769    0.012879
 ---------------------------------------------------------------------

 SCF Done:  E(UB3LYP) =  -1136.14254729     A.U. after   18 cycles

 The electronic state is 2-A.
 Alpha  occ. eigenvalues --  -38.43724 -38.43589 -38.43468 -38.43404 -38.43369
 Alpha  occ. eigenvalues --  -38.43338 -38.43274  -2.19571  -2.19460  -2.19329
 Alpha  occ. eigenvalues --   -2.19288  -2.19283  -2.19232  -2.19222  -1.13252
 Alpha  occ. eigenvalues --   -1.13240  -1.13212  -1.13150  -1.13128  -1.13111
 Alpha  occ. eigenvalues --   -1.13037  -1.13008  -1.12985  -1.12966  -1.12962
 Alpha  occ. eigenvalues --   -1.12949  -1.12913  -1.12907  -1.12906  -1.12893
 Alpha  occ. eigenvalues --   -1.12885  -1.12866  -1.12854  -1.12847  -1.12840
 Alpha  occ. eigenvalues --   -0.18945  -0.12976  -0.12656  -0.10829
 Alpha virt. eigenvalues --   -0.05289  -0.05091  -0.04849  -0.03175  -0.02984
 Alpha virt. eigenvalues --   -0.02559  -0.01286  -0.01121  -0.00257  -0.00230
 Alpha virt. eigenvalues --   -0.00002   0.00383   0.00870   0.00920   0.00930

  Beta  occ. eigenvalues --  -38.43721 -38.43582 -38.43464 -38.43398 -38.43364
  Beta  occ. eigenvalues --  -38.43254 -38.43196  -2.19568  -2.19450  -2.19324
  Beta  occ. eigenvalues --   -2.19280  -2.19218  -2.19130  -2.19089  -1.13248
  Beta  occ. eigenvalues --   -1.13222  -1.13209  -1.13144  -1.13108  -1.13091
  Beta  occ. eigenvalues --   -1.13023  -1.12977  -1.12972  -1.12956  -1.12921
  Beta  occ. eigenvalues --   -1.12910  -1.12906  -1.12869  -1.12855  -1.12843
  Beta  occ. eigenvalues --   -1.12803  -1.12790  -1.12781  -1.12749  -1.12744
  Beta  occ. eigenvalues --   -0.18194  -0.12732  -0.12404
  Beta virt. eigenvalues --   -0.06904  -0.05285  -0.05095  -0.04796  -0.02359
  Beta virt. eigenvalues --   -0.02179  -0.01501  -0.01202  -0.01049  -0.00318
  Beta virt. eigenvalues --   -0.00294   0.00124   0.00394   0.00895   0.00915

 Mulliken charges and spin densities:
               1          2
     1  Na  -0.330264   0.695983
     2  Na   0.083905  -0.111262
     3  Na  -0.384667   0.742805
     4  Na   0.152017  -0.048668
     5  Na   0.092557  -0.106426
     6  Na   0.234093  -0.065006
     7  Na   0.152359  -0.107426
 Sum of Mulliken charges =  -0.00000   1.00000

 Dipole moment (field-independent basis, Debye):
    X=             -0.0858    Y=              0.0260    Z=              0.0192  Tot=              0.0917
 Quadrupole moment (field-independent basis, Debye-Ang):
   XX=            -58.6944   YY=            -61.2125   ZZ=            -73.7670
   XY=              0.0685   XZ=             -0.9973   YZ=             -0.4336

 Normal termination of Gaussian 16 at Thu Dec  7 20:51:42 2023.
