 Gaussian 16, Revision B.01,
 Gaussian 16:  ES64L-G16RevB.01 20-Dec-2017

 -------------------------
 #P B3LYP/6-311+g(d) force
 -------------------------

 -----
 DPGEN
 -----
 Symbolic Z-matrix:
 Charge =  0 Multiplicity = 2

                         Standard orientation:
 ---------------------------------------------------------------------
 Center     Atomic      Atomic             Coordinates (Angstroms)
 Number     Number       Type             X           Y           Z
 ---------------------------------------------------------------------
      1         11           0        2.198155    1.103667    0.578665
      2         11           0       -3.062856   -1.507886    0.766793
      3         11           0        3.980721   -1.339302   -0.467115
      4         11           0       -0.433325    3.014760   -0.249327
      5         11           0       -0.495661   -0.082343    2.144105
      6         11           0       -0.141965   -1.512737   -0.935565
      7         11           0       -2.045069    0.323841   -1.837556
 ---------------------------------------------------------------------

 SCF Done:  E(UB3LYP) =  -1136.11976539     A.U. after   23 cycles

 The electronic state is 2-A.
 Alpha  occ. eigenvalues --  -38.44724 -38.44533 -38.44475 -38.44416 -38.43924
 Alpha  occ. eigenvalues --  -38.43242 -38.42664  -2.20624  -2.20481  -2.20402
 Alpha  occ. eigenvalues --   -2.20293  -2.19709  -2.19140  -2.18486  -1.14435
 Alpha  occ. eigenvalues --   -1.14307  -1.14289  -1.14215  -1.14118  -1.14078
 Alpha  occ. eigenvalues --   -1.14044  -1.14014  -1.13956  -1.13948  -1.13913
 Alpha  occ. eigenvalues --   -1.13890  -1.13398  -1.13368  -1.13340  -1.12853
 Alpha  occ. eigenvalues --   -1.12815  -1.12742  -1.12163  -1.12150  -1.12127
 Alpha  occ. eigenvalues --   -0.18615  -0.13578  -0.11967  -0.11534
 Alpha virt. eigenvalues --   -0.06500  -0.04782  -0.04446  -0.03524  -0.03115
 Alpha virt. eigenvalues --   -0.02739  -0.02143  -0.01022  -0.00567   0.00075
 Alpha virt. eigenvalues --    0.00177   0.00309   0.00335   0.00631   0.00874

  Beta  occ. eigenvalues --  -38.44629 -38.44460 -38.44444 -38.44395 -38.43923
  Beta  occ. eigenvalues --  -38.43238 -38.42666  -2.20452  -2.20372  -2.20327
  Beta  occ. eigenvalues --   -2.20257  -2.19708  -2.19135  -2.18491  -1.14353
  Beta  occ. eigenvalues --   -1.14197  -1.14166  -1.14091  -1.14045  -1.14014
  Beta  occ. eigenvalues --   -1.13972  -1.13950  -1.13921  -1.13903  -1.13866
  Beta  occ. eigenvalues --   -1.13848  -1.13398  -1.13366  -1.13339  -1.12838
  Beta  occ. eigenvalues --   -1.12809  -1.12742  -1.12169  -1.12147  -1.12124
  Beta  occ. eigenvalues --   -0.17833  -0.13389  -0.11410
  Beta virt. eigenvalues --   -0.07903  -0.06240  -0.04553  -0.04064  -0.03085
  Beta virt. eigenvalues --   -0.02441  -0.02126  -0.01932  -0.00934  -0.00274
  Beta virt. eigenvalues --    0.00058   0.00228   0.00395   0.00585   0.00759

 Mulliken charges and spin densities:
               1          2
     1  Na   0.115243   0.026050
     2  Na   0.120167  -0.036327
     3  Na   0.145295  -0.052130
     4  Na  -0.484357  -0.000690
     5  Na   0.231876   0.434999
     6  Na  -0.947488   0.520129
     7  Na   0.819264   0.107971
 Sum of Mulliken charges =  -0.00000   1.00000

 Dipole moment (field-independent basis, Debye):
    X=             -0.9467    Y=             -0.4592    Z=              0.1872  Tot=              1.0687
 Quadrupole moment (field-independent basis, Debye-Ang):
   XX=            -55.9721   YY=            -71.5340   ZZ=            -68.7326
   XY=              0.3463   XZ=             -0.8626   YZ=             -0.6481

 Normal termination of Gaussian 16 at Tue Dec  5 14:35:50 2023.
