 Gaussian 16, Revision B.01,
 Gaussian 16:  ES64L-G16RevB.01 20-Dec-2017

 -------------------------
 #P B3LYP/6-311+g(d) force
 -------------------------

 -----
 DPGEN
 -----
 Symbolic Z-matrix:
 Charge =  0 Multiplicity = 2

                         Standard orientation:
 ---------------------------------------------------------------------
 Center     Atomic      Atomic             Coordinates (Angstroms)
 Number     Number       Type             X           Y           Z
 ---------------------------------------------------------------------
      1         11           0        1.914132    2.235513   -0.156978
      2         11           0        2.946144   -0.922299   -0.346196
      3         11           0       -3.066783   -0.217317   -0.198345
      4         11           0       -0.565411   -2.901221   -0.314577
      5         11           0       -1.382855    2.660587    0.205441
      6         11           0        0.280960   -0.730464    2.261247
      7         11           0       -0.126188   -0.124800   -1.450592
 ---------------------------------------------------------------------

 SCF Done:  E(UB3LYP) =  -1136.13555925     A.U. after   19 cycles

 The electronic state is 2-A.
 Alpha  occ. eigenvalues --  -38.43945 -38.43942 -38.43824 -38.43707 -38.43500
 Alpha  occ. eigenvalues --  -38.43369 -38.43002  -2.19791  -2.19785  -2.19673
 Alpha  occ. eigenvalues --   -2.19575  -2.19361  -2.19218  -2.19046  -1.13495
 Alpha  occ. eigenvalues --   -1.13470  -1.13451  -1.13450  -1.13421  -1.13420
 Alpha  occ. eigenvalues --   -1.13330  -1.13309  -1.13306  -1.13293  -1.13219
 Alpha  occ. eigenvalues --   -1.13183  -1.13054  -1.13023  -1.13005  -1.12888
 Alpha  occ. eigenvalues --   -1.12875  -1.12857  -1.12719  -1.12684  -1.12671
 Alpha  occ. eigenvalues --   -0.18615  -0.12968  -0.12676  -0.10795
 Alpha virt. eigenvalues --   -0.05659  -0.04998  -0.04852  -0.03111  -0.03027
 Alpha virt. eigenvalues --   -0.02619  -0.01450  -0.01125  -0.00410  -0.00297
 Alpha virt. eigenvalues --   -0.00028   0.00344   0.00832   0.00851   0.00904

  Beta  occ. eigenvalues --  -38.43939 -38.43937 -38.43718 -38.43698 -38.43498
  Beta  occ. eigenvalues --  -38.43367 -38.42950  -2.19787  -2.19775  -2.19564
  Beta  occ. eigenvalues --   -2.19476  -2.19358  -2.19216  -2.18953  -1.13488
  Beta  occ. eigenvalues --   -1.13460  -1.13432  -1.13429  -1.13421  -1.13410
  Beta  occ. eigenvalues --   -1.13302  -1.13217  -1.13183  -1.13178  -1.13155
  Beta  occ. eigenvalues --   -1.13146  -1.13052  -1.13009  -1.13001  -1.12885
  Beta  occ. eigenvalues --   -1.12862  -1.12857  -1.12654  -1.12613  -1.12602
  Beta  occ. eigenvalues --   -0.17929  -0.12740  -0.12456
  Beta virt. eigenvalues --   -0.06822  -0.05656  -0.04984  -0.04749  -0.02333
  Beta virt. eigenvalues --   -0.02261  -0.01544  -0.01376  -0.01067  -0.00463
  Beta virt. eigenvalues --   -0.00325   0.00160   0.00393   0.00845   0.00884

 Mulliken charges and spin densities:
               1          2
     1  Na   0.092547   0.046734
     2  Na   0.355671   0.011826
     3  Na   0.281167   0.049120
     4  Na   0.373584  -0.013557
     5  Na   0.008136   0.048834
     6  Na  -0.737297   0.758481
     7  Na  -0.373809   0.098562
 Sum of Mulliken charges =  -0.00000   1.00000

 Dipole moment (field-independent basis, Debye):
    X=              0.0131    Y=             -0.2663    Z=              0.1991  Tot=              0.3328
 Quadrupole moment (field-independent basis, Debye-Ang):
   XX=            -58.0155   YY=            -61.7604   ZZ=            -74.3426
   XY=             -0.0797   XZ=             -0.8146   YZ=              1.3822

 Normal termination of Gaussian 16 at Fri Dec  8 02:01:49 2023.
