 Gaussian 16, Revision B.01,
 Gaussian 16:  ES64L-G16RevB.01 20-Dec-2017

 -------------------------
 #P B3LYP/6-311+g(d) force
 -------------------------

 -----
 DPGEN
 -----
 Symbolic Z-matrix:
 Charge =  0 Multiplicity = 2

                         Standard orientation:
 ---------------------------------------------------------------------
 Center     Atomic      Atomic             Coordinates (Angstroms)
 Number     Number       Type             X           Y           Z
 ---------------------------------------------------------------------
      1         11           0       -0.022972   -2.588259   -0.067483
      2         11           0       -2.136659    2.118002   -0.092952
      3         11           0       -2.966113   -1.091408    0.084699
      4         11           0        0.037109   -0.081449   -1.774646
      5         11           0        0.026847    0.232247    1.907499
      6         11           0        1.775949    2.258674   -0.167819
      7         11           0        3.285838   -0.847805    0.110703
 ---------------------------------------------------------------------

 SCF Done:  E(UB3LYP) =  -1136.13618114     A.U. after   19 cycles

 The electronic state is 2-A.
 Alpha  occ. eigenvalues --  -38.44582 -38.44079 -38.43497 -38.43483 -38.43483
 Alpha  occ. eigenvalues --  -38.43318 -38.42828  -2.20377  -2.19936  -2.19405
 Alpha  occ. eigenvalues --   -2.19346  -2.19342  -2.19294  -2.18740  -1.14048
 Alpha  occ. eigenvalues --   -1.14034  -1.14019  -1.13603  -1.13598  -1.13592
 Alpha  occ. eigenvalues --   -1.13106  -1.13063  -1.13049  -1.13041  -1.13020
 Alpha  occ. eigenvalues --   -1.13006  -1.12994  -1.12988  -1.12979  -1.12957
 Alpha  occ. eigenvalues --   -1.12922  -1.12887  -1.12440  -1.12399  -1.12345
 Alpha  occ. eigenvalues --   -0.18851  -0.13331  -0.12148  -0.10735
 Alpha virt. eigenvalues --   -0.06091  -0.05264  -0.04096  -0.03305  -0.02740
 Alpha virt. eigenvalues --   -0.02495  -0.01924  -0.01118  -0.00281  -0.00129
 Alpha virt. eigenvalues --   -0.00029   0.00337   0.00743   0.00875   0.00922

  Beta  occ. eigenvalues --  -38.44581 -38.44077 -38.43493 -38.43476 -38.43399
  Beta  occ. eigenvalues --  -38.43238 -38.42818  -2.20378  -2.19934  -2.19341
  Beta  occ. eigenvalues --   -2.19333  -2.19252  -2.19149  -2.18728  -1.14040
  Beta  occ. eigenvalues --   -1.14030  -1.14022  -1.13604  -1.13598  -1.13570
  Beta  occ. eigenvalues --   -1.13055  -1.13022  -1.13000  -1.12989  -1.12982
  Beta  occ. eigenvalues --   -1.12976  -1.12955  -1.12915  -1.12906  -1.12897
  Beta  occ. eigenvalues --   -1.12828  -1.12786  -1.12427  -1.12358  -1.12341
  Beta  occ. eigenvalues --   -0.18101  -0.13117  -0.11881
  Beta virt. eigenvalues --   -0.06812  -0.06036  -0.05279  -0.04093  -0.02520
  Beta virt. eigenvalues --   -0.01935  -0.01823  -0.01431  -0.01064  -0.00344
  Beta virt. eigenvalues --   -0.00165   0.00109   0.00356   0.00801   0.00861

 Mulliken charges and spin densities:
               1          2
     1  Na   0.244652  -0.092013
     2  Na   0.194769  -0.101249
     3  Na   0.136943  -0.030903
     4  Na  -0.329599   0.668631
     5  Na  -0.475932   0.761770
     6  Na   0.163004  -0.131184
     7  Na   0.066163  -0.075052
 Sum of Mulliken charges =  -0.00000   1.00000

 Dipole moment (field-independent basis, Debye):
    X=              0.2642    Y=              0.0375    Z=              0.1201  Tot=              0.2926
 Quadrupole moment (field-independent basis, Debye-Ang):
   XX=            -51.4881   YY=            -66.6712   ZZ=            -74.4509
   XY=             -0.5010   XZ=              0.1139   YZ=             -0.9137

 Normal termination of Gaussian 16 at Thu Dec  7 18:42:10 2023.
