 Gaussian 16, Revision B.01,
 Gaussian 16:  ES64L-G16RevB.01 20-Dec-2017

 -------------------------
 #P B3LYP/6-311+g(d) force
 -------------------------

 -----
 DPGEN
 -----
 Symbolic Z-matrix:
 Charge =  0 Multiplicity = 2

                         Standard orientation:
 ---------------------------------------------------------------------
 Center     Atomic      Atomic             Coordinates (Angstroms)
 Number     Number       Type             X           Y           Z
 ---------------------------------------------------------------------
      1         11           0       -1.352534   -2.607478    0.384845
      2         11           0        0.009443    0.467190    2.119279
      3         11           0       -2.977906    0.261571   -0.328123
      4         11           0        2.383541   -1.853974   -0.358997
      5         11           0        2.458501    1.295663    0.070122
      6         11           0       -0.537407    2.814205   -0.428970
      7         11           0        0.016363   -0.377176   -1.458156
 ---------------------------------------------------------------------

 SCF Done:  E(UB3LYP) =  -1136.13637774     A.U. after   19 cycles

 The electronic state is 2-A.
 Alpha  occ. eigenvalues --  -38.43776 -38.43699 -38.43590 -38.43572 -38.43448
 Alpha  occ. eigenvalues --  -38.43248 -38.42950  -2.19640  -2.19599  -2.19461
 Alpha  occ. eigenvalues --   -2.19446  -2.19375  -2.19124  -2.19023  -1.13340
 Alpha  occ. eigenvalues --   -1.13300  -1.13279  -1.13276  -1.13229  -1.13224
 Alpha  occ. eigenvalues --   -1.13216  -1.13146  -1.13134  -1.13103  -1.13086
 Alpha  occ. eigenvalues --   -1.13066  -1.13050  -1.13032  -1.12977  -1.12812
 Alpha  occ. eigenvalues --   -1.12779  -1.12756  -1.12690  -1.12650  -1.12638
 Alpha  occ. eigenvalues --   -0.19062  -0.13141  -0.12609  -0.10958
 Alpha virt. eigenvalues --   -0.05284  -0.05024  -0.04735  -0.03237  -0.03004
 Alpha virt. eigenvalues --   -0.02580  -0.01303  -0.01074  -0.00224  -0.00090
 Alpha virt. eigenvalues --    0.00020   0.00362   0.00859   0.00919   0.00938

  Beta  occ. eigenvalues --  -38.43769 -38.43601 -38.43582 -38.43565 -38.43440
  Beta  occ. eigenvalues --  -38.43237 -38.42897  -2.19630  -2.19451  -2.19434
  Beta  occ. eigenvalues --   -2.19417  -2.19365  -2.19108  -2.18928  -1.13329
  Beta  occ. eigenvalues --   -1.13278  -1.13269  -1.13214  -1.13162  -1.13140
  Beta  occ. eigenvalues --   -1.13123  -1.13105  -1.13092  -1.13073  -1.13068
  Beta  occ. eigenvalues --   -1.13059  -1.13038  -1.12994  -1.12966  -1.12795
  Beta  occ. eigenvalues --   -1.12761  -1.12735  -1.12622  -1.12581  -1.12572
  Beta  occ. eigenvalues --   -0.18337  -0.12882  -0.12365
  Beta virt. eigenvalues --   -0.07004  -0.05264  -0.04980  -0.04675  -0.02430
  Beta virt. eigenvalues --   -0.02261  -0.01512  -0.01220  -0.01000  -0.00223
  Beta virt. eigenvalues --   -0.00129   0.00149   0.00397   0.00902   0.00930

 Mulliken charges and spin densities:
               1          2
     1  Na   0.088196   0.086138
     2  Na  -0.633130   0.653775
     3  Na   0.159102  -0.032099
     4  Na   0.302777   0.017620
     5  Na   0.438564   0.084845
     6  Na   0.142740   0.006351
     7  Na  -0.498248   0.183370
 Sum of Mulliken charges =  -0.00000   1.00000

 Dipole moment (field-independent basis, Debye):
    X=             -0.1903    Y=             -0.0682    Z=              0.2901  Tot=              0.3536
 Quadrupole moment (field-independent basis, Debye-Ang):
   XX=            -58.9328   YY=            -61.7484   ZZ=            -73.2024
   XY=             -0.3372   XZ=              0.0517   YZ=             -1.8152

 Normal termination of Gaussian 16 at Fri Dec  8 00:22:08 2023.
