 Gaussian 16, Revision B.01,
 Gaussian 16:  ES64L-G16RevB.01 20-Dec-2017

 -------------------------
 #P B3LYP/6-311+g(d) force
 -------------------------

 -----
 DPGEN
 -----
 Symbolic Z-matrix:
 Charge =  0 Multiplicity = 2

                         Standard orientation:
 ---------------------------------------------------------------------
 Center     Atomic      Atomic             Coordinates (Angstroms)
 Number     Number       Type             X           Y           Z
 ---------------------------------------------------------------------
      1         11           0        0.014517    0.168250    1.893227
      2         11           0       -0.099529   -0.004937   -1.789849
      3         11           0       -2.083362    1.509222   -0.112553
      4         11           0       -2.301021   -1.361636    0.071934
      5         11           0        0.677494   -2.085787    0.046589
      6         11           0        2.740554   -0.263285   -0.113185
      7         11           0        1.051347    2.038172    0.003836
 ---------------------------------------------------------------------

 SCF Done:  E(UB3LYP) =  -1136.10326286     A.U. after   19 cycles

 The electronic state is 2-A.
 Alpha  occ. eigenvalues --  -38.44112 -38.43998 -38.43889 -38.43545 -38.43452
 Alpha  occ. eigenvalues --  -38.43093 -38.43080  -2.20156  -2.20121  -2.20065
 Alpha  occ. eigenvalues --   -2.19564  -2.19486  -2.19200  -2.19193  -1.13978
 Alpha  occ. eigenvalues --   -1.13909  -1.13844  -1.13803  -1.13792  -1.13758
 Alpha  occ. eigenvalues --   -1.13748  -1.13709  -1.13678  -1.13388  -1.13245
 Alpha  occ. eigenvalues --   -1.13191  -1.13151  -1.13117  -1.13022  -1.12864
 Alpha  occ. eigenvalues --   -1.12855  -1.12837  -1.12821  -1.12791  -1.12768
 Alpha  occ. eigenvalues --   -0.21088  -0.13954  -0.12592  -0.12053
 Alpha virt. eigenvalues --   -0.05393  -0.04493  -0.03860  -0.03777  -0.03037
 Alpha virt. eigenvalues --   -0.02898  -0.01267  -0.00535  -0.00090   0.00350
 Alpha virt. eigenvalues --    0.00628   0.00642   0.00977   0.01106   0.01123

  Beta  occ. eigenvalues --  -38.44104 -38.43901 -38.43799 -38.43537 -38.43442
  Beta  occ. eigenvalues --  -38.43079 -38.43065  -2.20147  -2.19947  -2.19902
  Beta  occ. eigenvalues --   -2.19555  -2.19474  -2.19180  -2.19174  -1.13962
  Beta  occ. eigenvalues --   -1.13896  -1.13757  -1.13724  -1.13684  -1.13656
  Beta  occ. eigenvalues --   -1.13641  -1.13594  -1.13570  -1.13380  -1.13240
  Beta  occ. eigenvalues --   -1.13145  -1.13140  -1.13065  -1.13021  -1.12855
  Beta  occ. eigenvalues --   -1.12844  -1.12786  -1.12767  -1.12761  -1.12747
  Beta  occ. eigenvalues --   -0.20258  -0.13602  -0.12246
  Beta virt. eigenvalues --   -0.07914  -0.05409  -0.04489  -0.03833  -0.02816
  Beta virt. eigenvalues --   -0.02140  -0.01816  -0.01182  -0.00497   0.00056
  Beta virt. eigenvalues --    0.00370   0.00590   0.00625   0.01018   0.01097

 Mulliken charges and spin densities:
               1          2
     1  Na  -0.306488   0.509476
     2  Na  -0.209674   0.442992
     3  Na   0.123041  -0.002370
     4  Na   0.002086  -0.020943
     5  Na   0.159814   0.081483
     6  Na   0.009315  -0.052481
     7  Na   0.221906   0.041843
 Sum of Mulliken charges =  -0.00000   1.00000

 Dipole moment (field-independent basis, Debye):
    X=             -0.1108    Y=              0.0386    Z=              0.1061  Tot=              0.1582
 Quadrupole moment (field-independent basis, Debye-Ang):
   XX=            -57.9420   YY=            -70.2935   ZZ=            -68.7865
   XY=              0.1442   XZ=             -0.3497   YZ=             -0.3996

 Normal termination of Gaussian 16 at Thu Dec  7 21:32:56 2023.
