 Gaussian 16, Revision B.01,
 Gaussian 16:  ES64L-G16RevB.01 20-Dec-2017

 -------------------------
 #P B3LYP/6-311+g(d) force
 -------------------------

 -----
 DPGEN
 -----
 Symbolic Z-matrix:
 Charge =  0 Multiplicity = 2

                         Standard orientation:
 ---------------------------------------------------------------------
 Center     Atomic      Atomic             Coordinates (Angstroms)
 Number     Number       Type             X           Y           Z
 ---------------------------------------------------------------------
      1         11           0        2.970386    0.843067   -0.401297
      2         11           0       -0.357489   -0.645422   -1.809441
      3         11           0       -2.360100   -2.406665   -0.185169
      4         11           0       -2.639193    1.090242    0.642718
      5         11           0        2.221290   -2.198546    0.397246
      6         11           0        0.417404    0.273229    1.887550
      7         11           0       -0.252297    3.044096   -0.531607
 ---------------------------------------------------------------------

 SCF Done:  E(UB3LYP) =  -1136.13494333     A.U. after   19 cycles

 The electronic state is 2-A.
 Alpha  occ. eigenvalues --  -38.44143 -38.44021 -38.43755 -38.43680 -38.43631
 Alpha  occ. eigenvalues --  -38.43531 -38.43298  -2.19981  -2.19861  -2.19617
 Alpha  occ. eigenvalues --   -2.19580  -2.19450  -2.19422  -2.19122  -1.13672
 Alpha  occ. eigenvalues --   -1.13653  -1.13628  -1.13538  -1.13508  -1.13481
 Alpha  occ. eigenvalues --   -1.13322  -1.13288  -1.13247  -1.13242  -1.13218
 Alpha  occ. eigenvalues --   -1.13204  -1.13188  -1.13103  -1.13092  -1.13076
 Alpha  occ. eigenvalues --   -1.13049  -1.13008  -1.12791  -1.12773  -1.12770
 Alpha  occ. eigenvalues --   -0.18273  -0.13238  -0.12203  -0.10786
 Alpha virt. eigenvalues --   -0.05561  -0.05375  -0.04752  -0.03427  -0.03010
 Alpha virt. eigenvalues --   -0.02500  -0.01485  -0.01215  -0.00495  -0.00305
 Alpha virt. eigenvalues --   -0.00021   0.00354   0.00775   0.00796   0.00865

  Beta  occ. eigenvalues --  -38.44134 -38.44011 -38.43739 -38.43632 -38.43606
  Beta  occ. eigenvalues --  -38.43468 -38.43289  -2.19967  -2.19846  -2.19590
  Beta  occ. eigenvalues --   -2.19453  -2.19444  -2.19307  -2.19106  -1.13665
  Beta  occ. eigenvalues --   -1.13637  -1.13605  -1.13516  -1.13490  -1.13471
  Beta  occ. eigenvalues --   -1.13290  -1.13258  -1.13227  -1.13178  -1.13160
  Beta  occ. eigenvalues --   -1.13122  -1.13096  -1.13090  -1.13088  -1.13008
  Beta  occ. eigenvalues --   -1.12972  -1.12940  -1.12781  -1.12762  -1.12744
  Beta  occ. eigenvalues --   -0.17564  -0.13024  -0.11976
  Beta virt. eigenvalues --   -0.06980  -0.05510  -0.05249  -0.04602  -0.02720
  Beta virt. eigenvalues --   -0.02344  -0.01599  -0.01369  -0.01099  -0.00463
  Beta virt. eigenvalues --   -0.00302   0.00113   0.00398   0.00810   0.00876

 Mulliken charges and spin densities:
               1          2
     1  Na  -0.000187   0.066441
     2  Na  -0.247010   0.568789
     3  Na   0.091745  -0.123887
     4  Na   0.172771   0.073826
     5  Na   0.173842  -0.058274
     6  Na  -0.025592   0.418357
     7  Na  -0.165569   0.054749
 Sum of Mulliken charges =  -0.00000   1.00000

 Dipole moment (field-independent basis, Debye):
    X=              0.3488    Y=             -0.2363    Z=              0.0783  Tot=              0.4285
 Quadrupole moment (field-independent basis, Debye-Ang):
   XX=            -58.3331   YY=            -62.7363   ZZ=            -73.5548
   XY=              0.1156   XZ=             -2.2040   YZ=             -2.5251

 Normal termination of Gaussian 16 at Tue Dec  5 11:29:55 2023.
