 Gaussian 16, Revision B.01,
 Gaussian 16:  ES64L-G16RevB.01 20-Dec-2017

 -------------------------
 #P B3LYP/6-311+g(d) force
 -------------------------

 -----
 DPGEN
 -----
 Symbolic Z-matrix:
 Charge =  0 Multiplicity = 2

                         Standard orientation:
 ---------------------------------------------------------------------
 Center     Atomic      Atomic             Coordinates (Angstroms)
 Number     Number       Type             X           Y           Z
 ---------------------------------------------------------------------
      1         11           0       -3.211919   -1.695712    0.833726
      2         11           0        3.775961   -1.234674   -0.849042
      3         11           0       -1.048845    0.836103    1.587873
      4         11           0        2.448425   -0.036618    1.462574
      5         11           0       -3.359370    0.689684   -1.420809
      6         11           0        1.139034    2.413083   -0.442427
      7         11           0        0.256714   -0.971865   -1.171895
 ---------------------------------------------------------------------

 SCF Done:  E(UB3LYP) =  -1136.11909505     A.U. after   24 cycles

 The electronic state is 2-A.
 Alpha  occ. eigenvalues --  -38.45119 -38.44986 -38.44264 -38.44144 -38.43253
 Alpha  occ. eigenvalues --  -38.43198 -38.42878  -2.20923  -2.20823  -2.20198
 Alpha  occ. eigenvalues --   -2.19983  -2.19113  -2.19054  -2.18792  -1.14590
 Alpha  occ. eigenvalues --   -1.14567  -1.14560  -1.14542  -1.14499  -1.14417
 Alpha  occ. eigenvalues --   -1.13908  -1.13871  -1.13813  -1.13645  -1.13642
 Alpha  occ. eigenvalues --   -1.13614  -1.12811  -1.12749  -1.12738  -1.12723
 Alpha  occ. eigenvalues --   -1.12712  -1.12691  -1.12501  -1.12454  -1.12388
 Alpha  occ. eigenvalues --   -0.18211  -0.14492  -0.10979  -0.10694
 Alpha virt. eigenvalues --   -0.06884  -0.05617  -0.04889  -0.02947  -0.02839
 Alpha virt. eigenvalues --   -0.02352  -0.02137  -0.01168  -0.01098  -0.00291
 Alpha virt. eigenvalues --    0.00064   0.00142   0.00293   0.00395   0.00618

  Beta  occ. eigenvalues --  -38.45086 -38.44958 -38.44244 -38.44113 -38.43255
  Beta  occ. eigenvalues --  -38.43183 -38.42840  -2.20861  -2.20775  -2.20161
  Beta  occ. eigenvalues --   -2.19927  -2.19118  -2.19027  -2.18725  -1.14543
  Beta  occ. eigenvalues --   -1.14523  -1.14513  -1.14490  -1.14460  -1.14384
  Beta  occ. eigenvalues --   -1.13873  -1.13845  -1.13792  -1.13607  -1.13597
  Beta  occ. eigenvalues --   -1.13570  -1.12812  -1.12750  -1.12739  -1.12703
  Beta  occ. eigenvalues --   -1.12691  -1.12665  -1.12458  -1.12389  -1.12334
  Beta  occ. eigenvalues --   -0.17591  -0.14248  -0.10861
  Beta virt. eigenvalues --   -0.07065  -0.06644  -0.05020  -0.04593  -0.02803
  Beta virt. eigenvalues --   -0.02657  -0.01928  -0.01466  -0.01001  -0.00639
  Beta virt. eigenvalues --   -0.00154   0.00126   0.00248   0.00384   0.00535

 Mulliken charges and spin densities:
               1          2
     1  Na   0.399362  -0.014603
     2  Na   0.290480   0.019013
     3  Na   0.088925   0.436715
     4  Na   0.058289  -0.109471
     5  Na   0.067724   0.184551
     6  Na  -0.212906   0.156839
     7  Na  -0.691874   0.326957
 Sum of Mulliken charges =  -0.00000   1.00000

 Dipole moment (field-independent basis, Debye):
    X=             -0.7660    Y=              0.4970    Z=             -0.3254  Tot=              0.9694
 Quadrupole moment (field-independent basis, Debye-Ang):
   XX=            -56.1387   YY=            -71.6631   ZZ=            -70.0374
   XY=              2.3792   XZ=              1.7615   YZ=             -3.6749

 Normal termination of Gaussian 16 at Thu Dec  7 05:05:52 2023.
