 Gaussian 16, Revision B.01,
 Gaussian 16:  ES64L-G16RevB.01 20-Dec-2017

 -------------------------
 #P B3LYP/6-311+g(d) force
 -------------------------

 -----
 DPGEN
 -----
 Symbolic Z-matrix:
 Charge =  0 Multiplicity = 2

                         Standard orientation:
 ---------------------------------------------------------------------
 Center     Atomic      Atomic             Coordinates (Angstroms)
 Number     Number       Type             X           Y           Z
 ---------------------------------------------------------------------
      1         11           0        0.847352    2.064364   -0.782297
      2         11           0        4.124981    0.768649    0.784880
      3         11           0        0.234915   -0.202795    1.436251
      4         11           0       -2.911599    1.686138   -0.480872
      5         11           0       -0.846079   -1.674194   -0.657693
      6         11           0        2.963336   -1.767706   -0.839690
      7         11           0       -4.412906   -0.874457    0.539421
 ---------------------------------------------------------------------

 SCF Done:  E(UB3LYP) =  -1136.11189823     A.U. after   26 cycles

 The electronic state is 2-A.
 Alpha  occ. eigenvalues --  -38.45444 -38.44480 -38.44457 -38.44324 -38.44083
 Alpha  occ. eigenvalues --  -38.43421 -38.42943  -2.21372  -2.20309  -2.20290
 Alpha  occ. eigenvalues --   -2.20131  -2.19908  -2.19322  -2.18776  -1.15166
 Alpha  occ. eigenvalues --   -1.14997  -1.14943  -1.13992  -1.13974  -1.13965
 Alpha  occ. eigenvalues --   -1.13935  -1.13915  -1.13895  -1.13819  -1.13779
 Alpha  occ. eigenvalues --   -1.13756  -1.13598  -1.13560  -1.13535  -1.13087
 Alpha  occ. eigenvalues --   -1.12962  -1.12871  -1.12473  -1.12451  -1.12381
 Alpha  occ. eigenvalues --   -0.17890  -0.14615  -0.11179  -0.10887
 Alpha virt. eigenvalues --   -0.06877  -0.05381  -0.04626  -0.03510  -0.03013
 Alpha virt. eigenvalues --   -0.02253  -0.01748  -0.01394  -0.00921  -0.00531
 Alpha virt. eigenvalues --   -0.00456   0.00142   0.00415   0.00508   0.00605

  Beta  occ. eigenvalues --  -38.45404 -38.44412 -38.44384 -38.44314 -38.44065
  Beta  occ. eigenvalues --  -38.43394 -38.42926  -2.21303  -2.20183  -2.20155
  Beta  occ. eigenvalues --   -2.20118  -2.19881  -2.19275  -2.18749  -1.15100
  Beta  occ. eigenvalues --   -1.14955  -1.14901  -1.13911  -1.13881  -1.13880
  Beta  occ. eigenvalues --   -1.13844  -1.13832  -1.13811  -1.13804  -1.13767
  Beta  occ. eigenvalues --   -1.13714  -1.13583  -1.13549  -1.13474  -1.13040
  Beta  occ. eigenvalues --   -1.12925  -1.12847  -1.12449  -1.12432  -1.12359
  Beta  occ. eigenvalues --   -0.17304  -0.13729  -0.10716
  Beta virt. eigenvalues --   -0.07628  -0.06769  -0.05227  -0.03968  -0.03134
  Beta virt. eigenvalues --   -0.02867  -0.01804  -0.01584  -0.00887  -0.00845
  Beta virt. eigenvalues --   -0.00313  -0.00119   0.00170   0.00479   0.00589

 Mulliken charges and spin densities:
               1          2
     1  Na  -0.364626  -0.009526
     2  Na   0.624868   0.613473
     3  Na  -0.566403  -0.215237
     4  Na  -0.176826   0.121987
     5  Na  -0.249435  -0.018209
     6  Na   0.006630   0.040445
     7  Na   0.725792   0.467067
 Sum of Mulliken charges =  -0.00000   1.00000

 Dipole moment (field-independent basis, Debye):
    X=              0.1231    Y=             -0.2436    Z=              0.4587  Tot=              0.5338
 Quadrupole moment (field-independent basis, Debye-Ang):
   XX=            -62.3676   YY=            -77.9948   ZZ=            -61.7430
   XY=              1.4089   XZ=             -0.6385   YZ=              0.6602

 Normal termination of Gaussian 16 at Tue Dec  5 12:14:21 2023.
