 Gaussian 16, Revision B.01,
 Gaussian 16:  ES64L-G16RevB.01 20-Dec-2017

 -------------------------
 #P B3LYP/6-311+g(d) force
 -------------------------

 -----
 DPGEN
 -----
 Symbolic Z-matrix:
 Charge =  0 Multiplicity = 2

                         Standard orientation:
 ---------------------------------------------------------------------
 Center     Atomic      Atomic             Coordinates (Angstroms)
 Number     Number       Type             X           Y           Z
 ---------------------------------------------------------------------
      1         11           0       -1.094085   -1.939670    0.042275
      2         11           0       -1.948903    1.494290   -1.217175
      3         11           0       -0.753834    1.404572    1.988240
      4         11           0        1.465788    2.343709   -0.387276
      5         11           0        4.500378   -0.827738   -0.965454
      6         11           0        2.234583   -1.319846    0.973246
      7         11           0       -4.403927   -1.155317   -0.433856
 ---------------------------------------------------------------------

 SCF Done:  E(UB3LYP) =  -1136.12261690     A.U. after   20 cycles

 The electronic state is 2-A.
 Alpha  occ. eigenvalues --  -38.44587 -38.44401 -38.44173 -38.44046 -38.43956
 Alpha  occ. eigenvalues --  -38.43822 -38.43240  -2.20418  -2.20234  -2.19975
 Alpha  occ. eigenvalues --   -2.19838  -2.19784  -2.19643  -2.19102  -1.14097
 Alpha  occ. eigenvalues --   -1.14075  -1.14042  -1.13940  -1.13907  -1.13813
 Alpha  occ. eigenvalues --   -1.13668  -1.13642  -1.13574  -1.13504  -1.13504
 Alpha  occ. eigenvalues --   -1.13476  -1.13473  -1.13449  -1.13386  -1.13343
 Alpha  occ. eigenvalues --   -1.13282  -1.13270  -1.12780  -1.12754  -1.12747
 Alpha  occ. eigenvalues --   -0.17435  -0.13666  -0.11946  -0.10775
 Alpha virt. eigenvalues --   -0.06497  -0.05677  -0.04501  -0.03456  -0.02599
 Alpha virt. eigenvalues --   -0.02454  -0.02162  -0.01541  -0.01030  -0.00508
 Alpha virt. eigenvalues --   -0.00026   0.00078   0.00322   0.00505   0.00562

  Beta  occ. eigenvalues --  -38.44558 -38.44371 -38.44159 -38.44028 -38.43922
  Beta  occ. eigenvalues --  -38.43779 -38.43224  -2.20365  -2.20178  -2.19951
  Beta  occ. eigenvalues --   -2.19806  -2.19726  -2.19563  -2.19079  -1.14063
  Beta  occ. eigenvalues --   -1.14039  -1.13991  -1.13902  -1.13868  -1.13768
  Beta  occ. eigenvalues --   -1.13648  -1.13623  -1.13556  -1.13482  -1.13479
  Beta  occ. eigenvalues --   -1.13451  -1.13438  -1.13405  -1.13329  -1.13295
  Beta  occ. eigenvalues --   -1.13227  -1.13212  -1.12769  -1.12739  -1.12687
  Beta  occ. eigenvalues --   -0.16801  -0.13261  -0.11734
  Beta virt. eigenvalues --   -0.07325  -0.06061  -0.05484  -0.03983  -0.03227
  Beta virt. eigenvalues --   -0.02397  -0.02210  -0.01734  -0.01206  -0.00657
  Beta virt. eigenvalues --   -0.00352   0.00059   0.00211   0.00410   0.00613

 Mulliken charges and spin densities:
               1          2
     1  Na  -0.413912   0.188213
     2  Na  -0.045519   0.204797
     3  Na   0.227809   0.194299
     4  Na  -0.113699   0.203119
     5  Na   0.166088   0.309375
     6  Na  -0.175044  -0.243570
     7  Na   0.354278   0.143767
 Sum of Mulliken charges =  -0.00000   1.00000

 Dipole moment (field-independent basis, Debye):
    X=             -0.9355    Y=              0.8274    Z=              0.2784  Tot=              1.2796
 Quadrupole moment (field-independent basis, Debye-Ang):
   XX=            -60.5358   YY=            -72.7656   ZZ=            -65.6390
   XY=              1.8382   XZ=             -4.1816   YZ=              0.5844

 Normal termination of Gaussian 16 at Sun Dec  3 12:17:01 2023.
