 Gaussian 16, Revision B.01,
 Gaussian 16:  ES64L-G16RevB.01 20-Dec-2017

 -------------------------
 #P B3LYP/6-311+g(d) force
 -------------------------

 -----
 DPGEN
 -----
 Symbolic Z-matrix:
 Charge =  0 Multiplicity = 2

                         Standard orientation:
 ---------------------------------------------------------------------
 Center     Atomic      Atomic             Coordinates (Angstroms)
 Number     Number       Type             X           Y           Z
 ---------------------------------------------------------------------
      1         11           0       -0.010929   -0.474041   -1.564840
      2         11           0       -1.467392   -3.007444   -0.184500
      3         11           0       -0.949477    2.920248    0.078182
      4         11           0       -3.307681    0.453794   -0.051615
      5         11           0       -0.018510   -0.378801    1.922877
      6         11           0        3.369794   -1.330037    0.130225
      7         11           0        2.384195    1.816283   -0.330328
 ---------------------------------------------------------------------

 SCF Done:  E(UB3LYP) =  -1136.13145132     A.U. after   20 cycles

 The electronic state is 2-A.
 Alpha  occ. eigenvalues --  -38.44925 -38.44834 -38.43776 -38.43741 -38.43443
 Alpha  occ. eigenvalues --  -38.43271 -38.43122  -2.20711  -2.20612  -2.19618
 Alpha  occ. eigenvalues --   -2.19554  -2.19304  -2.19188  -2.18942  -1.14392
 Alpha  occ. eigenvalues --   -1.14374  -1.14342  -1.14279  -1.14275  -1.14252
 Alpha  occ. eigenvalues --   -1.13298  -1.13281  -1.13254  -1.13249  -1.13209
 Alpha  occ. eigenvalues --   -1.13189  -1.12996  -1.12929  -1.12915  -1.12877
 Alpha  occ. eigenvalues --   -1.12823  -1.12802  -1.12609  -1.12606  -1.12598
 Alpha  occ. eigenvalues --   -0.18039  -0.13215  -0.12162  -0.10130
 Alpha virt. eigenvalues --   -0.06564  -0.05343  -0.04718  -0.03130  -0.02590
 Alpha virt. eigenvalues --   -0.02246  -0.02128  -0.01348  -0.00898  -0.00461
 Alpha virt. eigenvalues --   -0.00039   0.00290   0.00681   0.00720   0.00744

  Beta  occ. eigenvalues --  -38.44922 -38.44833 -38.43767 -38.43735 -38.43353
  Beta  occ. eigenvalues --  -38.43213 -38.43121  -2.20709  -2.20613  -2.19603
  Beta  occ. eigenvalues --   -2.19547  -2.19138  -2.19081  -2.18942  -1.14381
  Beta  occ. eigenvalues --   -1.14365  -1.14343  -1.14283  -1.14261  -1.14252
  Beta  occ. eigenvalues --   -1.13285  -1.13255  -1.13247  -1.13238  -1.13189
  Beta  occ. eigenvalues --   -1.13186  -1.12886  -1.12814  -1.12795  -1.12793
  Beta  occ. eigenvalues --   -1.12746  -1.12725  -1.12607  -1.12607  -1.12583
  Beta  occ. eigenvalues --   -0.17354  -0.13029  -0.11944
  Beta virt. eigenvalues --   -0.06554  -0.06270  -0.05263  -0.04694  -0.02433
  Beta virt. eigenvalues --   -0.02071  -0.01899  -0.01297  -0.01147  -0.00949
  Beta virt. eigenvalues --   -0.00478   0.00132   0.00331   0.00692   0.00789

 Mulliken charges and spin densities:
               1          2
     1  Na  -0.013805   0.382493
     2  Na   0.067514  -0.092992
     3  Na  -0.136609  -0.026438
     4  Na   0.120649  -0.028344
     5  Na  -0.316686   0.722319
     6  Na   0.171731  -0.029396
     7  Na   0.107206   0.072358
 Sum of Mulliken charges =  -0.00000   1.00000

 Dipole moment (field-independent basis, Debye):
    X=              0.0231    Y=             -0.5198    Z=              0.0426  Tot=              0.5220
 Quadrupole moment (field-independent basis, Debye-Ang):
   XX=            -51.2213   YY=            -62.4977   ZZ=            -77.9756
   XY=             -0.9866   XZ=              0.0323   YZ=             -0.3955

 Normal termination of Gaussian 16 at Thu Dec  7 20:48:16 2023.
