 Gaussian 16, Revision B.01,
 Gaussian 16:  ES64L-G16RevB.01 20-Dec-2017

 -------------------------
 #P B3LYP/6-311+g(d) force
 -------------------------

 -----
 DPGEN
 -----
 Symbolic Z-matrix:
 Charge =  0 Multiplicity = 2

                         Standard orientation:
 ---------------------------------------------------------------------
 Center     Atomic      Atomic             Coordinates (Angstroms)
 Number     Number       Type             X           Y           Z
 ---------------------------------------------------------------------
      1         11           0        2.901403   -1.684068   -0.229301
      2         11           0       -2.904656    0.155585   -0.366375
      3         11           0       -0.447376   -0.130015    2.348764
      4         11           0       -1.461450   -2.729556   -0.067846
      5         11           0        0.589908   -0.159423   -1.672690
      6         11           0        2.336355    1.789810    0.455667
      7         11           0       -1.014184    2.757667   -0.468219
 ---------------------------------------------------------------------

 SCF Done:  E(UB3LYP) =  -1136.13434692     A.U. after   19 cycles

 The electronic state is 2-A.
 Alpha  occ. eigenvalues --  -38.44300 -38.44069 -38.43992 -38.43724 -38.43607
 Alpha  occ. eigenvalues --  -38.43513 -38.43026  -2.20129  -2.19883  -2.19822
 Alpha  occ. eigenvalues --   -2.19604  -2.19452  -2.19429  -2.18878  -1.13777
 Alpha  occ. eigenvalues --   -1.13764  -1.13743  -1.13599  -1.13538  -1.13518
 Alpha  occ. eigenvalues --   -1.13501  -1.13491  -1.13440  -1.13285  -1.13279
 Alpha  occ. eigenvalues --   -1.13262  -1.13130  -1.13102  -1.13089  -1.13085
 Alpha  occ. eigenvalues --   -1.13072  -1.13060  -1.12554  -1.12536  -1.12518
 Alpha  occ. eigenvalues --   -0.18280  -0.13150  -0.12140  -0.11113
 Alpha virt. eigenvalues --   -0.05669  -0.05293  -0.04492  -0.03518  -0.02982
 Alpha virt. eigenvalues --   -0.02892  -0.01439  -0.01118  -0.00408  -0.00257
 Alpha virt. eigenvalues --   -0.00079   0.00356   0.00750   0.00837   0.00898

  Beta  occ. eigenvalues --  -38.44195 -38.44067 -38.43983 -38.43715 -38.43606
  Beta  occ. eigenvalues --  -38.43463 -38.43019  -2.19933  -2.19882  -2.19807
  Beta  occ. eigenvalues --   -2.19591  -2.19431  -2.19360  -2.18867  -1.13646
  Beta  occ. eigenvalues --   -1.13631  -1.13601  -1.13589  -1.13529  -1.13519
  Beta  occ. eigenvalues --   -1.13492  -1.13462  -1.13434  -1.13281  -1.13273
  Beta  occ. eigenvalues --   -1.13228  -1.13093  -1.13079  -1.13066  -1.13062
  Beta  occ. eigenvalues --   -1.13017  -1.13011  -1.12544  -1.12526  -1.12499
  Beta  occ. eigenvalues --   -0.17568  -0.12963  -0.11929
  Beta virt. eigenvalues --   -0.07169  -0.05638  -0.05108  -0.04472  -0.02768
  Beta virt. eigenvalues --   -0.02205  -0.01922  -0.01349  -0.01023  -0.00438
  Beta virt. eigenvalues --   -0.00272   0.00095   0.00401   0.00830   0.00887

 Mulliken charges and spin densities:
               1          2
     1  Na   0.151818  -0.067019
     2  Na   0.180172   0.065423
     3  Na  -0.525613   0.633741
     4  Na   0.097176  -0.036094
     5  Na   0.031270   0.227770
     6  Na  -0.015996   0.144890
     7  Na   0.081173   0.031289
 Sum of Mulliken charges =  -0.00000   1.00000

 Dipole moment (field-independent basis, Debye):
    X=              0.3977    Y=             -0.2713    Z=              0.2817  Tot=              0.5578
 Quadrupole moment (field-independent basis, Debye-Ang):
   XX=            -59.4071   YY=            -63.9789   ZZ=            -72.1692
   XY=             -0.1601   XZ=              2.0156   YZ=              0.1173

 Normal termination of Gaussian 16 at Fri Dec  8 04:03:24 2023.
