 Gaussian 16, Revision B.01,
 Gaussian 16:  ES64L-G16RevB.01 20-Dec-2017

 -------------------------
 #P B3LYP/6-311+g(d) force
 -------------------------

 -----
 DPGEN
 -----
 Symbolic Z-matrix:
 Charge =  0 Multiplicity = 2

                         Standard orientation:
 ---------------------------------------------------------------------
 Center     Atomic      Atomic             Coordinates (Angstroms)
 Number     Number       Type             X           Y           Z
 ---------------------------------------------------------------------
      1         11           0        0.276731   -0.249239    2.299292
      2         11           0        1.600074   -2.744608   -0.344937
      3         11           0       -0.104478    3.072813   -0.167429
      4         11           0        3.190576    0.835374    0.287231
      5         11           0       -2.293342   -2.066947   -0.153722
      6         11           0       -3.094025    0.884809    0.157929
      7         11           0        0.424463    0.267799   -2.078363
 ---------------------------------------------------------------------

 SCF Done:  E(UB3LYP) =  -1136.13090542     A.U. after   18 cycles

 The electronic state is 2-A.
 Alpha  occ. eigenvalues --  -38.44672 -38.44523 -38.44112 -38.43822 -38.43803
 Alpha  occ. eigenvalues --  -38.43676 -38.43469  -2.20443  -2.20329  -2.19956
 Alpha  occ. eigenvalues --   -2.19642  -2.19581  -2.19494  -2.19263  -1.14124
 Alpha  occ. eigenvalues --   -1.14102  -1.14080  -1.13981  -1.13960  -1.13950
 Alpha  occ. eigenvalues --   -1.13623  -1.13589  -1.13584  -1.13388  -1.13304
 Alpha  occ. eigenvalues --   -1.13278  -1.13258  -1.13240  -1.13221  -1.13157
 Alpha  occ. eigenvalues --   -1.13143  -1.13116  -1.12946  -1.12928  -1.12895
 Alpha  occ. eigenvalues --   -0.17671  -0.12821  -0.12024  -0.11123
 Alpha virt. eigenvalues --   -0.06011  -0.05221  -0.04745  -0.03407  -0.03185
 Alpha virt. eigenvalues --   -0.02970  -0.01567  -0.01138  -0.00584  -0.00467
 Alpha virt. eigenvalues --   -0.00126   0.00404   0.00538   0.00722   0.00799

  Beta  occ. eigenvalues --  -38.44667 -38.44430 -38.44037 -38.43823 -38.43797
  Beta  occ. eigenvalues --  -38.43676 -38.43468  -2.20437  -2.20156  -2.19817
  Beta  occ. eigenvalues --   -2.19644  -2.19572  -2.19496  -2.19262  -1.14101
  Beta  occ. eigenvalues --   -1.14094  -1.14079  -1.13867  -1.13841  -1.13825
  Beta  occ. eigenvalues --   -1.13532  -1.13494  -1.13480  -1.13392  -1.13294
  Beta  occ. eigenvalues --   -1.13279  -1.13239  -1.13230  -1.13217  -1.13149
  Beta  occ. eigenvalues --   -1.13142  -1.13117  -1.12937  -1.12919  -1.12898
  Beta  occ. eigenvalues --   -0.16934  -0.12664  -0.11837
  Beta virt. eigenvalues --   -0.07243  -0.05947  -0.05125  -0.04576  -0.02684
  Beta virt. eigenvalues --   -0.02408  -0.02085  -0.01464  -0.01051  -0.00636
  Beta virt. eigenvalues --   -0.00519   0.00045   0.00438   0.00789   0.00804

 Mulliken charges and spin densities:
               1          2
     1  Na  -0.315785   0.721811
     2  Na   0.081038  -0.082039
     3  Na   0.072615  -0.079122
     4  Na   0.199373  -0.077216
     5  Na   0.011606  -0.057144
     6  Na  -0.004380  -0.054540
     7  Na  -0.044467   0.628250
 Sum of Mulliken charges =  -0.00000   1.00000

 Dipole moment (field-independent basis, Debye):
    X=              0.5794    Y=              0.0444    Z=              0.1329  Tot=              0.5961
 Quadrupole moment (field-independent basis, Debye-Ang):
   XX=            -59.4419   YY=            -65.2585   ZZ=            -71.6786
   XY=             -0.0339   XZ=              0.1665   YZ=              1.3463

 Normal termination of Gaussian 16 at Sun Dec  3 12:18:03 2023.
