 Gaussian 16, Revision B.01,
 Gaussian 16:  ES64L-G16RevB.01 20-Dec-2017

 -------------------------
 #P B3LYP/6-311+g(d) force
 -------------------------

 -----
 DPGEN
 -----
 Symbolic Z-matrix:
 Charge =  0 Multiplicity = 2

                         Standard orientation:
 ---------------------------------------------------------------------
 Center     Atomic      Atomic             Coordinates (Angstroms)
 Number     Number       Type             X           Y           Z
 ---------------------------------------------------------------------
      1         11           0       -3.966285    1.854388   -0.584427
      2         11           0        2.960213    2.416127   -0.030874
      3         11           0        2.434214   -1.184357   -1.736317
      4         11           0       -0.271630    0.609392   -0.620627
      5         11           0       -1.540070   -0.393490    1.811268
      6         11           0       -1.656884   -2.537766   -0.609076
      7         11           0        2.040442   -0.764293    1.770053
 ---------------------------------------------------------------------

 SCF Done:  E(UB3LYP) =  -1136.11289679     A.U. after   26 cycles

 The electronic state is 2-A.
 Alpha  occ. eigenvalues --  -38.44661 -38.44430 -38.44411 -38.44306 -38.44108
 Alpha  occ. eigenvalues --  -38.43897 -38.43576  -2.20476  -2.20255  -2.20192
 Alpha  occ. eigenvalues --   -2.20107  -2.20025  -2.19628  -2.19534  -1.14159
 Alpha  occ. eigenvalues --   -1.14129  -1.14070  -1.13940  -1.13905  -1.13870
 Alpha  occ. eigenvalues --   -1.13862  -1.13854  -1.13843  -1.13814  -1.13798
 Alpha  occ. eigenvalues --   -1.13781  -1.13730  -1.13641  -1.13587  -1.13308
 Alpha  occ. eigenvalues --   -1.13301  -1.13277  -1.13252  -1.13168  -1.13118
 Alpha  occ. eigenvalues --   -0.18022  -0.13380  -0.11234  -0.10817
 Alpha virt. eigenvalues --   -0.06569  -0.05839  -0.04709  -0.03145  -0.02617
 Alpha virt. eigenvalues --   -0.02348  -0.02080  -0.01607  -0.00871  -0.00317
 Alpha virt. eigenvalues --    0.00004   0.00162   0.00214   0.00316   0.00552

  Beta  occ. eigenvalues --  -38.44599 -38.44421 -38.44350 -38.44307 -38.44066
  Beta  occ. eigenvalues --  -38.43904 -38.43555  -2.20362  -2.20177  -2.20145
  Beta  occ. eigenvalues --   -2.20110  -2.19950  -2.19642  -2.19501  -1.14073
  Beta  occ. eigenvalues --   -1.14057  -1.13988  -1.13859  -1.13853  -1.13841
  Beta  occ. eigenvalues --   -1.13824  -1.13821  -1.13812  -1.13778  -1.13775
  Beta  occ. eigenvalues --   -1.13761  -1.13732  -1.13595  -1.13517  -1.13317
  Beta  occ. eigenvalues --   -1.13311  -1.13261  -1.13217  -1.13144  -1.13101
  Beta  occ. eigenvalues --   -0.17257  -0.13244  -0.10676
  Beta virt. eigenvalues --   -0.07341  -0.06406  -0.05644  -0.04130  -0.02790
  Beta virt. eigenvalues --   -0.02280  -0.01892  -0.01746  -0.01354  -0.00452
  Beta virt. eigenvalues --   -0.00275   0.00090   0.00209   0.00226   0.00440

 Mulliken charges and spin densities:
               1          2
     1  Na   0.132108  -0.042699
     2  Na   0.173439  -0.088272
     3  Na   0.579006   0.210697
     4  Na  -1.625408   0.570844
     5  Na   0.534597   0.060236
     6  Na  -0.127669  -0.005353
     7  Na   0.333927   0.294547
 Sum of Mulliken charges =  -0.00000   1.00000

 Dipole moment (field-independent basis, Debye):
    X=              0.8260    Y=             -0.8456    Z=              0.0297  Tot=              1.1824
 Quadrupole moment (field-independent basis, Debye-Ang):
   XX=            -55.9985   YY=            -69.0207   ZZ=            -68.6290
   XY=              3.4724   XZ=              0.1080   YZ=              1.1490

 Normal termination of Gaussian 16 at Tue Dec  5 15:20:21 2023.
