 Gaussian 16, Revision B.01,
 Gaussian 16:  ES64L-G16RevB.01 20-Dec-2017

 -------------------------
 #P B3LYP/6-311+g(d) force
 -------------------------

 -----
 DPGEN
 -----
 Symbolic Z-matrix:
 Charge =  0 Multiplicity = 2

                         Standard orientation:
 ---------------------------------------------------------------------
 Center     Atomic      Atomic             Coordinates (Angstroms)
 Number     Number       Type             X           Y           Z
 ---------------------------------------------------------------------
      1         11           0        0.706373    0.806955    1.954795
      2         11           0       -1.473677    2.376136    0.042517
      3         11           0       -3.011887   -0.525764   -0.433068
      4         11           0       -0.056954   -0.457587   -1.827527
      5         11           0        2.272255    1.721049   -0.539390
      6         11           0        2.235084   -1.796192   -0.331080
      7         11           0       -0.671195   -2.124597    1.133754
 ---------------------------------------------------------------------

 SCF Done:  E(UB3LYP) =  -1136.13423141     A.U. after   19 cycles

 The electronic state is 2-A.
 Alpha  occ. eigenvalues --  -38.43748 -38.43674 -38.43667 -38.43600 -38.43458
 Alpha  occ. eigenvalues --  -38.43408 -38.43281  -2.19694  -2.19663  -2.19549
 Alpha  occ. eigenvalues --   -2.19480  -2.19364  -2.19262  -2.19210  -1.13417
 Alpha  occ. eigenvalues --   -1.13387  -1.13362  -1.13331  -1.13313  -1.13302
 Alpha  occ. eigenvalues --   -1.13210  -1.13188  -1.13155  -1.13154  -1.13141
 Alpha  occ. eigenvalues --   -1.13127  -1.13038  -1.13026  -1.12980  -1.12945
 Alpha  occ. eigenvalues --   -1.12926  -1.12884  -1.12878  -1.12840  -1.12826
 Alpha  occ. eigenvalues --   -0.19164  -0.13129  -0.12341  -0.11684
 Alpha virt. eigenvalues --   -0.05246  -0.04967  -0.04107  -0.03597  -0.03332
 Alpha virt. eigenvalues --   -0.03077  -0.01211  -0.00850  -0.00224   0.00206
 Alpha virt. eigenvalues --    0.00302   0.00410   0.00847   0.00885   0.00980

  Beta  occ. eigenvalues --  -38.43673 -38.43656 -38.43605 -38.43596 -38.43450
  Beta  occ. eigenvalues --  -38.43405 -38.43243  -2.19558  -2.19536  -2.19532
  Beta  occ. eigenvalues --   -2.19474  -2.19353  -2.19260  -2.19142  -1.13351
  Beta  occ. eigenvalues --   -1.13308  -1.13271  -1.13251  -1.13226  -1.13215
  Beta  occ. eigenvalues --   -1.13172  -1.13161  -1.13141  -1.13128  -1.13125
  Beta  occ. eigenvalues --   -1.13108  -1.13024  -1.12981  -1.12977  -1.12935
  Beta  occ. eigenvalues --   -1.12913  -1.12878  -1.12834  -1.12787  -1.12775
  Beta  occ. eigenvalues --   -0.18388  -0.12872  -0.12137
  Beta virt. eigenvalues --   -0.07643  -0.05223  -0.04907  -0.03947  -0.02950
  Beta virt. eigenvalues --   -0.02557  -0.01972  -0.01131  -0.00826  -0.00021
  Beta virt. eigenvalues --    0.00194   0.00292   0.00437   0.00886   0.00964

 Mulliken charges and spin densities:
               1          2
     1  Na   0.104660   0.410959
     2  Na  -0.301748  -0.068763
     3  Na   0.288967  -0.003581
     4  Na  -0.257282   0.496172
     5  Na   0.037993  -0.066065
     6  Na   0.270014   0.009683
     7  Na  -0.142604   0.221594
 Sum of Mulliken charges =  -0.00000   1.00000

 Dipole moment (field-independent basis, Debye):
    X=              0.0966    Y=              0.1224    Z=             -0.0725  Tot=              0.1720
 Quadrupole moment (field-independent basis, Debye-Ang):
   XX=            -59.5006   YY=            -67.5078   ZZ=            -68.8221
   XY=             -0.0123   XZ=             -0.7906   YZ=             -1.7355

 Normal termination of Gaussian 16 at Mon Dec  4 00:23:24 2023.
