 Gaussian 16, Revision B.01,
 Gaussian 16:  ES64L-G16RevB.01 20-Dec-2017

 -------------------------
 #P B3LYP/6-311+g(d) force
 -------------------------

 -----
 DPGEN
 -----
 Symbolic Z-matrix:
 Charge =  0 Multiplicity = 2

                         Standard orientation:
 ---------------------------------------------------------------------
 Center     Atomic      Atomic             Coordinates (Angstroms)
 Number     Number       Type             X           Y           Z
 ---------------------------------------------------------------------
      1         11           0        2.916626    1.495601    0.111526
      2         11           0       -1.018473   -2.208595   -0.653046
      3         11           0       -3.519612   -0.700975    0.444450
      4         11           0        0.218777    0.228793    2.153404
      5         11           0        0.535297    0.396205   -1.601197
      6         11           0        2.829322   -1.626482    0.013974
      7         11           0       -1.961936    2.415454   -0.469111
 ---------------------------------------------------------------------

 SCF Done:  E(UB3LYP) =  -1136.12142041     A.U. after   23 cycles

 The electronic state is 2-A.
 Alpha  occ. eigenvalues --  -38.45100 -38.44636 -38.44539 -38.44400 -38.43423
 Alpha  occ. eigenvalues --  -38.43385 -38.42816  -2.20906  -2.20512  -2.20364
 Alpha  occ. eigenvalues --   -2.20248  -2.19404  -2.19181  -2.18691  -1.14592
 Alpha  occ. eigenvalues --   -1.14566  -1.14534  -1.14224  -1.14179  -1.14152
 Alpha  occ. eigenvalues --   -1.14034  -1.13995  -1.13977  -1.13911  -1.13896
 Alpha  occ. eigenvalues --   -1.13886  -1.13098  -1.13067  -1.13011  -1.12856
 Alpha  occ. eigenvalues --   -1.12832  -1.12824  -1.12390  -1.12346  -1.12320
 Alpha  occ. eigenvalues --   -0.18482  -0.13940  -0.11289  -0.10953
 Alpha virt. eigenvalues --   -0.06824  -0.05702  -0.04048  -0.03292  -0.02747
 Alpha virt. eigenvalues --   -0.02454  -0.02335  -0.01348  -0.00602  -0.00175
 Alpha virt. eigenvalues --    0.00055   0.00243   0.00444   0.00622   0.00728

  Beta  occ. eigenvalues --  -38.45101 -38.44629 -38.44449 -38.44395 -38.43381
  Beta  occ. eigenvalues --  -38.43352 -38.42804  -2.20907  -2.20503  -2.20243
  Beta  occ. eigenvalues --   -2.20198  -2.19275  -2.19176  -2.18674  -1.14596
  Beta  occ. eigenvalues --   -1.14557  -1.14538  -1.14220  -1.14165  -1.14126
  Beta  occ. eigenvalues --   -1.13924  -1.13903  -1.13892  -1.13878  -1.13869
  Beta  occ. eigenvalues --   -1.13854  -1.13008  -1.12978  -1.12922  -1.12835
  Beta  occ. eigenvalues --   -1.12827  -1.12820  -1.12372  -1.12318  -1.12310
  Beta  occ. eigenvalues --   -0.17738  -0.13790  -0.11033
  Beta virt. eigenvalues --   -0.07101  -0.06579  -0.05721  -0.03590  -0.02973
  Beta virt. eigenvalues --   -0.02205  -0.01824  -0.01687  -0.01239  -0.00604
  Beta virt. eigenvalues --   -0.00009   0.00054   0.00281   0.00628   0.00698

 Mulliken charges and spin densities:
               1          2
     1  Na   0.333446   0.106367
     2  Na  -0.145423   0.045827
     3  Na   0.037792   0.036902
     4  Na  -0.428269   0.547430
     5  Na   0.163551   0.104500
     6  Na   0.089584   0.104207
     7  Na  -0.050681   0.054767
 Sum of Mulliken charges =  -0.00000   1.00000

 Dipole moment (field-independent basis, Debye):
    X=              0.3051    Y=              0.0682    Z=              0.5900  Tot=              0.6677
 Quadrupole moment (field-independent basis, Debye-Ang):
   XX=            -47.6374   YY=            -72.6870   ZZ=            -73.5324
   XY=             -0.1130   XZ=             -0.9986   YZ=             -0.2728

 Normal termination of Gaussian 16 at Thu Dec  7 12:10:49 2023.
