 Gaussian 16, Revision B.01,
 Gaussian 16:  ES64L-G16RevB.01 20-Dec-2017

 -------------------------
 #P B3LYP/6-311+g(d) force
 -------------------------

 -----
 DPGEN
 -----
 Symbolic Z-matrix:
 Charge =  0 Multiplicity = 2

                         Standard orientation:
 ---------------------------------------------------------------------
 Center     Atomic      Atomic             Coordinates (Angstroms)
 Number     Number       Type             X           Y           Z
 ---------------------------------------------------------------------
      1         11           0        2.051840   -1.377681    0.344254
      2         11           0       -2.744858    2.593177    0.158399
      3         11           0       -2.635783   -0.406076   -1.546453
      4         11           0        0.341325    1.382370    0.152008
      5         11           0       -1.696805   -1.164175    1.944253
      6         11           0        4.863402    1.238085   -0.255640
      7         11           0       -0.179121   -2.265702   -0.796823
 ---------------------------------------------------------------------

 SCF Done:  E(UB3LYP) =  -1136.10975515     A.U. after   25 cycles

 The electronic state is 2-A.
 Alpha  occ. eigenvalues --  -38.45098 -38.44707 -38.44426 -38.44415 -38.43993
 Alpha  occ. eigenvalues --  -38.43803 -38.43542  -2.20813  -2.20551  -2.20341
 Alpha  occ. eigenvalues --   -2.20280  -2.19883  -2.19619  -2.19538  -1.14491
 Alpha  occ. eigenvalues --   -1.14487  -1.14432  -1.14241  -1.14215  -1.14201
 Alpha  occ. eigenvalues --   -1.14165  -1.14050  -1.13978  -1.13942  -1.13920
 Alpha  occ. eigenvalues --   -1.13873  -1.13572  -1.13538  -1.13491  -1.13292
 Alpha  occ. eigenvalues --   -1.13273  -1.13255  -1.13178  -1.13155  -1.13118
 Alpha  occ. eigenvalues --   -0.18492  -0.13410  -0.12030  -0.10739
 Alpha virt. eigenvalues --   -0.07346  -0.05633  -0.04112  -0.03197  -0.02881
 Alpha virt. eigenvalues --   -0.02512  -0.02172  -0.01601  -0.00956  -0.00720
 Alpha virt. eigenvalues --   -0.00035   0.00063   0.00281   0.00538   0.00639

  Beta  occ. eigenvalues --  -38.45101 -38.44638 -38.44411 -38.44409 -38.43917
  Beta  occ. eigenvalues --  -38.43801 -38.43520  -2.20818  -2.20424  -2.20336
  Beta  occ. eigenvalues --   -2.20252  -2.19745  -2.19618  -2.19503  -1.14494
  Beta  occ. eigenvalues --   -1.14490  -1.14436  -1.14242  -1.14121  -1.14110
  Beta  occ. eigenvalues --   -1.14076  -1.14039  -1.13945  -1.13919  -1.13898
  Beta  occ. eigenvalues --   -1.13859  -1.13478  -1.13443  -1.13393  -1.13291
  Beta  occ. eigenvalues --   -1.13257  -1.13254  -1.13152  -1.13133  -1.13063
  Beta  occ. eigenvalues --   -0.17787  -0.13239  -0.11798
  Beta virt. eigenvalues --   -0.07206  -0.06737  -0.05560  -0.03862  -0.02823
  Beta virt. eigenvalues --   -0.02531  -0.02013  -0.01710  -0.01186  -0.00834
  Beta virt. eigenvalues --   -0.00402   0.00056   0.00111   0.00426   0.00578

 Mulliken charges and spin densities:
               1          2
     1  Na   0.207241   0.139387
     2  Na   1.051864  -0.102826
     3  Na   0.087449   0.299299
     4  Na  -1.674862   0.211815
     5  Na  -0.052138   0.335495
     6  Na   0.187577  -0.012133
     7  Na   0.192869   0.128963
 Sum of Mulliken charges =  -0.00000   1.00000

 Dipole moment (field-independent basis, Debye):
    X=             -0.1165    Y=              0.2747    Z=              0.6246  Tot=              0.6922
 Quadrupole moment (field-independent basis, Debye-Ang):
   XX=            -52.7768   YY=            -67.9227   ZZ=            -73.1629
   XY=              0.3316   XZ=             -3.2365   YZ=             -1.3898

 Normal termination of Gaussian 16 at Thu Dec  7 06:50:21 2023.
