 Gaussian 16, Revision B.01,
 Gaussian 16:  ES64L-G16RevB.01 20-Dec-2017

 -------------------------
 #P B3LYP/6-311+g(d) force
 -------------------------

 -----
 DPGEN
 -----
 Symbolic Z-matrix:
 Charge =  0 Multiplicity = 2

                         Standard orientation:
 ---------------------------------------------------------------------
 Center     Atomic      Atomic             Coordinates (Angstroms)
 Number     Number       Type             X           Y           Z
 ---------------------------------------------------------------------
      1         11           0        2.405381    1.587828   -0.013031
      2         11           0       -1.100007   -2.687260   -0.250955
      3         11           0        0.222308   -0.308288    1.850689
      4         11           0        2.327052   -1.749091    0.000065
      5         11           0       -3.119966    0.072572    0.087445
      6         11           0        0.138391    0.279648   -1.824242
      7         11           0       -0.873159    2.804590    0.150029
 ---------------------------------------------------------------------

 SCF Done:  E(UB3LYP) =  -1136.14052788     A.U. after   18 cycles

 The electronic state is 2-A.
 Alpha  occ. eigenvalues --  -38.43841 -38.43522 -38.43505 -38.43420 -38.43417
 Alpha  occ. eigenvalues --  -38.43343 -38.43284  -2.19661  -2.19428  -2.19407
 Alpha  occ. eigenvalues --   -2.19300  -2.19278  -2.19269  -2.19249  -1.13332
 Alpha  occ. eigenvalues --   -1.13324  -1.13311  -1.13176  -1.13135  -1.13094
 Alpha  occ. eigenvalues --   -1.13085  -1.13065  -1.13009  -1.12980  -1.12966
 Alpha  occ. eigenvalues --   -1.12955  -1.12949  -1.12933  -1.12907  -1.12904
 Alpha  occ. eigenvalues --   -1.12903  -1.12899  -1.12896  -1.12862  -1.12851
 Alpha  occ. eigenvalues --   -0.18990  -0.12989  -0.12695  -0.10817
 Alpha virt. eigenvalues --   -0.05359  -0.05113  -0.04813  -0.03128  -0.03040
 Alpha virt. eigenvalues --   -0.02509  -0.01297  -0.01091  -0.00294  -0.00214
 Alpha virt. eigenvalues --   -0.00000   0.00376   0.00865   0.00920   0.00928

  Beta  occ. eigenvalues --  -38.43840 -38.43513 -38.43497 -38.43414 -38.43413
  Beta  occ. eigenvalues --  -38.43262 -38.43204  -2.19662  -2.19417  -2.19397
  Beta  occ. eigenvalues --   -2.19269  -2.19264  -2.19152  -2.19103  -1.13326
  Beta  occ. eigenvalues --   -1.13316  -1.13314  -1.13161  -1.13108  -1.13079
  Beta  occ. eigenvalues --   -1.13057  -1.13030  -1.13007  -1.12955  -1.12951
  Beta  occ. eigenvalues --   -1.12919  -1.12913  -1.12905  -1.12898  -1.12864
  Beta  occ. eigenvalues --   -1.12816  -1.12806  -1.12802  -1.12760  -1.12754
  Beta  occ. eigenvalues --   -0.18238  -0.12745  -0.12447
  Beta virt. eigenvalues --   -0.06885  -0.05348  -0.05115  -0.04753  -0.02327
  Beta virt. eigenvalues --   -0.02234  -0.01460  -0.01220  -0.01021  -0.00343
  Beta virt. eigenvalues --   -0.00278   0.00131   0.00395   0.00895   0.00913

 Mulliken charges and spin densities:
               1          2
     1  Na   0.352108  -0.062541
     2  Na   0.052089  -0.089427
     3  Na  -0.409205   0.723416
     4  Na   0.390721  -0.047453
     5  Na  -0.061784  -0.105751
     6  Na  -0.340543   0.690868
     7  Na   0.016613  -0.109113
 Sum of Mulliken charges =  -0.00000   1.00000

 Dipole moment (field-independent basis, Debye):
    X=             -0.0937    Y=              0.0038    Z=              0.0205  Tot=              0.0960
 Quadrupole moment (field-independent basis, Debye-Ang):
   XX=            -58.3519   YY=            -61.6370   ZZ=            -73.8313
   XY=             -0.1810   XZ=             -0.2622   YZ=              1.3531

 Normal termination of Gaussian 16 at Fri Dec  8 07:04:30 2023.
