 Gaussian 16, Revision B.01,
 Gaussian 16:  ES64L-G16RevB.01 20-Dec-2017

 -------------------------
 #P B3LYP/6-311+g(d) force
 -------------------------

 -----
 DPGEN
 -----
 Symbolic Z-matrix:
 Charge =  0 Multiplicity = 2

                         Standard orientation:
 ---------------------------------------------------------------------
 Center     Atomic      Atomic             Coordinates (Angstroms)
 Number     Number       Type             X           Y           Z
 ---------------------------------------------------------------------
      1         11           0       -2.805980    1.076138    0.221286
      2         11           0        0.276473   -0.537069    1.961251
      3         11           0       -0.272559    2.749760   -0.170019
      4         11           0       -0.214542   -0.044749   -1.798193
      5         11           0        2.998605    1.237701    0.217753
      6         11           0        1.837749   -2.176107   -0.490134
      7         11           0       -1.819745   -2.305675    0.058056
 ---------------------------------------------------------------------

 SCF Done:  E(UB3LYP) =  -1136.13762007     A.U. after   19 cycles

 The electronic state is 2-A.
 Alpha  occ. eigenvalues --  -38.43903 -38.43728 -38.43667 -38.43624 -38.43493
 Alpha  occ. eigenvalues --  -38.43364 -38.43225  -2.19700  -2.19600  -2.19546
 Alpha  occ. eigenvalues --   -2.19531  -2.19364  -2.19341  -2.19114  -1.13375
 Alpha  occ. eigenvalues --   -1.13355  -1.13353  -1.13312  -1.13290  -1.13264
 Alpha  occ. eigenvalues --   -1.13210  -1.13207  -1.13202  -1.13182  -1.13163
 Alpha  occ. eigenvalues --   -1.13148  -1.13064  -1.13026  -1.13015  -1.12988
 Alpha  occ. eigenvalues --   -1.12971  -1.12947  -1.12784  -1.12771  -1.12731
 Alpha  occ. eigenvalues --   -0.18832  -0.12982  -0.12582  -0.10957
 Alpha virt. eigenvalues --   -0.05466  -0.05204  -0.04568  -0.03285  -0.03010
 Alpha virt. eigenvalues --   -0.02676  -0.01394  -0.01116  -0.00243  -0.00143
 Alpha virt. eigenvalues --   -0.00008   0.00368   0.00831   0.00878   0.00935

  Beta  occ. eigenvalues --  -38.43901 -38.43713 -38.43663 -38.43543 -38.43486
  Beta  occ. eigenvalues --  -38.43285 -38.43220  -2.19700  -2.19576  -2.19541
  Beta  occ. eigenvalues --   -2.19383  -2.19356  -2.19198  -2.19109  -1.13361
  Beta  occ. eigenvalues --   -1.13354  -1.13352  -1.13290  -1.13263  -1.13240
  Beta  occ. eigenvalues --   -1.13200  -1.13195  -1.13169  -1.13112  -1.13066
  Beta  occ. eigenvalues --   -1.13051  -1.13034  -1.12986  -1.12979  -1.12925
  Beta  occ. eigenvalues --   -1.12883  -1.12853  -1.12770  -1.12749  -1.12725
  Beta  occ. eigenvalues --   -0.18090  -0.12747  -0.12339
  Beta virt. eigenvalues --   -0.07027  -0.05451  -0.05148  -0.04530  -0.02500
  Beta virt. eigenvalues --   -0.02247  -0.01614  -0.01305  -0.01041  -0.00287
  Beta virt. eigenvalues --   -0.00173   0.00118   0.00392   0.00870   0.00895

 Mulliken charges and spin densities:
               1          2
     1  Na   0.019874  -0.023667
     2  Na  -0.513255   0.717284
     3  Na   0.110760  -0.050306
     4  Na  -0.178987   0.528352
     5  Na  -0.053992  -0.068916
     6  Na   0.272728  -0.071604
     7  Na   0.342873  -0.031143
 Sum of Mulliken charges =  -0.00000   1.00000

 Dipole moment (field-independent basis, Debye):
    X=              0.1547    Y=             -0.2065    Z=              0.1379  Tot=              0.2925
 Quadrupole moment (field-independent basis, Debye-Ang):
   XX=            -57.7987   YY=            -63.4906   ZZ=            -73.0480
   XY=              0.6333   XZ=             -0.9384   YZ=              1.0560

 Normal termination of Gaussian 16 at Tue Dec  5 18:08:35 2023.
