 Gaussian 16, Revision B.01,
 Gaussian 16:  ES64L-G16RevB.01 20-Dec-2017

 -------------------------
 #P B3LYP/6-311+g(d) force
 -------------------------

 -----
 DPGEN
 -----
 Symbolic Z-matrix:
 Charge =  0 Multiplicity = 2

                         Standard orientation:
 ---------------------------------------------------------------------
 Center     Atomic      Atomic             Coordinates (Angstroms)
 Number     Number       Type             X           Y           Z
 ---------------------------------------------------------------------
      1         11           0       -0.044198   -1.944036   -0.968896
      2         11           0        2.878084    0.338165    0.079639
      3         11           0       -0.849016    1.601732   -0.166884
      4         11           0       -3.321482   -0.477334   -1.340729
      5         11           0       -3.089781    0.165014    1.954947
      6         11           0        1.981119    3.336655   -0.199953
      7         11           0        2.445273   -3.020196    0.641877
 ---------------------------------------------------------------------

 SCF Done:  E(UB3LYP) =  -1136.12845342     A.U. after   19 cycles

 The electronic state is 2-A.
 Alpha  occ. eigenvalues --  -38.44362 -38.44300 -38.44106 -38.43764 -38.43744
 Alpha  occ. eigenvalues --  -38.43477 -38.43458  -2.20211  -2.20148  -2.19977
 Alpha  occ. eigenvalues --   -2.19622  -2.19600  -2.19324  -2.19300  -1.13890
 Alpha  occ. eigenvalues --   -1.13859  -1.13851  -1.13842  -1.13831  -1.13775
 Alpha  occ. eigenvalues --   -1.13693  -1.13676  -1.13578  -1.13316  -1.13305
 Alpha  occ. eigenvalues --   -1.13252  -1.13249  -1.13232  -1.13204  -1.12995
 Alpha  occ. eigenvalues --   -1.12968  -1.12965  -1.12958  -1.12946  -1.12927
 Alpha  occ. eigenvalues --   -0.17432  -0.14127  -0.12720  -0.10275
 Alpha virt. eigenvalues --   -0.06154  -0.05234  -0.05178  -0.03679  -0.02412
 Alpha virt. eigenvalues --   -0.02218  -0.01980  -0.01380  -0.01069  -0.00441
 Alpha virt. eigenvalues --   -0.00169   0.00176   0.00361   0.00547   0.00685

  Beta  occ. eigenvalues --  -38.44334 -38.44295 -38.44096 -38.43732 -38.43650
  Beta  occ. eigenvalues --  -38.43478 -38.43446  -2.20165  -2.20140  -2.19964
  Beta  occ. eigenvalues --   -2.19565  -2.19423  -2.19326  -2.19276  -1.13862
  Beta  occ. eigenvalues --   -1.13834  -1.13832  -1.13825  -1.13783  -1.13767
  Beta  occ. eigenvalues --   -1.13686  -1.13628  -1.13575  -1.13279  -1.13266
  Beta  occ. eigenvalues --   -1.13196  -1.13129  -1.13109  -1.13092  -1.12997
  Beta  occ. eigenvalues --   -1.12968  -1.12964  -1.12938  -1.12929  -1.12911
  Beta  occ. eigenvalues --   -0.16935  -0.13723  -0.12593
  Beta virt. eigenvalues --   -0.06460  -0.05982  -0.05130  -0.04857  -0.03289
  Beta virt. eigenvalues --   -0.02165  -0.01952  -0.01424  -0.01207  -0.00972
  Beta virt. eigenvalues --   -0.00092   0.00066   0.00303   0.00694   0.00746

 Mulliken charges and spin densities:
               1          2
     1  Na  -0.539033   0.147424
     2  Na  -0.600519   0.009928
     3  Na  -1.045333   0.356139
     4  Na   0.741898   0.029975
     5  Na   0.105483   0.360130
     6  Na   0.670795   0.012134
     7  Na   0.666710   0.084270
 Sum of Mulliken charges =  -0.00000   1.00000

 Dipole moment (field-independent basis, Debye):
    X=              0.0924    Y=             -0.0788    Z=             -0.2699  Tot=              0.2960
 Quadrupole moment (field-independent basis, Debye-Ang):
   XX=            -59.0035   YY=            -64.0355   ZZ=            -73.1913
   XY=              2.7632   XZ=              5.0691   YZ=             -3.2247

 Normal termination of Gaussian 16 at Wed Nov 29 03:22:50 2023.
