 Gaussian 16, Revision B.01,
 Gaussian 16:  ES64L-G16RevB.01 20-Dec-2017

 -------------------------
 #P B3LYP/6-311+g(d) force
 -------------------------

 -----
 DPGEN
 -----
 Symbolic Z-matrix:
 Charge =  0 Multiplicity = 2

                         Standard orientation:
 ---------------------------------------------------------------------
 Center     Atomic      Atomic             Coordinates (Angstroms)
 Number     Number       Type             X           Y           Z
 ---------------------------------------------------------------------
      1         11           0       -2.346259   -2.227288    0.524597
      2         11           0        0.360559    2.556035   -0.165371
      3         11           0        1.779488   -2.102013   -0.054236
      4         11           0       -2.631870    1.602146   -0.065195
      5         11           0        3.212292    0.392052   -0.265558
      6         11           0        0.371918    0.344819    1.867245
      7         11           0       -0.746129   -0.565752   -1.841481
 ---------------------------------------------------------------------

 SCF Done:  E(UB3LYP) =  -1136.13017680     A.U. after   19 cycles

 The electronic state is 2-A.
 Alpha  occ. eigenvalues --  -38.44282 -38.44127 -38.43904 -38.43758 -38.43532
 Alpha  occ. eigenvalues --  -38.43436 -38.43023  -2.20162  -2.19985  -2.19705
 Alpha  occ. eigenvalues --   -2.19659  -2.19478  -2.19346  -2.18949  -1.13939
 Alpha  occ. eigenvalues --   -1.13799  -1.13788  -1.13678  -1.13644  -1.13621
 Alpha  occ. eigenvalues --   -1.13381  -1.13361  -1.13349  -1.13329  -1.13314
 Alpha  occ. eigenvalues --   -1.13279  -1.13202  -1.13116  -1.13074  -1.13016
 Alpha  occ. eigenvalues --   -1.12981  -1.12968  -1.12638  -1.12592  -1.12572
 Alpha  occ. eigenvalues --   -0.18767  -0.13472  -0.12300  -0.10717
 Alpha virt. eigenvalues --   -0.05781  -0.05531  -0.04259  -0.03476  -0.02976
 Alpha virt. eigenvalues --   -0.02399  -0.01634  -0.01176  -0.00249  -0.00106
 Alpha virt. eigenvalues --   -0.00038   0.00356   0.00760   0.00855   0.00930

  Beta  occ. eigenvalues --  -38.44277 -38.44122 -38.43894 -38.43750 -38.43453
  Beta  occ. eigenvalues --  -38.43375 -38.43014  -2.20155  -2.19980  -2.19688
  Beta  occ. eigenvalues --   -2.19648  -2.19332  -2.19233  -2.18937  -1.13938
  Beta  occ. eigenvalues --   -1.13790  -1.13770  -1.13672  -1.13626  -1.13614
  Beta  occ. eigenvalues --   -1.13366  -1.13343  -1.13336  -1.13323  -1.13278
  Beta  occ. eigenvalues --   -1.13270  -1.13105  -1.13016  -1.12971  -1.12942
  Beta  occ. eigenvalues --   -1.12899  -1.12885  -1.12623  -1.12569  -1.12552
  Beta  occ. eigenvalues --   -0.18043  -0.13246  -0.12075
  Beta virt. eigenvalues --   -0.06882  -0.05666  -0.05483  -0.04191  -0.02753
  Beta virt. eigenvalues --   -0.02228  -0.01536  -0.01411  -0.01087  -0.00290
  Beta virt. eigenvalues --   -0.00128   0.00120   0.00387   0.00842   0.00863

 Mulliken charges and spin densities:
               1          2
     1  Na   0.001377  -0.065775
     2  Na   0.280183   0.022609
     3  Na   0.225209   0.017548
     4  Na   0.215018  -0.056389
     5  Na   0.030884  -0.026621
     6  Na  -0.439093   0.660304
     7  Na  -0.313578   0.448324
 Sum of Mulliken charges =  -0.00000   1.00000

 Dipole moment (field-independent basis, Debye):
    X=             -0.1702    Y=             -0.0562    Z=              0.0213  Tot=              0.1805
 Quadrupole moment (field-independent basis, Debye-Ang):
   XX=            -54.6833   YY=            -66.4600   ZZ=            -73.4490
   XY=              0.5909   XZ=             -2.2136   YZ=             -2.0437

 Normal termination of Gaussian 16 at Thu Dec  7 03:18:28 2023.
