 Gaussian 16, Revision B.01,
 Gaussian 16:  ES64L-G16RevB.01 20-Dec-2017

 -------------------------
 #P B3LYP/6-311+g(d) force
 -------------------------

 -----
 DPGEN
 -----
 Symbolic Z-matrix:
 Charge =  0 Multiplicity = 2

                         Standard orientation:
 ---------------------------------------------------------------------
 Center     Atomic      Atomic             Coordinates (Angstroms)
 Number     Number       Type             X           Y           Z
 ---------------------------------------------------------------------
      1         11           0       -1.707015   -2.111320    0.006920
      2         11           0        2.130865   -2.043404   -0.408381
      3         11           0       -2.881638    0.561335    0.279336
      4         11           0       -0.336671    2.603209   -0.234644
      5         11           0        0.431253   -0.249967    1.954009
      6         11           0        2.680985    1.249196    0.085943
      7         11           0       -0.317780   -0.009047   -1.683184
 ---------------------------------------------------------------------

 SCF Done:  E(UB3LYP) =  -1136.13215469     A.U. after   19 cycles

 The electronic state is 2-A.
 Alpha  occ. eigenvalues --  -38.43933 -38.43834 -38.43588 -38.43581 -38.43435
 Alpha  occ. eigenvalues --  -38.43293 -38.42844  -2.19868  -2.19719  -2.19523
 Alpha  occ. eigenvalues --   -2.19449  -2.19386  -2.19352  -2.18776  -1.13624
 Alpha  occ. eigenvalues --   -1.13523  -1.13504  -1.13418  -1.13381  -1.13363
 Alpha  occ. eigenvalues --   -1.13208  -1.13168  -1.13157  -1.13152  -1.13128
 Alpha  occ. eigenvalues --   -1.13087  -1.13080  -1.13059  -1.13021  -1.12992
 Alpha  occ. eigenvalues --   -1.12948  -1.12930  -1.12469  -1.12418  -1.12395
 Alpha  occ. eigenvalues --   -0.19451  -0.13556  -0.12390  -0.11094
 Alpha virt. eigenvalues --   -0.05530  -0.05161  -0.04174  -0.03558  -0.02854
 Alpha virt. eigenvalues --   -0.02594  -0.01440  -0.00937  -0.00056   0.00017
 Alpha virt. eigenvalues --    0.00083   0.00376   0.00831   0.00941   0.00970

  Beta  occ. eigenvalues --  -38.43926 -38.43829 -38.43578 -38.43497 -38.43427
  Beta  occ. eigenvalues --  -38.43218 -38.42836  -2.19859  -2.19714  -2.19435
  Beta  occ. eigenvalues --   -2.19374  -2.19369  -2.19218  -2.18766  -1.13622
  Beta  occ. eigenvalues --   -1.13518  -1.13468  -1.13406  -1.13367  -1.13353
  Beta  occ. eigenvalues --   -1.13149  -1.13117  -1.13096  -1.13080  -1.13073
  Beta  occ. eigenvalues --   -1.13047  -1.13016  -1.12995  -1.12979  -1.12959
  Beta  occ. eigenvalues --   -1.12869  -1.12846  -1.12454  -1.12398  -1.12380
  Beta  occ. eigenvalues --   -0.18698  -0.13302  -0.12110
  Beta virt. eigenvalues --   -0.07134  -0.05466  -0.05156  -0.04171  -0.02710
  Beta virt. eigenvalues --   -0.02063  -0.01533  -0.01340  -0.00874  -0.00046
  Beta virt. eigenvalues --    0.00004   0.00138   0.00398   0.00898   0.00932

 Mulliken charges and spin densities:
               1          2
     1  Na   0.378559  -0.027306
     2  Na   0.161935  -0.073937
     3  Na   0.108095   0.071012
     4  Na   0.328326  -0.011566
     5  Na  -0.595980   0.585395
     6  Na   0.172733  -0.017848
     7  Na  -0.553669   0.474250
 Sum of Mulliken charges =  -0.00000   1.00000

 Dipole moment (field-independent basis, Debye):
    X=              0.2339    Y=             -0.1279    Z=              0.2260  Tot=              0.3495
 Quadrupole moment (field-independent basis, Debye-Ang):
   XX=            -56.3030   YY=            -65.8257   ZZ=            -72.4938
   XY=             -0.3674   XZ=             -1.5866   YZ=              0.8452

 Normal termination of Gaussian 16 at Fri Dec  8 00:39:38 2023.
