 Gaussian 16, Revision B.01,
 Gaussian 16:  ES64L-G16RevB.01 20-Dec-2017

 -------------------------
 #P B3LYP/6-311+g(d) force
 -------------------------

 -----
 DPGEN
 -----
 Symbolic Z-matrix:
 Charge =  0 Multiplicity = 2

                         Standard orientation:
 ---------------------------------------------------------------------
 Center     Atomic      Atomic             Coordinates (Angstroms)
 Number     Number       Type             X           Y           Z
 ---------------------------------------------------------------------
      1         11           0       -1.954892    2.262624    0.114886
      2         11           0        0.139179   -0.283263    1.909435
      3         11           0       -0.210399    0.199192   -1.576760
      4         11           0        0.115288   -2.716216   -0.208460
      5         11           0        1.937929    2.481074   -0.059015
      6         11           0       -3.061883   -0.968947   -0.051177
      7         11           0        3.034777   -0.974464   -0.128909
 ---------------------------------------------------------------------

 SCF Done:  E(UB3LYP) =  -1136.13805239     A.U. after   20 cycles

 The electronic state is 2-A.
 Alpha  occ. eigenvalues --  -38.44149 -38.44087 -38.43740 -38.43691 -38.43236
 Alpha  occ. eigenvalues --  -38.43070 -38.42981  -2.19977  -2.19923  -2.19590
 Alpha  occ. eigenvalues --   -2.19497  -2.19160  -2.18982  -2.18977  -1.13648
 Alpha  occ. eigenvalues --   -1.13637  -1.13621  -1.13596  -1.13585  -1.13569
 Alpha  occ. eigenvalues --   -1.13296  -1.13251  -1.13211  -1.13176  -1.13158
 Alpha  occ. eigenvalues --   -1.13134  -1.12867  -1.12799  -1.12767  -1.12720
 Alpha  occ. eigenvalues --   -1.12656  -1.12633  -1.12597  -1.12592  -1.12575
 Alpha  occ. eigenvalues --   -0.18763  -0.13172  -0.12407  -0.10430
 Alpha virt. eigenvalues --   -0.05733  -0.05479  -0.04546  -0.03109  -0.02712
 Alpha virt. eigenvalues --   -0.02250  -0.01709  -0.01216  -0.00481  -0.00324
 Alpha virt. eigenvalues --    0.00010   0.00345   0.00762   0.00852   0.00888

  Beta  occ. eigenvalues --  -38.44145 -38.44084 -38.43735 -38.43690 -38.43146
  Beta  occ. eigenvalues --  -38.43059 -38.42917  -2.19974  -2.19920  -2.19584
  Beta  occ. eigenvalues --   -2.19497  -2.18995  -2.18962  -2.18865  -1.13638
  Beta  occ. eigenvalues --   -1.13626  -1.13619  -1.13591  -1.13573  -1.13561
  Beta  occ. eigenvalues --   -1.13288  -1.13226  -1.13211  -1.13167  -1.13149
  Beta  occ. eigenvalues --   -1.13137  -1.12774  -1.12691  -1.12668  -1.12650
  Beta  occ. eigenvalues --   -1.12586  -1.12582  -1.12574  -1.12520  -1.12500
  Beta  occ. eigenvalues --   -0.18034  -0.12949  -0.12162
  Beta virt. eigenvalues --   -0.06519  -0.05689  -0.05493  -0.04521  -0.02327
  Beta virt. eigenvalues --   -0.01952  -0.01620  -0.01224  -0.01135  -0.00530
  Beta virt. eigenvalues --   -0.00373   0.00153   0.00374   0.00816   0.00843

 Mulliken charges and spin densities:
               1          2
     1  Na   0.100755  -0.085777
     2  Na  -0.469590   0.800171
     3  Na  -0.319898   0.550101
     4  Na   0.295500  -0.052440
     5  Na   0.008130  -0.116907
     6  Na   0.253304  -0.034538
     7  Na   0.131799  -0.060609
 Sum of Mulliken charges =  -0.00000   1.00000

 Dipole moment (field-independent basis, Debye):
    X=             -0.0095    Y=              0.0831    Z=              0.1105  Tot=              0.1386
 Quadrupole moment (field-independent basis, Debye-Ang):
   XX=            -53.1701   YY=            -62.6337   ZZ=            -76.0919
   XY=              0.2409   XZ=             -0.7385   YZ=              1.1171

 Normal termination of Gaussian 16 at Tue Dec  5 10:28:35 2023.
