 Gaussian 16, Revision B.01,
 Gaussian 16:  ES64L-G16RevB.01 20-Dec-2017

 -------------------------
 #P B3LYP/6-311+g(d) force
 -------------------------

 -----
 DPGEN
 -----
 Symbolic Z-matrix:
 Charge =  0 Multiplicity = 2

                         Standard orientation:
 ---------------------------------------------------------------------
 Center     Atomic      Atomic             Coordinates (Angstroms)
 Number     Number       Type             X           Y           Z
 ---------------------------------------------------------------------
      1         11           0        3.632769    1.158980    0.514175
      2         11           0       -0.505826   -2.209869    1.655881
      3         11           0       -3.133896    1.781698    0.534872
      4         11           0       -0.606483   -0.201833   -1.618627
      5         11           0        3.061293   -2.212464   -0.614558
      6         11           0        1.075373    2.791599   -0.025320
      7         11           0       -3.523230   -1.108110   -0.446422
 ---------------------------------------------------------------------

 SCF Done:  E(UB3LYP) =  -1136.10689900     A.U. after   28 cycles

 The electronic state is 2-A.
 Alpha  occ. eigenvalues --  -38.45702 -38.44705 -38.44673 -38.44272 -38.44030
 Alpha  occ. eigenvalues --  -38.43932 -38.43383  -2.21420  -2.20544  -2.20451
 Alpha  occ. eigenvalues --   -2.20102  -2.19846  -2.19792  -2.19195  -1.15115
 Alpha  occ. eigenvalues --   -1.15069  -1.15055  -1.14245  -1.14223  -1.14170
 Alpha  occ. eigenvalues --   -1.14131  -1.14107  -1.14082  -1.13762  -1.13751
 Alpha  occ. eigenvalues --   -1.13718  -1.13537  -1.13512  -1.13477  -1.13453
 Alpha  occ. eigenvalues --   -1.13446  -1.13400  -1.12868  -1.12854  -1.12831
 Alpha  occ. eigenvalues --   -0.17127  -0.13999  -0.11793  -0.09834
 Alpha virt. eigenvalues --   -0.07374  -0.06548  -0.04032  -0.03310  -0.02797
 Alpha virt. eigenvalues --   -0.02698  -0.02508  -0.01501  -0.01277  -0.00444
 Alpha virt. eigenvalues --   -0.00283   0.00107   0.00293   0.00369   0.00480

  Beta  occ. eigenvalues --  -38.45713 -38.44683 -38.44651 -38.44220 -38.44009
  Beta  occ. eigenvalues --  -38.43857 -38.43374  -2.21441  -2.20509  -2.20413
  Beta  occ. eigenvalues --   -2.20010  -2.19807  -2.19652  -2.19179  -1.15130
  Beta  occ. eigenvalues --   -1.15078  -1.15071  -1.14225  -1.14182  -1.14121
  Beta  occ. eigenvalues --   -1.14104  -1.14080  -1.14046  -1.13703  -1.13693
  Beta  occ. eigenvalues --   -1.13629  -1.13506  -1.13486  -1.13447  -1.13361
  Beta  occ. eigenvalues --   -1.13356  -1.13295  -1.12859  -1.12844  -1.12808
  Beta  occ. eigenvalues --   -0.16556  -0.13454  -0.11659
  Beta virt. eigenvalues --   -0.07216  -0.06383  -0.06269  -0.03890  -0.03092
  Beta virt. eigenvalues --   -0.02596  -0.02222  -0.01879  -0.01320  -0.01020
  Beta virt. eigenvalues --   -0.00434  -0.00002   0.00230   0.00431   0.00516

 Mulliken charges and spin densities:
               1          2
     1  Na  -0.089675   0.188812
     2  Na  -0.095338  -0.162466
     3  Na  -0.078138   0.224827
     4  Na  -0.710823   0.362414
     5  Na   0.156979   0.157216
     6  Na   0.139210  -0.075406
     7  Na   0.677785   0.304604
 Sum of Mulliken charges =  -0.00000   1.00000

 Dipole moment (field-independent basis, Debye):
    X=             -0.5414    Y=             -1.0642    Z=              0.2260  Tot=              1.2152
 Quadrupole moment (field-independent basis, Debye-Ang):
   XX=            -71.7878   YY=            -68.4338   ZZ=            -65.5222
   XY=              2.8803   XZ=              0.3002   YZ=              2.4778

 Normal termination of Gaussian 16 at Sun Dec  3 18:39:31 2023.
