 Gaussian 16, Revision B.01,
 Gaussian 16:  ES64L-G16RevB.01 20-Dec-2017

 -------------------------
 #P B3LYP/6-311+g(d) force
 -------------------------

 -----
 DPGEN
 -----
 Symbolic Z-matrix:
 Charge =  0 Multiplicity = 2

                         Standard orientation:
 ---------------------------------------------------------------------
 Center     Atomic      Atomic             Coordinates (Angstroms)
 Number     Number       Type             X           Y           Z
 ---------------------------------------------------------------------
      1         11           0        2.314624   -2.039213    0.217179
      2         11           0        2.893004    1.690491   -0.183349
      3         11           0        0.364612   -0.451266   -1.694504
      4         11           0       -1.495964   -2.418312   -0.232890
      5         11           0       -3.317558    0.254810    0.167362
      6         11           0       -1.005924    2.801786   -0.339699
      7         11           0        0.247207    0.161705    2.065900
 ---------------------------------------------------------------------

 SCF Done:  E(UB3LYP) =  -1136.13340024     A.U. after   19 cycles

 The electronic state is 2-A.
 Alpha  occ. eigenvalues --  -38.44405 -38.44161 -38.44010 -38.43734 -38.43593
 Alpha  occ. eigenvalues --  -38.43360 -38.43356  -2.20183  -2.19976  -2.19856
 Alpha  occ. eigenvalues --   -2.19594  -2.19388  -2.19313  -2.19236  -1.13861
 Alpha  occ. eigenvalues --   -1.13836  -1.13826  -1.13651  -1.13639  -1.13623
 Alpha  occ. eigenvalues --   -1.13561  -1.13525  -1.13474  -1.13261  -1.13221
 Alpha  occ. eigenvalues --   -1.13212  -1.13070  -1.13069  -1.13056  -1.13020
 Alpha  occ. eigenvalues --   -1.12964  -1.12939  -1.12885  -1.12869  -1.12841
 Alpha  occ. eigenvalues --   -0.18318  -0.13122  -0.12190  -0.10656
 Alpha virt. eigenvalues --   -0.05972  -0.05564  -0.04419  -0.03257  -0.02877
 Alpha virt. eigenvalues --   -0.02517  -0.01722  -0.01292  -0.00581  -0.00319
 Alpha virt. eigenvalues --   -0.00034   0.00340   0.00732   0.00817   0.00874

  Beta  occ. eigenvalues --  -38.44401 -38.44162 -38.44002 -38.43641 -38.43589
  Beta  occ. eigenvalues --  -38.43353 -38.43292  -2.20180  -2.19979  -2.19846
  Beta  occ. eigenvalues --   -2.19423  -2.19382  -2.19229  -2.19194  -1.13842
  Beta  occ. eigenvalues --   -1.13834  -1.13825  -1.13656  -1.13630  -1.13624
  Beta  occ. eigenvalues --   -1.13550  -1.13491  -1.13471  -1.13148  -1.13100
  Beta  occ. eigenvalues --   -1.13090  -1.13058  -1.13041  -1.13020  -1.13018
  Beta  occ. eigenvalues --   -1.12888  -1.12875  -1.12855  -1.12845  -1.12795
  Beta  occ. eigenvalues --   -0.17598  -0.12935  -0.11961
  Beta virt. eigenvalues --   -0.06759  -0.05946  -0.05509  -0.04354  -0.02518
  Beta virt. eigenvalues --   -0.02112  -0.01640  -0.01495  -0.01224  -0.00616
  Beta virt. eigenvalues --   -0.00354   0.00117   0.00373   0.00790   0.00831

 Mulliken charges and spin densities:
               1          2
     1  Na   0.247205  -0.064064
     2  Na  -0.002494  -0.103529
     3  Na  -0.046061   0.534912
     4  Na   0.326752  -0.018804
     5  Na  -0.066579  -0.032488
     6  Na  -0.057154  -0.063580
     7  Na  -0.401669   0.747553
 Sum of Mulliken charges =  -0.00000   1.00000

 Dipole moment (field-independent basis, Debye):
    X=              0.3720    Y=              0.0949    Z=              0.1532  Tot=              0.4133
 Quadrupole moment (field-independent basis, Debye-Ang):
   XX=            -54.0839   YY=            -64.5412   ZZ=            -74.9379
   XY=              0.1244   XZ=             -0.1585   YZ=             -1.3806

 Normal termination of Gaussian 16 at Thu Dec  7 06:43:59 2023.
