 Gaussian 16, Revision B.01,
 Gaussian 16:  ES64L-G16RevB.01 20-Dec-2017

 -------------------------
 #P B3LYP/6-311+g(d) force
 -------------------------

 -----
 DPGEN
 -----
 Symbolic Z-matrix:
 Charge =  0 Multiplicity = 2

                         Standard orientation:
 ---------------------------------------------------------------------
 Center     Atomic      Atomic             Coordinates (Angstroms)
 Number     Number       Type             X           Y           Z
 ---------------------------------------------------------------------
      1         11           0        2.408298    1.975036   -0.186924
      2         11           0       -0.265058   -0.116077    2.096416
      3         11           0       -0.376898   -2.789498   -0.078523
      4         11           0       -3.305119   -0.790716   -0.342525
      5         11           0       -1.367705    3.135600   -0.031017
      6         11           0        3.033046   -1.374359   -0.121129
      7         11           0       -0.126564   -0.039985   -1.336298
 ---------------------------------------------------------------------

 SCF Done:  E(UB3LYP) =  -1136.13226920     A.U. after   20 cycles

 The electronic state is 2-A.
 Alpha  occ. eigenvalues --  -38.44493 -38.44043 -38.44013 -38.43864 -38.43535
 Alpha  occ. eigenvalues --  -38.43365 -38.43106  -2.20292  -2.19824  -2.19800
 Alpha  occ. eigenvalues --   -2.19676  -2.19426  -2.19239  -2.19102  -1.13967
 Alpha  occ. eigenvalues --   -1.13940  -1.13931  -1.13513  -1.13495  -1.13479
 Alpha  occ. eigenvalues --   -1.13459  -1.13454  -1.13440  -1.13345  -1.13325
 Alpha  occ. eigenvalues --   -1.13323  -1.13190  -1.13092  -1.13025  -1.12918
 Alpha  occ. eigenvalues --   -1.12855  -1.12847  -1.12795  -1.12739  -1.12710
 Alpha  occ. eigenvalues --   -0.18267  -0.12962  -0.12297  -0.10271
 Alpha virt. eigenvalues --   -0.06020  -0.05461  -0.04856  -0.02878  -0.02629
 Alpha virt. eigenvalues --   -0.02267  -0.01875  -0.01448  -0.00733  -0.00579
 Alpha virt. eigenvalues --   -0.00020   0.00287   0.00712   0.00744   0.00841

  Beta  occ. eigenvalues --  -38.44482 -38.44045 -38.44009 -38.43863 -38.43525
  Beta  occ. eigenvalues --  -38.43257 -38.43065  -2.20273  -2.19818  -2.19805
  Beta  occ. eigenvalues --   -2.19675  -2.19413  -2.19039  -2.19029  -1.13942
  Beta  occ. eigenvalues --   -1.13924  -1.13919  -1.13506  -1.13483  -1.13471
  Beta  occ. eigenvalues --   -1.13458  -1.13458  -1.13442  -1.13336  -1.13326
  Beta  occ. eigenvalues --   -1.13316  -1.13179  -1.13048  -1.13018  -1.12797
  Beta  occ. eigenvalues --   -1.12726  -1.12718  -1.12703  -1.12682  -1.12656
  Beta  occ. eigenvalues --   -0.17571  -0.12713  -0.12125
  Beta virt. eigenvalues --   -0.06378  -0.05939  -0.05434  -0.04809  -0.02191
  Beta virt. eigenvalues --   -0.01937  -0.01768  -0.01425  -0.01180  -0.00742
  Beta virt. eigenvalues --   -0.00618   0.00151   0.00348   0.00754   0.00771

 Mulliken charges and spin densities:
               1          2
     1  Na   0.161928  -0.010692
     2  Na  -0.464587   0.732069
     3  Na   0.513428   0.113341
     4  Na   0.234063   0.012414
     5  Na  -0.015538  -0.064113
     6  Na   0.146413   0.012474
     7  Na  -0.575708   0.204508
 Sum of Mulliken charges =  -0.00000   1.00000

 Dipole moment (field-independent basis, Debye):
    X=             -0.2810    Y=              0.0816    Z=              0.1298  Tot=              0.3201
 Quadrupole moment (field-independent basis, Debye-Ang):
   XX=            -53.8436   YY=            -60.3410   ZZ=            -77.2838
   XY=             -0.6199   XZ=              0.3606   YZ=              0.2411

 Normal termination of Gaussian 16 at Tue Dec  5 16:31:59 2023.
