 Gaussian 16, Revision B.01,
 Gaussian 16:  ES64L-G16RevB.01 20-Dec-2017

 -------------------------
 #P B3LYP/6-311+g(d) force
 -------------------------

 -----
 DPGEN
 -----
 Symbolic Z-matrix:
 Charge =  0 Multiplicity = 2

                         Standard orientation:
 ---------------------------------------------------------------------
 Center     Atomic      Atomic             Coordinates (Angstroms)
 Number     Number       Type             X           Y           Z
 ---------------------------------------------------------------------
      1         11           0       -3.587199   -1.809818   -0.108561
      2         11           0        2.178729   -2.858582   -0.760945
      3         11           0        4.148327   -0.372861   -0.475984
      4         11           0        2.255350    2.736929    1.249416
      5         11           0       -0.126135    3.458676   -0.590249
      6         11           0       -3.876531    1.941605   -0.357799
      7         11           0       -0.992543   -3.095949    1.044123
 ---------------------------------------------------------------------

 SCF Done:  E(UB3LYP) =  -1136.10696580     A.U. after   20 cycles

 The electronic state is 2-A.
 Alpha  occ. eigenvalues --  -38.44737 -38.44693 -38.44670 -38.44487 -38.44373
 Alpha  occ. eigenvalues --  -38.44352 -38.44153  -2.20527  -2.20470  -2.20453
 Alpha  occ. eigenvalues --   -2.20278  -2.20162  -2.20150  -2.19975  -1.14210
 Alpha  occ. eigenvalues --   -1.14187  -1.14179  -1.14160  -1.14159  -1.14138
 Alpha  occ. eigenvalues --   -1.14126  -1.14117  -1.14099  -1.13947  -1.13937
 Alpha  occ. eigenvalues --   -1.13913  -1.13809  -1.13801  -1.13800  -1.13787
 Alpha  occ. eigenvalues --   -1.13781  -1.13772  -1.13623  -1.13619  -1.13603
 Alpha  occ. eigenvalues --   -0.15504  -0.13754  -0.13484  -0.10905
 Alpha virt. eigenvalues --   -0.07344  -0.04983  -0.04422  -0.03623  -0.03328
 Alpha virt. eigenvalues --   -0.02397  -0.02252  -0.01703  -0.01285  -0.01071
 Alpha virt. eigenvalues --   -0.00571  -0.00165  -0.00011   0.00475   0.00671

  Beta  occ. eigenvalues --  -38.44703 -38.44691 -38.44673 -38.44478 -38.44311
  Beta  occ. eigenvalues --  -38.44279 -38.44103  -2.20471  -2.20466  -2.20463
  Beta  occ. eigenvalues --   -2.20265  -2.20086  -2.19975  -2.19883  -1.14166
  Beta  occ. eigenvalues --   -1.14164  -1.14154  -1.14147  -1.14143  -1.14138
  Beta  occ. eigenvalues --   -1.14113  -1.14102  -1.14079  -1.13941  -1.13932
  Beta  occ. eigenvalues --   -1.13877  -1.13759  -1.13751  -1.13734  -1.13681
  Beta  occ. eigenvalues --   -1.13665  -1.13655  -1.13563  -1.13556  -1.13542
  Beta  occ. eigenvalues --   -0.15021  -0.13111  -0.12641
  Beta virt. eigenvalues --   -0.07764  -0.07476  -0.04543  -0.04006  -0.03416
  Beta virt. eigenvalues --   -0.02960  -0.02110  -0.02066  -0.01484  -0.01183
  Beta virt. eigenvalues --   -0.00720  -0.00370   0.00056   0.00200   0.00473

 Mulliken charges and spin densities:
               1          2
     1  Na   0.074861  -0.049239
     2  Na   0.100624   0.055878
     3  Na   0.102395   0.111974
     4  Na   0.038096   0.167527
     5  Na  -0.167212  -0.020151
     6  Na   0.087400   0.496261
     7  Na  -0.236163   0.237750
 Sum of Mulliken charges =  -0.00000   1.00000

 Dipole moment (field-independent basis, Debye):
    X=              0.6580    Y=              0.0066    Z=              0.0364  Tot=              0.6590
 Quadrupole moment (field-independent basis, Debye-Ang):
   XX=            -63.7219   YY=            -69.2798   ZZ=            -69.3664
   XY=              2.5578   XZ=              2.5468   YZ=             -0.3892

 Normal termination of Gaussian 16 at Sun Dec  3 18:27:55 2023.
