 Gaussian 16, Revision B.01,
 Gaussian 16:  ES64L-G16RevB.01 20-Dec-2017

 -------------------------
 #P B3LYP/6-311+g(d) force
 -------------------------

 -----
 DPGEN
 -----
 Symbolic Z-matrix:
 Charge =  0 Multiplicity = 2

                         Standard orientation:
 ---------------------------------------------------------------------
 Center     Atomic      Atomic             Coordinates (Angstroms)
 Number     Number       Type             X           Y           Z
 ---------------------------------------------------------------------
      1         11           0       -3.111054   -1.674120   -0.393520
      2         11           0        0.157593   -1.969842   -0.933770
      3         11           0        2.390788    2.302362   -0.365105
      4         11           0        3.854686   -1.187033    0.468125
      5         11           0       -0.690370    1.542005   -1.403133
      6         11           0       -3.108622    1.455445    1.191893
      7         11           0        0.506978   -0.468817    1.435510
 ---------------------------------------------------------------------

 SCF Done:  E(UB3LYP) =  -1136.11889399     A.U. after   23 cycles

 The electronic state is 2-A.
 Alpha  occ. eigenvalues --  -38.45110 -38.44770 -38.44617 -38.43940 -38.43840
 Alpha  occ. eigenvalues --  -38.43301 -38.43067  -2.20998  -2.20576  -2.20400
 Alpha  occ. eigenvalues --   -2.19734  -2.19664  -2.19227  -2.18938  -1.14809
 Alpha  occ. eigenvalues --   -1.14629  -1.14580  -1.14253  -1.14235  -1.14219
 Alpha  occ. eigenvalues --   -1.14070  -1.14045  -1.14019  -1.13412  -1.13400
 Alpha  occ. eigenvalues --   -1.13368  -1.13320  -1.13298  -1.13293  -1.12970
 Alpha  occ. eigenvalues --   -1.12852  -1.12805  -1.12625  -1.12595  -1.12556
 Alpha  occ. eigenvalues --   -0.18011  -0.13802  -0.11647  -0.10546
 Alpha virt. eigenvalues --   -0.06842  -0.05805  -0.04040  -0.03324  -0.02823
 Alpha virt. eigenvalues --   -0.02713  -0.01813  -0.01648  -0.00573  -0.00466
 Alpha virt. eigenvalues --   -0.00008   0.00090   0.00438   0.00566   0.00599

  Beta  occ. eigenvalues --  -38.45106 -38.44761 -38.44582 -38.43935 -38.43771
  Beta  occ. eigenvalues --  -38.43265 -38.43031  -2.20991  -2.20565  -2.20334
  Beta  occ. eigenvalues --   -2.19728  -2.19536  -2.19163  -2.18874  -1.14790
  Beta  occ. eigenvalues --   -1.14628  -1.14574  -1.14244  -1.14220  -1.14194
  Beta  occ. eigenvalues --   -1.14020  -1.14002  -1.13978  -1.13407  -1.13390
  Beta  occ. eigenvalues --   -1.13358  -1.13232  -1.13212  -1.13207  -1.12932
  Beta  occ. eigenvalues --   -1.12798  -1.12753  -1.12582  -1.12534  -1.12510
  Beta  occ. eigenvalues --   -0.17488  -0.13287  -0.11333
  Beta virt. eigenvalues --   -0.07082  -0.06641  -0.05656  -0.03522  -0.03054
  Beta virt. eigenvalues --   -0.02580  -0.02173  -0.01591  -0.01212  -0.00427
  Beta virt. eigenvalues --   -0.00205   0.00082   0.00176   0.00532   0.00645

 Mulliken charges and spin densities:
               1          2
     1  Na   0.138128   0.020033
     2  Na  -0.079368   0.193477
     3  Na  -0.132101  -0.012611
     4  Na   0.565326   0.224017
     5  Na  -0.153716   0.087686
     6  Na   0.237089   0.436946
     7  Na  -0.575358   0.050452
 Sum of Mulliken charges =  -0.00000   1.00000

 Dipole moment (field-independent basis, Debye):
    X=              0.4463    Y=             -0.4290    Z=             -0.2017  Tot=              0.6511
 Quadrupole moment (field-independent basis, Debye-Ang):
   XX=            -52.2785   YY=            -73.3505   ZZ=            -70.3717
   XY=              3.2620   XZ=              0.6408   YZ=              2.3769

 Normal termination of Gaussian 16 at Thu Dec  7 21:35:01 2023.
