 Gaussian 16, Revision B.01,
 Gaussian 16:  ES64L-G16RevB.01 20-Dec-2017

 -------------------------
 #P B3LYP/6-311+g(d) force
 -------------------------

 -----
 DPGEN
 -----
 Symbolic Z-matrix:
 Charge =  0 Multiplicity = 2

                         Standard orientation:
 ---------------------------------------------------------------------
 Center     Atomic      Atomic             Coordinates (Angstroms)
 Number     Number       Type             X           Y           Z
 ---------------------------------------------------------------------
      1         11           0        3.207479   -0.485852    0.078493
      2         11           0        1.586985    2.429986   -0.165974
      3         11           0       -2.004497    2.267496    0.143068
      4         11           0        0.370041   -0.315994   -1.705058
      5         11           0       -2.795848   -1.186998   -0.720354
      6         11           0       -0.676679    0.109221    1.845194
      7         11           0        0.312518   -2.817859    0.524632
 ---------------------------------------------------------------------

 SCF Done:  E(UB3LYP) =  -1136.13792400     A.U. after   19 cycles

 The electronic state is 2-A.
 Alpha  occ. eigenvalues --  -38.44070 -38.43957 -38.43521 -38.43449 -38.43371
 Alpha  occ. eigenvalues --  -38.43331 -38.43323  -2.19899  -2.19798  -2.19384
 Alpha  occ. eigenvalues --   -2.19316  -2.19299  -2.19278  -2.19189  -1.13577
 Alpha  occ. eigenvalues --   -1.13566  -1.13537  -1.13478  -1.13449  -1.13429
 Alpha  occ. eigenvalues --   -1.13166  -1.13039  -1.13014  -1.13004  -1.12993
 Alpha  occ. eigenvalues --   -1.12971  -1.12954  -1.12929  -1.12921  -1.12919
 Alpha  occ. eigenvalues --   -1.12917  -1.12891  -1.12850  -1.12836  -1.12806
 Alpha  occ. eigenvalues --   -0.18658  -0.13112  -0.12482  -0.10762
 Alpha virt. eigenvalues --   -0.05609  -0.05157  -0.04656  -0.03281  -0.02974
 Alpha virt. eigenvalues --   -0.02418  -0.01549  -0.01074  -0.00353  -0.00283
 Alpha virt. eigenvalues --    0.00011   0.00353   0.00815   0.00878   0.00888

  Beta  occ. eigenvalues --  -38.44070 -38.43932 -38.43515 -38.43446 -38.43315
  Beta  occ. eigenvalues --  -38.43295 -38.43261  -2.19902  -2.19754  -2.19377
  Beta  occ. eigenvalues --   -2.19297  -2.19177  -2.19164  -2.19163  -1.13573
  Beta  occ. eigenvalues --   -1.13568  -1.13531  -1.13438  -1.13408  -1.13403
  Beta  occ. eigenvalues --   -1.13132  -1.13024  -1.13001  -1.12989  -1.12961
  Beta  occ. eigenvalues --   -1.12923  -1.12913  -1.12874  -1.12862  -1.12847
  Beta  occ. eigenvalues --   -1.12835  -1.12807  -1.12798  -1.12790  -1.12784
  Beta  occ. eigenvalues --   -0.17963  -0.12879  -0.12218
  Beta virt. eigenvalues --   -0.06885  -0.05528  -0.05132  -0.04588  -0.02576
  Beta virt. eigenvalues --   -0.02222  -0.01489  -0.01365  -0.00987  -0.00355
  Beta virt. eigenvalues --   -0.00302   0.00133   0.00396   0.00876   0.00887

 Mulliken charges and spin densities:
               1          2
     1  Na   0.032201  -0.050957
     2  Na  -0.024290  -0.111679
     3  Na   0.175968  -0.032880
     4  Na  -0.116088   0.515175
     5  Na   0.064913   0.063817
     6  Na  -0.188194   0.599805
     7  Na   0.055490   0.016719
 Sum of Mulliken charges =  -0.00000   1.00000

 Dipole moment (field-independent basis, Debye):
    X=              0.0857    Y=             -0.0967    Z=             -0.0198  Tot=              0.1307
 Quadrupole moment (field-independent basis, Debye-Ang):
   XX=            -56.2716   YY=            -63.3525   ZZ=            -73.9433
   XY=             -0.3434   XZ=              2.3416   YZ=             -0.8577

 Normal termination of Gaussian 16 at Fri Dec  8 05:56:13 2023.
