 Gaussian 16, Revision B.01,
 Gaussian 16:  ES64L-G16RevB.01 20-Dec-2017

 -------------------------
 #P B3LYP/6-311+g(d) force
 -------------------------

 -----
 DPGEN
 -----
 Symbolic Z-matrix:
 Charge =  0 Multiplicity = 2

                         Standard orientation:
 ---------------------------------------------------------------------
 Center     Atomic      Atomic             Coordinates (Angstroms)
 Number     Number       Type             X           Y           Z
 ---------------------------------------------------------------------
      1         11           0        4.570873    2.202265    0.421278
      2         11           0        5.152470   -1.243217   -0.038701
      3         11           0       -4.669478   -0.521825    1.409580
      4         11           0       -6.464822    0.674343   -0.911616
      5         11           0        0.870026    1.641325   -0.365550
      6         11           0       -1.356048   -0.632151   -0.079106
      7         11           0        1.896978   -2.120740   -0.435885
 ---------------------------------------------------------------------

 SCF Done:  E(UB3LYP) =  -1136.11475847     A.U. after   21 cycles

 The electronic state is 2-A.
 Alpha  occ. eigenvalues --  -38.44970 -38.44579 -38.44490 -38.44471 -38.44002
 Alpha  occ. eigenvalues --  -38.43644 -38.43298  -2.20740  -2.20379  -2.20309
 Alpha  occ. eigenvalues --   -2.20290  -2.19784  -2.19444  -2.19137  -1.14407
 Alpha  occ. eigenvalues --   -1.14401  -1.14395  -1.14042  -1.14035  -1.14012
 Alpha  occ. eigenvalues --   -1.13985  -1.13969  -1.13962  -1.13948  -1.13934
 Alpha  occ. eigenvalues --   -1.13888  -1.13451  -1.13434  -1.13410  -1.13114
 Alpha  occ. eigenvalues --   -1.13113  -1.13069  -1.12825  -1.12811  -1.12756
 Alpha  occ. eigenvalues --   -0.16114  -0.14145  -0.11749  -0.11455
 Alpha virt. eigenvalues --   -0.06848  -0.05080  -0.04716  -0.03583  -0.03063
 Alpha virt. eigenvalues --   -0.02648  -0.02160  -0.01716  -0.00843  -0.00717
 Alpha virt. eigenvalues --   -0.00408  -0.00034   0.00140   0.00268   0.00592

  Beta  occ. eigenvalues --  -38.44970 -38.44579 -38.44437 -38.44397 -38.43954
  Beta  occ. eigenvalues --  -38.43621 -38.43296  -2.20739  -2.20379  -2.20212
  Beta  occ. eigenvalues --   -2.20157  -2.19695  -2.19403  -2.19135  -1.14406
  Beta  occ. eigenvalues --   -1.14400  -1.14395  -1.14042  -1.14035  -1.14011
  Beta  occ. eigenvalues --   -1.13921  -1.13898  -1.13880  -1.13863  -1.13851
  Beta  occ. eigenvalues --   -1.13779  -1.13392  -1.13369  -1.13351  -1.13089
  Beta  occ. eigenvalues --   -1.13078  -1.13031  -1.12816  -1.12810  -1.12757
  Beta  occ. eigenvalues --   -0.15484  -0.13871  -0.11685
  Beta virt. eigenvalues --   -0.07473  -0.06786  -0.04472  -0.04376  -0.03380
  Beta virt. eigenvalues --   -0.02527  -0.02314  -0.02042  -0.01669  -0.00804
  Beta virt. eigenvalues --   -0.00326  -0.00077   0.00124   0.00265   0.00448

 Mulliken charges and spin densities:
               1          2
     1  Na   0.252386   0.170391
     2  Na  -0.046644  -0.022420
     3  Na   0.298163  -0.049723
     4  Na   0.216536  -0.000956
     5  Na   0.099890   0.402191
     6  Na  -0.858820  -0.202025
     7  Na   0.038488   0.702542
 Sum of Mulliken charges =  -0.00000   1.00000

 Dipole moment (field-independent basis, Debye):
    X=             -1.7504    Y=              0.2711    Z=             -0.2166  Tot=              1.7845
 Quadrupole moment (field-independent basis, Debye-Ang):
   XX=            -61.0221   YY=            -67.3719   ZZ=            -67.5875
   XY=             -2.0646   XZ=              4.5783   YZ=             -2.5824

 Normal termination of Gaussian 16 at Sun Dec  3 19:47:18 2023.
