 Gaussian 16, Revision B.01,
 Gaussian 16:  ES64L-G16RevB.01 20-Dec-2017

 -------------------------
 #P B3LYP/6-311+g(d) force
 -------------------------

 -----
 DPGEN
 -----
 Symbolic Z-matrix:
 Charge =  0 Multiplicity = 2

                         Standard orientation:
 ---------------------------------------------------------------------
 Center     Atomic      Atomic             Coordinates (Angstroms)
 Number     Number       Type             X           Y           Z
 ---------------------------------------------------------------------
      1         11           0       -1.976995   -1.981367   -1.080084
      2         11           0        0.482852    3.580480   -0.571623
      3         11           0       -0.648482    0.621744    0.565741
      4         11           0        2.104552    0.711098   -1.102499
      5         11           0       -3.598940    0.559089    0.908813
      6         11           0        0.984466   -2.717459   -0.422196
      7         11           0        2.652547   -0.773586    1.701847
 ---------------------------------------------------------------------

 SCF Done:  E(UB3LYP) =  -1136.12601830     A.U. after   19 cycles

 The electronic state is 2-A.
 Alpha  occ. eigenvalues --  -38.44033 -38.43952 -38.43879 -38.43690 -38.43680
 Alpha  occ. eigenvalues --  -38.43514 -38.43073  -2.19944  -2.19803  -2.19760
 Alpha  occ. eigenvalues --   -2.19553  -2.19507  -2.19405  -2.19078  -1.13663
 Alpha  occ. eigenvalues --   -1.13638  -1.13550  -1.13527  -1.13434  -1.13411
 Alpha  occ. eigenvalues --   -1.13407  -1.13391  -1.13377  -1.13286  -1.13216
 Alpha  occ. eigenvalues --   -1.13172  -1.13167  -1.13161  -1.13145  -1.13071
 Alpha  occ. eigenvalues --   -1.13055  -1.13020  -1.12790  -1.12736  -1.12687
 Alpha  occ. eigenvalues --   -0.18121  -0.13497  -0.12828  -0.10517
 Alpha virt. eigenvalues --   -0.05664  -0.05373  -0.04803  -0.03375  -0.02894
 Alpha virt. eigenvalues --   -0.01869  -0.01619  -0.01435  -0.00502  -0.00202
 Alpha virt. eigenvalues --   -0.00119   0.00240   0.00477   0.00687   0.00792

  Beta  occ. eigenvalues --  -38.44021 -38.43910 -38.43810 -38.43677 -38.43644
  Beta  occ. eigenvalues --  -38.43490 -38.43063  -2.19924  -2.19724  -2.19630
  Beta  occ. eigenvalues --   -2.19490  -2.19484  -2.19368  -2.19061  -1.13652
  Beta  occ. eigenvalues --   -1.13599  -1.13535  -1.13471  -1.13379  -1.13362
  Beta  occ. eigenvalues --   -1.13317  -1.13303  -1.13300  -1.13237  -1.13177
  Beta  occ. eigenvalues --   -1.13154  -1.13143  -1.13125  -1.13115  -1.13046
  Beta  occ. eigenvalues --   -1.13032  -1.12955  -1.12748  -1.12724  -1.12687
  Beta  occ. eigenvalues --   -0.17648  -0.13057  -0.12305
  Beta virt. eigenvalues --   -0.07133  -0.05475  -0.05085  -0.04456  -0.03002
  Beta virt. eigenvalues --   -0.02384  -0.01574  -0.01379  -0.01114  -0.00265
  Beta virt. eigenvalues --   -0.00013   0.00030   0.00354   0.00608   0.00730

 Mulliken charges and spin densities:
               1          2
     1  Na   0.154464   0.128262
     2  Na   0.178898   0.044169
     3  Na  -1.896019   0.124675
     4  Na   0.601451   0.235545
     5  Na   0.170473   0.166820
     6  Na   0.100291   0.116524
     7  Na   0.690442   0.184004
 Sum of Mulliken charges =  -0.00000   1.00000

 Dipole moment (field-independent basis, Debye):
    X=              0.0208    Y=              0.2753    Z=             -0.0624  Tot=              0.2830
 Quadrupole moment (field-independent basis, Debye-Ang):
   XX=            -60.2050   YY=            -64.0140   ZZ=            -69.8206
   XY=             -1.1506   XZ=             -0.1817   YZ=              0.6702

 Normal termination of Gaussian 16 at Wed Nov 29 00:21:45 2023.
