 Gaussian 16, Revision B.01,
 Gaussian 16:  ES64L-G16RevB.01 20-Dec-2017

 -------------------------
 #P B3LYP/6-311+g(d) force
 -------------------------

 -----
 DPGEN
 -----
 Symbolic Z-matrix:
 Charge =  0 Multiplicity = 2

                         Standard orientation:
 ---------------------------------------------------------------------
 Center     Atomic      Atomic             Coordinates (Angstroms)
 Number     Number       Type             X           Y           Z
 ---------------------------------------------------------------------
      1         11           0        0.061482   -0.481692    2.148193
      2         11           0       -0.126649   -0.612799   -1.961796
      3         11           0        2.839305    1.555184    0.392815
      4         11           0       -2.113684   -2.205659   -0.052280
      5         11           0        2.704042   -2.426748   -0.241031
      6         11           0       -3.585939    0.915976    0.234096
      7         11           0        0.221444    3.255739   -0.519997
 ---------------------------------------------------------------------

 SCF Done:  E(UB3LYP) =  -1136.12144079     A.U. after   21 cycles

 The electronic state is 2-A.
 Alpha  occ. eigenvalues --  -38.45060 -38.44385 -38.44375 -38.44201 -38.44109
 Alpha  occ. eigenvalues --  -38.44068 -38.43374  -2.20802  -2.20193  -2.20116
 Alpha  occ. eigenvalues --   -2.20045  -2.19951  -2.19861  -2.19156  -1.14475
 Alpha  occ. eigenvalues --   -1.14462  -1.14445  -1.13857  -1.13839  -1.13804
 Alpha  occ. eigenvalues --   -1.13794  -1.13784  -1.13778  -1.13758  -1.13707
 Alpha  occ. eigenvalues --   -1.13659  -1.13605  -1.13583  -1.13552  -1.13539
 Alpha  occ. eigenvalues --   -1.13534  -1.13494  -1.12824  -1.12816  -1.12803
 Alpha  occ. eigenvalues --   -0.17346  -0.12998  -0.11807  -0.10758
 Alpha virt. eigenvalues --   -0.06517  -0.05560  -0.04776  -0.03384  -0.02871
 Alpha virt. eigenvalues --   -0.02738  -0.02076  -0.01351  -0.00779  -0.00568
 Alpha virt. eigenvalues --   -0.00147   0.00299   0.00504   0.00606   0.00668

  Beta  occ. eigenvalues --  -38.45060 -38.44381 -38.44296 -38.44192 -38.44067
  Beta  occ. eigenvalues --  -38.44030 -38.43370  -2.20803  -2.20128  -2.20034
  Beta  occ. eigenvalues --   -2.20026  -2.19860  -2.19805  -2.19148  -1.14470
  Beta  occ. eigenvalues --   -1.14459  -1.14448  -1.13798  -1.13778  -1.13771
  Beta  occ. eigenvalues --   -1.13763  -1.13738  -1.13724  -1.13687  -1.13669
  Beta  occ. eigenvalues --   -1.13652  -1.13537  -1.13524  -1.13515  -1.13497
  Beta  occ. eigenvalues --   -1.13481  -1.13449  -1.12815  -1.12808  -1.12799
  Beta  occ. eigenvalues --   -0.16610  -0.12864  -0.11661
  Beta virt. eigenvalues --   -0.06933  -0.06424  -0.05420  -0.04589  -0.02690
  Beta virt. eigenvalues --   -0.02255  -0.01996  -0.01784  -0.01269  -0.00840
  Beta virt. eigenvalues --   -0.00553   0.00017   0.00334   0.00671   0.00690

 Mulliken charges and spin densities:
               1          2
     1  Na  -0.001244   0.586253
     2  Na   0.150146   0.681243
     3  Na  -0.095185  -0.025619
     4  Na   0.336296  -0.037031
     5  Na  -0.037813  -0.154237
     6  Na  -0.208020  -0.022265
     7  Na  -0.144179  -0.028345
 Sum of Mulliken charges =  -0.00000   1.00000

 Dipole moment (field-independent basis, Debye):
    X=             -0.4397    Y=             -0.4185    Z=              0.1558  Tot=              0.6267
 Quadrupole moment (field-independent basis, Debye-Ang):
   XX=            -54.9704   YY=            -66.2560   ZZ=            -74.6146
   XY=             -3.3394   XZ=              0.0037   YZ=             -0.1621

 Normal termination of Gaussian 16 at Mon Dec  4 02:20:45 2023.
