 Gaussian 16, Revision B.01,
 Gaussian 16:  ES64L-G16RevB.01 20-Dec-2017

 -------------------------
 #P B3LYP/6-311+g(d) force
 -------------------------

 -----
 DPGEN
 -----
 Symbolic Z-matrix:
 Charge =  0 Multiplicity = 2

                         Standard orientation:
 ---------------------------------------------------------------------
 Center     Atomic      Atomic             Coordinates (Angstroms)
 Number     Number       Type             X           Y           Z
 ---------------------------------------------------------------------
      1         11           0        1.124084   -0.324804    2.182189
      2         11           0        5.018646    0.890661   -1.197074
      3         11           0        3.393479   -2.212167   -0.405417
      4         11           0       -4.256855   -0.249888   -0.328536
      5         11           0       -7.136669    0.509558   -0.400261
      6         11           0       -0.256081   -1.284855   -0.152074
      7         11           0        2.113395    2.671495    0.301174
 ---------------------------------------------------------------------

 SCF Done:  E(UB3LYP) =  -1136.10572694     A.U. after   20 cycles

 The electronic state is 2-A.
 Alpha  occ. eigenvalues --  -38.45208 -38.45105 -38.45010 -38.44416 -38.44057
 Alpha  occ. eigenvalues --  -38.43754 -38.43653  -2.21062  -2.20911  -2.20800
 Alpha  occ. eigenvalues --   -2.20263  -2.19861  -2.19560  -2.19412  -1.14813
 Alpha  occ. eigenvalues --   -1.14702  -1.14690  -1.14585  -1.14542  -1.14508
 Alpha  occ. eigenvalues --   -1.14463  -1.14435  -1.14401  -1.13943  -1.13908
 Alpha  occ. eigenvalues --   -1.13885  -1.13591  -1.13506  -1.13506  -1.13217
 Alpha  occ. eigenvalues --   -1.13216  -1.13172  -1.13095  -1.13076  -1.13062
 Alpha  occ. eigenvalues --   -0.16919  -0.13355  -0.11967  -0.11778
 Alpha virt. eigenvalues --   -0.07049  -0.05508  -0.04499  -0.03793  -0.03212
 Alpha virt. eigenvalues --   -0.02366  -0.02248  -0.01877  -0.01576  -0.00814
 Alpha virt. eigenvalues --   -0.00453  -0.00379   0.00209   0.00289   0.00392

  Beta  occ. eigenvalues --  -38.45191 -38.45012 -38.44918 -38.44411 -38.44057
  Beta  occ. eigenvalues --  -38.43754 -38.43664  -2.21034  -2.20737  -2.20629
  Beta  occ. eigenvalues --   -2.20256  -2.19861  -2.19560  -2.19435  -1.14799
  Beta  occ. eigenvalues --   -1.14676  -1.14649  -1.14467  -1.14429  -1.14382
  Beta  occ. eigenvalues --   -1.14345  -1.14319  -1.14285  -1.13938  -1.13903
  Beta  occ. eigenvalues --   -1.13864  -1.13591  -1.13506  -1.13506  -1.13217
  Beta  occ. eigenvalues --   -1.13216  -1.13172  -1.13113  -1.13088  -1.13064
  Beta  occ. eigenvalues --   -0.16102  -0.13267  -0.11685
  Beta virt. eigenvalues --   -0.07947  -0.06958  -0.05030  -0.03969  -0.03243
  Beta virt. eigenvalues --   -0.02824  -0.02262  -0.02080  -0.01838  -0.01070
  Beta virt. eigenvalues --   -0.00711  -0.00377  -0.00015   0.00320   0.00376

 Mulliken charges and spin densities:
               1          2
     1  Na  -0.031424   0.167467
     2  Na   0.013204  -0.115110
     3  Na   1.049804   0.330891
     4  Na  -1.201567  -0.019489
     5  Na   0.653367   0.010606
     6  Na  -0.635658   0.183304
     7  Na   0.152274   0.442330
 Sum of Mulliken charges =  -0.00000   1.00000

 Dipole moment (field-independent basis, Debye):
    X=              0.3976    Y=             -0.0723    Z=              0.6154  Tot=              0.7362
 Quadrupole moment (field-independent basis, Debye-Ang):
   XX=            -67.2083   YY=            -68.9876   ZZ=            -67.8742
   XY=             -5.4289   XZ=              2.4321   YZ=              0.1873

 Normal termination of Gaussian 16 at Sun Dec  3 19:29:31 2023.
