 Gaussian 16, Revision B.01,
 Gaussian 16:  ES64L-G16RevB.01 20-Dec-2017

 -------------------------
 #P B3LYP/6-311+g(d) force
 -------------------------

 -----
 DPGEN
 -----
 Symbolic Z-matrix:
 Charge =  0 Multiplicity = 2

                         Standard orientation:
 ---------------------------------------------------------------------
 Center     Atomic      Atomic             Coordinates (Angstroms)
 Number     Number       Type             X           Y           Z
 ---------------------------------------------------------------------
      1         11           0       -3.353193    0.078541   -0.797731
      2         11           0        2.155131    2.104257   -0.549168
      3         11           0       -1.212377    2.305685    0.375208
      4         11           0       -0.175597   -1.027886   -1.967003
      5         11           0       -1.593147   -2.175803    1.030702
      6         11           0        0.500606    0.124884    2.126690
      7         11           0        3.678576   -1.409679   -0.218699
 ---------------------------------------------------------------------

 SCF Done:  E(UB3LYP) =  -1136.12396865     A.U. after   22 cycles

 The electronic state is 2-A.
 Alpha  occ. eigenvalues --  -38.44630 -38.44615 -38.44493 -38.44180 -38.44077
 Alpha  occ. eigenvalues --  -38.43858 -38.42542  -2.20414  -2.20355  -2.20337
 Alpha  occ. eigenvalues --   -2.20060  -2.19869  -2.19718  -2.18411  -1.14095
 Alpha  occ. eigenvalues --   -1.14082  -1.14035  -1.14032  -1.14021  -1.14000
 Alpha  occ. eigenvalues --   -1.13998  -1.13992  -1.13959  -1.13749  -1.13690
 Alpha  occ. eigenvalues --   -1.13679  -1.13561  -1.13531  -1.13485  -1.13394
 Alpha  occ. eigenvalues --   -1.13361  -1.13341  -1.12098  -1.12077  -1.12047
 Alpha  occ. eigenvalues --   -0.17975  -0.13168  -0.11614  -0.11381
 Alpha virt. eigenvalues --   -0.06550  -0.05344  -0.04195  -0.03337  -0.03114
 Alpha virt. eigenvalues --   -0.02973  -0.02122  -0.01059  -0.00631  -0.00196
 Alpha virt. eigenvalues --    0.00040   0.00249   0.00370   0.00619   0.00745

  Beta  occ. eigenvalues --  -38.44640 -38.44572 -38.44470 -38.44091 -38.44069
  Beta  occ. eigenvalues --  -38.43816 -38.42535  -2.20376  -2.20333  -2.20297
  Beta  occ. eigenvalues --   -2.19898  -2.19856  -2.19644  -2.18401  -1.14044
  Beta  occ. eigenvalues --   -1.14043  -1.14036  -1.14021  -1.14006  -1.13980
  Beta  occ. eigenvalues --   -1.13969  -1.13960  -1.13926  -1.13641  -1.13576
  Beta  occ. eigenvalues --   -1.13559  -1.13546  -1.13517  -1.13477  -1.13338
  Beta  occ. eigenvalues --   -1.13312  -1.13271  -1.12087  -1.12054  -1.12043
  Beta  occ. eigenvalues --   -0.17193  -0.13028  -0.11263
  Beta virt. eigenvalues --   -0.07567  -0.06406  -0.05198  -0.03743  -0.03118
  Beta virt. eigenvalues --   -0.02374  -0.02277  -0.01800  -0.00987  -0.00484
  Beta virt. eigenvalues --   -0.00080   0.00076   0.00305   0.00473   0.00724

 Mulliken charges and spin densities:
               1          2
     1  Na   0.580188   0.188930
     2  Na  -0.030588   0.047294
     3  Na  -0.547940   0.062064
     4  Na  -0.236491   0.374206
     5  Na  -0.239630  -0.001026
     6  Na   0.549014   0.431866
     7  Na  -0.074552  -0.103335
 Sum of Mulliken charges =  -0.00000   1.00000

 Dipole moment (field-independent basis, Debye):
    X=              0.1220    Y=             -0.3365    Z=             -0.3302  Tot=              0.4870
 Quadrupole moment (field-independent basis, Debye-Ang):
   XX=            -54.5257   YY=            -72.2858   ZZ=            -69.2735
   XY=              0.4304   XZ=              0.7897   YZ=             -3.2684

 Normal termination of Gaussian 16 at Tue Dec  5 13:56:07 2023.
