 Gaussian 16, Revision B.01,
 Gaussian 16:  ES64L-G16RevB.01 20-Dec-2017

 -------------------------
 #P B3LYP/6-311+g(d) force
 -------------------------

 -----
 DPGEN
 -----
 Symbolic Z-matrix:
 Charge =  0 Multiplicity = 2

                         Standard orientation:
 ---------------------------------------------------------------------
 Center     Atomic      Atomic             Coordinates (Angstroms)
 Number     Number       Type             X           Y           Z
 ---------------------------------------------------------------------
      1         11           0       -1.572259   -2.702624   -0.602736
      2         11           0        3.902406   -0.495893    0.677911
      3         11           0        0.525521   -0.381078    1.803934
      4         11           0       -3.485535    0.425648    1.133152
      5         11           0        0.684004    2.687915   -0.249088
      6         11           0        1.615572   -0.514593   -1.532539
      7         11           0       -1.669710    0.980624   -1.230633
 ---------------------------------------------------------------------

 SCF Done:  E(UB3LYP) =  -1136.12103127     A.U. after   22 cycles

 The electronic state is 2-A.
 Alpha  occ. eigenvalues --  -38.44983 -38.44913 -38.44774 -38.43828 -38.43537
 Alpha  occ. eigenvalues --  -38.43086 -38.42726  -2.20797  -2.20736  -2.20582
 Alpha  occ. eigenvalues --   -2.19729  -2.19319  -2.19039  -2.18581  -1.14508
 Alpha  occ. eigenvalues --   -1.14434  -1.14431  -1.14395  -1.14393  -1.14348
 Alpha  occ. eigenvalues --   -1.14272  -1.14222  -1.14212  -1.13418  -1.13381
 Alpha  occ. eigenvalues --   -1.13343  -1.12990  -1.12979  -1.12947  -1.12747
 Alpha  occ. eigenvalues --   -1.12723  -1.12662  -1.12255  -1.12241  -1.12207
 Alpha  occ. eigenvalues --   -0.18142  -0.13675  -0.11262  -0.11043
 Alpha virt. eigenvalues --   -0.06981  -0.04874  -0.04493  -0.03284  -0.02721
 Alpha virt. eigenvalues --   -0.02563  -0.02319  -0.01102  -0.00818  -0.00192
 Alpha virt. eigenvalues --    0.00053   0.00152   0.00216   0.00770   0.00791

  Beta  occ. eigenvalues --  -38.44942 -38.44872 -38.44764 -38.43784 -38.43508
  Beta  occ. eigenvalues --  -38.43066 -38.42729  -2.20720  -2.20660  -2.20565
  Beta  occ. eigenvalues --   -2.19650  -2.19268  -2.19008  -2.18589  -1.14458
  Beta  occ. eigenvalues --   -1.14377  -1.14374  -1.14344  -1.14339  -1.14291
  Beta  occ. eigenvalues --   -1.14260  -1.14211  -1.14193  -1.13367  -1.13310
  Beta  occ. eigenvalues --   -1.13284  -1.12951  -1.12942  -1.12908  -1.12722
  Beta  occ. eigenvalues --   -1.12676  -1.12639  -1.12262  -1.12229  -1.12214
  Beta  occ. eigenvalues --   -0.17452  -0.13424  -0.11021
  Beta virt. eigenvalues --   -0.07374  -0.06724  -0.04558  -0.04115  -0.03157
  Beta virt. eigenvalues --   -0.02377  -0.02004  -0.01643  -0.00787  -0.00659
  Beta virt. eigenvalues --   -0.00173   0.00139   0.00197   0.00340   0.00834

 Mulliken charges and spin densities:
               1          2
     1  Na  -0.213791   0.148346
     2  Na   0.283162   0.094132
     3  Na  -0.261215   0.339932
     4  Na   0.000451   0.126797
     5  Na  -0.275741  -0.008328
     6  Na  -0.098482   0.164042
     7  Na   0.565617   0.135078
 Sum of Mulliken charges =  -0.00000   1.00000

 Dipole moment (field-independent basis, Debye):
    X=              0.5475    Y=             -0.0896    Z=              0.6408  Tot=              0.8476
 Quadrupole moment (field-independent basis, Debye-Ang):
   XX=            -51.1499   YY=            -74.1072   ZZ=            -68.7609
   XY=              0.2478   XZ=             -1.3104   YZ=              2.7452

 Normal termination of Gaussian 16 at Tue Dec  5 20:09:09 2023.
