 Gaussian 16, Revision B.01,
 Gaussian 16:  ES64L-G16RevB.01 20-Dec-2017

 -------------------------
 #P B3LYP/6-311+g(d) force
 -------------------------

 -----
 DPGEN
 -----
 Symbolic Z-matrix:
 Charge =  0 Multiplicity = 2

                         Standard orientation:
 ---------------------------------------------------------------------
 Center     Atomic      Atomic             Coordinates (Angstroms)
 Number     Number       Type             X           Y           Z
 ---------------------------------------------------------------------
      1         11           0       -1.718993    1.501639   -0.729616
      2         11           0        1.828985    1.028140    0.385881
      3         11           0        1.029907   -2.088716   -0.805205
      4         11           0       -1.624665   -1.964448    1.690376
      5         11           0       -3.710449   -1.293978   -0.643621
      6         11           0        4.099258   -1.351664   -0.195420
      7         11           0        0.095957    4.169029    0.297604
 ---------------------------------------------------------------------

 SCF Done:  E(UB3LYP) =  -1136.12519501     A.U. after   21 cycles

 The electronic state is 2-A.
 Alpha  occ. eigenvalues --  -38.44852 -38.44272 -38.43871 -38.43798 -38.43790
 Alpha  occ. eigenvalues --  -38.43560 -38.43460  -2.20689  -2.20119  -2.19723
 Alpha  occ. eigenvalues --   -2.19627  -2.19597  -2.19402  -2.19308  -1.14392
 Alpha  occ. eigenvalues --   -1.14364  -1.14302  -1.13845  -1.13814  -1.13705
 Alpha  occ. eigenvalues --   -1.13388  -1.13365  -1.13345  -1.13337  -1.13309
 Alpha  occ. eigenvalues --   -1.13285  -1.13260  -1.13244  -1.13190  -1.13092
 Alpha  occ. eigenvalues --   -1.13054  -1.13042  -1.12961  -1.12952  -1.12914
 Alpha  occ. eigenvalues --   -0.17174  -0.13845  -0.12972  -0.09701
 Alpha virt. eigenvalues --   -0.06397  -0.05762  -0.04815  -0.03289  -0.02692
 Alpha virt. eigenvalues --   -0.02454  -0.01915  -0.01415  -0.00955  -0.00670
 Alpha virt. eigenvalues --   -0.00177   0.00038   0.00311   0.00524   0.00652

  Beta  occ. eigenvalues --  -38.44842 -38.44266 -38.43837 -38.43796 -38.43758
  Beta  occ. eigenvalues --  -38.43507 -38.43416  -2.20674  -2.20110  -2.19660
  Beta  occ. eigenvalues --   -2.19595  -2.19572  -2.19305  -2.19230  -1.14387
  Beta  occ. eigenvalues --   -1.14352  -1.14267  -1.13840  -1.13799  -1.13696
  Beta  occ. eigenvalues --   -1.13343  -1.13319  -1.13307  -1.13306  -1.13277
  Beta  occ. eigenvalues --   -1.13266  -1.13256  -1.13230  -1.13145  -1.13029
  Beta  occ. eigenvalues --   -1.12986  -1.12970  -1.12909  -1.12887  -1.12850
  Beta  occ. eigenvalues --   -0.16755  -0.13333  -0.12759
  Beta virt. eigenvalues --   -0.06224  -0.06101  -0.05635  -0.04527  -0.02910
  Beta virt. eigenvalues --   -0.02377  -0.02206  -0.01826  -0.01038  -0.00862
  Beta virt. eigenvalues --   -0.00294   0.00169   0.00258   0.00508   0.00598

 Mulliken charges and spin densities:
               1          2
     1  Na  -0.835269   0.209017
     2  Na  -1.151495   0.043496
     3  Na  -0.502148   0.050353
     4  Na   0.225743   0.304316
     5  Na   0.331165   0.212388
     6  Na   1.025018   0.146833
     7  Na   0.906986   0.033598
 Sum of Mulliken charges =  -0.00000   1.00000

 Dipole moment (field-independent basis, Debye):
    X=              1.1658    Y=             -0.0368    Z=              0.3234  Tot=              1.2104
 Quadrupole moment (field-independent basis, Debye-Ang):
   XX=            -66.4835   YY=            -61.0826   ZZ=            -70.2212
   XY=              1.7117   XZ=             -0.3734   YZ=              4.0796

 Normal termination of Gaussian 16 at Wed Nov 29 03:17:13 2023.
