 Gaussian 16, Revision B.01,
 Gaussian 16:  ES64L-G16RevB.01 20-Dec-2017

 -------------------------
 #P B3LYP/6-311+g(d) force
 -------------------------

 -----
 DPGEN
 -----
 Symbolic Z-matrix:
 Charge =  0 Multiplicity = 2

                         Standard orientation:
 ---------------------------------------------------------------------
 Center     Atomic      Atomic             Coordinates (Angstroms)
 Number     Number       Type             X           Y           Z
 ---------------------------------------------------------------------
      1         11           0        2.931861    0.801738    1.016153
      2         11           0        4.018211   -2.499295    0.039987
      3         11           0       -2.531236   -0.987901   -0.271823
      4         11           0        1.386323    3.508743   -0.095128
      5         11           0       -5.714851   -0.606247    0.696423
      6         11           0        0.915140   -1.747165   -0.577569
      7         11           0       -1.005447    1.530127   -0.808043
 ---------------------------------------------------------------------

 SCF Done:  E(UB3LYP) =  -1136.12338381     A.U. after   19 cycles

 The electronic state is 2-A.
 Alpha  occ. eigenvalues --  -38.44632 -38.44592 -38.44304 -38.44194 -38.43978
 Alpha  occ. eigenvalues --  -38.43253 -38.43163  -2.20450  -2.20403  -2.20184
 Alpha  occ. eigenvalues --   -2.20004  -2.19836  -2.19095  -2.19052  -1.14147
 Alpha  occ. eigenvalues --   -1.14132  -1.14049  -1.14033  -1.14031  -1.14018
 Alpha  occ. eigenvalues --   -1.13887  -1.13845  -1.13825  -1.13684  -1.13663
 Alpha  occ. eigenvalues --   -1.13640  -1.13527  -1.13519  -1.13423  -1.12771
 Alpha  occ. eigenvalues --   -1.12757  -1.12744  -1.12742  -1.12710  -1.12690
 Alpha  occ. eigenvalues --   -0.17078  -0.14083  -0.12648  -0.11268
 Alpha virt. eigenvalues --   -0.06180  -0.05232  -0.04446  -0.04027  -0.02504
 Alpha virt. eigenvalues --   -0.02256  -0.02043  -0.01762  -0.01030  -0.00867
 Alpha virt. eigenvalues --   -0.00144   0.00140   0.00187   0.00384   0.00716

  Beta  occ. eigenvalues --  -38.44606 -38.44473 -38.44288 -38.44187 -38.43943
  Beta  occ. eigenvalues --  -38.43249 -38.43154  -2.20402  -2.20181  -2.20156
  Beta  occ. eigenvalues --   -2.19992  -2.19775  -2.19087  -2.19047  -1.14112
  Beta  occ. eigenvalues --   -1.14101  -1.14011  -1.13882  -1.13880  -1.13873
  Beta  occ. eigenvalues --   -1.13871  -1.13819  -1.13804  -1.13674  -1.13655
  Beta  occ. eigenvalues --   -1.13628  -1.13489  -1.13481  -1.13361  -1.12768
  Beta  occ. eigenvalues --   -1.12752  -1.12740  -1.12736  -1.12716  -1.12612
  Beta  occ. eigenvalues --   -0.16544  -0.13401  -0.12395
  Beta virt. eigenvalues --   -0.07635  -0.06011  -0.04844  -0.04032  -0.03828
  Beta virt. eigenvalues --   -0.02300  -0.02028  -0.01724  -0.01214  -0.00871
  Beta virt. eigenvalues --   -0.00535   0.00116   0.00255   0.00387   0.00497

 Mulliken charges and spin densities:
               1          2
     1  Na  -0.410493   0.222820
     2  Na   1.158986   0.099727
     3  Na  -0.019486   0.215643
     4  Na   0.615454   0.047272
     5  Na   0.264695   0.472762
     6  Na  -0.866452  -0.005266
     7  Na  -0.742703  -0.052957
 Sum of Mulliken charges =  -0.00000   1.00000

 Dipole moment (field-independent basis, Debye):
    X=              1.0836    Y=             -0.1828    Z=              0.0692  Tot=              1.1011
 Quadrupole moment (field-independent basis, Debye-Ang):
   XX=            -59.6562   YY=            -65.0677   ZZ=            -70.8175
   XY=             -5.8384   XZ=              0.4478   YZ=             -0.3940

 Normal termination of Gaussian 16 at Tue Nov 28 23:25:28 2023.
