 Gaussian 16, Revision B.01,
 Gaussian 16:  ES64L-G16RevB.01 20-Dec-2017

 -------------------------
 #P B3LYP/6-311+g(d) force
 -------------------------

 -----
 DPGEN
 -----
 Symbolic Z-matrix:
 Charge =  0 Multiplicity = 2

                         Standard orientation:
 ---------------------------------------------------------------------
 Center     Atomic      Atomic             Coordinates (Angstroms)
 Number     Number       Type             X           Y           Z
 ---------------------------------------------------------------------
      1         11           0       -2.051047   -1.898891   -0.013284
      2         11           0        0.655471    2.797695    0.263333
      3         11           0       -0.651379    0.113923    2.119895
      4         11           0        1.130801   -2.528353    0.044340
      5         11           0       -0.077674    0.096692   -1.734844
      6         11           0        3.602152    0.147058   -0.124965
      7         11           0       -2.608323    1.271876   -0.554476
 ---------------------------------------------------------------------

 SCF Done:  E(UB3LYP) =  -1136.13307367     A.U. after   19 cycles

 The electronic state is 2-A.
 Alpha  occ. eigenvalues --  -38.44475 -38.43884 -38.43767 -38.43588 -38.43479
 Alpha  occ. eigenvalues --  -38.43231 -38.43210  -2.20225  -2.19790  -2.19687
 Alpha  occ. eigenvalues --   -2.19574  -2.19301  -2.19158  -2.19089  -1.13906
 Alpha  occ. eigenvalues --   -1.13879  -1.13865  -1.13480  -1.13451  -1.13430
 Alpha  occ. eigenvalues --   -1.13407  -1.13333  -1.13302  -1.13244  -1.13202
 Alpha  occ. eigenvalues --   -1.13173  -1.12982  -1.12975  -1.12918  -1.12857
 Alpha  occ. eigenvalues --   -1.12818  -1.12811  -1.12764  -1.12751  -1.12692
 Alpha  occ. eigenvalues --   -0.18850  -0.12840  -0.12435  -0.11198
 Alpha virt. eigenvalues --   -0.05990  -0.04798  -0.04514  -0.03118  -0.03060
 Alpha virt. eigenvalues --   -0.02908  -0.01623  -0.00928  -0.00371  -0.00120
 Alpha virt. eigenvalues --   -0.00052   0.00326   0.00782   0.00853   0.00892

  Beta  occ. eigenvalues --  -38.44481 -38.43786 -38.43746 -38.43520 -38.43473
  Beta  occ. eigenvalues --  -38.43228 -38.43200  -2.20236  -2.19654  -2.19609
  Beta  occ. eigenvalues --   -2.19450  -2.19292  -2.19144  -2.19086  -1.13908
  Beta  occ. eigenvalues --   -1.13888  -1.13872  -1.13430  -1.13344  -1.13311
  Beta  occ. eigenvalues --   -1.13295  -1.13283  -1.13253  -1.13167  -1.13121
  Beta  occ. eigenvalues --   -1.13081  -1.12971  -1.12949  -1.12916  -1.12853
  Beta  occ. eigenvalues --   -1.12812  -1.12759  -1.12755  -1.12736  -1.12690
  Beta  occ. eigenvalues --   -0.18069  -0.12654  -0.12180
  Beta virt. eigenvalues --   -0.07164  -0.05939  -0.04792  -0.04452  -0.02445
  Beta virt. eigenvalues --   -0.02245  -0.01828  -0.01527  -0.00871  -0.00370
  Beta virt. eigenvalues --   -0.00155   0.00094   0.00370   0.00851   0.00909

 Mulliken charges and spin densities:
               1          2
     1  Na   0.413354   0.098369
     2  Na  -0.145484  -0.072797
     3  Na  -0.392574   0.649087
     4  Na  -0.166091  -0.102430
     5  Na  -0.158331   0.455355
     6  Na  -0.087421  -0.091636
     7  Na   0.536549   0.064053
 Sum of Mulliken charges =  -0.00000   1.00000

 Dipole moment (field-independent basis, Debye):
    X=              0.2519    Y=              0.2415    Z=              0.1836  Tot=              0.3943
 Quadrupole moment (field-independent basis, Debye-Ang):
   XX=            -56.4620   YY=            -65.9128   ZZ=            -72.1762
   XY=              0.2909   XZ=              0.9349   YZ=             -0.0790

 Normal termination of Gaussian 16 at Tue Dec  5 17:37:14 2023.
