 Gaussian 16, Revision B.01,
 Gaussian 16:  ES64L-G16RevB.01 20-Dec-2017

 -------------------------
 #P B3LYP/6-311+g(d) force
 -------------------------

 -----
 DPGEN
 -----
 Symbolic Z-matrix:
 Charge =  0 Multiplicity = 2

                         Standard orientation:
 ---------------------------------------------------------------------
 Center     Atomic      Atomic             Coordinates (Angstroms)
 Number     Number       Type             X           Y           Z
 ---------------------------------------------------------------------
      1         11           0       -0.368248    1.321632    0.577272
      2         11           0        0.883502    4.024091   -0.465080
      3         11           0        3.040750    0.588595    0.081575
      4         11           0        0.896918   -2.061475    0.209663
      5         11           0       -2.460447   -0.715700    1.279095
      6         11           0        4.150709   -2.347533   -0.680165
      7         11           0       -6.143184   -0.809610   -1.002361
 ---------------------------------------------------------------------

 SCF Done:  E(UB3LYP) =  -1136.11794351     A.U. after   24 cycles

 The electronic state is 2-A.
 Alpha  occ. eigenvalues --  -38.45199 -38.44582 -38.44461 -38.44421 -38.43529
 Alpha  occ. eigenvalues --  -38.43360 -38.43043  -2.20978  -2.20427  -2.20293
 Alpha  occ. eigenvalues --   -2.20266  -2.19331  -2.19184  -2.18987  -1.14602
 Alpha  occ. eigenvalues --   -1.14602  -1.14577  -1.14155  -1.14125  -1.14050
 Alpha  occ. eigenvalues --   -1.13971  -1.13963  -1.13957  -1.13944  -1.13901
 Alpha  occ. eigenvalues --   -1.13822  -1.13035  -1.12988  -1.12964  -1.12941
 Alpha  occ. eigenvalues --   -1.12839  -1.12812  -1.12680  -1.12660  -1.12557
 Alpha  occ. eigenvalues --   -0.17018  -0.13626  -0.12569  -0.11311
 Alpha virt. eigenvalues --   -0.06094  -0.05674  -0.04223  -0.04054  -0.02505
 Alpha virt. eigenvalues --   -0.02326  -0.01979  -0.01556  -0.01452  -0.00793
 Alpha virt. eigenvalues --   -0.00621  -0.00053   0.00022   0.00328   0.00618

  Beta  occ. eigenvalues --  -38.45042 -38.44578 -38.44451 -38.44403 -38.43522
  Beta  occ. eigenvalues --  -38.43369 -38.43034  -2.20685  -2.20419  -2.20275
  Beta  occ. eigenvalues --   -2.20233  -2.19317  -2.19204  -2.18973  -1.14404
  Beta  occ. eigenvalues --   -1.14403  -1.14380  -1.14145  -1.14120  -1.14041
  Beta  occ. eigenvalues --   -1.13950  -1.13944  -1.13942  -1.13930  -1.13890
  Beta  occ. eigenvalues --   -1.13792  -1.13026  -1.12979  -1.12965  -1.12939
  Beta  occ. eigenvalues --   -1.12856  -1.12802  -1.12673  -1.12652  -1.12538
  Beta  occ. eigenvalues --   -0.16779  -0.13277  -0.11887
  Beta virt. eigenvalues --   -0.07364  -0.05930  -0.05334  -0.04100  -0.03856
  Beta virt. eigenvalues --   -0.02284  -0.02073  -0.01446  -0.01273  -0.00902
  Beta virt. eigenvalues --   -0.00540  -0.00158   0.00113   0.00200   0.00510

 Mulliken charges and spin densities:
               1          2
     1  Na  -1.339875   0.051761
     2  Na   0.355032  -0.040538
     3  Na  -0.416466   0.080218
     4  Na  -0.348565   0.098729
     5  Na   0.577141  -0.090837
     6  Na   1.033521   0.052703
     7  Na   0.139212   0.847963
 Sum of Mulliken charges =  -0.00000   1.00000

 Dipole moment (field-independent basis, Debye):
    X=              1.7579    Y=             -0.8494    Z=             -0.5308  Tot=              2.0233
 Quadrupole moment (field-independent basis, Debye-Ang):
   XX=            -62.0494   YY=            -62.3076   ZZ=            -71.2770
   XY=             -6.3275   XZ=             -1.5055   YZ=              0.3948

 Normal termination of Gaussian 16 at Tue Nov 28 21:06:20 2023.
