 Gaussian 16, Revision B.01,
 Gaussian 16:  ES64L-G16RevB.01 20-Dec-2017

 -------------------------
 #P B3LYP/6-311+g(d) force
 -------------------------

 -----
 DPGEN
 -----
 Symbolic Z-matrix:
 Charge =  0 Multiplicity = 2

                         Standard orientation:
 ---------------------------------------------------------------------
 Center     Atomic      Atomic             Coordinates (Angstroms)
 Number     Number       Type             X           Y           Z
 ---------------------------------------------------------------------
      1         11           0        0.145665   -0.051404    2.092729
      2         11           0       -1.972175    2.307846   -0.269289
      3         11           0        0.654644    0.235325   -1.656957
      4         11           0       -0.775783   -2.446817   -0.503404
      5         11           0        2.652746   -1.653080    0.098201
      6         11           0        2.533962    2.096085    0.064262
      7         11           0       -3.239060   -0.487954    0.174457
 ---------------------------------------------------------------------

 SCF Done:  E(UB3LYP) =  -1136.13114225     A.U. after   21 cycles

 The electronic state is 2-A.
 Alpha  occ. eigenvalues --  -38.44281 -38.44235 -38.44059 -38.43891 -38.43845
 Alpha  occ. eigenvalues --  -38.43297 -38.42889  -2.20128  -2.20092  -2.19876
 Alpha  occ. eigenvalues --   -2.19755  -2.19666  -2.19272  -2.18781  -1.13816
 Alpha  occ. eigenvalues --   -1.13795  -1.13789  -1.13756  -1.13752  -1.13740
 Alpha  occ. eigenvalues --   -1.13580  -1.13529  -1.13508  -1.13421  -1.13381
 Alpha  occ. eigenvalues --   -1.13373  -1.13336  -1.13324  -1.13302  -1.12949
 Alpha  occ. eigenvalues --   -1.12919  -1.12893  -1.12472  -1.12436  -1.12411
 Alpha  occ. eigenvalues --   -0.18579  -0.13536  -0.11934  -0.10835
 Alpha virt. eigenvalues --   -0.05903  -0.05832  -0.04027  -0.03459  -0.02706
 Alpha virt. eigenvalues --   -0.02682  -0.01739  -0.01293  -0.00502  -0.00126
 Alpha virt. eigenvalues --   -0.00024   0.00334   0.00718   0.00800   0.00893

  Beta  occ. eigenvalues --  -38.44275 -38.44236 -38.44056 -38.43843 -38.43795
  Beta  occ. eigenvalues --  -38.43233 -38.42877  -2.20120  -2.20095  -2.19874
  Beta  occ. eigenvalues --   -2.19665  -2.19578  -2.19155  -2.18763  -1.13806
  Beta  occ. eigenvalues --   -1.13796  -1.13768  -1.13758  -1.13749  -1.13726
  Beta  occ. eigenvalues --   -1.13570  -1.13516  -1.13507  -1.13334  -1.13311
  Beta  occ. eigenvalues --   -1.13307  -1.13300  -1.13255  -1.13245  -1.12870
  Beta  occ. eigenvalues --   -1.12835  -1.12806  -1.12457  -1.12407  -1.12394
  Beta  occ. eigenvalues --   -0.17846  -0.13354  -0.11697
  Beta virt. eigenvalues --   -0.06896  -0.05856  -0.05768  -0.03987  -0.02720
  Beta virt. eigenvalues --   -0.01975  -0.01656  -0.01595  -0.01216  -0.00545
  Beta virt. eigenvalues --   -0.00135   0.00114   0.00367   0.00794   0.00807

 Mulliken charges and spin densities:
               1          2
     1  Na  -0.468693   0.718688
     2  Na   0.079641  -0.064687
     3  Na  -0.016102   0.344033
     4  Na   0.136625   0.050718
     5  Na   0.257332   0.035045
     6  Na   0.005878  -0.093497
     7  Na   0.005319   0.009700
 Sum of Mulliken charges =  -0.00000   1.00000

 Dipole moment (field-independent basis, Debye):
    X=              0.3586    Y=              0.1098    Z=              0.2923  Tot=              0.4754
 Quadrupole moment (field-independent basis, Debye-Ang):
   XX=            -53.4703   YY=            -66.5785   ZZ=            -74.1388
   XY=             -0.0354   XZ=              0.6881   YZ=              0.2927

 Normal termination of Gaussian 16 at Fri Dec  8 04:04:24 2023.
