 Gaussian 16, Revision B.01,
 Gaussian 16:  ES64L-G16RevB.01 20-Dec-2017

 -------------------------
 #P B3LYP/6-311+g(d) force
 -------------------------

 -----
 DPGEN
 -----
 Symbolic Z-matrix:
 Charge =  0 Multiplicity = 2

                         Standard orientation:
 ---------------------------------------------------------------------
 Center     Atomic      Atomic             Coordinates (Angstroms)
 Number     Number       Type             X           Y           Z
 ---------------------------------------------------------------------
      1         11           0        1.179557    2.696126   -0.181248
      2         11           0       -0.106637   -0.076652   -1.644993
      3         11           0       -0.003953    0.231980    2.120515
      4         11           0        3.228899   -0.456554    0.077904
      5         11           0       -2.617790   -1.563157    0.269716
      6         11           0       -2.263529    1.868665   -0.307620
      7         11           0        0.583453   -2.700409   -0.334273
 ---------------------------------------------------------------------

 SCF Done:  E(UB3LYP) =  -1136.13851481     A.U. after   19 cycles

 The electronic state is 2-A.
 Alpha  occ. eigenvalues --  -38.44021 -38.43790 -38.43594 -38.43582 -38.43494
 Alpha  occ. eigenvalues --  -38.43265 -38.43217  -2.19819  -2.19663  -2.19453
 Alpha  occ. eigenvalues --   -2.19446  -2.19336  -2.19231  -2.19154  -1.13493
 Alpha  occ. eigenvalues --   -1.13476  -1.13466  -1.13329  -1.13294  -1.13282
 Alpha  occ. eigenvalues --   -1.13178  -1.13126  -1.13111  -1.13110  -1.13100
 Alpha  occ. eigenvalues --   -1.13062  -1.13030  -1.13012  -1.13002  -1.12956
 Alpha  occ. eigenvalues --   -1.12883  -1.12830  -1.12799  -1.12770  -1.12757
 Alpha  occ. eigenvalues --   -0.18738  -0.12821  -0.12595  -0.10924
 Alpha virt. eigenvalues --   -0.05531  -0.05110  -0.04612  -0.03143  -0.03020
 Alpha virt. eigenvalues --   -0.02719  -0.01472  -0.01100  -0.00278  -0.00224
 Alpha virt. eigenvalues --   -0.00005   0.00360   0.00816   0.00885   0.00922

  Beta  occ. eigenvalues --  -38.44021 -38.43693 -38.43588 -38.43573 -38.43490
  Beta  occ. eigenvalues --  -38.43256 -38.43151  -2.19823  -2.19485  -2.19440
  Beta  occ. eigenvalues --   -2.19438  -2.19330  -2.19145  -2.19108  -1.13486
  Beta  occ. eigenvalues --   -1.13476  -1.13467  -1.13215  -1.13172  -1.13162
  Beta  occ. eigenvalues --   -1.13150  -1.13113  -1.13106  -1.13082  -1.13076
  Beta  occ. eigenvalues --   -1.13056  -1.13015  -1.12983  -1.12965  -1.12953
  Beta  occ. eigenvalues --   -1.12808  -1.12773  -1.12765  -1.12736  -1.12712
  Beta  occ. eigenvalues --   -0.18000  -0.12608  -0.12335
  Beta virt. eigenvalues --   -0.06976  -0.05505  -0.05093  -0.04574  -0.02374
  Beta virt. eigenvalues --   -0.02222  -0.01639  -0.01379  -0.01026  -0.00336
  Beta virt. eigenvalues --   -0.00254   0.00123   0.00379   0.00871   0.00873

 Mulliken charges and spin densities:
               1          2
     1  Na   0.090865  -0.088747
     2  Na  -0.167058   0.382716
     3  Na  -0.589922   0.793356
     4  Na  -0.000591  -0.067331
     5  Na   0.147043   0.037775
     6  Na   0.268252  -0.033688
     7  Na   0.251411  -0.024082
 Sum of Mulliken charges =  -0.00000   1.00000

 Dipole moment (field-independent basis, Debye):
    X=              0.1136    Y=              0.1287    Z=              0.2524  Tot=              0.3053
 Quadrupole moment (field-independent basis, Debye-Ang):
   XX=            -56.7977   YY=            -63.2546   ZZ=            -73.5509
   XY=              0.4162   XZ=             -0.1524   YZ=             -0.8069

 Normal termination of Gaussian 16 at Thu Dec  7 05:36:02 2023.
