 Gaussian 16, Revision B.01,
 Gaussian 16:  ES64L-G16RevB.01 20-Dec-2017

 -------------------------
 #P B3LYP/6-311+g(d) force
 -------------------------

 -----
 DPGEN
 -----
 Symbolic Z-matrix:
 Charge =  0 Multiplicity = 2

                         Standard orientation:
 ---------------------------------------------------------------------
 Center     Atomic      Atomic             Coordinates (Angstroms)
 Number     Number       Type             X           Y           Z
 ---------------------------------------------------------------------
      1         11           0        1.217189    2.426177   -0.023449
      2         11           0        4.861844    0.775767   -0.624835
      3         11           0        5.141747   -1.957196    0.509887
      4         11           0        1.896535   -0.875688   -0.206164
      5         11           0       -1.044528    0.406474    0.242459
      6         11           0       -5.338547    0.144264    1.272850
      7         11           0       -6.734240   -0.919797   -1.170749
 ---------------------------------------------------------------------

 SCF Done:  E(UB3LYP) =  -1136.11366256     A.U. after   22 cycles

 The electronic state is 2-A.
 Alpha  occ. eigenvalues --  -38.44714 -38.44426 -38.44049 -38.43880 -38.43864
 Alpha  occ. eigenvalues --  -38.43710 -38.43566  -2.20509  -2.20225  -2.19952
 Alpha  occ. eigenvalues --   -2.19759  -2.19721  -2.19587  -2.19442  -1.14226
 Alpha  occ. eigenvalues --   -1.14158  -1.14156  -1.13877  -1.13869  -1.13852
 Alpha  occ. eigenvalues --   -1.13657  -1.13648  -1.13583  -1.13541  -1.13421
 Alpha  occ. eigenvalues --   -1.13405  -1.13359  -1.13353  -1.13294  -1.13266
 Alpha  occ. eigenvalues --   -1.13245  -1.13238  -1.13097  -1.13087  -1.13027
 Alpha  occ. eigenvalues --   -0.16834  -0.13990  -0.12778  -0.10156
 Alpha virt. eigenvalues --   -0.06497  -0.05325  -0.04647  -0.03793  -0.02736
 Alpha virt. eigenvalues --   -0.02598  -0.02067  -0.01943  -0.00967  -0.00826
 Alpha virt. eigenvalues --   -0.00309   0.00108   0.00274   0.00461   0.00595

  Beta  occ. eigenvalues --  -38.44706 -38.44428 -38.44015 -38.43845 -38.43843
  Beta  occ. eigenvalues --  -38.43664 -38.43544  -2.20495  -2.20229  -2.19896
  Beta  occ. eigenvalues --   -2.19699  -2.19677  -2.19503  -2.19400  -1.14218
  Beta  occ. eigenvalues --   -1.14148  -1.14146  -1.13881  -1.13871  -1.13851
  Beta  occ. eigenvalues --   -1.13615  -1.13583  -1.13543  -1.13500  -1.13381
  Beta  occ. eigenvalues --   -1.13361  -1.13328  -1.13315  -1.13240  -1.13221
  Beta  occ. eigenvalues --   -1.13190  -1.13176  -1.13063  -1.13052  -1.12990
  Beta  occ. eigenvalues --   -0.16168  -0.13862  -0.12668
  Beta virt. eigenvalues --   -0.06627  -0.06099  -0.05034  -0.04223  -0.03494
  Beta virt. eigenvalues --   -0.02621  -0.02292  -0.01983  -0.01385  -0.00941
  Beta virt. eigenvalues --   -0.00507  -0.00056   0.00370   0.00414   0.00558

 Mulliken charges and spin densities:
               1          2
     1  Na   0.458403   0.659337
     2  Na   0.013253  -0.030131
     3  Na   0.750420   0.079821
     4  Na  -0.141556   0.781259
     5  Na  -0.966861  -0.479989
     6  Na  -0.180194  -0.046543
     7  Na   0.066535   0.036247
 Sum of Mulliken charges =  -0.00000   1.00000

 Dipole moment (field-independent basis, Debye):
    X=             -0.7098    Y=             -0.3305    Z=             -0.0731  Tot=              0.7864
 Quadrupole moment (field-independent basis, Debye-Ang):
   XX=            -56.3689   YY=            -70.0039   ZZ=            -65.8778
   XY=             -1.6652   XZ=              5.1613   YZ=              2.7511

 Normal termination of Gaussian 16 at Tue Nov 28 23:33:32 2023.
