 Gaussian 16, Revision B.01,
 Gaussian 16:  ES64L-G16RevB.01 20-Dec-2017

 -------------------------
 #P B3LYP/6-311+g(d) force
 -------------------------

 -----
 DPGEN
 -----
 Symbolic Z-matrix:
 Charge =  0 Multiplicity = 2

                         Standard orientation:
 ---------------------------------------------------------------------
 Center     Atomic      Atomic             Coordinates (Angstroms)
 Number     Number       Type             X           Y           Z
 ---------------------------------------------------------------------
      1         11           0       -1.797820   -1.487195    1.485977
      2         11           0        1.420851   -2.370476    0.628145
      3         11           0       -1.111956    2.405661    0.300243
      4         11           0        3.482247   -0.041959   -1.484743
      5         11           0        1.856562    1.709391    1.546766
      6         11           0       -0.028302   -0.126897   -1.331900
      7         11           0       -3.821584   -0.088525   -1.144488
 ---------------------------------------------------------------------

 SCF Done:  E(UB3LYP) =  -1136.12707731     A.U. after   21 cycles

 The electronic state is 2-A.
 Alpha  occ. eigenvalues --  -38.44699 -38.44539 -38.44146 -38.43835 -38.43738
 Alpha  occ. eigenvalues --  -38.43210 -38.43046  -2.20486  -2.20345  -2.20064
 Alpha  occ. eigenvalues --   -2.19665  -2.19553  -2.19047  -2.18894  -1.14155
 Alpha  occ. eigenvalues --   -1.14133  -1.14104  -1.14015  -1.13978  -1.13964
 Alpha  occ. eigenvalues --   -1.13782  -1.13744  -1.13670  -1.13342  -1.13321
 Alpha  occ. eigenvalues --   -1.13290  -1.13226  -1.13204  -1.13185  -1.12742
 Alpha  occ. eigenvalues --   -1.12716  -1.12663  -1.12606  -1.12565  -1.12496
 Alpha  occ. eigenvalues --   -0.17852  -0.13550  -0.11631  -0.10949
 Alpha virt. eigenvalues --   -0.06486  -0.05125  -0.04562  -0.03373  -0.02768
 Alpha virt. eigenvalues --   -0.02434  -0.02236  -0.01228  -0.00792  -0.00230
 Alpha virt. eigenvalues --    0.00122   0.00312   0.00330   0.00595   0.00767

  Beta  occ. eigenvalues --  -38.44664 -38.44485 -38.44128 -38.43801 -38.43707
  Beta  occ. eigenvalues --  -38.43197 -38.43043  -2.20419  -2.20244  -2.20031
  Beta  occ. eigenvalues --   -2.19604  -2.19497  -2.19027  -2.18892  -1.14107
  Beta  occ. eigenvalues --   -1.14089  -1.14061  -1.13939  -1.13911  -1.13901
  Beta  occ. eigenvalues --   -1.13741  -1.13729  -1.13644  -1.13299  -1.13280
  Beta  occ. eigenvalues --   -1.13234  -1.13179  -1.13166  -1.13145  -1.12732
  Beta  occ. eigenvalues --   -1.12697  -1.12628  -1.12609  -1.12553  -1.12484
  Beta  occ. eigenvalues --   -0.17295  -0.13143  -0.11226
  Beta virt. eigenvalues --   -0.07508  -0.06273  -0.04641  -0.04379  -0.03160
  Beta virt. eigenvalues --   -0.02248  -0.02198  -0.01563  -0.00794  -0.00714
  Beta virt. eigenvalues --   -0.00091   0.00192   0.00352   0.00417   0.00737

 Mulliken charges and spin densities:
               1          2
     1  Na  -0.129224   0.209190
     2  Na  -0.001535   0.162137
     3  Na   0.013202   0.117047
     4  Na   0.726329   0.157726
     5  Na  -0.181385   0.214413
     6  Na  -1.188031  -0.016316
     7  Na   0.760643   0.155802
 Sum of Mulliken charges =  -0.00000   1.00000

 Dipole moment (field-independent basis, Debye):
    X=             -0.1440    Y=             -0.0477    Z=             -0.0412  Tot=              0.1572
 Quadrupole moment (field-independent basis, Debye-Ang):
   XX=            -49.6647   YY=            -76.6723   ZZ=            -67.3123
   XY=              0.0211   XZ=              1.1426   YZ=             -1.0056

 Normal termination of Gaussian 16 at Tue Dec  5 20:50:49 2023.
