 Gaussian 16, Revision B.01,
 Gaussian 16:  ES64L-G16RevB.01 20-Dec-2017

 -------------------------
 #P B3LYP/6-311+g(d) force
 -------------------------

 -----
 DPGEN
 -----
 Symbolic Z-matrix:
 Charge =  0 Multiplicity = 2

                         Standard orientation:
 ---------------------------------------------------------------------
 Center     Atomic      Atomic             Coordinates (Angstroms)
 Number     Number       Type             X           Y           Z
 ---------------------------------------------------------------------
      1         11           0        3.015790   -1.547157   -1.142890
      2         11           0        0.356097   -2.603380   -0.495993
      3         11           0       -3.099179   -1.357426    1.075680
      4         11           0        0.027421    3.370977   -0.563675
      5         11           0        2.587082    1.347676    1.317562
      6         11           0       -0.331098   -0.078815    1.382670
      7         11           0       -2.556113    0.868126   -1.573355
 ---------------------------------------------------------------------

 SCF Done:  E(UB3LYP) =  -1136.12249081     A.U. after   22 cycles

 The electronic state is 2-A.
 Alpha  occ. eigenvalues --  -38.44360 -38.44166 -38.44034 -38.44007 -38.43954
 Alpha  occ. eigenvalues --  -38.43870 -38.43646  -2.20164  -2.20019  -2.19826
 Alpha  occ. eigenvalues --   -2.19798  -2.19791  -2.19744  -2.19608  -1.13834
 Alpha  occ. eigenvalues --   -1.13813  -1.13787  -1.13742  -1.13649  -1.13643
 Alpha  occ. eigenvalues --   -1.13622  -1.13532  -1.13477  -1.13472  -1.13460
 Alpha  occ. eigenvalues --   -1.13454  -1.13443  -1.13441  -1.13415  -1.13398
 Alpha  occ. eigenvalues --   -1.13387  -1.13290  -1.13271  -1.13240  -1.13217
 Alpha  occ. eigenvalues --   -0.17580  -0.13389  -0.12541  -0.10825
 Alpha virt. eigenvalues --   -0.06054  -0.05289  -0.04662  -0.03757  -0.03215
 Alpha virt. eigenvalues --   -0.02076  -0.01860  -0.00987  -0.00759  -0.00321
 Alpha virt. eigenvalues --   -0.00105   0.00239   0.00266   0.00615   0.00733

  Beta  occ. eigenvalues --  -38.44304 -38.44145 -38.44030 -38.43972 -38.43924
  Beta  occ. eigenvalues --  -38.43856 -38.43597  -2.20059  -2.19982  -2.19786
  Beta  occ. eigenvalues --   -2.19763  -2.19745  -2.19718  -2.19520  -1.13762
  Beta  occ. eigenvalues --   -1.13747  -1.13714  -1.13699  -1.13625  -1.13612
  Beta  occ. eigenvalues --   -1.13585  -1.13477  -1.13474  -1.13452  -1.13435
  Beta  occ. eigenvalues --   -1.13426  -1.13412  -1.13409  -1.13390  -1.13367
  Beta  occ. eigenvalues --   -1.13357  -1.13257  -1.13213  -1.13181  -1.13148
  Beta  occ. eigenvalues --   -0.17043  -0.13017  -0.12060
  Beta virt. eigenvalues --   -0.07383  -0.05993  -0.04958  -0.04294  -0.03354
  Beta virt. eigenvalues --   -0.02667  -0.01760  -0.01498  -0.00857  -0.00471
  Beta virt. eigenvalues --   -0.00185   0.00020   0.00315   0.00409   0.00698

 Mulliken charges and spin densities:
               1          2
     1  Na  -0.015061   0.066667
     2  Na  -0.372266   0.157563
     3  Na   1.346902   0.051053
     4  Na  -0.230781   0.078676
     5  Na   1.138351  -0.033680
     6  Na  -1.661914   0.378679
     7  Na  -0.205232   0.301042
 Sum of Mulliken charges =  -0.00000   1.00000

 Dipole moment (field-independent basis, Debye):
    X=             -0.2735    Y=             -0.0120    Z=             -0.1757  Tot=              0.3253
 Quadrupole moment (field-independent basis, Debye-Ang):
   XX=            -55.9765   YY=            -68.9313   ZZ=            -70.9346
   XY=              5.8925   XZ=             -0.5367   YZ=             -1.1065

 Normal termination of Gaussian 16 at Sun Dec  3 18:51:39 2023.
