 Gaussian 16, Revision B.01,
 Gaussian 16:  ES64L-G16RevB.01 20-Dec-2017

 -------------------------
 #P B3LYP/6-311+g(d) force
 -------------------------

 -----
 DPGEN
 -----
 Symbolic Z-matrix:
 Charge =  0 Multiplicity = 2

                         Standard orientation:
 ---------------------------------------------------------------------
 Center     Atomic      Atomic             Coordinates (Angstroms)
 Number     Number       Type             X           Y           Z
 ---------------------------------------------------------------------
      1         11           0       -1.014128   -2.640813   -0.526642
      2         11           0        3.233990   -1.362627    0.109312
      3         11           0        0.186156    0.166469   -1.710809
      4         11           0       -1.290855    2.497400   -0.124135
      5         11           0        2.451666    1.794718    0.034672
      6         11           0       -0.290443   -0.324820    2.160576
      7         11           0       -3.276386   -0.130328    0.057026
 ---------------------------------------------------------------------

 SCF Done:  E(UB3LYP) =  -1136.13163380     A.U. after   21 cycles

 The electronic state is 2-A.
 Alpha  occ. eigenvalues --  -38.44660 -38.44611 -38.44114 -38.43851 -38.43439
 Alpha  occ. eigenvalues --  -38.43081 -38.42818  -2.20497  -2.20394  -2.19955
 Alpha  occ. eigenvalues --   -2.19699  -2.19396  -2.18929  -2.18692  -1.14165
 Alpha  occ. eigenvalues --   -1.14161  -1.14142  -1.14071  -1.14060  -1.14032
 Alpha  occ. eigenvalues --   -1.13619  -1.13586  -1.13573  -1.13396  -1.13360
 Alpha  occ. eigenvalues --   -1.13326  -1.13082  -1.13051  -1.13016  -1.12617
 Alpha  occ. eigenvalues --   -1.12580  -1.12558  -1.12384  -1.12345  -1.12326
 Alpha  occ. eigenvalues --   -0.18413  -0.13459  -0.11814  -0.10868
 Alpha virt. eigenvalues --   -0.06389  -0.05238  -0.04083  -0.03470  -0.02827
 Alpha virt. eigenvalues --   -0.02626  -0.02011  -0.01122  -0.00420  -0.00219
 Alpha virt. eigenvalues --   -0.00075   0.00335   0.00659   0.00721   0.00839

  Beta  occ. eigenvalues --  -38.44658 -38.44613 -38.44022 -38.43848 -38.43370
  Beta  occ. eigenvalues --  -38.43066 -38.42812  -2.20496  -2.20399  -2.19785
  Beta  occ. eigenvalues --   -2.19696  -2.19271  -2.18904  -2.18686  -1.14165
  Beta  occ. eigenvalues --   -1.14146  -1.14136  -1.14077  -1.14052  -1.14036
  Beta  occ. eigenvalues --   -1.13505  -1.13466  -1.13450  -1.13387  -1.13345
  Beta  occ. eigenvalues --   -1.13327  -1.12999  -1.12956  -1.12926  -1.12594
  Beta  occ. eigenvalues --   -1.12546  -1.12544  -1.12377  -1.12328  -1.12315
  Beta  occ. eigenvalues --   -0.17678  -0.13289  -0.11567
  Beta virt. eigenvalues --   -0.06964  -0.06255  -0.05254  -0.04022  -0.02747
  Beta virt. eigenvalues --   -0.02014  -0.01903  -0.01619  -0.01079  -0.00442
  Beta virt. eigenvalues --   -0.00251   0.00090   0.00358   0.00777   0.00847

 Mulliken charges and spin densities:
               1          2
     1  Na   0.031833  -0.050284
     2  Na   0.006061  -0.065431
     3  Na   0.037098   0.415783
     4  Na   0.066216  -0.034591
     5  Na   0.096145  -0.020278
     6  Na  -0.535345   0.696672
     7  Na   0.297991   0.058129
 Sum of Mulliken charges =  -0.00000   1.00000

 Dipole moment (field-independent basis, Debye):
    X=              0.1960    Y=             -0.2132    Z=              0.2761  Tot=              0.4002
 Quadrupole moment (field-independent basis, Debye-Ang):
   XX=            -52.0874   YY=            -68.0592   ZZ=            -73.7795
   XY=             -0.9187   XZ=              0.6757   YZ=              0.8867

 Normal termination of Gaussian 16 at Wed Dec  6 00:19:44 2023.
