 Gaussian 16, Revision B.01,
 Gaussian 16:  ES64L-G16RevB.01 20-Dec-2017

 -------------------------
 #P B3LYP/6-311+g(d) force
 -------------------------

 -----
 DPGEN
 -----
 Symbolic Z-matrix:
 Charge =  0 Multiplicity = 2

                         Standard orientation:
 ---------------------------------------------------------------------
 Center     Atomic      Atomic             Coordinates (Angstroms)
 Number     Number       Type             X           Y           Z
 ---------------------------------------------------------------------
      1         11           0       -1.593999   -0.062037    1.003705
      2         11           0        3.327590    0.035151   -0.438135
      3         11           0        0.285334   -0.432681   -2.213300
      4         11           0        0.539209   -2.438519    0.045634
      5         11           0       -4.429678    0.145800   -0.277461
      6         11           0        1.204477    0.060219    2.199271
      7         11           0        0.667067    2.692067   -0.319714
 ---------------------------------------------------------------------

 SCF Done:  E(UB3LYP) =  -1136.11396040     A.U. after   27 cycles

 The electronic state is 2-A.
 Alpha  occ. eigenvalues --  -38.45487 -38.45241 -38.44468 -38.44278 -38.43106
 Alpha  occ. eigenvalues --  -38.43075 -38.42383  -2.21299  -2.21003  -2.20364
 Alpha  occ. eigenvalues --   -2.20219  -2.19028  -2.18917  -2.18309  -1.15001
 Alpha  occ. eigenvalues --   -1.14954  -1.14908  -1.14684  -1.14651  -1.14648
 Alpha  occ. eigenvalues --   -1.14047  -1.13996  -1.13979  -1.13948  -1.13848
 Alpha  occ. eigenvalues --   -1.13787  -1.12740  -1.12689  -1.12642  -1.12606
 Alpha  occ. eigenvalues --   -1.12570  -1.12542  -1.12010  -1.11978  -1.11924
 Alpha  occ. eigenvalues --   -0.18749  -0.12955  -0.12081  -0.11193
 Alpha virt. eigenvalues --   -0.07471  -0.03966  -0.03845  -0.03551  -0.03075
 Alpha virt. eigenvalues --   -0.02895  -0.02644  -0.00985  -0.00451  -0.00140
 Alpha virt. eigenvalues --   -0.00023   0.00008   0.00237   0.00741   0.01032

  Beta  occ. eigenvalues --  -38.45476 -38.45249 -38.44397 -38.44187 -38.43088
  Beta  occ. eigenvalues --  -38.43048 -38.42374  -2.21283  -2.21017  -2.20233
  Beta  occ. eigenvalues --   -2.20054  -2.18983  -2.18886  -2.18299  -1.14969
  Beta  occ. eigenvalues --   -1.14941  -1.14901  -1.14695  -1.14661  -1.14655
  Beta  occ. eigenvalues --   -1.13966  -1.13898  -1.13881  -1.13825  -1.13740
  Beta  occ. eigenvalues --   -1.13665  -1.12694  -1.12639  -1.12615  -1.12579
  Beta  occ. eigenvalues --   -1.12537  -1.12525  -1.12009  -1.11931  -1.11920
  Beta  occ. eigenvalues --   -0.17827  -0.12853  -0.10970
  Beta virt. eigenvalues --   -0.08020  -0.07274  -0.03605  -0.03436  -0.03052
  Beta virt. eigenvalues --   -0.02820  -0.02444  -0.01994  -0.00696  -0.00435
  Beta virt. eigenvalues --   -0.00076  -0.00024   0.00168   0.00287   0.00825

 Mulliken charges and spin densities:
               1          2
     1  Na  -1.135980   0.472670
     2  Na   0.111356   0.042554
     3  Na   0.293369   0.689410
     4  Na  -0.440346  -0.184700
     5  Na   0.316152  -0.063658
     6  Na   1.488466   0.098219
     7  Na  -0.633017  -0.054495
 Sum of Mulliken charges =  -0.00000   1.00000

 Dipole moment (field-independent basis, Debye):
    X=              0.2723    Y=              0.0199    Z=             -0.6656  Tot=              0.7194
 Quadrupole moment (field-independent basis, Debye-Ang):
   XX=            -48.7677   YY=            -76.7746   ZZ=            -66.7953
   XY=             -1.6971   XZ=              3.0050   YZ=             -3.7999

 Normal termination of Gaussian 16 at Thu Dec  7 02:22:08 2023.
