 Gaussian 16, Revision B.01,
 Gaussian 16:  ES64L-G16RevB.01 20-Dec-2017

 -------------------------
 #P B3LYP/6-311+g(d) force
 -------------------------

 -----
 DPGEN
 -----
 Symbolic Z-matrix:
 Charge =  0 Multiplicity = 2

                         Standard orientation:
 ---------------------------------------------------------------------
 Center     Atomic      Atomic             Coordinates (Angstroms)
 Number     Number       Type             X           Y           Z
 ---------------------------------------------------------------------
      1         11           0        0.292656   -0.063997    2.052401
      2         11           0        2.515879    1.403993   -0.046468
      3         11           0       -0.549803    2.962863   -0.186111
      4         11           0        2.302045   -2.101360   -0.115484
      5         11           0       -1.741762   -2.659838   -0.124387
      6         11           0       -3.041317    0.545966    0.056882
      7         11           0        0.222302   -0.087627   -1.636832
 ---------------------------------------------------------------------

 SCF Done:  E(UB3LYP) =  -1136.13885204     A.U. after   19 cycles

 The electronic state is 2-A.
 Alpha  occ. eigenvalues --  -38.43853 -38.43833 -38.43817 -38.43651 -38.43566
 Alpha  occ. eigenvalues --  -38.43327 -38.43149  -2.19694  -2.19635  -2.19632
 Alpha  occ. eigenvalues --   -2.19553  -2.19454  -2.19174  -2.19131  -1.13387
 Alpha  occ. eigenvalues --   -1.13358  -1.13330  -1.13324  -1.13311  -1.13304
 Alpha  occ. eigenvalues --   -1.13297  -1.13280  -1.13266  -1.13247  -1.13231
 Alpha  occ. eigenvalues --   -1.13168  -1.13114  -1.13073  -1.13069  -1.12860
 Alpha  occ. eigenvalues --   -1.12832  -1.12818  -1.12807  -1.12758  -1.12745
 Alpha  occ. eigenvalues --   -0.18630  -0.12960  -0.12517  -0.10681
 Alpha virt. eigenvalues --   -0.05568  -0.05194  -0.04912  -0.03095  -0.02860
 Alpha virt. eigenvalues --   -0.02555  -0.01376  -0.01253  -0.00507  -0.00377
 Alpha virt. eigenvalues --   -0.00006   0.00360   0.00841   0.00852   0.00873

  Beta  occ. eigenvalues --  -38.43847 -38.43832 -38.43816 -38.43642 -38.43469
  Beta  occ. eigenvalues --  -38.43324 -38.43084  -2.19687  -2.19636  -2.19633
  Beta  occ. eigenvalues --   -2.19540  -2.19275  -2.19170  -2.19013  -1.13378
  Beta  occ. eigenvalues --   -1.13330  -1.13328  -1.13326  -1.13300  -1.13295
  Beta  occ. eigenvalues --   -1.13288  -1.13281  -1.13255  -1.13251  -1.13182
  Beta  occ. eigenvalues --   -1.13164  -1.12999  -1.12947  -1.12942  -1.12847
  Beta  occ. eigenvalues --   -1.12819  -1.12811  -1.12731  -1.12670  -1.12661
  Beta  occ. eigenvalues --   -0.17892  -0.12745  -0.12288
  Beta virt. eigenvalues --   -0.06736  -0.05580  -0.05144  -0.04873  -0.02313
  Beta virt. eigenvalues --   -0.02103  -0.01478  -0.01301  -0.01172  -0.00559
  Beta virt. eigenvalues --   -0.00438   0.00141   0.00388   0.00842   0.00870

 Mulliken charges and spin densities:
               1          2
     1  Na  -0.502943   0.784226
     2  Na   0.472966   0.030503
     3  Na   0.048469  -0.047522
     4  Na   0.217117  -0.105656
     5  Na  -0.003061  -0.116180
     6  Na  -0.001683  -0.054096
     7  Na  -0.230866   0.508726
 Sum of Mulliken charges =  -0.00000   1.00000

 Dipole moment (field-independent basis, Debye):
    X=              0.0488    Y=             -0.2482    Z=              0.1283  Tot=              0.2836
 Quadrupole moment (field-independent basis, Debye-Ang):
   XX=            -58.5074   YY=            -59.9448   ZZ=            -74.9628
   XY=             -0.5933   XZ=             -0.2634   YZ=             -0.0371

 Normal termination of Gaussian 16 at Thu Dec  7 12:49:54 2023.
