 Gaussian 16, Revision B.01,
 Gaussian 16:  ES64L-G16RevB.01 20-Dec-2017

 -------------------------
 #P B3LYP/6-311+g(d) force
 -------------------------

 -----
 DPGEN
 -----
 Symbolic Z-matrix:
 Charge =  0 Multiplicity = 2

                         Standard orientation:
 ---------------------------------------------------------------------
 Center     Atomic      Atomic             Coordinates (Angstroms)
 Number     Number       Type             X           Y           Z
 ---------------------------------------------------------------------
      1         11           0       -1.983712    3.283750   -0.266703
      2         11           0        1.344017    2.859902    0.026646
      3         11           0       -2.959166   -2.529596    1.091647
      4         11           0        4.334362    1.128634    0.723522
      5         11           0       -3.935934    0.539611   -0.426395
      6         11           0        0.092799   -2.929578   -0.471339
      7         11           0        3.107635   -2.352723   -0.677377
 ---------------------------------------------------------------------

 SCF Done:  E(UB3LYP) =  -1136.11108840     A.U. after   22 cycles

 The electronic state is 2-A.
 Alpha  occ. eigenvalues --  -38.45516 -38.44950 -38.44489 -38.44444 -38.44298
 Alpha  occ. eigenvalues --  -38.44117 -38.43593  -2.21277  -2.20713  -2.20272
 Alpha  occ. eigenvalues --   -2.20259  -2.20118  -2.19921  -2.19412  -1.14964
 Alpha  occ. eigenvalues --   -1.14947  -1.14915  -1.14403  -1.14393  -1.14350
 Alpha  occ. eigenvalues --   -1.13999  -1.13928  -1.13911  -1.13909  -1.13904
 Alpha  occ. eigenvalues --   -1.13875  -1.13785  -1.13775  -1.13733  -1.13574
 Alpha  occ. eigenvalues --   -1.13563  -1.13554  -1.13063  -1.13062  -1.13058
 Alpha  occ. eigenvalues --   -0.15747  -0.13891  -0.13586  -0.10877
 Alpha virt. eigenvalues --   -0.07608  -0.04645  -0.04435  -0.03676  -0.03408
 Alpha virt. eigenvalues --   -0.02356  -0.02303  -0.01734  -0.01284  -0.00985
 Alpha virt. eigenvalues --   -0.00511  -0.00151   0.00158   0.00486   0.00666

  Beta  occ. eigenvalues --  -38.45511 -38.44944 -38.44428 -38.44396 -38.44273
  Beta  occ. eigenvalues --  -38.44070 -38.43554  -2.21272  -2.20707  -2.20176
  Beta  occ. eigenvalues --   -2.20160  -2.20077  -2.19832  -2.19340  -1.14965
  Beta  occ. eigenvalues --   -1.14947  -1.14880  -1.14403  -1.14393  -1.14309
  Beta  occ. eigenvalues --   -1.13925  -1.13858  -1.13853  -1.13835  -1.13826
  Beta  occ. eigenvalues --   -1.13812  -1.13763  -1.13753  -1.13664  -1.13514
  Beta  occ. eigenvalues --   -1.13508  -1.13491  -1.13017  -1.13012  -1.13011
  Beta  occ. eigenvalues --   -0.15246  -0.13084  -0.12852
  Beta virt. eigenvalues --   -0.07773  -0.07715  -0.04302  -0.03883  -0.03498
  Beta virt. eigenvalues --   -0.03044  -0.02160  -0.02067  -0.01492  -0.01116
  Beta virt. eigenvalues --   -0.00619  -0.00263   0.00010   0.00304   0.00523

 Mulliken charges and spin densities:
               1          2
     1  Na   0.077071   0.208596
     2  Na  -0.432579   0.088697
     3  Na   0.345494   0.260573
     4  Na   0.493087   0.198537
     5  Na  -0.168856   0.068027
     6  Na  -0.435396   0.068514
     7  Na   0.121179   0.107057
 Sum of Mulliken charges =  -0.00000   1.00000

 Dipole moment (field-independent basis, Debye):
    X=             -0.1463    Y=             -0.1076    Z=              0.0761  Tot=              0.1969
 Quadrupole moment (field-independent basis, Debye-Ang):
   XX=            -55.9628   YY=            -71.5425   ZZ=            -71.6844
   XY=             -2.0479   XZ=              1.1975   YZ=             -1.3210

 Normal termination of Gaussian 16 at Sun Dec  3 14:54:01 2023.
