 Gaussian 16, Revision B.01,
 Gaussian 16:  ES64L-G16RevB.01 20-Dec-2017

 -------------------------
 #P B3LYP/6-311+g(d) force
 -------------------------

 -----
 DPGEN
 -----
 Symbolic Z-matrix:
 Charge =  0 Multiplicity = 2

                         Standard orientation:
 ---------------------------------------------------------------------
 Center     Atomic      Atomic             Coordinates (Angstroms)
 Number     Number       Type             X           Y           Z
 ---------------------------------------------------------------------
      1         11           0       -3.599981    0.430884   -1.297584
      2         11           0        0.890815   -0.668975    1.569792
      3         11           0        3.759003   -1.143870   -0.490372
      4         11           0        0.168228   -0.469172   -1.424271
      5         11           0       -2.481092   -1.804953    0.750460
      6         11           0        2.468298    1.756920   -0.285752
      7         11           0       -1.205272    1.899166    1.177726
 ---------------------------------------------------------------------

 SCF Done:  E(UB3LYP) =  -1136.11962362     A.U. after   31 cycles

 The electronic state is 2-A.
 Alpha  occ. eigenvalues --  -38.45235 -38.44296 -38.44279 -38.44154 -38.43997
 Alpha  occ. eigenvalues --  -38.43587 -38.42306  -2.21113  -2.20167  -2.20128
 Alpha  occ. eigenvalues --   -2.19998  -2.19830  -2.19564  -2.18156  -1.14873
 Alpha  occ. eigenvalues --   -1.14773  -1.14699  -1.13863  -1.13846  -1.13811
 Alpha  occ. eigenvalues --   -1.13772  -1.13765  -1.13764  -1.13668  -1.13645
 Alpha  occ. eigenvalues --   -1.13623  -1.13502  -1.13500  -1.13460  -1.13291
 Alpha  occ. eigenvalues --   -1.13182  -1.13154  -1.11840  -1.11825  -1.11780
 Alpha  occ. eigenvalues --   -0.18634  -0.14510  -0.11187  -0.10564
 Alpha virt. eigenvalues --   -0.06938  -0.05639  -0.04612  -0.02940  -0.02869
 Alpha virt. eigenvalues --   -0.02435  -0.02100  -0.01258  -0.00884  -0.00372
 Alpha virt. eigenvalues --    0.00060   0.00227   0.00364   0.00562   0.00664

  Beta  occ. eigenvalues --  -38.45212 -38.44254 -38.44251 -38.44132 -38.44010
  Beta  occ. eigenvalues --  -38.43515 -38.42295  -2.21077  -2.20121  -2.20042
  Beta  occ. eigenvalues --   -2.19962  -2.19856  -2.19436  -2.18137  -1.14823
  Beta  occ. eigenvalues --   -1.14739  -1.14676  -1.13827  -1.13818  -1.13762
  Beta  occ. eigenvalues --   -1.13736  -1.13713  -1.13702  -1.13640  -1.13619
  Beta  occ. eigenvalues --   -1.13572  -1.13520  -1.13505  -1.13475  -1.13207
  Beta  occ. eigenvalues --   -1.13078  -1.13057  -1.11821  -1.11797  -1.11772
  Beta  occ. eigenvalues --   -0.17946  -0.14233  -0.10413
  Beta virt. eigenvalues --   -0.07387  -0.06729  -0.05209  -0.04269  -0.02778
  Beta virt. eigenvalues --   -0.02631  -0.01693  -0.01567  -0.01010  -0.00621
  Beta virt. eigenvalues --   -0.00256   0.00098   0.00305   0.00439   0.00612

 Mulliken charges and spin densities:
               1          2
     1  Na   0.442181   0.191011
     2  Na   0.071786   0.458585
     3  Na   0.620350  -0.116799
     4  Na  -0.863155   0.315978
     5  Na   0.048064  -0.013273
     6  Na   0.228864   0.055411
     7  Na  -0.548089   0.109087
 Sum of Mulliken charges =  -0.00000   1.00000

 Dipole moment (field-independent basis, Debye):
    X=              0.3948    Y=              0.2295    Z=             -0.0125  Tot=              0.4568
 Quadrupole moment (field-independent basis, Debye-Ang):
   XX=            -54.0631   YY=            -72.8901   ZZ=            -70.2301
   XY=             -0.1552   XZ=             -0.5806   YZ=             -5.6884

 Normal termination of Gaussian 16 at Tue Dec  5 19:53:21 2023.
