 Gaussian 16, Revision B.01,
 Gaussian 16:  ES64L-G16RevB.01 20-Dec-2017

 -------------------------
 #P B3LYP/6-311+g(d) force
 -------------------------

 -----
 DPGEN
 -----
 Symbolic Z-matrix:
 Charge =  0 Multiplicity = 2

                         Standard orientation:
 ---------------------------------------------------------------------
 Center     Atomic      Atomic             Coordinates (Angstroms)
 Number     Number       Type             X           Y           Z
 ---------------------------------------------------------------------
      1         11           0       -2.539809    1.411094   -0.018421
      2         11           0        3.131341    0.031120    0.003287
      3         11           0       -2.328168   -1.767480    0.291065
      4         11           0        0.264157    0.411985    1.866727
      5         11           0        1.014477   -2.605354   -0.053863
      6         11           0       -0.211519   -0.249061   -1.794012
      7         11           0        0.669522    2.767696   -0.294784
 ---------------------------------------------------------------------

 SCF Done:  E(UB3LYP) =  -1136.14001278     A.U. after   19 cycles

 The electronic state is 2-A.
 Alpha  occ. eigenvalues --  -38.43990 -38.43584 -38.43472 -38.43349 -38.43332
 Alpha  occ. eigenvalues --  -38.43249 -38.43230  -2.19827  -2.19477  -2.19359
 Alpha  occ. eigenvalues --   -2.19295  -2.19213  -2.19206  -2.19138  -1.13504
 Alpha  occ. eigenvalues --   -1.13487  -1.13469  -1.13194  -1.13148  -1.13129
 Alpha  occ. eigenvalues --   -1.13040  -1.13016  -1.13000  -1.12988  -1.12948
 Alpha  occ. eigenvalues --   -1.12926  -1.12910  -1.12895  -1.12854  -1.12846
 Alpha  occ. eigenvalues --   -1.12825  -1.12816  -1.12792  -1.12772  -1.12757
 Alpha  occ. eigenvalues --   -0.19064  -0.13109  -0.12638  -0.10842
 Alpha virt. eigenvalues --   -0.05535  -0.04957  -0.04679  -0.03224  -0.03019
 Alpha virt. eigenvalues --   -0.02492  -0.01423  -0.00997  -0.00207  -0.00137
 Alpha virt. eigenvalues --   -0.00002   0.00380   0.00855   0.00926   0.00951

  Beta  occ. eigenvalues --  -38.43988 -38.43578 -38.43464 -38.43323 -38.43271
  Beta  occ. eigenvalues --  -38.43243 -38.43152  -2.19826  -2.19470  -2.19348
  Beta  occ. eigenvalues --   -2.19194  -2.19152  -2.19130  -2.19070  -1.13498
  Beta  occ. eigenvalues --   -1.13473  -1.13471  -1.13191  -1.13130  -1.13106
  Beta  occ. eigenvalues --   -1.13028  -1.12990  -1.12977  -1.12939  -1.12881
  Beta  occ. eigenvalues --   -1.12856  -1.12848  -1.12825  -1.12805  -1.12786
  Beta  occ. eigenvalues --   -1.12772  -1.12765  -1.12761  -1.12720  -1.12701
  Beta  occ. eigenvalues --   -0.18315  -0.12866  -0.12384
  Beta virt. eigenvalues --   -0.06916  -0.05510  -0.04960  -0.04628  -0.02422
  Beta virt. eigenvalues --   -0.02211  -0.01450  -0.01336  -0.00928  -0.00258
  Beta virt. eigenvalues --   -0.00190   0.00129   0.00396   0.00891   0.00916

 Mulliken charges and spin densities:
               1          2
     1  Na   0.250800  -0.037875
     2  Na   0.113689  -0.106274
     3  Na   0.100983  -0.011638
     4  Na  -0.466827   0.698173
     5  Na   0.191827  -0.069818
     6  Na  -0.352727   0.633175
     7  Na   0.162256  -0.105744
 Sum of Mulliken charges =  -0.00000   1.00000

 Dipole moment (field-independent basis, Debye):
    X=              0.1906    Y=              0.0931    Z=              0.0549  Tot=              0.2190
 Quadrupole moment (field-independent basis, Debye-Ang):
   XX=            -57.1664   YY=            -63.1176   ZZ=            -73.5296
   XY=              0.2405   XZ=             -1.0071   YZ=             -1.5004

 Normal termination of Gaussian 16 at Fri Dec  8 04:30:38 2023.
