 Gaussian 16, Revision B.01,
 Gaussian 16:  ES64L-G16RevB.01 20-Dec-2017

 -------------------------
 #P B3LYP/6-311+g(d) force
 -------------------------

 -----
 DPGEN
 -----
 Symbolic Z-matrix:
 Charge =  0 Multiplicity = 2

                         Standard orientation:
 ---------------------------------------------------------------------
 Center     Atomic      Atomic             Coordinates (Angstroms)
 Number     Number       Type             X           Y           Z
 ---------------------------------------------------------------------
      1         11           0        2.945226    0.252380   -0.042330
      2         11           0       -2.597810    1.766331    0.080727
      3         11           0        0.132364   -0.272372   -1.812155
      4         11           0        0.151426   -0.227664    2.076075
      5         11           0        1.063873   -2.617869   -0.001694
      6         11           0        0.972128    2.646819   -0.148417
      7         11           0       -2.667207   -1.547625   -0.152205
 ---------------------------------------------------------------------

 SCF Done:  E(UB3LYP) =  -1136.13725453     A.U. after   19 cycles

 The electronic state is 2-A.
 Alpha  occ. eigenvalues --  -38.43932 -38.43826 -38.43808 -38.43797 -38.43494
 Alpha  occ. eigenvalues --  -38.43197 -38.43106  -2.19760  -2.19735  -2.19706
 Alpha  occ. eigenvalues --   -2.19608  -2.19461  -2.19099  -2.18979  -1.13446
 Alpha  occ. eigenvalues --   -1.13439  -1.13432  -1.13402  -1.13400  -1.13390
 Alpha  occ. eigenvalues --   -1.13361  -1.13337  -1.13318  -1.13277  -1.13261
 Alpha  occ. eigenvalues --   -1.13249  -1.13159  -1.13107  -1.13074  -1.12774
 Alpha  occ. eigenvalues --   -1.12764  -1.12712  -1.12657  -1.12637  -1.12617
 Alpha  occ. eigenvalues --   -0.18860  -0.13173  -0.12363  -0.11064
 Alpha virt. eigenvalues --   -0.05516  -0.05270  -0.04451  -0.03330  -0.02945
 Alpha virt. eigenvalues --   -0.02843  -0.01415  -0.01008  -0.00257  -0.00188
 Alpha virt. eigenvalues --   -0.00042   0.00376   0.00818   0.00897   0.00930

  Beta  occ. eigenvalues --  -38.43930 -38.43819 -38.43798 -38.43713 -38.43419
  Beta  occ. eigenvalues --  -38.43188 -38.43102  -2.19758  -2.19727  -2.19611
  Beta  occ. eigenvalues --   -2.19531  -2.19324  -2.19088  -2.18975  -1.13444
  Beta  occ. eigenvalues --   -1.13432  -1.13412  -1.13402  -1.13385  -1.13354
  Beta  occ. eigenvalues --   -1.13266  -1.13264  -1.13257  -1.13255  -1.13210
  Beta  occ. eigenvalues --   -1.13195  -1.13074  -1.13009  -1.12974  -1.12765
  Beta  occ. eigenvalues --   -1.12717  -1.12708  -1.12655  -1.12623  -1.12604
  Beta  occ. eigenvalues --   -0.18093  -0.12957  -0.12113
  Beta virt. eigenvalues --   -0.07102  -0.05478  -0.05262  -0.04415  -0.02528
  Beta virt. eigenvalues --   -0.02144  -0.01762  -0.01326  -0.00952  -0.00315
  Beta virt. eigenvalues --   -0.00242   0.00105   0.00401   0.00871   0.00911

 Mulliken charges and spin densities:
               1          2
     1  Na   0.422791   0.026806
     2  Na  -0.085273  -0.072509
     3  Na  -0.254550   0.585668
     4  Na  -0.535202   0.747864
     5  Na   0.404084  -0.096554
     6  Na  -0.071665  -0.076718
     7  Na   0.119815  -0.114556
 Sum of Mulliken charges =  -0.00000   1.00000

 Dipole moment (field-independent basis, Debye):
    X=             -0.2002    Y=             -0.1465    Z=              0.1278  Tot=              0.2791
 Quadrupole moment (field-independent basis, Debye-Ang):
   XX=            -57.8645   YY=            -64.5227   ZZ=            -72.6249
   XY=             -0.1327   XZ=             -0.0592   YZ=              0.0402

 Normal termination of Gaussian 16 at Wed Dec  6 00:03:26 2023.
