 Gaussian 16, Revision B.01,
 Gaussian 16:  ES64L-G16RevB.01 20-Dec-2017

 -------------------------
 #P B3LYP/6-311+g(d) force
 -------------------------

 -----
 DPGEN
 -----
 Symbolic Z-matrix:
 Charge =  0 Multiplicity = 2

                         Standard orientation:
 ---------------------------------------------------------------------
 Center     Atomic      Atomic             Coordinates (Angstroms)
 Number     Number       Type             X           Y           Z
 ---------------------------------------------------------------------
      1         11           0       -0.468429   -2.868802    0.021164
      2         11           0       -3.158604   -0.649076   -0.233638
      3         11           0       -1.467612    2.636509    0.176019
      4         11           0        2.844236   -1.446508   -0.113145
      5         11           0        0.200064    0.020398    2.214571
      6         11           0        0.002208    0.068690   -1.778346
      7         11           0        2.048136    2.238789   -0.286625
 ---------------------------------------------------------------------

 SCF Done:  E(UB3LYP) =  -1136.14008256     A.U. after   18 cycles

 The electronic state is 2-A.
 Alpha  occ. eigenvalues --  -38.43970 -38.43806 -38.43741 -38.43685 -38.43627
 Alpha  occ. eigenvalues --  -38.43477 -38.43469  -2.19816  -2.19611  -2.19547
 Alpha  occ. eigenvalues --   -2.19516  -2.19448  -2.19403  -2.19307  -1.13472
 Alpha  occ. eigenvalues --   -1.13445  -1.13437  -1.13287  -1.13271  -1.13258
 Alpha  occ. eigenvalues --   -1.13224  -1.13220  -1.13208  -1.13196  -1.13179
 Alpha  occ. eigenvalues --   -1.13150  -1.13123  -1.13116  -1.13082  -1.13075
 Alpha  occ. eigenvalues --   -1.13041  -1.13018  -1.12981  -1.12973  -1.12930
 Alpha  occ. eigenvalues --   -0.18281  -0.12614  -0.12527  -0.10931
 Alpha virt. eigenvalues --   -0.05373  -0.05293  -0.04894  -0.03120  -0.03056
 Alpha virt. eigenvalues --   -0.02862  -0.01390  -0.01190  -0.00458  -0.00390
 Alpha virt. eigenvalues --   -0.00055   0.00368   0.00787   0.00868   0.00881

  Beta  occ. eigenvalues --  -38.43868 -38.43805 -38.43740 -38.43679 -38.43623
  Beta  occ. eigenvalues --  -38.43465 -38.43412  -2.19628  -2.19611  -2.19546
  Beta  occ. eigenvalues --   -2.19508  -2.19443  -2.19303  -2.19285  -1.13348
  Beta  occ. eigenvalues --   -1.13315  -1.13303  -1.13276  -1.13266  -1.13255
  Beta  occ. eigenvalues --   -1.13213  -1.13205  -1.13204  -1.13196  -1.13157
  Beta  occ. eigenvalues --   -1.13148  -1.13114  -1.13095  -1.13075  -1.13015
  Beta  occ. eigenvalues --   -1.12984  -1.12961  -1.12935  -1.12934  -1.12926
  Beta  occ. eigenvalues --   -0.17541  -0.12397  -0.12330
  Beta virt. eigenvalues --   -0.06994  -0.05378  -0.05288  -0.04764  -0.02320
  Beta virt. eigenvalues --   -0.02316  -0.01801  -0.01306  -0.01113  -0.00513
  Beta virt. eigenvalues --   -0.00447   0.00097   0.00390   0.00850   0.00864

 Mulliken charges and spin densities:
               1          2
     1  Na   0.103212  -0.053967
     2  Na   0.062955  -0.062285
     3  Na   0.088582  -0.029007
     4  Na   0.113555  -0.085542
     5  Na  -0.487917   0.775653
     6  Na  -0.075067   0.523754
     7  Na   0.194681  -0.068606
 Sum of Mulliken charges =  -0.00000   1.00000

 Dipole moment (field-independent basis, Debye):
    X=              0.0919    Y=              0.0570    Z=              0.1026  Tot=              0.1491
 Quadrupole moment (field-independent basis, Debye-Ang):
   XX=            -58.5931   YY=            -62.3430   ZZ=            -73.3149
   XY=             -0.3294   XZ=             -0.3837   YZ=              0.1277

 Normal termination of Gaussian 16 at Fri Dec  8 00:10:45 2023.
