 Gaussian 16, Revision B.01,
 Gaussian 16:  ES64L-G16RevB.01 20-Dec-2017

 -------------------------
 #P B3LYP/6-311+g(d) force
 -------------------------

 -----
 DPGEN
 -----
 Symbolic Z-matrix:
 Charge =  0 Multiplicity = 2

                         Standard orientation:
 ---------------------------------------------------------------------
 Center     Atomic      Atomic             Coordinates (Angstroms)
 Number     Number       Type             X           Y           Z
 ---------------------------------------------------------------------
      1         11           0        0.726168   -2.680673   -0.602406
      2         11           0        0.173152   -0.270147    1.827413
      3         11           0       -2.667894    1.736796   -0.060967
      4         11           0        0.959465    2.859121    0.053785
      5         11           0        3.213247   -0.184032    0.236027
      6         11           0        0.068805    0.339122   -1.749556
      7         11           0       -2.472944   -1.800189    0.295705
 ---------------------------------------------------------------------

 SCF Done:  E(UB3LYP) =  -1136.13957523     A.U. after   19 cycles

 The electronic state is 2-A.
 Alpha  occ. eigenvalues --  -38.44048 -38.43927 -38.43688 -38.43569 -38.43367
 Alpha  occ. eigenvalues --  -38.43271 -38.43188  -2.19867  -2.19732  -2.19520
 Alpha  occ. eigenvalues --   -2.19411  -2.19293  -2.19153  -2.19143  -1.13547
 Alpha  occ. eigenvalues --   -1.13521  -1.13507  -1.13415  -1.13393  -1.13370
 Alpha  occ. eigenvalues --   -1.13227  -1.13188  -1.13134  -1.13100  -1.13072
 Alpha  occ. eigenvalues --   -1.13053  -1.12977  -1.12926  -1.12908  -1.12877
 Alpha  occ. eigenvalues --   -1.12812  -1.12799  -1.12775  -1.12763  -1.12744
 Alpha  occ. eigenvalues --   -0.18602  -0.12838  -0.12579  -0.10665
 Alpha virt. eigenvalues --   -0.05667  -0.05152  -0.04743  -0.03060  -0.03005
 Alpha virt. eigenvalues --   -0.02422  -0.01569  -0.01172  -0.00427  -0.00337
 Alpha virt. eigenvalues --    0.00018   0.00358   0.00817   0.00845   0.00898

  Beta  occ. eigenvalues --  -38.44042 -38.43927 -38.43684 -38.43563 -38.43291
  Beta  occ. eigenvalues --  -38.43251 -38.43114  -2.19859  -2.19733  -2.19516
  Beta  occ. eigenvalues --   -2.19403  -2.19155  -2.19120  -2.19007  -1.13530
  Beta  occ. eigenvalues --   -1.13509  -1.13501  -1.13408  -1.13390  -1.13370
  Beta  occ. eigenvalues --   -1.13217  -1.13173  -1.13132  -1.13086  -1.13052
  Beta  occ. eigenvalues --   -1.13049  -1.12891  -1.12840  -1.12820  -1.12805
  Beta  occ. eigenvalues --   -1.12757  -1.12756  -1.12720  -1.12673  -1.12650
  Beta  occ. eigenvalues --   -0.17881  -0.12595  -0.12334
  Beta virt. eigenvalues --   -0.06776  -0.05657  -0.05114  -0.04683  -0.02317
  Beta virt. eigenvalues --   -0.02242  -0.01480  -0.01391  -0.01095  -0.00476
  Beta virt. eigenvalues --   -0.00341   0.00134   0.00384   0.00832   0.00875

 Mulliken charges and spin densities:
               1          2
     1  Na   0.127890   0.042024
     2  Na  -0.220452   0.724265
     3  Na  -0.049883  -0.114903
     4  Na  -0.030061  -0.145089
     5  Na   0.114679  -0.054675
     6  Na  -0.015913   0.573954
     7  Na   0.073739  -0.025576
 Sum of Mulliken charges =   0.00000   1.00000

 Dipole moment (field-independent basis, Debye):
    X=              0.1108    Y=              0.2197    Z=              0.0990  Tot=              0.2652
 Quadrupole moment (field-independent basis, Debye-Ang):
   XX=            -56.0995   YY=            -61.8157   ZZ=            -74.7970
   XY=             -0.0806   XZ=             -0.1700   YZ=              1.2565

 Normal termination of Gaussian 16 at Tue Dec  5 22:10:48 2023.
