 Gaussian 16, Revision B.01,
 Gaussian 16:  ES64L-G16RevB.01 20-Dec-2017

 -------------------------
 #P B3LYP/6-311+g(d) force
 -------------------------

 -----
 DPGEN
 -----
 Symbolic Z-matrix:
 Charge =  0 Multiplicity = 2

                         Standard orientation:
 ---------------------------------------------------------------------
 Center     Atomic      Atomic             Coordinates (Angstroms)
 Number     Number       Type             X           Y           Z
 ---------------------------------------------------------------------
      1         11           0       -2.304450    2.075753   -0.263004
      2         11           0       -2.561668   -1.801535   -0.922352
      3         11           0       -4.761729   -0.463502    0.935186
      4         11           0        4.063095   -1.881195    1.197338
      5         11           0        1.357188    3.074645    0.697731
      6         11           0        3.151110    1.190136   -1.236398
      7         11           0        1.056454   -2.194302   -0.408501
 ---------------------------------------------------------------------

 SCF Done:  E(UB3LYP) =  -1136.11226605     A.U. after   23 cycles

 The electronic state is 2-A.
 Alpha  occ. eigenvalues --  -38.45858 -38.45591 -38.44287 -38.43917 -38.43793
 Alpha  occ. eigenvalues --  -38.43605 -38.43469  -2.21582  -2.21353  -2.20113
 Alpha  occ. eigenvalues --   -2.19756  -2.19584  -2.19389  -2.19272  -1.15291
 Alpha  occ. eigenvalues --   -1.15270  -1.15176  -1.15048  -1.15028  -1.14962
 Alpha  occ. eigenvalues --   -1.13796  -1.13761  -1.13730  -1.13437  -1.13418
 Alpha  occ. eigenvalues --   -1.13370  -1.13246  -1.13237  -1.13203  -1.13063
 Alpha  occ. eigenvalues --   -1.13054  -1.13030  -1.12966  -1.12951  -1.12876
 Alpha  occ. eigenvalues --   -0.16087  -0.14194  -0.12226  -0.10206
 Alpha virt. eigenvalues --   -0.07267  -0.05518  -0.04735  -0.03482  -0.02687
 Alpha virt. eigenvalues --   -0.02519  -0.02126  -0.01632  -0.01403  -0.00542
 Alpha virt. eigenvalues --   -0.00501  -0.00037   0.00128   0.00337   0.00410

  Beta  occ. eigenvalues --  -38.45856 -38.45588 -38.44239 -38.43875 -38.43745
  Beta  occ. eigenvalues --  -38.43605 -38.43432  -2.21580  -2.21350  -2.20022
  Beta  occ. eigenvalues --   -2.19684  -2.19494  -2.19389  -2.19209  -1.15289
  Beta  occ. eigenvalues --   -1.15265  -1.15166  -1.15046  -1.15023  -1.14956
  Beta  occ. eigenvalues --   -1.13737  -1.13698  -1.13667  -1.13392  -1.13369
  Beta  occ. eigenvalues --   -1.13282  -1.13185  -1.13177  -1.13144  -1.13063
  Beta  occ. eigenvalues --   -1.13054  -1.13028  -1.12929  -1.12913  -1.12791
  Beta  occ. eigenvalues --   -0.15590  -0.13856  -0.11798
  Beta virt. eigenvalues --   -0.07224  -0.06582  -0.05449  -0.04173  -0.03321
  Beta virt. eigenvalues --   -0.02445  -0.02189  -0.01984  -0.01251  -0.01017
  Beta virt. eigenvalues --   -0.00419  -0.00325   0.00139   0.00305   0.00450

 Mulliken charges and spin densities:
               1          2
     1  Na  -0.161675   0.060559
     2  Na  -0.343718   0.032268
     3  Na   0.332922   0.285166
     4  Na   0.668994   0.422424
     5  Na  -0.017823  -0.022680
     6  Na   0.042999   0.057514
     7  Na  -0.521699   0.164749
 Sum of Mulliken charges =  -0.00000   1.00000

 Dipole moment (field-independent basis, Debye):
    X=             -0.3370    Y=              0.8058    Z=              0.0391  Tot=              0.8743
 Quadrupole moment (field-independent basis, Debye-Ang):
   XX=            -60.6901   YY=            -73.0281   ZZ=            -66.0074
   XY=              3.4132   XZ=             -1.9493   YZ=             -1.9831

 Normal termination of Gaussian 16 at Mon Dec  4 05:35:49 2023.
