 Gaussian 16, Revision B.01,
 Gaussian 16:  ES64L-G16RevB.01 20-Dec-2017

 -------------------------
 #P B3LYP/6-311+g(d) force
 -------------------------

 -----
 DPGEN
 -----
 Symbolic Z-matrix:
 Charge =  0 Multiplicity = 2

                         Standard orientation:
 ---------------------------------------------------------------------
 Center     Atomic      Atomic             Coordinates (Angstroms)
 Number     Number       Type             X           Y           Z
 ---------------------------------------------------------------------
      1         11           0        1.362855    2.847222    0.272778
      2         11           0       -2.797723   -1.619014   -0.073969
      3         11           0       -0.515164   -0.132749    1.831973
      4         11           0        3.514886   -0.601174    0.081279
      5         11           0        0.197783    0.278364   -1.811905
      6         11           0       -2.568888    1.717661   -0.201397
      7         11           0        0.806250   -2.490309   -0.098759
 ---------------------------------------------------------------------

 SCF Done:  E(UB3LYP) =  -1136.13300782     A.U. after   20 cycles

 The electronic state is 2-A.
 Alpha  occ. eigenvalues --  -38.44897 -38.44150 -38.43985 -38.43608 -38.43392
 Alpha  occ. eigenvalues --  -38.43367 -38.43003  -2.20671  -2.19990  -2.19832
 Alpha  occ. eigenvalues --   -2.19388  -2.19317  -2.19277  -2.18894  -1.14342
 Alpha  occ. eigenvalues --   -1.14336  -1.14307  -1.13674  -1.13664  -1.13625
 Alpha  occ. eigenvalues --   -1.13506  -1.13481  -1.13475  -1.13069  -1.13057
 Alpha  occ. eigenvalues --   -1.13024  -1.13008  -1.12965  -1.12954  -1.12926
 Alpha  occ. eigenvalues --   -1.12910  -1.12889  -1.12587  -1.12564  -1.12508
 Alpha  occ. eigenvalues --   -0.18423  -0.13239  -0.12059  -0.10451
 Alpha virt. eigenvalues --   -0.06330  -0.05445  -0.04289  -0.03249  -0.02713
 Alpha virt. eigenvalues --   -0.02310  -0.02010  -0.01291  -0.00617  -0.00234
 Alpha virt. eigenvalues --   -0.00046   0.00313   0.00698   0.00782   0.00808

  Beta  occ. eigenvalues --  -38.44900 -38.44141 -38.43981 -38.43605 -38.43314
  Beta  occ. eigenvalues --  -38.43292 -38.42993  -2.20679  -2.19977  -2.19828
  Beta  occ. eigenvalues --   -2.19384  -2.19174  -2.19139  -2.18880  -1.14346
  Beta  occ. eigenvalues --   -1.14333  -1.14314  -1.13670  -1.13624  -1.13621
  Beta  occ. eigenvalues --   -1.13495  -1.13475  -1.13460  -1.13058  -1.13044
  Beta  occ. eigenvalues --   -1.13023  -1.12914  -1.12871  -1.12854  -1.12822
  Beta  occ. eigenvalues --   -1.12811  -1.12788  -1.12578  -1.12520  -1.12502
  Beta  occ. eigenvalues --   -0.17686  -0.13056  -0.11822
  Beta virt. eigenvalues --   -0.06580  -0.06262  -0.05416  -0.04262  -0.02514
  Beta virt. eigenvalues --   -0.01972  -0.01908  -0.01308  -0.01226  -0.00655
  Beta virt. eigenvalues --   -0.00265   0.00111   0.00340   0.00759   0.00784

 Mulliken charges and spin densities:
               1          2
     1  Na  -0.142419  -0.149836
     2  Na   0.344189   0.003972
     3  Na  -0.289070   0.770612
     4  Na  -0.043707  -0.089775
     5  Na  -0.188651   0.643495
     6  Na   0.173817  -0.084033
     7  Na   0.145841  -0.094434
 Sum of Mulliken charges =  -0.00000   1.00000

 Dipole moment (field-independent basis, Debye):
    X=              0.1715    Y=              0.1084    Z=              0.0082  Tot=              0.2031
 Quadrupole moment (field-independent basis, Debye-Ang):
   XX=            -50.4424   YY=            -65.8270   ZZ=            -75.7868
   XY=              0.5202   XZ=              1.6181   YZ=              0.9380

 Normal termination of Gaussian 16 at Thu Dec  7 05:02:46 2023.
