 Gaussian 16, Revision B.01,
 Gaussian 16:  ES64L-G16RevB.01 20-Dec-2017

 -------------------------
 #P B3LYP/6-311+g(d) force
 -------------------------

 -----
 DPGEN
 -----
 Symbolic Z-matrix:
 Charge =  0 Multiplicity = 2

                         Standard orientation:
 ---------------------------------------------------------------------
 Center     Atomic      Atomic             Coordinates (Angstroms)
 Number     Number       Type             X           Y           Z
 ---------------------------------------------------------------------
      1         11           0        2.404399    1.805839    0.196678
      2         11           0        0.319605   -0.057327    1.859416
      3         11           0        2.333863   -2.128677   -0.386179
      4         11           0       -3.139198    0.388720   -0.151025
      5         11           0       -1.411426   -2.384964    0.439241
      6         11           0       -0.567130    2.621691   -0.155089
      7         11           0        0.059887   -0.245281   -1.803041
 ---------------------------------------------------------------------

 SCF Done:  E(UB3LYP) =  -1136.13787691     A.U. after   18 cycles

 The electronic state is 2-A.
 Alpha  occ. eigenvalues --  -38.43751 -38.43690 -38.43666 -38.43562 -38.43452
 Alpha  occ. eigenvalues --  -38.43381 -38.43130  -2.19577  -2.19571  -2.19508
 Alpha  occ. eigenvalues --   -2.19445  -2.19409  -2.19339  -2.19048  -1.13288
 Alpha  occ. eigenvalues --   -1.13275  -1.13248  -1.13231  -1.13213  -1.13203
 Alpha  occ. eigenvalues --   -1.13197  -1.13178  -1.13171  -1.13160  -1.13112
 Alpha  occ. eigenvalues --   -1.13068  -1.13044  -1.13019  -1.13013  -1.13011
 Alpha  occ. eigenvalues --   -1.12971  -1.12950  -1.12722  -1.12705  -1.12675
 Alpha  occ. eigenvalues --   -0.18950  -0.12977  -0.12654  -0.10965
 Alpha virt. eigenvalues --   -0.05363  -0.05213  -0.04568  -0.03185  -0.03046
 Alpha virt. eigenvalues --   -0.02610  -0.01433  -0.01165  -0.00205  -0.00078
 Alpha virt. eigenvalues --    0.00010   0.00354   0.00827   0.00906   0.00935

  Beta  occ. eigenvalues --  -38.43741 -38.43684 -38.43666 -38.43547 -38.43370
  Beta  occ. eigenvalues --  -38.43304 -38.43123  -2.19566  -2.19560  -2.19510
  Beta  occ. eigenvalues --   -2.19422  -2.19259  -2.19199  -2.19038  -1.13278
  Beta  occ. eigenvalues --   -1.13250  -1.13229  -1.13209  -1.13203  -1.13199
  Beta  occ. eigenvalues --   -1.13184  -1.13177  -1.13151  -1.13132  -1.13076
  Beta  occ. eigenvalues --   -1.13033  -1.12978  -1.12920  -1.12918  -1.12914
  Beta  occ. eigenvalues --   -1.12876  -1.12848  -1.12715  -1.12687  -1.12654
  Beta  occ. eigenvalues --   -0.18218  -0.12724  -0.12374
  Beta virt. eigenvalues --   -0.07048  -0.05326  -0.05170  -0.04543  -0.02400
  Beta virt. eigenvalues --   -0.02281  -0.01559  -0.01341  -0.01083  -0.00215
  Beta virt. eigenvalues --   -0.00121   0.00118   0.00377   0.00866   0.00908

 Mulliken charges and spin densities:
               1          2
     1  Na   0.280017  -0.051653
     2  Na  -0.273139   0.560313
     3  Na   0.058377  -0.094787
     4  Na  -0.043641  -0.066175
     5  Na   0.259502  -0.009195
     6  Na   0.095855  -0.020042
     7  Na  -0.376971   0.681539
 Sum of Mulliken charges =  -0.00000   1.00000

 Dipole moment (field-independent basis, Debye):
    X=              0.1756    Y=             -0.1938    Z=              0.0049  Tot=              0.2615
 Quadrupole moment (field-independent basis, Debye-Ang):
   XX=            -57.2623   YY=            -63.2650   ZZ=            -73.4244
   XY=             -0.3000   XZ=             -0.2431   YZ=             -0.4050

 Normal termination of Gaussian 16 at Thu Dec  7 16:14:04 2023.
