 Gaussian 16, Revision B.01,
 Gaussian 16:  ES64L-G16RevB.01 20-Dec-2017

 -------------------------
 #P B3LYP/6-311+g(d) force
 -------------------------

 -----
 DPGEN
 -----
 Symbolic Z-matrix:
 Charge =  0 Multiplicity = 2

                         Standard orientation:
 ---------------------------------------------------------------------
 Center     Atomic      Atomic             Coordinates (Angstroms)
 Number     Number       Type             X           Y           Z
 ---------------------------------------------------------------------
      1         11           0       -1.253832   -2.690668   -0.031313
      2         11           0        2.648844   -1.937409    0.155482
      3         11           0       -0.135568    0.181195   -1.750155
      4         11           0        2.995510    1.275943   -0.369054
      5         11           0       -0.145965    0.376576    2.187370
      6         11           0       -0.860981    2.970974    0.046802
      7         11           0       -3.248009   -0.176611   -0.239133
 ---------------------------------------------------------------------

 SCF Done:  E(UB3LYP) =  -1136.13396748     A.U. after   20 cycles

 The electronic state is 2-A.
 Alpha  occ. eigenvalues --  -38.44420 -38.44307 -38.43902 -38.43885 -38.43641
 Alpha  occ. eigenvalues --  -38.43322 -38.43306  -2.20251  -2.20111  -2.19727
 Alpha  occ. eigenvalues --   -2.19696  -2.19545  -2.19156  -2.19126  -1.13927
 Alpha  occ. eigenvalues --   -1.13921  -1.13882  -1.13787  -1.13781  -1.13746
 Alpha  occ. eigenvalues --   -1.13383  -1.13366  -1.13356  -1.13354  -1.13350
 Alpha  occ. eigenvalues --   -1.13342  -1.13229  -1.13188  -1.13170  -1.12830
 Alpha  occ. eigenvalues --   -1.12821  -1.12797  -1.12797  -1.12794  -1.12762
 Alpha  occ. eigenvalues --   -0.18063  -0.13135  -0.12075  -0.10779
 Alpha virt. eigenvalues --   -0.05955  -0.05327  -0.04655  -0.03259  -0.02904
 Alpha virt. eigenvalues --   -0.02731  -0.01767  -0.01144  -0.00609  -0.00468
 Alpha virt. eigenvalues --   -0.00062   0.00347   0.00738   0.00813   0.00844

  Beta  occ. eigenvalues --  -38.44415 -38.44300 -38.43902 -38.43784 -38.43580
  Beta  occ. eigenvalues --  -38.43320 -38.43303  -2.20243  -2.20101  -2.19698
  Beta  occ. eigenvalues --   -2.19541  -2.19433  -2.19154  -2.19124  -1.13923
  Beta  occ. eigenvalues --   -1.13898  -1.13877  -1.13779  -1.13761  -1.13742
  Beta  occ. eigenvalues --   -1.13362  -1.13353  -1.13342  -1.13259  -1.13225
  Beta  occ. eigenvalues --   -1.13215  -1.13152  -1.13110  -1.13085  -1.12829
  Beta  occ. eigenvalues --   -1.12813  -1.12796  -1.12786  -1.12769  -1.12764
  Beta  occ. eigenvalues --   -0.17349  -0.12950  -0.11859
  Beta virt. eigenvalues --   -0.06884  -0.05893  -0.05290  -0.04565  -0.02553
  Beta virt. eigenvalues --   -0.02132  -0.01730  -0.01644  -0.01069  -0.00652
  Beta virt. eigenvalues --   -0.00511   0.00101   0.00386   0.00801   0.00830

 Mulliken charges and spin densities:
               1          2
     1  Na  -0.103818  -0.026059
     2  Na  -0.091155  -0.019720
     3  Na   0.014338   0.468029
     4  Na   0.183554  -0.053976
     5  Na  -0.440815   0.786992
     6  Na   0.107699  -0.138055
     7  Na   0.330198  -0.017211
 Sum of Mulliken charges =  -0.00000   1.00000

 Dipole moment (field-independent basis, Debye):
    X=             -0.0343    Y=              0.1705    Z=              0.0098  Tot=              0.1742
 Quadrupole moment (field-independent basis, Debye-Ang):
   XX=            -56.0889   YY=            -64.2929   ZZ=            -74.3296
   XY=             -0.2338   XZ=              0.1372   YZ=             -0.9205

 Normal termination of Gaussian 16 at Wed Dec  6 00:32:29 2023.
