 Gaussian 16, Revision B.01,
 Gaussian 16:  ES64L-G16RevB.01 20-Dec-2017

 -------------------------
 #P B3LYP/6-311+g(d) force
 -------------------------

 -----
 DPGEN
 -----
 Symbolic Z-matrix:
 Charge =  0 Multiplicity = 2

                         Standard orientation:
 ---------------------------------------------------------------------
 Center     Atomic      Atomic             Coordinates (Angstroms)
 Number     Number       Type             X           Y           Z
 ---------------------------------------------------------------------
      1         11           0       -1.199935   -0.998008    2.039205
      2         11           0        1.977755   -1.791837    0.946826
      3         11           0        3.414876    0.743180   -1.234195
      4         11           0        1.386968    1.650328    1.006442
      5         11           0       -2.446457    2.002566    0.270998
      6         11           0       -3.213314   -0.773454   -1.305237
      7         11           0        0.080106   -0.832775   -1.724040
 ---------------------------------------------------------------------

 SCF Done:  E(UB3LYP) =  -1136.12561290     A.U. after   26 cycles

 The electronic state is 2-A.
 Alpha  occ. eigenvalues --  -38.44941 -38.44271 -38.44089 -38.43899 -38.43853
 Alpha  occ. eigenvalues --  -38.43745 -38.42877  -2.20759  -2.20147  -2.19967
 Alpha  occ. eigenvalues --   -2.19742  -2.19702  -2.19584  -2.18705  -1.14428
 Alpha  occ. eigenvalues --   -1.14401  -1.14385  -1.13830  -1.13816  -1.13775
 Alpha  occ. eigenvalues --   -1.13665  -1.13609  -1.13569  -1.13419  -1.13392
 Alpha  occ. eigenvalues --   -1.13388  -1.13378  -1.13368  -1.13336  -1.13246
 Alpha  occ. eigenvalues --   -1.13226  -1.13219  -1.12392  -1.12366  -1.12342
 Alpha  occ. eigenvalues --   -0.18242  -0.14074  -0.11781  -0.10899
 Alpha virt. eigenvalues --   -0.06116  -0.05736  -0.04831  -0.03388  -0.02743
 Alpha virt. eigenvalues --   -0.02484  -0.02006  -0.01089  -0.00803  -0.00266
 Alpha virt. eigenvalues --    0.00131   0.00273   0.00357   0.00483   0.00626

  Beta  occ. eigenvalues --  -38.44892 -38.44220 -38.44047 -38.43886 -38.43819
  Beta  occ. eigenvalues --  -38.43738 -38.42872  -2.20668  -2.20053  -2.19890
  Beta  occ. eigenvalues --   -2.19720  -2.19642  -2.19573  -2.18699  -1.14363
  Beta  occ. eigenvalues --   -1.14344  -1.14319  -1.13770  -1.13743  -1.13702
  Beta  occ. eigenvalues --   -1.13600  -1.13558  -1.13517  -1.13388  -1.13378
  Beta  occ. eigenvalues --   -1.13354  -1.13346  -1.13323  -1.13304  -1.13231
  Beta  occ. eigenvalues --   -1.13222  -1.13201  -1.12383  -1.12354  -1.12333
  Beta  occ. eigenvalues --   -0.17539  -0.13862  -0.10663
  Beta virt. eigenvalues --   -0.07984  -0.05847  -0.04925  -0.04822  -0.02955
  Beta virt. eigenvalues --   -0.02265  -0.01990  -0.01880  -0.00697  -0.00571
  Beta virt. eigenvalues --   -0.00057   0.00261   0.00329   0.00462   0.00573

 Mulliken charges and spin densities:
               1          2
     1  Na  -0.241895   0.174646
     2  Na   0.363417   0.027937
     3  Na   0.656017  -0.028516
     4  Na  -0.434351   0.387014
     5  Na   0.064869   0.131267
     6  Na   0.362050  -0.097474
     7  Na  -0.770107   0.405125
 Sum of Mulliken charges =  -0.00000   1.00000

 Dipole moment (field-independent basis, Debye):
    X=              0.1071    Y=              0.2878    Z=              0.1861  Tot=              0.3590
 Quadrupole moment (field-independent basis, Debye-Ang):
   XX=            -53.7027   YY=            -64.2848   ZZ=            -78.9608
   XY=             -1.5196   XZ=             -1.3787   YZ=              0.7352

 Normal termination of Gaussian 16 at Sun Dec  3 22:57:03 2023.
