 Gaussian 16, Revision B.01,
 Gaussian 16:  ES64L-G16RevB.01 20-Dec-2017

 -------------------------
 #P B3LYP/6-311+g(d) force
 -------------------------

 -----
 DPGEN
 -----
 Symbolic Z-matrix:
 Charge =  0 Multiplicity = 2

                         Standard orientation:
 ---------------------------------------------------------------------
 Center     Atomic      Atomic             Coordinates (Angstroms)
 Number     Number       Type             X           Y           Z
 ---------------------------------------------------------------------
      1         11           0       -1.449312   -1.935643    0.664060
      2         11           0       -4.508350   -2.453560   -0.325627
      3         11           0       -2.819843    0.877902   -0.815591
      4         11           0       -0.935922    3.523894   -0.608775
      5         11           0        0.564694    1.945904    1.455153
      6         11           0        3.198924   -0.894484    0.727091
      7         11           0        5.949810   -1.064013   -1.096311
 ---------------------------------------------------------------------

 SCF Done:  E(UB3LYP) =  -1136.11657335     A.U. after   20 cycles

 The electronic state is 2-A.
 Alpha  occ. eigenvalues --  -38.45145 -38.44946 -38.44796 -38.44535 -38.43889
 Alpha  occ. eigenvalues --  -38.43574 -38.43100  -2.20938  -2.20759  -2.20632
 Alpha  occ. eigenvalues --   -2.20361  -2.19757  -2.19372  -2.18867  -1.14615
 Alpha  occ. eigenvalues --   -1.14602  -1.14572  -1.14453  -1.14435  -1.14343
 Alpha  occ. eigenvalues --   -1.14326  -1.14313  -1.14225  -1.14068  -1.14011
 Alpha  occ. eigenvalues --   -1.14000  -1.13420  -1.13400  -1.13391  -1.13013
 Alpha  occ. eigenvalues --   -1.13012  -1.13002  -1.12557  -1.12555  -1.12506
 Alpha  occ. eigenvalues --   -0.16772  -0.13659  -0.12808  -0.10621
 Alpha virt. eigenvalues --   -0.06664  -0.05488  -0.04873  -0.03819  -0.02587
 Alpha virt. eigenvalues --   -0.02395  -0.02119  -0.01781  -0.01295  -0.00855
 Alpha virt. eigenvalues --   -0.00315  -0.00147   0.00181   0.00203   0.00515

  Beta  occ. eigenvalues --  -38.45143 -38.44915 -38.44757 -38.44504 -38.43876
  Beta  occ. eigenvalues --  -38.43497 -38.43112  -2.20933  -2.20701  -2.20562
  Beta  occ. eigenvalues --   -2.20305  -2.19735  -2.19228  -2.18895  -1.14607
  Beta  occ. eigenvalues --   -1.14599  -1.14567  -1.14415  -1.14397  -1.14294
  Beta  occ. eigenvalues --   -1.14279  -1.14260  -1.14169  -1.14029  -1.13976
  Beta  occ. eigenvalues --   -1.13955  -1.13396  -1.13383  -1.13374  -1.12915
  Beta  occ. eigenvalues --   -1.12914  -1.12910  -1.12583  -1.12580  -1.12478
  Beta  occ. eigenvalues --   -0.16268  -0.13547  -0.12087
  Beta virt. eigenvalues --   -0.07359  -0.06447  -0.04907  -0.04463  -0.03596
  Beta virt. eigenvalues --   -0.02483  -0.02326  -0.01716  -0.01493  -0.01063
  Beta virt. eigenvalues --   -0.00493  -0.00055   0.00064   0.00294   0.00390

 Mulliken charges and spin densities:
               1          2
     1  Na  -0.730219   0.168899
     2  Na   1.646228   0.045003
     3  Na  -0.710881   0.353488
     4  Na   0.666040   0.012654
     5  Na  -0.521549   0.148485
     6  Na  -0.520428  -0.126828
     7  Na   0.170809   0.398298
 Sum of Mulliken charges =  -0.00000   1.00000

 Dipole moment (field-independent basis, Debye):
    X=             -3.1576    Y=             -0.1387    Z=             -0.2750  Tot=              3.1726
 Quadrupole moment (field-independent basis, Debye-Ang):
   XX=            -62.9370   YY=            -62.4981   ZZ=            -70.3419
   XY=             11.1398   XZ=             -0.8848   YZ=              0.6567

 Normal termination of Gaussian 16 at Tue Nov 28 19:23:03 2023.
