 Gaussian 16, Revision B.01,
 Gaussian 16:  ES64L-G16RevB.01 20-Dec-2017

 -------------------------
 #P B3LYP/6-311+g(d) force
 -------------------------

 -----
 DPGEN
 -----
 Symbolic Z-matrix:
 Charge =  0 Multiplicity = 2

                         Standard orientation:
 ---------------------------------------------------------------------
 Center     Atomic      Atomic             Coordinates (Angstroms)
 Number     Number       Type             X           Y           Z
 ---------------------------------------------------------------------
      1         11           0       -1.604486   -3.106297   -0.624888
      2         11           0       -3.837257   -0.431504    0.862260
      3         11           0        2.067159   -2.542301    0.368488
      4         11           0        3.917311    0.264369   -0.495584
      5         11           0        0.128783    0.095512   -0.019760
      6         11           0       -2.254187    2.993497   -0.946483
      7         11           0        1.582677    2.726723    0.855968
 ---------------------------------------------------------------------

 SCF Done:  E(UB3LYP) =  -1136.11731781     A.U. after   27 cycles

 The electronic state is 2-A.
 Alpha  occ. eigenvalues --  -38.44884 -38.44614 -38.44479 -38.44060 -38.43899
 Alpha  occ. eigenvalues --  -38.43765 -38.43567  -2.20680  -2.20365  -2.20238
 Alpha  occ. eigenvalues --   -2.19875  -2.19730  -2.19666  -2.19358  -1.14409
 Alpha  occ. eigenvalues --   -1.14352  -1.14274  -1.14040  -1.14012  -1.13983
 Alpha  occ. eigenvalues --   -1.13934  -1.13905  -1.13867  -1.13546  -1.13530
 Alpha  occ. eigenvalues --   -1.13502  -1.13433  -1.13405  -1.13394  -1.13338
 Alpha  occ. eigenvalues --   -1.13310  -1.13264  -1.13020  -1.12987  -1.12978
 Alpha  occ. eigenvalues --   -0.16884  -0.13434  -0.12789  -0.09496
 Alpha virt. eigenvalues --   -0.06989  -0.05627  -0.05005  -0.02917  -0.02629
 Alpha virt. eigenvalues --   -0.02302  -0.02190  -0.01775  -0.01446  -0.00444
 Alpha virt. eigenvalues --    0.00028   0.00051   0.00375   0.00414   0.00524

  Beta  occ. eigenvalues --  -38.44884 -38.44574 -38.44482 -38.44021 -38.43876
  Beta  occ. eigenvalues --  -38.43767 -38.43479  -2.20683  -2.20291  -2.20248
  Beta  occ. eigenvalues --   -2.19803  -2.19689  -2.19667  -2.19196  -1.14416
  Beta  occ. eigenvalues --   -1.14357  -1.14249  -1.13989  -1.13958  -1.13946
  Beta  occ. eigenvalues --   -1.13932  -1.13916  -1.13837  -1.13498  -1.13479
  Beta  occ. eigenvalues --   -1.13454  -1.13411  -1.13400  -1.13369  -1.13324
  Beta  occ. eigenvalues --   -1.13300  -1.13261  -1.12909  -1.12873  -1.12869
  Beta  occ. eigenvalues --   -0.16658  -0.12719  -0.12309
  Beta virt. eigenvalues --   -0.06978  -0.06240  -0.05346  -0.04816  -0.02553
  Beta virt. eigenvalues --   -0.02223  -0.02050  -0.01777  -0.01642  -0.01231
  Beta virt. eigenvalues --   -0.00321   0.00236   0.00305   0.00494   0.00513

 Mulliken charges and spin densities:
               1          2
     1  Na   0.450720   0.040695
     2  Na   0.362478   0.527246
     3  Na   0.669383   0.090815
     4  Na   0.105232   0.266200
     5  Na  -3.561331  -0.172068
     6  Na   0.506745   0.163287
     7  Na   1.466773   0.083827
 Sum of Mulliken charges =  -0.00000   1.00000

 Dipole moment (field-independent basis, Debye):
    X=              0.9232    Y=              0.3058    Z=             -0.3324  Tot=              1.0278
 Quadrupole moment (field-independent basis, Debye-Ang):
   XX=            -68.2638   YY=            -61.3600   ZZ=            -68.8408
   XY=             -5.1794   XZ=              2.9314   YZ=              2.5244

 Normal termination of Gaussian 16 at Sat Dec  9 05:46:52 2023.
