 Gaussian 16, Revision B.01,
 Gaussian 16:  ES64L-G16RevB.01 20-Dec-2017

 -------------------------
 #P B3LYP/6-311+g(d) force
 -------------------------

 -----
 DPGEN
 -----
 Symbolic Z-matrix:
 Charge =  0 Multiplicity = 2

                         Standard orientation:
 ---------------------------------------------------------------------
 Center     Atomic      Atomic             Coordinates (Angstroms)
 Number     Number       Type             X           Y           Z
 ---------------------------------------------------------------------
      1         11           0        0.036362    0.366149   -0.111486
      2         11           0       -2.762204   -2.196386   -0.121108
      3         11           0       -3.307698    0.815627    0.131815
      4         11           0       -0.856411    3.526662   -0.066425
      5         11           0        2.844569    2.299847    0.121244
      6         11           0        3.459404   -1.421463   -0.112469
      7         11           0        0.585978   -3.390436    0.158430
 ---------------------------------------------------------------------

 SCF Done:  E(UB3LYP) =  -1136.12744929     A.U. after   26 cycles

 The electronic state is 2-A.
 Alpha  occ. eigenvalues --  -38.44817 -38.44359 -38.44024 -38.43686 -38.43580
 Alpha  occ. eigenvalues --  -38.43548 -38.43494  -2.20592  -2.20229  -2.19919
 Alpha  occ. eigenvalues --   -2.19507  -2.19447  -2.19390  -2.19319  -1.14285
 Alpha  occ. eigenvalues --   -1.14256  -1.14226  -1.13931  -1.13899  -1.13869
 Alpha  occ. eigenvalues --   -1.13653  -1.13568  -1.13557  -1.13171  -1.13157
 Alpha  occ. eigenvalues --   -1.13124  -1.13115  -1.13099  -1.13077  -1.13047
 Alpha  occ. eigenvalues --   -1.13035  -1.13016  -1.12982  -1.12962  -1.12951
 Alpha  occ. eigenvalues --   -0.17232  -0.13827  -0.13493  -0.09647
 Alpha virt. eigenvalues --   -0.06741  -0.05711  -0.04320  -0.02926  -0.02663
 Alpha virt. eigenvalues --   -0.02131  -0.02046  -0.01985  -0.01897  -0.00015
 Alpha virt. eigenvalues --    0.00200   0.00485   0.00537   0.00597   0.00731

  Beta  occ. eigenvalues --  -38.44811 -38.44337 -38.44036 -38.43630 -38.43541
  Beta  occ. eigenvalues --  -38.43498 -38.43449  -2.20588  -2.20198  -2.19940
  Beta  occ. eigenvalues --   -2.19405  -2.19379  -2.19298  -2.19236  -1.14289
  Beta  occ. eigenvalues --   -1.14259  -1.14176  -1.13912  -1.13884  -1.13794
  Beta  occ. eigenvalues --   -1.13666  -1.13593  -1.13572  -1.13102  -1.13092
  Beta  occ. eigenvalues --   -1.13060  -1.13055  -1.13045  -1.13024  -1.12985
  Beta  occ. eigenvalues --   -1.12976  -1.12949  -1.12925  -1.12908  -1.12892
  Beta  occ. eigenvalues --   -0.16971  -0.13015  -0.12899
  Beta virt. eigenvalues --   -0.06835  -0.06411  -0.05402  -0.04201  -0.02345
  Beta virt. eigenvalues --   -0.02069  -0.01957  -0.01837  -0.01731  -0.01683
  Beta virt. eigenvalues --    0.00080   0.00470   0.00497   0.00644   0.00798

 Mulliken charges and spin densities:
               1          2
     1  Na  -5.879967  -0.361374
     2  Na   0.457873   0.250828
     3  Na   1.440203   0.153288
     4  Na   1.179748   0.279908
     5  Na   1.203637   0.375690
     6  Na   0.672768   0.038602
     7  Na   0.925738   0.263059
 Sum of Mulliken charges =  -0.00000   1.00000

 Dipole moment (field-independent basis, Debye):
    X=              0.0389    Y=              0.2402    Z=              0.0364  Tot=              0.2460
 Quadrupole moment (field-independent basis, Debye-Ang):
   XX=            -62.7264   YY=            -61.4342   ZZ=            -72.7425
   XY=             -2.0970   XZ=             -0.6056   YZ=              0.4651

 Normal termination of Gaussian 16 at Fri Dec  8 17:29:49 2023.
