 Gaussian 16, Revision B.01,
 Gaussian 16:  ES64L-G16RevB.01 20-Dec-2017

 -------------------------
 #P B3LYP/6-311+g(d) force
 -------------------------

 -----
 DPGEN
 -----
 Symbolic Z-matrix:
 Charge =  0 Multiplicity = 2

                         Standard orientation:
 ---------------------------------------------------------------------
 Center     Atomic      Atomic             Coordinates (Angstroms)
 Number     Number       Type             X           Y           Z
 ---------------------------------------------------------------------
      1         11           0       -0.041811    0.112270   -1.490962
      2         11           0       -0.333743   -0.011857    1.995298
      3         11           0        3.083695    0.563601   -0.115170
      4         11           0        1.857815   -2.643935    0.077426
      5         11           0        0.514995    3.259126   -0.068546
      6         11           0       -3.113857    0.889502   -0.058590
      7         11           0       -1.967094   -2.168708   -0.339457
 ---------------------------------------------------------------------

 SCF Done:  E(UB3LYP) =  -1136.13610797     A.U. after   21 cycles

 The electronic state is 2-A.
 Alpha  occ. eigenvalues --  -38.44305 -38.44154 -38.43706 -38.43688 -38.43581
 Alpha  occ. eigenvalues --  -38.43363 -38.43043  -2.20140  -2.19970  -2.19568
 Alpha  occ. eigenvalues --   -2.19492  -2.19387  -2.19245  -2.19019  -1.13811
 Alpha  occ. eigenvalues --   -1.13804  -1.13784  -1.13657  -1.13637  -1.13597
 Alpha  occ. eigenvalues --   -1.13275  -1.13224  -1.13190  -1.13170  -1.13149
 Alpha  occ. eigenvalues --   -1.13135  -1.13055  -1.13047  -1.13036  -1.12925
 Alpha  occ. eigenvalues --   -1.12865  -1.12858  -1.12715  -1.12654  -1.12639
 Alpha  occ. eigenvalues --   -0.18398  -0.13180  -0.12235  -0.10327
 Alpha virt. eigenvalues --   -0.05850  -0.05192  -0.05100  -0.03095  -0.02609
 Alpha virt. eigenvalues --   -0.02281  -0.01679  -0.01336  -0.00672  -0.00567
 Alpha virt. eigenvalues --    0.00005   0.00335   0.00769   0.00798   0.00840

  Beta  occ. eigenvalues --  -38.44299 -38.44151 -38.43706 -38.43675 -38.43580
  Beta  occ. eigenvalues --  -38.43265 -38.42987  -2.20134  -2.19968  -2.19548
  Beta  occ. eigenvalues --   -2.19494  -2.19388  -2.19066  -2.18919  -1.13809
  Beta  occ. eigenvalues --   -1.13787  -1.13768  -1.13649  -1.13625  -1.13600
  Beta  occ. eigenvalues --   -1.13258  -1.13187  -1.13175  -1.13162  -1.13148
  Beta  occ. eigenvalues --   -1.13136  -1.13050  -1.13040  -1.13036  -1.12806
  Beta  occ. eigenvalues --   -1.12740  -1.12729  -1.12639  -1.12575  -1.12569
  Beta  occ. eigenvalues --   -0.17684  -0.12953  -0.12038
  Beta virt. eigenvalues --   -0.06416  -0.05824  -0.05183  -0.05046  -0.02327
  Beta virt. eigenvalues --   -0.01920  -0.01591  -0.01295  -0.01195  -0.00716
  Beta virt. eigenvalues --   -0.00605   0.00159   0.00373   0.00791   0.00811

 Mulliken charges and spin densities:
               1          2
     1  Na  -0.186654   0.358666
     2  Na  -0.465536   0.823685
     3  Na   0.076289  -0.060865
     4  Na   0.032618  -0.034089
     5  Na  -0.008742  -0.107363
     6  Na   0.259666  -0.037951
     7  Na   0.292360   0.057918
 Sum of Mulliken charges =  -0.00000   1.00000

 Dipole moment (field-independent basis, Debye):
    X=             -0.1526    Y=              0.1697    Z=              0.0947  Tot=              0.2471
 Quadrupole moment (field-independent basis, Debye-Ang):
   XX=            -55.2261   YY=            -59.7948   ZZ=            -77.0032
   XY=             -0.8603   XZ=              0.6612   YZ=              0.2917

 Normal termination of Gaussian 16 at Tue Dec  5 22:59:08 2023.
