 Gaussian 16, Revision B.01,
 Gaussian 16:  ES64L-G16RevB.01 20-Dec-2017

 -------------------------
 #P B3LYP/6-311+g(d) force
 -------------------------

 -----
 DPGEN
 -----
 Symbolic Z-matrix:
 Charge =  0 Multiplicity = 2

                         Standard orientation:
 ---------------------------------------------------------------------
 Center     Atomic      Atomic             Coordinates (Angstroms)
 Number     Number       Type             X           Y           Z
 ---------------------------------------------------------------------
      1         11           0        0.294190   -2.062669   -1.020973
      2         11           0       -0.065712   -0.411166    1.699439
      3         11           0        3.447024   -1.166297    0.257577
      4         11           0       -1.057552    3.661382    0.347689
      5         11           0        2.166855    1.492405   -0.477177
      6         11           0       -2.989274   -2.111439    0.437580
      7         11           0       -1.795530    0.597784   -1.244135
 ---------------------------------------------------------------------

 SCF Done:  E(UB3LYP) =  -1136.12943439     A.U. after   21 cycles

 The electronic state is 2-A.
 Alpha  occ. eigenvalues --  -38.44470 -38.44354 -38.44112 -38.43715 -38.43634
 Alpha  occ. eigenvalues --  -38.43531 -38.43266  -2.20284  -2.20192  -2.19960
 Alpha  occ. eigenvalues --   -2.19618  -2.19432  -2.19396  -2.19155  -1.13963
 Alpha  occ. eigenvalues --   -1.13940  -1.13915  -1.13909  -1.13865  -1.13852
 Alpha  occ. eigenvalues --   -1.13617  -1.13602  -1.13584  -1.13359  -1.13297
 Alpha  occ. eigenvalues --   -1.13199  -1.13122  -1.13072  -1.13065  -1.13061
 Alpha  occ. eigenvalues --   -1.13031  -1.13029  -1.12857  -1.12824  -1.12745
 Alpha  occ. eigenvalues --   -0.18237  -0.13458  -0.12232  -0.10003
 Alpha virt. eigenvalues --   -0.06220  -0.05577  -0.04871  -0.03234  -0.02567
 Alpha virt. eigenvalues --   -0.02120  -0.01957  -0.01520  -0.00585  -0.00512
 Alpha virt. eigenvalues --    0.00069   0.00256   0.00655   0.00716   0.00753

  Beta  occ. eigenvalues --  -38.44464 -38.44348 -38.44111 -38.43677 -38.43638
  Beta  occ. eigenvalues --  -38.43454 -38.43228  -2.20275  -2.20184  -2.19962
  Beta  occ. eigenvalues --   -2.19551  -2.19404  -2.19291  -2.19088  -1.13959
  Beta  occ. eigenvalues --   -1.13913  -1.13908  -1.13905  -1.13856  -1.13833
  Beta  occ. eigenvalues --   -1.13620  -1.13589  -1.13581  -1.13312  -1.13218
  Beta  occ. eigenvalues --   -1.13155  -1.13077  -1.13063  -1.13036  -1.13025
  Beta  occ. eigenvalues --   -1.12963  -1.12926  -1.12812  -1.12761  -1.12696
  Beta  occ. eigenvalues --   -0.17536  -0.13249  -0.12107
  Beta virt. eigenvalues --   -0.06161  -0.06107  -0.05510  -0.04777  -0.02548
  Beta virt. eigenvalues --   -0.02123  -0.01950  -0.01490  -0.01079  -0.00592
  Beta virt. eigenvalues --   -0.00264   0.00192   0.00327   0.00699   0.00765

 Mulliken charges and spin densities:
               1          2
     1  Na  -0.125422   0.235276
     2  Na  -0.399286   0.690888
     3  Na   0.585596   0.017279
     4  Na   0.063104  -0.108464
     5  Na  -0.317818  -0.010058
     6  Na   0.280025  -0.050591
     7  Na  -0.086199   0.225671
 Sum of Mulliken charges =  -0.00000   1.00000

 Dipole moment (field-independent basis, Debye):
    X=              0.0709    Y=             -0.5201    Z=              0.1510  Tot=              0.5462
 Quadrupole moment (field-independent basis, Debye-Ang):
   XX=            -52.9156   YY=            -61.0902   ZZ=            -77.1202
   XY=              1.4899   XZ=             -0.6928   YZ=              0.4765

 Normal termination of Gaussian 16 at Thu Dec  7 02:23:51 2023.
