 Gaussian 16, Revision B.01,
 Gaussian 16:  ES64L-G16RevB.01 20-Dec-2017

 -------------------------
 #P B3LYP/6-311+g(d) force
 -------------------------

 -----
 DPGEN
 -----
 Symbolic Z-matrix:
 Charge =  0 Multiplicity = 2

                         Standard orientation:
 ---------------------------------------------------------------------
 Center     Atomic      Atomic             Coordinates (Angstroms)
 Number     Number       Type             X           Y           Z
 ---------------------------------------------------------------------
      1         11           0       -2.910606   -1.353683    0.048402
      2         11           0        1.103515    2.723680    0.111304
      3         11           0        3.239750   -0.301502   -0.272993
      4         11           0        0.506225   -2.933837   -0.284716
      5         11           0       -0.110460    0.070992   -1.456549
      6         11           0       -2.075024    2.118488   -0.184522
      7         11           0        0.246600   -0.324139    2.039074
 ---------------------------------------------------------------------

 SCF Done:  E(UB3LYP) =  -1136.13778766     A.U. after   21 cycles

 The electronic state is 2-A.
 Alpha  occ. eigenvalues --  -38.44104 -38.43949 -38.43789 -38.43504 -38.43463
 Alpha  occ. eigenvalues --  -38.43352 -38.42888  -2.19904  -2.19760  -2.19628
 Alpha  occ. eigenvalues --   -2.19387  -2.19330  -2.19238  -2.18914  -1.13580
 Alpha  occ. eigenvalues --   -1.13558  -1.13546  -1.13433  -1.13424  -1.13401
 Alpha  occ. eigenvalues --   -1.13325  -1.13298  -1.13240  -1.13128  -1.13062
 Alpha  occ. eigenvalues --   -1.13026  -1.13003  -1.12986  -1.12936  -1.12910
 Alpha  occ. eigenvalues --   -1.12862  -1.12848  -1.12601  -1.12557  -1.12526
 Alpha  occ. eigenvalues --   -0.18629  -0.12840  -0.12685  -0.10447
 Alpha virt. eigenvalues --   -0.05733  -0.05052  -0.04983  -0.02952  -0.02868
 Alpha virt. eigenvalues --   -0.02315  -0.01610  -0.01234  -0.00514  -0.00397
 Alpha virt. eigenvalues --    0.00009   0.00343   0.00812   0.00825   0.00893

  Beta  occ. eigenvalues --  -38.44099 -38.43948 -38.43781 -38.43499 -38.43458
  Beta  occ. eigenvalues --  -38.43254 -38.42833  -2.19897  -2.19759  -2.19616
  Beta  occ. eigenvalues --   -2.19381  -2.19324  -2.19058  -2.18816  -1.13562
  Beta  occ. eigenvalues --   -1.13549  -1.13543  -1.13427  -1.13415  -1.13401
  Beta  occ. eigenvalues --   -1.13313  -1.13269  -1.13235  -1.13121  -1.13051
  Beta  occ. eigenvalues --   -1.13011  -1.12997  -1.12959  -1.12936  -1.12791
  Beta  occ. eigenvalues --   -1.12735  -1.12720  -1.12525  -1.12485  -1.12455
  Beta  occ. eigenvalues --   -0.17921  -0.12593  -0.12472
  Beta virt. eigenvalues --   -0.06535  -0.05726  -0.05049  -0.04916  -0.02186
  Beta virt. eigenvalues --   -0.02118  -0.01530  -0.01254  -0.01154  -0.00570
  Beta virt. eigenvalues --   -0.00436   0.00156   0.00378   0.00823   0.00855

 Mulliken charges and spin densities:
               1          2
     1  Na   0.161967  -0.033742
     2  Na   0.216129   0.010242
     3  Na   0.124476  -0.036665
     4  Na   0.154389  -0.065757
     5  Na  -0.418059   0.332821
     6  Na   0.286910   0.006217
     7  Na  -0.525813   0.786885
 Sum of Mulliken charges =  -0.00000   1.00000

 Dipole moment (field-independent basis, Debye):
    X=              0.1065    Y=             -0.2496    Z=              0.1412  Tot=              0.3059
 Quadrupole moment (field-independent basis, Debye-Ang):
   XX=            -55.6868   YY=            -60.2352   ZZ=            -76.0969
   XY=              0.5021   XZ=             -0.8432   YZ=              0.8295

 Normal termination of Gaussian 16 at Thu Dec  7 10:47:41 2023.
