 Gaussian 16, Revision B.01,
 Gaussian 16:  ES64L-G16RevB.01 20-Dec-2017

 -------------------------
 #P B3LYP/6-311+g(d) force
 -------------------------

 -----
 DPGEN
 -----
 Symbolic Z-matrix:
 Charge =  0 Multiplicity = 2

                         Standard orientation:
 ---------------------------------------------------------------------
 Center     Atomic      Atomic             Coordinates (Angstroms)
 Number     Number       Type             X           Y           Z
 ---------------------------------------------------------------------
      1         11           0        1.509206    0.462224    1.799853
      2         11           0        0.309404   -1.939833    0.703181
      3         11           0       -4.211923   -0.102775   -0.289852
      4         11           0       -1.587508    0.448594    0.736235
      5         11           0        0.903805    2.151590   -0.475937
      6         11           0        0.175201   -0.438828   -1.695056
      7         11           0        2.901816   -0.580971   -0.778423
 ---------------------------------------------------------------------

 SCF Done:  E(UB3LYP) =  -1136.09125732     A.U. after   30 cycles

 The electronic state is 2-A.
 Alpha  occ. eigenvalues --  -38.45904 -38.44759 -38.44549 -38.44095 -38.43142
 Alpha  occ. eigenvalues --  -38.43017 -38.42265  -2.21699  -2.20759  -2.20673
 Alpha  occ. eigenvalues --   -2.20197  -2.19225  -2.19087  -2.18299  -1.15428
 Alpha  occ. eigenvalues --   -1.15332  -1.15319  -1.14614  -1.14460  -1.14395
 Alpha  occ. eigenvalues --   -1.14339  -1.14292  -1.14195  -1.13914  -1.13843
 Alpha  occ. eigenvalues --   -1.13812  -1.13012  -1.12886  -1.12839  -1.12762
 Alpha  occ. eigenvalues --   -1.12737  -1.12630  -1.12008  -1.11960  -1.11892
 Alpha  occ. eigenvalues --   -0.20510  -0.13885  -0.12261  -0.11272
 Alpha virt. eigenvalues --   -0.07516  -0.03926  -0.03462  -0.03353  -0.02808
 Alpha virt. eigenvalues --   -0.02621  -0.02407  -0.00965  -0.00407   0.00010
 Alpha virt. eigenvalues --    0.00275   0.00313   0.00401   0.00838   0.01051

  Beta  occ. eigenvalues --  -38.45908 -38.44726 -38.44480 -38.44017 -38.43118
  Beta  occ. eigenvalues --  -38.42988 -38.42244  -2.21706  -2.20701  -2.20552
  Beta  occ. eigenvalues --   -2.20058  -2.19186  -2.19042  -2.18266  -1.15435
  Beta  occ. eigenvalues --   -1.15335  -1.15323  -1.14548  -1.14399  -1.14322
  Beta  occ. eigenvalues --   -1.14286  -1.14209  -1.14113  -1.13814  -1.13741
  Beta  occ. eigenvalues --   -1.13708  -1.12987  -1.12830  -1.12801  -1.12742
  Beta  occ. eigenvalues --   -1.12658  -1.12597  -1.11987  -1.11917  -1.11855
  Beta  occ. eigenvalues --   -0.19620  -0.13721  -0.11040
  Beta virt. eigenvalues --   -0.07864  -0.07363  -0.03539  -0.03275  -0.03048
  Beta virt. eigenvalues --   -0.02559  -0.01916  -0.01583  -0.00687  -0.00280
  Beta virt. eigenvalues --    0.00029   0.00316   0.00386   0.00473   0.00883

 Mulliken charges and spin densities:
               1          2
     1  Na   1.129325   0.119991
     2  Na  -0.716408   0.064639
     3  Na   0.332388  -0.095507
     4  Na  -0.377409   0.298642
     5  Na  -1.049482  -0.082817
     6  Na   0.451230   0.729622
     7  Na   0.230357  -0.034571
 Sum of Mulliken charges =  -0.00000   1.00000

 Dipole moment (field-independent basis, Debye):
    X=             -0.7048    Y=             -0.1097    Z=             -0.2818  Tot=              0.7669
 Quadrupole moment (field-independent basis, Debye-Ang):
   XX=            -44.7627   YY=            -79.2543   ZZ=            -67.1602
   XY=              0.9577   XZ=              2.1116   YZ=             -1.4078

 Normal termination of Gaussian 16 at Sat Dec  9 06:01:55 2023.
