 Gaussian 16, Revision B.01,
 Gaussian 16:  ES64L-G16RevB.01 20-Dec-2017

 -------------------------
 #P B3LYP/6-311+g(d) force
 -------------------------

 -----
 DPGEN
 -----
 Symbolic Z-matrix:
 Charge =  0 Multiplicity = 2

                         Standard orientation:
 ---------------------------------------------------------------------
 Center     Atomic      Atomic             Coordinates (Angstroms)
 Number     Number       Type             X           Y           Z
 ---------------------------------------------------------------------
      1         11           0        2.864189   -1.404156   -0.292810
      2         11           0       -0.306961    0.231363    1.931488
      3         11           0       -0.198058   -0.056659   -1.819156
      4         11           0       -3.039524   -0.692679   -0.220977
      5         11           0        1.985499    1.818901    0.189326
      6         11           0       -0.358485   -2.614116    0.381688
      7         11           0       -0.946658    2.717346   -0.169559
 ---------------------------------------------------------------------

 SCF Done:  E(UB3LYP) =  -1136.13792393     A.U. after   18 cycles

 The electronic state is 2-A.
 Alpha  occ. eigenvalues --  -38.43810 -38.43569 -38.43454 -38.43439 -38.43370
 Alpha  occ. eigenvalues --  -38.43369 -38.43351  -2.19663  -2.19530  -2.19408
 Alpha  occ. eigenvalues --   -2.19295  -2.19280  -2.19272  -2.19258  -1.13353
 Alpha  occ. eigenvalues --   -1.13325  -1.13304  -1.13218  -1.13195  -1.13152
 Alpha  occ. eigenvalues --   -1.13099  -1.13076  -1.13033  -1.13027  -1.12978
 Alpha  occ. eigenvalues --   -1.12960  -1.12951  -1.12942  -1.12939  -1.12926
 Alpha  occ. eigenvalues --   -1.12909  -1.12907  -1.12895  -1.12866  -1.12831
 Alpha  occ. eigenvalues --   -0.19109  -0.13022  -0.12628  -0.11120
 Alpha virt. eigenvalues --   -0.05334  -0.04861  -0.04716  -0.03321  -0.03005
 Alpha virt. eigenvalues --   -0.02753  -0.01378  -0.01025  -0.00130  -0.00007
 Alpha virt. eigenvalues --    0.00058   0.00363   0.00871   0.00929   0.00954

  Beta  occ. eigenvalues --  -38.43804 -38.43480 -38.43453 -38.43362 -38.43361
  Beta  occ. eigenvalues --  -38.43358 -38.43344  -2.19657  -2.19368  -2.19286
  Beta  occ. eigenvalues --   -2.19281  -2.19266  -2.19254  -2.19249  -1.13342
  Beta  occ. eigenvalues --   -1.13305  -1.13297  -1.13129  -1.13093  -1.13045
  Beta  occ. eigenvalues --   -1.13038  -1.13004  -1.12988  -1.12970  -1.12944
  Beta  occ. eigenvalues --   -1.12935  -1.12918  -1.12917  -1.12910  -1.12897
  Beta  occ. eigenvalues --   -1.12887  -1.12884  -1.12862  -1.12858  -1.12828
  Beta  occ. eigenvalues --   -0.18346  -0.12753  -0.12389
  Beta virt. eigenvalues --   -0.07158  -0.05301  -0.04848  -0.04683  -0.02459
  Beta virt. eigenvalues --   -0.02264  -0.01677  -0.01302  -0.00965  -0.00081
  Beta virt. eigenvalues --   -0.00061   0.00124   0.00380   0.00904   0.00917

 Mulliken charges and spin densities:
               1          2
     1  Na  -0.051210  -0.074923
     2  Na  -0.288270   0.514281
     3  Na  -0.431422   0.716839
     4  Na   0.172478  -0.113206
     5  Na   0.186789   0.033015
     6  Na   0.175095   0.024429
     7  Na   0.236542  -0.100433
 Sum of Mulliken charges =  -0.00000   1.00000

 Dipole moment (field-independent basis, Debye):
    X=             -0.3124    Y=             -0.0272    Z=             -0.0096  Tot=              0.3138
 Quadrupole moment (field-independent basis, Debye-Ang):
   XX=            -58.5080   YY=            -63.5315   ZZ=            -72.4097
   XY=             -0.5487   XZ=              0.1986   YZ=             -0.4562

 Normal termination of Gaussian 16 at Thu Dec  7 12:39:05 2023.
