 Gaussian 16, Revision B.01,
 Gaussian 16:  ES64L-G16RevB.01 20-Dec-2017

 -------------------------
 #P B3LYP/6-311+g(d) force
 -------------------------

 -----
 DPGEN
 -----
 Symbolic Z-matrix:
 Charge =  0 Multiplicity = 2

                         Standard orientation:
 ---------------------------------------------------------------------
 Center     Atomic      Atomic             Coordinates (Angstroms)
 Number     Number       Type             X           Y           Z
 ---------------------------------------------------------------------
      1         11           0        0.385747    0.191593    1.868197
      2         11           0        2.508376   -1.029509   -0.131958
      3         11           0        1.590275    2.029863   -0.343272
      4         11           0        0.000885   -0.220209   -1.803849
      5         11           0       -1.467841    2.196541    0.294644
      6         11           0       -2.659934   -0.595949   -0.274444
      7         11           0       -0.357508   -2.572331    0.390682
 ---------------------------------------------------------------------

 SCF Done:  E(UB3LYP) =  -1136.12848581     A.U. after   19 cycles

 The electronic state is 2-A.
 Alpha  occ. eigenvalues --  -38.43616 -38.43528 -38.43379 -38.43332 -38.43253
 Alpha  occ. eigenvalues --  -38.43196 -38.43191  -2.19670  -2.19610  -2.19334
 Alpha  occ. eigenvalues --   -2.19306  -2.19251  -2.19159  -2.19155  -1.13389
 Alpha  occ. eigenvalues --   -1.13335  -1.13322  -1.13310  -1.13294  -1.13251
 Alpha  occ. eigenvalues --   -1.13043  -1.13023  -1.12995  -1.12980  -1.12963
 Alpha  occ. eigenvalues --   -1.12954  -1.12948  -1.12898  -1.12859  -1.12823
 Alpha  occ. eigenvalues --   -1.12814  -1.12805  -1.12778  -1.12761  -1.12737
 Alpha  occ. eigenvalues --   -0.20176  -0.13211  -0.12974  -0.11653
 Alpha virt. eigenvalues --   -0.04872  -0.04670  -0.04515  -0.03388  -0.03291
 Alpha virt. eigenvalues --   -0.02901  -0.00977  -0.00825  -0.00083   0.00363
 Alpha virt. eigenvalues --    0.00408   0.00443   0.01004   0.01037   0.01049

  Beta  occ. eigenvalues --  -38.43529 -38.43444 -38.43372 -38.43323 -38.43240
  Beta  occ. eigenvalues --  -38.43184 -38.43182  -2.19511  -2.19458  -2.19326
  Beta  occ. eigenvalues --   -2.19294  -2.19232  -2.19144  -2.19142  -1.13301
  Beta  occ. eigenvalues --   -1.13225  -1.13222  -1.13206  -1.13192  -1.13150
  Beta  occ. eigenvalues --   -1.13042  -1.13008  -1.12978  -1.12957  -1.12938
  Beta  occ. eigenvalues --   -1.12932  -1.12901  -1.12853  -1.12840  -1.12809
  Beta  occ. eigenvalues --   -1.12793  -1.12765  -1.12756  -1.12747  -1.12731
  Beta  occ. eigenvalues --   -0.19389  -0.12908  -0.12673
  Beta virt. eigenvalues --   -0.07587  -0.04864  -0.04667  -0.04512  -0.02526
  Beta virt. eigenvalues --   -0.02421  -0.01773  -0.00914  -0.00766   0.00061
  Beta virt. eigenvalues --    0.00355   0.00388   0.00392   0.01020   0.01023

 Mulliken charges and spin densities:
               1          2
     1  Na  -0.750029   0.540324
     2  Na   0.377471  -0.051479
     3  Na   0.413698   0.013389
     4  Na  -0.721013   0.485851
     5  Na   0.227809   0.003648
     6  Na   0.183354  -0.008022
     7  Na   0.268710   0.016290
 Sum of Mulliken charges =  -0.00000   1.00000

 Dipole moment (field-independent basis, Debye):
    X=              0.0720    Y=             -0.0659    Z=              0.0621  Tot=              0.1156
 Quadrupole moment (field-independent basis, Debye-Ang):
   XX=            -61.8016   YY=            -64.1892   ZZ=            -70.0621
   XY=             -0.2405   XZ=             -0.6485   YZ=             -0.7753

 Normal termination of Gaussian 16 at Fri Dec  8 18:30:38 2023.
