 Gaussian 16, Revision B.01,
 Gaussian 16:  ES64L-G16RevB.01 20-Dec-2017

 -------------------------
 #P B3LYP/6-311+g(d) force
 -------------------------

 -----
 DPGEN
 -----
 Symbolic Z-matrix:
 Charge =  0 Multiplicity = 2

                         Standard orientation:
 ---------------------------------------------------------------------
 Center     Atomic      Atomic             Coordinates (Angstroms)
 Number     Number       Type             X           Y           Z
 ---------------------------------------------------------------------
      1         11           0       -1.869005    2.020573   -0.067733
      2         11           0        2.866269   -1.237645   -0.388670
      3         11           0       -3.174888   -0.979843   -0.190956
      4         11           0        0.323682    0.360797    1.992098
      5         11           0       -0.015741   -2.311748    0.436318
      6         11           0        1.864592    2.177403   -0.133206
      7         11           0        0.005091   -0.029537   -1.647850
 ---------------------------------------------------------------------

 SCF Done:  E(UB3LYP) =  -1136.13344633     A.U. after   19 cycles

 The electronic state is 2-A.
 Alpha  occ. eigenvalues --  -38.44083 -38.43945 -38.43564 -38.43452 -38.43371
 Alpha  occ. eigenvalues --  -38.43306 -38.42800  -2.19915  -2.19820  -2.19533
 Alpha  occ. eigenvalues --   -2.19407  -2.19345  -2.19196  -2.18768  -1.13587
 Alpha  occ. eigenvalues --   -1.13577  -1.13563  -1.13505  -1.13480  -1.13458
 Alpha  occ. eigenvalues --   -1.13226  -1.13191  -1.13148  -1.13123  -1.13106
 Alpha  occ. eigenvalues --   -1.13043  -1.13008  -1.12970  -1.12951  -1.12866
 Alpha  occ. eigenvalues --   -1.12855  -1.12807  -1.12468  -1.12432  -1.12364
 Alpha  occ. eigenvalues --   -0.19306  -0.13388  -0.12246  -0.11119
 Alpha virt. eigenvalues --   -0.05760  -0.05161  -0.03901  -0.03311  -0.02890
 Alpha virt. eigenvalues --   -0.02665  -0.01747  -0.01049  -0.00094   0.00003
 Alpha virt. eigenvalues --    0.00154   0.00341   0.00783   0.00898   0.00980

  Beta  occ. eigenvalues --  -38.44084 -38.43935 -38.43466 -38.43446 -38.43306
  Beta  occ. eigenvalues --  -38.43298 -38.42782  -2.19919  -2.19806  -2.19354
  Beta  occ. eigenvalues --   -2.19337  -2.19290  -2.19186  -2.18740  -1.13593
  Beta  occ. eigenvalues --   -1.13569  -1.13561  -1.13496  -1.13456  -1.13443
  Beta  occ. eigenvalues --   -1.13121  -1.13080  -1.13061  -1.13030  -1.13026
  Beta  occ. eigenvalues --   -1.12982  -1.12970  -1.12944  -1.12906  -1.12843
  Beta  occ. eigenvalues --   -1.12824  -1.12798  -1.12452  -1.12368  -1.12353
  Beta  occ. eigenvalues --   -0.18551  -0.13131  -0.11983
  Beta virt. eigenvalues --   -0.07120  -0.05690  -0.05170  -0.03901  -0.02551
  Beta virt. eigenvalues --   -0.02070  -0.01664  -0.01542  -0.01021  -0.00046
  Beta virt. eigenvalues --    0.00050   0.00149   0.00362   0.00841   0.00886

 Mulliken charges and spin densities:
               1          2
     1  Na   0.338638  -0.053718
     2  Na   0.165874  -0.010255
     3  Na  -0.043863  -0.062567
     4  Na  -0.537934   0.563079
     5  Na   0.524665   0.111652
     6  Na   0.306099  -0.061603
     7  Na  -0.753480   0.513412
 Sum of Mulliken charges =  -0.00000   1.00000

 Dipole moment (field-independent basis, Debye):
    X=             -0.0359    Y=              0.0918    Z=              0.0102  Tot=              0.0991
 Quadrupole moment (field-independent basis, Debye-Ang):
   XX=            -52.9710   YY=            -67.7868   ZZ=            -72.5416
   XY=              0.3911   XZ=             -0.7667   YZ=             -0.2387

 Normal termination of Gaussian 16 at Thu Dec  7 08:00:57 2023.
