 Gaussian 16, Revision B.01,
 Gaussian 16:  ES64L-G16RevB.01 20-Dec-2017

 -------------------------
 #P B3LYP/6-311+g(d) force
 -------------------------

 -----
 DPGEN
 -----
 Symbolic Z-matrix:
 Charge =  0 Multiplicity = 2

                         Standard orientation:
 ---------------------------------------------------------------------
 Center     Atomic      Atomic             Coordinates (Angstroms)
 Number     Number       Type             X           Y           Z
 ---------------------------------------------------------------------
      1         11           0       -0.312741    0.640720    0.805189
      2         11           0        6.649028    0.205667    0.781990
      3         11           0        4.006468    0.169130   -0.733258
      4         11           0        0.967371   -2.032113   -0.417861
      5         11           0       -2.751799   -0.920992   -0.774831
      6         11           0       -2.620255    2.740431   -0.520278
      7         11           0       -5.938072   -0.802842    0.859049
 ---------------------------------------------------------------------

 SCF Done:  E(UB3LYP) =  -1136.11066195     A.U. after   21 cycles

 The electronic state is 2-A.
 Alpha  occ. eigenvalues --  -38.45059 -38.44788 -38.44746 -38.44739 -38.43751
 Alpha  occ. eigenvalues --  -38.43372 -38.43352  -2.20876  -2.20618  -2.20576
 Alpha  occ. eigenvalues --   -2.20557  -2.19582  -2.19173  -2.19160  -1.14534
 Alpha  occ. eigenvalues --   -1.14526  -1.14479  -1.14339  -1.14292  -1.14276
 Alpha  occ. eigenvalues --   -1.14249  -1.14232  -1.14208  -1.14206  -1.14184
 Alpha  occ. eigenvalues --   -1.14146  -1.13251  -1.13234  -1.13216  -1.12945
 Alpha  occ. eigenvalues --   -1.12850  -1.12833  -1.12811  -1.12806  -1.12713
 Alpha  occ. eigenvalues --   -0.16971  -0.13615  -0.12004  -0.11450
 Alpha virt. eigenvalues --   -0.06535  -0.05769  -0.04492  -0.03376  -0.02886
 Alpha virt. eigenvalues --   -0.02767  -0.02063  -0.01586  -0.01226  -0.00850
 Alpha virt. eigenvalues --   -0.00675  -0.00434   0.00055   0.00440   0.00510

  Beta  occ. eigenvalues --  -38.44968 -38.44734 -38.44721 -38.44713 -38.43733
  Beta  occ. eigenvalues --  -38.43383 -38.43350  -2.20710  -2.20591  -2.20557
  Beta  occ. eigenvalues --   -2.20418  -2.19549  -2.19184  -2.19163  -1.14415
  Beta  occ. eigenvalues --   -1.14411  -1.14372  -1.14324  -1.14273  -1.14257
  Beta  occ. eigenvalues --   -1.14215  -1.14190  -1.14151  -1.14114  -1.14103
  Beta  occ. eigenvalues --   -1.14072  -1.13231  -1.13216  -1.13187  -1.12953
  Beta  occ. eigenvalues --   -1.12849  -1.12839  -1.12820  -1.12811  -1.12721
  Beta  occ. eigenvalues --   -0.16352  -0.13396  -0.11187
  Beta virt. eigenvalues --   -0.08092  -0.06170  -0.05539  -0.04209  -0.03065
  Beta virt. eigenvalues --   -0.02655  -0.02302  -0.01706  -0.01178  -0.01088
  Beta virt. eigenvalues --   -0.00675  -0.00465  -0.00311   0.00265   0.00461

 Mulliken charges and spin densities:
               1          2
     1  Na  -0.446425   0.287173
     2  Na   0.211148  -0.043286
     3  Na  -0.421930  -0.064142
     4  Na   0.266619   0.111974
     5  Na  -0.136101   0.247228
     6  Na   0.264111   0.244394
     7  Na   0.262578   0.216660
 Sum of Mulliken charges =  -0.00000   1.00000

 Dipole moment (field-independent basis, Debye):
    X=             -1.9919    Y=              0.3086    Z=              0.2316  Tot=              2.0289
 Quadrupole moment (field-independent basis, Debye-Ang):
   XX=            -70.9948   YY=            -66.7435   ZZ=            -67.0646
   XY=             -3.5957   XZ=              1.7755   YZ=              0.8051

 Normal termination of Gaussian 16 at Tue Nov 28 20:17:08 2023.
