 Gaussian 16, Revision B.01,
 Gaussian 16:  ES64L-G16RevB.01 20-Dec-2017

 -------------------------
 #P B3LYP/6-311+g(d) force
 -------------------------

 -----
 DPGEN
 -----
 Symbolic Z-matrix:
 Charge =  0 Multiplicity = 2

                         Standard orientation:
 ---------------------------------------------------------------------
 Center     Atomic      Atomic             Coordinates (Angstroms)
 Number     Number       Type             X           Y           Z
 ---------------------------------------------------------------------
      1         11           0       -2.010804   -2.244249   -0.282807
      2         11           0       -3.243681    0.721163    0.179625
      3         11           0        2.646975   -1.769816   -0.269822
      4         11           0        2.843116    1.243798    0.318878
      5         11           0        0.212072   -0.397664   -1.346308
      6         11           0       -0.369670    2.571204   -0.741753
      7         11           0       -0.078009   -0.124436    2.142186
 ---------------------------------------------------------------------

 SCF Done:  E(UB3LYP) =  -1136.12572365     A.U. after   19 cycles

 The electronic state is 2-A.
 Alpha  occ. eigenvalues --  -38.44832 -38.44303 -38.44126 -38.44051 -38.43586
 Alpha  occ. eigenvalues --  -38.43136 -38.42603  -2.20654  -2.20174  -2.20009
 Alpha  occ. eigenvalues --   -2.19910  -2.19453  -2.19205  -2.18473  -1.14327
 Alpha  occ. eigenvalues --   -1.14315  -1.14296  -1.13906  -1.13832  -1.13815
 Alpha  occ. eigenvalues --   -1.13728  -1.13631  -1.13621  -1.13584  -1.13532
 Alpha  occ. eigenvalues --   -1.13521  -1.13191  -1.13093  -1.13088  -1.12878
 Alpha  occ. eigenvalues --   -1.12865  -1.12816  -1.12183  -1.12111  -1.12091
 Alpha  occ. eigenvalues --   -0.18809  -0.13855  -0.11723  -0.10835
 Alpha virt. eigenvalues --   -0.06400  -0.05458  -0.03806  -0.03622  -0.02587
 Alpha virt. eigenvalues --   -0.02457  -0.02103  -0.01174  -0.00360  -0.00153
 Alpha virt. eigenvalues --    0.00026   0.00321   0.00689   0.00784   0.00808

  Beta  occ. eigenvalues --  -38.44831 -38.44297 -38.44120 -38.43952 -38.43582
  Beta  occ. eigenvalues --  -38.43079 -38.42586  -2.20656  -2.20165  -2.20002
  Beta  occ. eigenvalues --   -2.19728  -2.19448  -2.19104  -2.18446  -1.14327
  Beta  occ. eigenvalues --   -1.14306  -1.14296  -1.13906  -1.13816  -1.13796
  Beta  occ. eigenvalues --   -1.13713  -1.13621  -1.13609  -1.13463  -1.13407
  Beta  occ. eigenvalues --   -1.13388  -1.13177  -1.13088  -1.13072  -1.12801
  Beta  occ. eigenvalues --   -1.12786  -1.12749  -1.12157  -1.12081  -1.12074
  Beta  occ. eigenvalues --   -0.18093  -0.13658  -0.11466
  Beta virt. eigenvalues --   -0.06905  -0.06296  -0.05434  -0.03753  -0.02843
  Beta virt. eigenvalues --   -0.01993  -0.01816  -0.01468  -0.01098  -0.00409
  Beta virt. eigenvalues --   -0.00083   0.00134   0.00357   0.00756   0.00815

 Mulliken charges and spin densities:
               1          2
     1  Na   0.215050   0.138943
     2  Na   0.082466   0.028272
     3  Na   0.276475   0.141536
     4  Na   0.167032   0.146672
     5  Na  -0.319326  -0.220109
     6  Na   0.138970   0.141020
     7  Na  -0.560668   0.623667
 Sum of Mulliken charges =  -0.00000   1.00000

 Dipole moment (field-independent basis, Debye):
    X=             -0.1060    Y=             -0.0674    Z=              0.5078  Tot=              0.5231
 Quadrupole moment (field-independent basis, Debye-Ang):
   XX=            -49.7699   YY=            -68.8104   ZZ=            -74.5220
   XY=             -0.3220   XZ=              0.2475   YZ=              0.3341

 Normal termination of Gaussian 16 at Thu Dec  7 14:03:10 2023.
