 Gaussian 16, Revision B.01,
 Gaussian 16:  ES64L-G16RevB.01 20-Dec-2017

 -------------------------
 #P B3LYP/6-311+g(d) force
 -------------------------

 -----
 DPGEN
 -----
 Symbolic Z-matrix:
 Charge =  0 Multiplicity = 2

                         Standard orientation:
 ---------------------------------------------------------------------
 Center     Atomic      Atomic             Coordinates (Angstroms)
 Number     Number       Type             X           Y           Z
 ---------------------------------------------------------------------
      1         11           0       -0.154197   -0.178330    2.266268
      2         11           0        0.532281   -2.619061    0.730259
      3         11           0        3.491560   -0.418262   -1.369292
      4         11           0        1.827683    2.157155    0.988964
      5         11           0       -3.514247   -0.945114   -0.506196
      6         11           0       -0.073546   -0.103294   -1.618782
      7         11           0       -2.109534    2.106905   -0.491222
 ---------------------------------------------------------------------

 SCF Done:  E(UB3LYP) =  -1136.12161151     A.U. after   23 cycles

 The electronic state is 2-A.
 Alpha  occ. eigenvalues --  -38.44961 -38.44873 -38.44200 -38.44115 -38.43725
 Alpha  occ. eigenvalues --  -38.43470 -38.42559  -2.20738  -2.20651  -2.20094
 Alpha  occ. eigenvalues --   -2.20029  -2.19533  -2.19307  -2.18415  -1.14405
 Alpha  occ. eigenvalues --   -1.14371  -1.14359  -1.14335  -1.14298  -1.14283
 Alpha  occ. eigenvalues --   -1.13799  -1.13760  -1.13714  -1.13707  -1.13667
 Alpha  occ. eigenvalues --   -1.13646  -1.13224  -1.13171  -1.13160  -1.13007
 Alpha  occ. eigenvalues --   -1.12974  -1.12920  -1.12133  -1.12069  -1.12020
 Alpha  occ. eigenvalues --   -0.17939  -0.13182  -0.11895  -0.11284
 Alpha virt. eigenvalues --   -0.06294  -0.05087  -0.04069  -0.03307  -0.03174
 Alpha virt. eigenvalues --   -0.03003  -0.02233  -0.01105  -0.00473  -0.00125
 Alpha virt. eigenvalues --    0.00132   0.00215   0.00607   0.00701   0.00752

  Beta  occ. eigenvalues --  -38.44904 -38.44869 -38.44165 -38.44028 -38.43694
  Beta  occ. eigenvalues --  -38.43472 -38.42557  -2.20644  -2.20632  -2.20030
  Beta  occ. eigenvalues --   -2.19870  -2.19478  -2.19313  -2.18414  -1.14329
  Beta  occ. eigenvalues --   -1.14324  -1.14299  -1.14293  -1.14291  -1.14279
  Beta  occ. eigenvalues --   -1.13747  -1.13721  -1.13657  -1.13612  -1.13544
  Beta  occ. eigenvalues --   -1.13535  -1.13172  -1.13138  -1.13114  -1.13010
  Beta  occ. eigenvalues --   -1.12976  -1.12916  -1.12122  -1.12060  -1.12021
  Beta  occ. eigenvalues --   -0.17254  -0.12781  -0.11092
  Beta virt. eigenvalues --   -0.08032  -0.06124  -0.04814  -0.03775  -0.03018
  Beta virt. eigenvalues --   -0.02477  -0.02266  -0.01980  -0.00910  -0.00420
  Beta virt. eigenvalues --   -0.00020   0.00156   0.00281   0.00681   0.00799

 Mulliken charges and spin densities:
               1          2
     1  Na   0.488110   0.295624
     2  Na  -0.384828   0.020060
     3  Na   0.199730   0.249574
     4  Na  -0.356547   0.151830
     5  Na   0.039687  -0.043830
     6  Na  -0.049558   0.267722
     7  Na   0.063407   0.059019
 Sum of Mulliken charges =  -0.00000   1.00000

 Dipole moment (field-independent basis, Debye):
    X=             -0.2803    Y=             -0.1290    Z=             -0.2990  Tot=              0.4297
 Quadrupole moment (field-independent basis, Debye-Ang):
   XX=            -52.7459   YY=            -71.8564   ZZ=            -69.7776
   XY=              0.9278   XZ=             -1.9524   YZ=              4.5236

 Normal termination of Gaussian 16 at Sun Dec  3 23:36:25 2023.
