 Gaussian 16, Revision B.01,
 Gaussian 16:  ES64L-G16RevB.01 20-Dec-2017

 -------------------------
 #P B3LYP/6-311+g(d) force
 -------------------------

 -----
 DPGEN
 -----
 Symbolic Z-matrix:
 Charge =  0 Multiplicity = 2

                         Standard orientation:
 ---------------------------------------------------------------------
 Center     Atomic      Atomic             Coordinates (Angstroms)
 Number     Number       Type             X           Y           Z
 ---------------------------------------------------------------------
      1         11           0        3.318843    0.232854    1.181065
      2         11           0       -3.375595   -2.155886    0.711239
      3         11           0       -0.409825    3.100104   -0.538878
      4         11           0       -2.830375    0.579196   -1.017544
      5         11           0       -0.460702    0.605398    1.751162
      6         11           0       -0.024706   -1.069385   -1.071935
      7         11           0        3.782361   -1.292281   -1.015110
 ---------------------------------------------------------------------

 SCF Done:  E(UB3LYP) =  -1136.11492126     A.U. after   24 cycles

 The electronic state is 2-A.
 Alpha  occ. eigenvalues --  -38.45333 -38.44961 -38.44358 -38.44201 -38.43654
 Alpha  occ. eigenvalues --  -38.43609 -38.43039  -2.21165  -2.20826  -2.20229
 Alpha  occ. eigenvalues --   -2.20108  -2.19495  -2.19458  -2.18851  -1.14890
 Alpha  occ. eigenvalues --   -1.14835  -1.14759  -1.14697  -1.14463  -1.14433
 Alpha  occ. eigenvalues --   -1.13864  -1.13843  -1.13829  -1.13814  -1.13775
 Alpha  occ. eigenvalues --   -1.13702  -1.13207  -1.13140  -1.13122  -1.13114
 Alpha  occ. eigenvalues --   -1.13099  -1.13083  -1.12522  -1.12508  -1.12495
 Alpha  occ. eigenvalues --   -0.17893  -0.14280  -0.11593  -0.10538
 Alpha virt. eigenvalues --   -0.06983  -0.05285  -0.04685  -0.03316  -0.02918
 Alpha virt. eigenvalues --   -0.02625  -0.02015  -0.01290  -0.00920  -0.00443
 Alpha virt. eigenvalues --   -0.00037   0.00119   0.00340   0.00568   0.00716

  Beta  occ. eigenvalues --  -38.45303 -38.44950 -38.44343 -38.44173 -38.43644
  Beta  occ. eigenvalues --  -38.43544 -38.43034  -2.21112  -2.20808  -2.20202
  Beta  occ. eigenvalues --   -2.20059  -2.19440  -2.19375  -2.18844  -1.14835
  Beta  occ. eigenvalues --   -1.14791  -1.14725  -1.14675  -1.14450  -1.14418
  Beta  occ. eigenvalues --   -1.13846  -1.13823  -1.13806  -1.13773  -1.13738
  Beta  occ. eigenvalues --   -1.13665  -1.13129  -1.13128  -1.13094  -1.13072
  Beta  occ. eigenvalues --   -1.13031  -1.13011  -1.12520  -1.12495  -1.12483
  Beta  occ. eigenvalues --   -0.17261  -0.14104  -0.11387
  Beta virt. eigenvalues --   -0.06941  -0.06750  -0.04654  -0.04518  -0.03137
  Beta virt. eigenvalues --   -0.02658  -0.02181  -0.01387  -0.01162  -0.00578
  Beta virt. eigenvalues --   -0.00343   0.00145   0.00183   0.00472   0.00655

 Mulliken charges and spin densities:
               1          2
     1  Na  -0.065688  -0.042578
     2  Na   0.311401  -0.019942
     3  Na  -0.085209  -0.027962
     4  Na   0.746364   0.123973
     5  Na  -0.296783   0.578556
     6  Na  -0.741401   0.251720
     7  Na   0.131315   0.136232
 Sum of Mulliken charges =  -0.00000   1.00000

 Dipole moment (field-independent basis, Debye):
    X=              0.3306    Y=              0.0363    Z=             -0.1670  Tot=              0.3722
 Quadrupole moment (field-independent basis, Debye-Ang):
   XX=            -56.2335   YY=            -69.4953   ZZ=            -71.4235
   XY=              0.7098   XZ=             -0.1994   YZ=             -0.5445

 Normal termination of Gaussian 16 at Tue Dec  5 23:45:58 2023.
