 Gaussian 16, Revision B.01,
 Gaussian 16:  ES64L-G16RevB.01 20-Dec-2017

 -------------------------
 #P B3LYP/6-311+g(d) force
 -------------------------

 -----
 DPGEN
 -----
 Symbolic Z-matrix:
 Charge =  0 Multiplicity = 2

                         Standard orientation:
 ---------------------------------------------------------------------
 Center     Atomic      Atomic             Coordinates (Angstroms)
 Number     Number       Type             X           Y           Z
 ---------------------------------------------------------------------
      1         11           0       -4.743069   -0.400933    0.208238
      2         11           0        3.692314    1.964891   -0.592287
      3         11           0        0.713072    2.897480    0.661688
      4         11           0       -3.005563    2.762757   -0.327026
      5         11           0        1.394845   -2.642095   -0.092081
      6         11           0       -2.797959   -2.984297   -0.155992
      7         11           0        4.746360   -1.597803    0.297459
 ---------------------------------------------------------------------

 SCF Done:  E(UB3LYP) =  -1136.10403534     A.U. after   26 cycles

 The electronic state is 2-A.
 Alpha  occ. eigenvalues --  -38.45859 -38.45080 -38.44999 -38.44625 -38.44227
 Alpha  occ. eigenvalues --  -38.44221 -38.43825  -2.21580  -2.20851  -2.20783
 Alpha  occ. eigenvalues --   -2.20403  -2.19998  -2.19987  -2.19620  -1.15272
 Alpha  occ. eigenvalues --   -1.15263  -1.15189  -1.14533  -1.14526  -1.14500
 Alpha  occ. eigenvalues --   -1.14450  -1.14439  -1.14405  -1.14066  -1.14051
 Alpha  occ. eigenvalues --   -1.14033  -1.13671  -1.13668  -1.13658  -1.13646
 Alpha  occ. eigenvalues --   -1.13628  -1.13608  -1.13274  -1.13268  -1.13257
 Alpha  occ. eigenvalues --   -0.15408  -0.14137  -0.12912  -0.10742
 Alpha virt. eigenvalues --   -0.07926  -0.05039  -0.04731  -0.03446  -0.03404
 Alpha virt. eigenvalues --   -0.02773  -0.02355  -0.02050  -0.01081  -0.00790
 Alpha virt. eigenvalues --   -0.00536  -0.00335  -0.00025   0.00174   0.00404

  Beta  occ. eigenvalues --  -38.45846 -38.45083 -38.44949 -38.44587 -38.44229
  Beta  occ. eigenvalues --  -38.44156 -38.43773  -2.21559  -2.20861  -2.20694
  Beta  occ. eigenvalues --   -2.20335  -2.19995  -2.19876  -2.19523  -1.15261
  Beta  occ. eigenvalues --   -1.15251  -1.15150  -1.14545  -1.14534  -1.14472
  Beta  occ. eigenvalues --   -1.14391  -1.14376  -1.14334  -1.14020  -1.14002
  Beta  occ. eigenvalues --   -1.13985  -1.13680  -1.13676  -1.13603  -1.13576
  Beta  occ. eigenvalues --   -1.13564  -1.13533  -1.13208  -1.13206  -1.13191
  Beta  occ. eigenvalues --   -0.14896  -0.13469  -0.12186
  Beta virt. eigenvalues --   -0.08055  -0.07632  -0.04590  -0.04320  -0.03233
  Beta virt. eigenvalues --   -0.03101  -0.02571  -0.02043  -0.01847  -0.00848
  Beta virt. eigenvalues --   -0.00553  -0.00328  -0.00042   0.00038   0.00199

 Mulliken charges and spin densities:
               1          2
     1  Na  -0.071647   0.020096
     2  Na   0.122082   0.211403
     3  Na  -0.411950  -0.051196
     4  Na   0.058505   0.320591
     5  Na  -0.312721   0.222336
     6  Na   0.122321   0.237289
     7  Na   0.493411   0.039481
 Sum of Mulliken charges =  -0.00000   1.00000

 Dipole moment (field-independent basis, Debye):
    X=              1.0410    Y=             -0.2574    Z=             -0.0552  Tot=              1.0738
 Quadrupole moment (field-independent basis, Debye-Ang):
   XX=            -52.1712   YY=            -74.9631   ZZ=            -72.9728
   XY=              0.8396   XZ=             -1.4402   YZ=             -0.5754

 Normal termination of Gaussian 16 at Sun Dec  3 14:07:12 2023.
