 Gaussian 16, Revision B.01,
 Gaussian 16:  ES64L-G16RevB.01 20-Dec-2017

 -------------------------
 #P B3LYP/6-311+g(d) force
 -------------------------

 -----
 DPGEN
 -----
 Symbolic Z-matrix:
 Charge =  0 Multiplicity = 2

                         Standard orientation:
 ---------------------------------------------------------------------
 Center     Atomic      Atomic             Coordinates (Angstroms)
 Number     Number       Type             X           Y           Z
 ---------------------------------------------------------------------
      1         11           0       -3.496639    0.014961   -0.057954
      2         11           0       -1.318802   -2.221268    0.416717
      3         11           0        2.573843   -2.127177   -0.242537
      4         11           0        0.210230    0.329014    1.956071
      5         11           0       -0.012553   -0.267121   -1.815295
      6         11           0        3.108680    1.694912    0.063142
      7         11           0       -1.064758    2.576679   -0.320144
 ---------------------------------------------------------------------

 SCF Done:  E(UB3LYP) =  -1136.12946479     A.U. after   20 cycles

 The electronic state is 2-A.
 Alpha  occ. eigenvalues --  -38.44808 -38.44780 -38.44061 -38.43687 -38.43635
 Alpha  occ. eigenvalues --  -38.43225 -38.43035  -2.20600  -2.20555  -2.19840
 Alpha  occ. eigenvalues --   -2.19570  -2.19545  -2.19063  -2.18939  -1.14287
 Alpha  occ. eigenvalues --   -1.14258  -1.14237  -1.14235  -1.14205  -1.14196
 Alpha  occ. eigenvalues --   -1.13521  -1.13493  -1.13481  -1.13262  -1.13233
 Alpha  occ. eigenvalues --   -1.13207  -1.13193  -1.13180  -1.13150  -1.12751
 Alpha  occ. eigenvalues --   -1.12737  -1.12677  -1.12629  -1.12604  -1.12560
 Alpha  occ. eigenvalues --   -0.18304  -0.13180  -0.11821  -0.10698
 Alpha virt. eigenvalues --   -0.06496  -0.05585  -0.03896  -0.03303  -0.02762
 Alpha virt. eigenvalues --   -0.02530  -0.02160  -0.01445  -0.00507  -0.00165
 Alpha virt. eigenvalues --   -0.00072   0.00267   0.00637   0.00699   0.00791

  Beta  occ. eigenvalues --  -38.44810 -38.44780 -38.44058 -38.43602 -38.43563
  Beta  occ. eigenvalues --  -38.43214 -38.43018  -2.20603  -2.20560  -2.19836
  Beta  occ. eigenvalues --   -2.19416  -2.19411  -2.19046  -2.18914  -1.14290
  Beta  occ. eigenvalues --   -1.14246  -1.14234  -1.14228  -1.14210  -1.14201
  Beta  occ. eigenvalues --   -1.13503  -1.13490  -1.13481  -1.13166  -1.13137
  Beta  occ. eigenvalues --   -1.13100  -1.13095  -1.13065  -1.13051  -1.12739
  Beta  occ. eigenvalues --   -1.12704  -1.12666  -1.12615  -1.12561  -1.12536
  Beta  occ. eigenvalues --   -0.17559  -0.13000  -0.11567
  Beta virt. eigenvalues --   -0.06812  -0.06412  -0.05568  -0.03862  -0.02596
  Beta virt. eigenvalues --   -0.02126  -0.01963  -0.01477  -0.01379  -0.00553
  Beta virt. eigenvalues --   -0.00150   0.00055   0.00293   0.00709   0.00780

 Mulliken charges and spin densities:
               1          2
     1  Na   0.092957  -0.052370
     2  Na   0.290542   0.063934
     3  Na   0.069031  -0.072568
     4  Na  -0.266267   0.644730
     5  Na  -0.251663   0.653957
     6  Na  -0.016991  -0.140187
     7  Na   0.082391  -0.097497
 Sum of Mulliken charges =  -0.00000   1.00000

 Dipole moment (field-independent basis, Debye):
    X=              0.2631    Y=              0.1876    Z=             -0.0287  Tot=              0.3244
 Quadrupole moment (field-independent basis, Debye-Ang):
   XX=            -49.1504   YY=            -68.3095   ZZ=            -74.7225
   XY=              0.0181   XZ=             -0.2508   YZ=             -0.9886

 Normal termination of Gaussian 16 at Tue Dec  5 18:47:23 2023.
