 Gaussian 16, Revision B.01,
 Gaussian 16:  ES64L-G16RevB.01 20-Dec-2017

 -------------------------
 #P B3LYP/6-311+g(d) force
 -------------------------

 -----
 DPGEN
 -----
 Symbolic Z-matrix:
 Charge =  0 Multiplicity = 2

                         Standard orientation:
 ---------------------------------------------------------------------
 Center     Atomic      Atomic             Coordinates (Angstroms)
 Number     Number       Type             X           Y           Z
 ---------------------------------------------------------------------
      1         11           0       -3.504393   -1.444448    0.342185
      2         11           0        2.414620   -2.390092   -0.116369
      3         11           0       -1.063090    0.617087    1.810250
      4         11           0        3.076087    0.540767    1.074838
      5         11           0        1.738514    2.353639   -1.130096
      6         11           0       -2.201420    2.435989   -0.661184
      7         11           0       -0.460317   -2.112943   -1.319624
 ---------------------------------------------------------------------

 SCF Done:  E(UB3LYP) =  -1136.11642879     A.U. after   23 cycles

 The electronic state is 2-A.
 Alpha  occ. eigenvalues --  -38.45059 -38.44670 -38.44478 -38.44451 -38.44124
 Alpha  occ. eigenvalues --  -38.43864 -38.43402  -2.20837  -2.20452  -2.20274
 Alpha  occ. eigenvalues --   -2.20265  -2.19954  -2.19719  -2.19232  -1.14511
 Alpha  occ. eigenvalues --   -1.14496  -1.14472  -1.14154  -1.14114  -1.14071
 Alpha  occ. eigenvalues --   -1.13957  -1.13941  -1.13931  -1.13928  -1.13893
 Alpha  occ. eigenvalues --   -1.13885  -1.13652  -1.13626  -1.13603  -1.13381
 Alpha  occ. eigenvalues --   -1.13356  -1.13352  -1.12903  -1.12879  -1.12862
 Alpha  occ. eigenvalues --   -0.17170  -0.13699  -0.12407  -0.10136
 Alpha virt. eigenvalues --   -0.06929  -0.05909  -0.04361  -0.03723  -0.03199
 Alpha virt. eigenvalues --   -0.02105  -0.01947  -0.01510  -0.00904  -0.00392
 Alpha virt. eigenvalues --   -0.00201   0.00089   0.00285   0.00414   0.00625

  Beta  occ. eigenvalues --  -38.45050 -38.44648 -38.44457 -38.44407 -38.44119
  Beta  occ. eigenvalues --  -38.43833 -38.43363  -2.20823  -2.20413  -2.20227
  Beta  occ. eigenvalues --   -2.20192  -2.19948  -2.19662  -2.19160  -1.14496
  Beta  occ. eigenvalues --   -1.14484  -1.14460  -1.14126  -1.14086  -1.14032
  Beta  occ. eigenvalues --   -1.13924  -1.13901  -1.13887  -1.13872  -1.13864
  Beta  occ. eigenvalues --   -1.13823  -1.13636  -1.13612  -1.13598  -1.13341
  Beta  occ. eigenvalues --   -1.13319  -1.13312  -1.12856  -1.12829  -1.12808
  Beta  occ. eigenvalues --   -0.16673  -0.13467  -0.11952
  Beta virt. eigenvalues --   -0.06957  -0.06789  -0.05615  -0.03734  -0.03431
  Beta virt. eigenvalues --   -0.02615  -0.01969  -0.01497  -0.01302  -0.00861
  Beta virt. eigenvalues --   -0.00186  -0.00030   0.00247   0.00361   0.00497

 Mulliken charges and spin densities:
               1          2
     1  Na   0.499680  -0.024924
     2  Na   0.200533  -0.097780
     3  Na  -0.261415   0.230432
     4  Na   0.120029   0.368215
     5  Na  -0.127222   0.034108
     6  Na   0.054292   0.197025
     7  Na  -0.485897   0.292925
 Sum of Mulliken charges =  -0.00000   1.00000

 Dipole moment (field-independent basis, Debye):
    X=             -0.9888    Y=              0.1244    Z=              0.0542  Tot=              0.9980
 Quadrupole moment (field-independent basis, Debye-Ang):
   XX=            -53.2764   YY=            -70.7819   ZZ=            -73.2464
   XY=              0.8345   XZ=              1.2855   YZ=             -2.3341

 Normal termination of Gaussian 16 at Mon Dec  4 00:33:25 2023.
