 Gaussian 16, Revision B.01,
 Gaussian 16:  ES64L-G16RevB.01 20-Dec-2017

 -------------------------
 #P B3LYP/6-311+g(d) force
 -------------------------

 -----
 DPGEN
 -----
 Symbolic Z-matrix:
 Charge =  0 Multiplicity = 2

                         Standard orientation:
 ---------------------------------------------------------------------
 Center     Atomic      Atomic             Coordinates (Angstroms)
 Number     Number       Type             X           Y           Z
 ---------------------------------------------------------------------
      1         11           0       -1.411847   -1.889939    2.136200
      2         11           0        2.569597    1.646027    0.380954
      3         11           0        3.395212   -1.448692   -0.218198
      4         11           0        0.180453   -2.176462   -1.288805
      5         11           0       -0.526751    1.883618   -2.195498
      6         11           0       -0.555103    2.149430    1.996594
      7         11           0       -3.651562   -0.163981   -0.811247
 ---------------------------------------------------------------------

 SCF Done:  E(UB3LYP) =  -1136.11413598     A.U. after   22 cycles

 The electronic state is 2-A.
 Alpha  occ. eigenvalues --  -38.45411 -38.45042 -38.44969 -38.44227 -38.44062
 Alpha  occ. eigenvalues --  -38.43643 -38.43602  -2.21124  -2.20796  -2.20728
 Alpha  occ. eigenvalues --   -2.19993  -2.19828  -2.19445  -2.19404  -1.14804
 Alpha  occ. eigenvalues --   -1.14782  -1.14767  -1.14466  -1.14435  -1.14412
 Alpha  occ. eigenvalues --   -1.14385  -1.14365  -1.14352  -1.13668  -1.13636
 Alpha  occ. eigenvalues --   -1.13620  -1.13513  -1.13509  -1.13451  -1.13155
 Alpha  occ. eigenvalues --   -1.13125  -1.13099  -1.13064  -1.13044  -1.13022
 Alpha  occ. eigenvalues --   -0.16604  -0.12700  -0.11758  -0.11584
 Alpha virt. eigenvalues --   -0.06570  -0.05482  -0.04864  -0.03418  -0.03373
 Alpha virt. eigenvalues --   -0.03069  -0.01906  -0.00847  -0.00796  -0.00535
 Alpha virt. eigenvalues --   -0.00178  -0.00125   0.00184   0.00455   0.00645

  Beta  occ. eigenvalues --  -38.45410 -38.44978 -38.44901 -38.44181 -38.44056
  Beta  occ. eigenvalues --  -38.43643 -38.43604  -2.21126  -2.20677  -2.20600
  Beta  occ. eigenvalues --   -2.19909  -2.19818  -2.19446  -2.19406  -1.14804
  Beta  occ. eigenvalues --   -1.14776  -1.14764  -1.14384  -1.14357  -1.14325
  Beta  occ. eigenvalues --   -1.14297  -1.14275  -1.14267  -1.13607  -1.13581
  Beta  occ. eigenvalues --   -1.13559  -1.13507  -1.13489  -1.13446  -1.13157
  Beta  occ. eigenvalues --   -1.13116  -1.13102  -1.13064  -1.13046  -1.13024
  Beta  occ. eigenvalues --   -0.15959  -0.12510  -0.11486
  Beta virt. eigenvalues --   -0.07936  -0.06434  -0.05004  -0.04397  -0.03215
  Beta virt. eigenvalues --   -0.02889  -0.02349  -0.01845  -0.00832  -0.00502
  Beta virt. eigenvalues --   -0.00315  -0.00108  -0.00016   0.00341   0.00534

 Mulliken charges and spin densities:
               1          2
     1  Na  -0.161121   0.392157
     2  Na   0.195380   0.080929
     3  Na  -0.001334  -0.118436
     4  Na   0.207245   0.062135
     5  Na  -0.347306   0.372468
     6  Na  -0.064789   0.233222
     7  Na   0.171924  -0.022475
 Sum of Mulliken charges =  -0.00000   1.00000

 Dipole moment (field-independent basis, Debye):
    X=             -1.0402    Y=             -0.0287    Z=             -0.0807  Tot=              1.0438
 Quadrupole moment (field-independent basis, Debye-Ang):
   XX=            -59.4932   YY=            -73.3976   ZZ=            -65.7436
   XY=              0.0278   XZ=              0.5212   YZ=             -2.5251

 Normal termination of Gaussian 16 at Sun Dec  3 12:03:54 2023.
