 Gaussian 16, Revision B.01,
 Gaussian 16:  ES64L-G16RevB.01 20-Dec-2017

 -------------------------
 #P B3LYP/6-311+g(d) force
 -------------------------

 -----
 DPGEN
 -----
 Symbolic Z-matrix:
 Charge =  0 Multiplicity = 2

                         Standard orientation:
 ---------------------------------------------------------------------
 Center     Atomic      Atomic             Coordinates (Angstroms)
 Number     Number       Type             X           Y           Z
 ---------------------------------------------------------------------
      1         11           0        2.286047   -1.882358    1.772575
      2         11           0        0.208499    3.969709   -0.212050
      3         11           0       -2.520871    1.390133   -0.007145
      4         11           0       -0.469958   -2.861169   -0.421311
      5         11           0        2.757766   -1.247702   -1.769108
      6         11           0        2.292331    1.745695    0.519380
      7         11           0       -4.553814   -1.114308    0.117659
 ---------------------------------------------------------------------

 SCF Done:  E(UB3LYP) =  -1136.10938360     A.U. after   26 cycles

 The electronic state is 2-A.
 Alpha  occ. eigenvalues --  -38.46631 -38.46395 -38.43802 -38.43702 -38.43667
 Alpha  occ. eigenvalues --  -38.42957 -38.42827  -2.22385  -2.22160  -2.19583
 Alpha  occ. eigenvalues --   -2.19502  -2.19494  -2.18763  -2.18659  -1.16074
 Alpha  occ. eigenvalues --   -1.16030  -1.16014  -1.15853  -1.15804  -1.15789
 Alpha  occ. eigenvalues --   -1.13280  -1.13264  -1.13209  -1.13195  -1.13177
 Alpha  occ. eigenvalues --   -1.13171  -1.13156  -1.13129  -1.13095  -1.12416
 Alpha  occ. eigenvalues --   -1.12413  -1.12389  -1.12319  -1.12306  -1.12291
 Alpha  occ. eigenvalues --   -0.16552  -0.13353  -0.12669  -0.09573
 Alpha virt. eigenvalues --   -0.07703  -0.05732  -0.04732  -0.02766  -0.02659
 Alpha virt. eigenvalues --   -0.02496  -0.02081  -0.01759  -0.01396  -0.01124
 Alpha virt. eigenvalues --   -0.00496  -0.00078   0.00133   0.00412   0.00619

  Beta  occ. eigenvalues --  -38.46618 -38.46388 -38.43796 -38.43656 -38.43625
  Beta  occ. eigenvalues --  -38.42911 -38.42796  -2.22366  -2.22152  -2.19575
  Beta  occ. eigenvalues --   -2.19477  -2.19359  -2.18680  -2.18600  -1.16065
  Beta  occ. eigenvalues --   -1.16006  -1.15980  -1.15854  -1.15790  -1.15752
  Beta  occ. eigenvalues --   -1.13279  -1.13263  -1.13188  -1.13173  -1.13164
  Beta  occ. eigenvalues --   -1.13085  -1.13080  -1.13061  -1.12995  -1.12357
  Beta  occ. eigenvalues --   -1.12354  -1.12337  -1.12286  -1.12266  -1.12249
  Beta  occ. eigenvalues --   -0.16021  -0.12887  -0.12002
  Beta virt. eigenvalues --   -0.07561  -0.06346  -0.05628  -0.04493  -0.02690
  Beta virt. eigenvalues --   -0.02308  -0.02244  -0.01731  -0.01348  -0.01229
  Beta virt. eigenvalues --   -0.00891  -0.00242   0.00092   0.00323   0.00526

 Mulliken charges and spin densities:
               1          2
     1  Na   0.623205   0.085866
     2  Na   0.736241   0.100670
     3  Na  -1.203619   0.175875
     4  Na  -0.748011   0.351059
     5  Na   0.475699   0.095127
     6  Na  -0.822977   0.013311
     7  Na   0.939462   0.178092
 Sum of Mulliken charges =  -0.00000   1.00000

 Dipole moment (field-independent basis, Debye):
    X=              2.6414    Y=             -1.6647    Z=             -0.1444  Tot=              3.1256
 Quadrupole moment (field-independent basis, Debye-Ang):
   XX=            -72.5375   YY=            -72.2194   ZZ=            -58.6238
   XY=             -3.7864   XZ=             -1.2250   YZ=             -2.4506

 Normal termination of Gaussian 16 at Sun Dec  3 15:27:57 2023.
