 Gaussian 16, Revision B.01,
 Gaussian 16:  ES64L-G16RevB.01 20-Dec-2017

 -------------------------
 #P B3LYP/6-311+g(d) force
 -------------------------

 -----
 DPGEN
 -----
 Symbolic Z-matrix:
 Charge =  0 Multiplicity = 2

                         Standard orientation:
 ---------------------------------------------------------------------
 Center     Atomic      Atomic             Coordinates (Angstroms)
 Number     Number       Type             X           Y           Z
 ---------------------------------------------------------------------
      1         11           0       -0.084651   -2.722365    0.597557
      2         11           0       -1.551462    2.485498   -0.617310
      3         11           0        0.412803   -0.042328   -1.946723
      4         11           0       -0.948591    0.457901    1.985770
      5         11           0       -2.872870   -1.082512   -0.415775
      6         11           0        2.102241    2.013418    0.691400
      7         11           0        2.942531   -1.109612   -0.294919
 ---------------------------------------------------------------------

 SCF Done:  E(UB3LYP) =  -1136.13787759     A.U. after   18 cycles

 The electronic state is 2-A.
 Alpha  occ. eigenvalues --  -38.43988 -38.43844 -38.43782 -38.43773 -38.43545
 Alpha  occ. eigenvalues --  -38.43538 -38.43254  -2.19822  -2.19688  -2.19664
 Alpha  occ. eigenvalues --   -2.19658  -2.19399  -2.19375  -2.19098  -1.13499
 Alpha  occ. eigenvalues --   -1.13494  -1.13460  -1.13371  -1.13350  -1.13345
 Alpha  occ. eigenvalues --   -1.13326  -1.13323  -1.13314  -1.13304  -1.13298
 Alpha  occ. eigenvalues --   -1.13268  -1.13072  -1.13051  -1.13049  -1.13035
 Alpha  occ. eigenvalues --   -1.13031  -1.12999  -1.12779  -1.12763  -1.12725
 Alpha  occ. eigenvalues --   -0.18391  -0.12998  -0.12264  -0.11207
 Alpha virt. eigenvalues --   -0.05497  -0.05104  -0.04584  -0.03497  -0.03224
 Alpha virt. eigenvalues --   -0.02847  -0.01320  -0.00986  -0.00358  -0.00074
 Alpha virt. eigenvalues --   -0.00009   0.00411   0.00777   0.00842   0.00870

  Beta  occ. eigenvalues --  -38.43983 -38.43829 -38.43708 -38.43704 -38.43544
  Beta  occ. eigenvalues --  -38.43525 -38.43244  -2.19816  -2.19635  -2.19553
  Beta  occ. eigenvalues --   -2.19533  -2.19398  -2.19354  -2.19083  -1.13492
  Beta  occ. eigenvalues --   -1.13481  -1.13447  -1.13326  -1.13297  -1.13284
  Beta  occ. eigenvalues --   -1.13269  -1.13250  -1.13241  -1.13226  -1.13219
  Beta  occ. eigenvalues --   -1.13178  -1.13053  -1.13044  -1.13033  -1.13026
  Beta  occ. eigenvalues --   -1.13012  -1.12979  -1.12765  -1.12745  -1.12711
  Beta  occ. eigenvalues --   -0.17654  -0.12805  -0.12030
  Beta virt. eigenvalues --   -0.07324  -0.05426  -0.05025  -0.04408  -0.02857
  Beta virt. eigenvalues --   -0.02496  -0.01849  -0.01230  -0.00915  -0.00291
  Beta virt. eigenvalues --   -0.00095   0.00096   0.00449   0.00871   0.00899

 Mulliken charges and spin densities:
               1          2
     1  Na  -0.298227  -0.045329
     2  Na   0.090393  -0.028757
     3  Na  -0.104949   0.536379
     4  Na   0.024537   0.540080
     5  Na   0.206048  -0.007597
     6  Na  -0.259163  -0.036726
     7  Na   0.341362   0.041951
 Sum of Mulliken charges =  -0.00000   1.00000

 Dipole moment (field-independent basis, Debye):
    X=             -0.1630    Y=              0.1185    Z=              0.0021  Tot=              0.2015
 Quadrupole moment (field-independent basis, Debye-Ang):
   XX=            -59.0205   YY=            -65.8534   ZZ=            -70.4984
   XY=             -0.0882   XZ=              2.4178   YZ=             -0.4149

 Normal termination of Gaussian 16 at Tue Dec  5 09:57:49 2023.
