 Gaussian 16, Revision B.01,
 Gaussian 16:  ES64L-G16RevB.01 20-Dec-2017

 -------------------------
 #P B3LYP/6-311+g(d) force
 -------------------------

 -----
 DPGEN
 -----
 Symbolic Z-matrix:
 Charge =  0 Multiplicity = 2

                         Standard orientation:
 ---------------------------------------------------------------------
 Center     Atomic      Atomic             Coordinates (Angstroms)
 Number     Number       Type             X           Y           Z
 ---------------------------------------------------------------------
      1         11           0       -3.697006   -0.000416    0.316948
      2         11           0       -2.969385   -2.959762   -0.532053
      3         11           0       -2.184729    3.526302    0.505100
      4         11           0        0.611530    2.776259   -0.556154
      5         11           0        3.996648    1.233674   -0.502552
      6         11           0        3.697507   -1.655603    0.832704
      7         11           0        0.545436   -2.920455   -0.063992
 ---------------------------------------------------------------------

 SCF Done:  E(UB3LYP) =  -1136.11250948     A.U. after   22 cycles

 The electronic state is 2-A.
 Alpha  occ. eigenvalues --  -38.45503 -38.45038 -38.44645 -38.44549 -38.43902
 Alpha  occ. eigenvalues --  -38.43732 -38.43592  -2.21287  -2.20827  -2.20446
 Alpha  occ. eigenvalues --   -2.20335  -2.19724  -2.19559  -2.19422  -1.14965
 Alpha  occ. eigenvalues --   -1.14951  -1.14914  -1.14513  -1.14496  -1.14475
 Alpha  occ. eigenvalues --   -1.14123  -1.14114  -1.14106  -1.14008  -1.13999
 Alpha  occ. eigenvalues --   -1.13938  -1.13396  -1.13380  -1.13366  -1.13208
 Alpha  occ. eigenvalues --   -1.13201  -1.13195  -1.13094  -1.13064  -1.13051
 Alpha  occ. eigenvalues --   -0.15871  -0.14079  -0.13546  -0.10586
 Alpha virt. eigenvalues --   -0.07576  -0.04831  -0.04298  -0.03782  -0.03327
 Alpha virt. eigenvalues --   -0.02380  -0.02155  -0.01736  -0.01562  -0.00676
 Alpha virt. eigenvalues --   -0.00491  -0.00078   0.00324   0.00496   0.00655

  Beta  occ. eigenvalues --  -38.45469 -38.45025 -38.44641 -38.44490 -38.43889
  Beta  occ. eigenvalues --  -38.43671 -38.43561  -2.21228  -2.20807  -2.20443
  Beta  occ. eigenvalues --   -2.20229  -2.19704  -2.19445  -2.19365  -1.14926
  Beta  occ. eigenvalues --   -1.14916  -1.14851  -1.14502  -1.14489  -1.14426
  Beta  occ. eigenvalues --   -1.14124  -1.14117  -1.14065  -1.13936  -1.13929
  Beta  occ. eigenvalues --   -1.13860  -1.13373  -1.13368  -1.13348  -1.13136
  Beta  occ. eigenvalues --   -1.13124  -1.13115  -1.13054  -1.13025  -1.13014
  Beta  occ. eigenvalues --   -0.15368  -0.13469  -0.12978
  Beta virt. eigenvalues --   -0.07617  -0.07182  -0.04602  -0.03793  -0.03595
  Beta virt. eigenvalues --   -0.02832  -0.02200  -0.01946  -0.01561  -0.01423
  Beta virt. eigenvalues --   -0.00377  -0.00164   0.00142   0.00361   0.00550

 Mulliken charges and spin densities:
               1          2
     1  Na  -0.431195   0.219413
     2  Na   0.567806   0.135480
     3  Na   1.126099   0.144379
     4  Na  -0.885289   0.129729
     5  Na  -0.115995   0.235315
     6  Na   0.476431  -0.180545
     7  Na  -0.737857   0.316230
 Sum of Mulliken charges =  -0.00000   1.00000

 Dipole moment (field-independent basis, Debye):
    X=             -0.6128    Y=             -0.1594    Z=              0.1449  Tot=              0.6496
 Quadrupole moment (field-independent basis, Debye-Ang):
   XX=            -60.6386   YY=            -68.5778   ZZ=            -71.3095
   XY=             -2.6927   XZ=             -0.0221   YZ=              1.0906

 Normal termination of Gaussian 16 at Mon Dec  4 04:45:08 2023.
