 Gaussian 16, Revision B.01,
 Gaussian 16:  ES64L-G16RevB.01 20-Dec-2017

 -------------------------
 #P B3LYP/6-311+g(d) force
 -------------------------

 -----
 DPGEN
 -----
 Symbolic Z-matrix:
 Charge =  0 Multiplicity = 2

                         Standard orientation:
 ---------------------------------------------------------------------
 Center     Atomic      Atomic             Coordinates (Angstroms)
 Number     Number       Type             X           Y           Z
 ---------------------------------------------------------------------
      1         11           0        0.807831   -2.888828    0.140131
      2         11           0       -3.112730   -1.492334   -0.444259
      3         11           0       -2.644589    1.858921    0.238719
      4         11           0        0.064295    0.062402    2.080462
      5         11           0        3.384186   -0.374300   -0.131588
      6         11           0        0.103451    0.072362   -1.606557
      7         11           0        1.397556    2.761776   -0.276907
 ---------------------------------------------------------------------

 SCF Done:  E(UB3LYP) =  -1136.13367629     A.U. after   19 cycles

 The electronic state is 2-A.
 Alpha  occ. eigenvalues --  -38.44760 -38.44260 -38.44185 -38.43623 -38.43491
 Alpha  occ. eigenvalues --  -38.43348 -38.43283  -2.20551  -2.20039  -2.19979
 Alpha  occ. eigenvalues --   -2.19479  -2.19407  -2.19167  -2.19097  -1.14231
 Alpha  occ. eigenvalues --   -1.14202  -1.14187  -1.13712  -1.13708  -1.13681
 Alpha  occ. eigenvalues --   -1.13655  -1.13634  -1.13608  -1.13155  -1.13108
 Alpha  occ. eigenvalues --   -1.13101  -1.13093  -1.13067  -1.13026  -1.12846
 Alpha  occ. eigenvalues --   -1.12824  -1.12794  -1.12772  -1.12769  -1.12727
 Alpha  occ. eigenvalues --   -0.18005  -0.13104  -0.11967  -0.10490
 Alpha virt. eigenvalues --   -0.06180  -0.05485  -0.04581  -0.03182  -0.02679
 Alpha virt. eigenvalues --   -0.02470  -0.01979  -0.01314  -0.00646  -0.00589
 Alpha virt. eigenvalues --   -0.00061   0.00301   0.00689   0.00787   0.00820

  Beta  occ. eigenvalues --  -38.44757 -38.44250 -38.44182 -38.43522 -38.43439
  Beta  occ. eigenvalues --  -38.43343 -38.43280  -2.20548  -2.20022  -2.19975
  Beta  occ. eigenvalues --   -2.19313  -2.19293  -2.19161  -2.19093  -1.14216
  Beta  occ. eigenvalues --   -1.14203  -1.14183  -1.13701  -1.13688  -1.13671
  Beta  occ. eigenvalues --   -1.13635  -1.13633  -1.13604  -1.13053  -1.13013
  Beta  occ. eigenvalues --   -1.13001  -1.12979  -1.12958  -1.12955  -1.12831
  Beta  occ. eigenvalues --   -1.12815  -1.12785  -1.12771  -1.12746  -1.12726
  Beta  occ. eigenvalues --   -0.17310  -0.12897  -0.11736
  Beta virt. eigenvalues --   -0.06656  -0.06107  -0.05422  -0.04531  -0.02490
  Beta virt. eigenvalues --   -0.01959  -0.01878  -0.01441  -0.01234  -0.00688
  Beta virt. eigenvalues --   -0.00605   0.00097   0.00344   0.00771   0.00793

 Mulliken charges and spin densities:
               1          2
     1  Na  -0.026312  -0.053275
     2  Na  -0.010048   0.005466
     3  Na   0.106401  -0.010953
     4  Na  -0.256013   0.736876
     5  Na   0.153847  -0.058350
     6  Na  -0.025395   0.455382
     7  Na   0.057521  -0.075146
 Sum of Mulliken charges =  -0.00000   1.00000

 Dipole moment (field-independent basis, Debye):
    X=              0.1283    Y=              0.0199    Z=              0.0593  Tot=              0.1427
 Quadrupole moment (field-independent basis, Debye-Ang):
   XX=            -52.5412   YY=            -64.0847   ZZ=            -75.9383
   XY=             -0.2134   XZ=              0.2032   YZ=              0.5613

 Normal termination of Gaussian 16 at Fri Dec  8 06:06:26 2023.
