 Gaussian 16, Revision B.01,
 Gaussian 16:  ES64L-G16RevB.01 20-Dec-2017

 -------------------------
 #P B3LYP/6-311+g(d) force
 -------------------------

 -----
 DPGEN
 -----
 Symbolic Z-matrix:
 Charge =  0 Multiplicity = 2

                         Standard orientation:
 ---------------------------------------------------------------------
 Center     Atomic      Atomic             Coordinates (Angstroms)
 Number     Number       Type             X           Y           Z
 ---------------------------------------------------------------------
      1         11           0        1.628970    2.306369    0.074898
      2         11           0       -2.832956   -1.036175    0.247354
      3         11           0        0.001153   -2.690129   -0.430204
      4         11           0        3.280421   -0.752993    0.129253
      5         11           0       -1.992901    2.113356   -0.059236
      6         11           0       -0.031702   -0.204094    1.841185
      7         11           0       -0.052985    0.263667   -1.803250
 ---------------------------------------------------------------------

 SCF Done:  E(UB3LYP) =  -1136.13793317     A.U. after   19 cycles

 The electronic state is 2-A.
 Alpha  occ. eigenvalues --  -38.44360 -38.43782 -38.43454 -38.43393 -38.43309
 Alpha  occ. eigenvalues --  -38.43263 -38.43056  -2.20150  -2.19673  -2.19401
 Alpha  occ. eigenvalues --   -2.19266  -2.19248  -2.19201  -2.18943  -1.13824
 Alpha  occ. eigenvalues --   -1.13808  -1.13793  -1.13362  -1.13332  -1.13323
 Alpha  occ. eigenvalues --   -1.13090  -1.13046  -1.13016  -1.13004  -1.12953
 Alpha  occ. eigenvalues --   -1.12932  -1.12915  -1.12883  -1.12852  -1.12849
 Alpha  occ. eigenvalues --   -1.12831  -1.12811  -1.12626  -1.12604  -1.12558
 Alpha  occ. eigenvalues --   -0.18997  -0.13189  -0.12375  -0.10871
 Alpha virt. eigenvalues --   -0.05852  -0.05024  -0.04339  -0.03251  -0.02899
 Alpha virt. eigenvalues --   -0.02531  -0.01708  -0.01003  -0.00190  -0.00156
 Alpha virt. eigenvalues --    0.00007   0.00353   0.00797   0.00912   0.00927

  Beta  occ. eigenvalues --  -38.44360 -38.43774 -38.43387 -38.43377 -38.43303
  Beta  occ. eigenvalues --  -38.43181 -38.43043  -2.20153  -2.19662  -2.19261
  Beta  occ. eigenvalues --   -2.19258  -2.19193  -2.19096  -2.18921  -1.13816
  Beta  occ. eigenvalues --   -1.13807  -1.13796  -1.13351  -1.13325  -1.13294
  Beta  occ. eigenvalues --   -1.13009  -1.12973  -1.12945  -1.12923  -1.12910
  Beta  occ. eigenvalues --   -1.12896  -1.12878  -1.12828  -1.12826  -1.12815
  Beta  occ. eigenvalues --   -1.12756  -1.12737  -1.12607  -1.12559  -1.12548
  Beta  occ. eigenvalues --   -0.18248  -0.12948  -0.12107
  Beta virt. eigenvalues --   -0.06936  -0.05806  -0.05031  -0.04314  -0.02466
  Beta virt. eigenvalues --   -0.02101  -0.01631  -0.01453  -0.00955  -0.00211
  Beta virt. eigenvalues --   -0.00196   0.00119   0.00370   0.00839   0.00904

 Mulliken charges and spin densities:
               1          2
     1  Na   0.085397  -0.120915
     2  Na   0.295675   0.028490
     3  Na   0.089213  -0.064479
     4  Na  -0.041688  -0.102716
     5  Na   0.232761  -0.075152
     6  Na  -0.409142   0.689242
     7  Na  -0.252217   0.645530
 Sum of Mulliken charges =  -0.00000   1.00000

 Dipole moment (field-independent basis, Debye):
    X=              0.2996    Y=             -0.0557    Z=              0.1124  Tot=              0.3248
 Quadrupole moment (field-independent basis, Debye-Ang):
   XX=            -54.2931   YY=            -65.1756   ZZ=            -73.7457
   XY=             -0.5749   XZ=             -0.1161   YZ=              0.8382

 Normal termination of Gaussian 16 at Thu Dec  7 20:04:10 2023.
