 Gaussian 16, Revision B.01,
 Gaussian 16:  ES64L-G16RevB.01 20-Dec-2017

 -------------------------
 #P B3LYP/6-311+g(d) force
 -------------------------

 -----
 DPGEN
 -----
 Symbolic Z-matrix:
 Charge =  0 Multiplicity = 2

                         Standard orientation:
 ---------------------------------------------------------------------
 Center     Atomic      Atomic             Coordinates (Angstroms)
 Number     Number       Type             X           Y           Z
 ---------------------------------------------------------------------
      1         11           0        2.461890   -0.314147    1.910033
      2         11           0       -3.394116    0.499795    0.701744
      3         11           0        1.638066   -2.472259   -0.312685
      4         11           0       -0.092400   -0.126253   -0.967047
      5         11           0       -2.221301   -2.230291   -0.363026
      6         11           0       -0.821180    2.992027    0.107760
      7         11           0        2.429042    1.651128   -1.076780
 ---------------------------------------------------------------------

 SCF Done:  E(UB3LYP) =  -1136.12438993     A.U. after   21 cycles

 The electronic state is 2-A.
 Alpha  occ. eigenvalues --  -38.44332 -38.43998 -38.43961 -38.43909 -38.43907
 Alpha  occ. eigenvalues --  -38.43799 -38.42837  -2.20184  -2.19876  -2.19777
 Alpha  occ. eigenvalues --   -2.19757  -2.19744  -2.19661  -2.18923  -1.13896
 Alpha  occ. eigenvalues --   -1.13833  -1.13790  -1.13618  -1.13557  -1.13521
 Alpha  occ. eigenvalues --   -1.13494  -1.13467  -1.13448  -1.13434  -1.13422
 Alpha  occ. eigenvalues --   -1.13398  -1.13392  -1.13362  -1.13328  -1.13304
 Alpha  occ. eigenvalues --   -1.13286  -1.13271  -1.12590  -1.12579  -1.12562
 Alpha  occ. eigenvalues --   -0.18106  -0.13769  -0.12589  -0.10298
 Alpha virt. eigenvalues --   -0.06221  -0.05257  -0.04670  -0.03607  -0.02735
 Alpha virt. eigenvalues --   -0.01942  -0.01697  -0.01138  -0.00745  -0.00528
 Alpha virt. eigenvalues --   -0.00079   0.00328   0.00520   0.00697   0.00747

  Beta  occ. eigenvalues --  -38.44305 -38.43989 -38.43964 -38.43902 -38.43883
  Beta  occ. eigenvalues --  -38.43709 -38.42794  -2.20138  -2.19867  -2.19771
  Beta  occ. eigenvalues --   -2.19765  -2.19696  -2.19493  -2.18848  -1.13856
  Beta  occ. eigenvalues --   -1.13792  -1.13759  -1.13613  -1.13517  -1.13514
  Beta  occ. eigenvalues --   -1.13477  -1.13455  -1.13442  -1.13437  -1.13417
  Beta  occ. eigenvalues --   -1.13378  -1.13366  -1.13337  -1.13306  -1.13189
  Beta  occ. eigenvalues --   -1.13174  -1.13160  -1.12544  -1.12520  -1.12495
  Beta  occ. eigenvalues --   -0.17568  -0.13358  -0.12261
  Beta virt. eigenvalues --   -0.06722  -0.06139  -0.04872  -0.04628  -0.03030
  Beta virt. eigenvalues --   -0.02113  -0.01672  -0.01171  -0.01064  -0.00657
  Beta virt. eigenvalues --   -0.00481   0.00194   0.00411   0.00687   0.00728

 Mulliken charges and spin densities:
               1          2
     1  Na  -0.542750   0.474620
     2  Na  -0.149839   0.088604
     3  Na   0.199772   0.014738
     4  Na  -1.202807   0.466167
     5  Na   0.783237  -0.011218
     6  Na   0.050831  -0.032856
     7  Na   0.861556  -0.000054
 Sum of Mulliken charges =  -0.00000   1.00000

 Dipole moment (field-independent basis, Debye):
    X=              0.0064    Y=              0.1595    Z=             -0.0266  Tot=              0.1619
 Quadrupole moment (field-independent basis, Debye-Ang):
   XX=            -59.9692   YY=            -61.6946   ZZ=            -73.3823
   XY=              2.6333   XZ=             -4.2545   YZ=              1.6499

 Normal termination of Gaussian 16 at Sun Dec  3 23:52:55 2023.
