 Gaussian 16, Revision B.01,
 Gaussian 16:  ES64L-G16RevB.01 20-Dec-2017

 -------------------------
 #P B3LYP/6-311+g(d) force
 -------------------------

 -----
 DPGEN
 -----
 Symbolic Z-matrix:
 Charge =  0 Multiplicity = 2

                         Standard orientation:
 ---------------------------------------------------------------------
 Center     Atomic      Atomic             Coordinates (Angstroms)
 Number     Number       Type             X           Y           Z
 ---------------------------------------------------------------------
      1         11           0        1.133331    2.673558    0.165130
      2         11           0        0.177266   -0.173156   -1.439767
      3         11           0       -2.771237   -1.447447   -0.054288
      4         11           0       -2.502334    1.817560   -0.501308
      5         11           0        1.153929   -2.766174   -0.331008
      6         11           0        3.030598    0.217222   -0.146370
      7         11           0       -0.221554   -0.321563    2.307611
 ---------------------------------------------------------------------

 SCF Done:  E(UB3LYP) =  -1136.13352749     A.U. after   19 cycles

 The electronic state is 2-A.
 Alpha  occ. eigenvalues --  -38.44120 -38.44008 -38.43986 -38.43782 -38.43386
 Alpha  occ. eigenvalues --  -38.43172 -38.43110  -2.19949  -2.19877  -2.19849
 Alpha  occ. eigenvalues --   -2.19611  -2.19250  -2.19149  -2.19034  -1.13627
 Alpha  occ. eigenvalues --   -1.13620  -1.13591  -1.13589  -1.13534  -1.13510
 Alpha  occ. eigenvalues --   -1.13496  -1.13473  -1.13467  -1.13289  -1.13263
 Alpha  occ. eigenvalues --   -1.13248  -1.13054  -1.12897  -1.12865  -1.12824
 Alpha  occ. eigenvalues --   -1.12777  -1.12747  -1.12703  -1.12686  -1.12672
 Alpha  occ. eigenvalues --   -0.18602  -0.13267  -0.12253  -0.10930
 Alpha virt. eigenvalues --   -0.05665  -0.05217  -0.04531  -0.03328  -0.02851
 Alpha virt. eigenvalues --   -0.02736  -0.01527  -0.01115  -0.00388  -0.00271
 Alpha virt. eigenvalues --   -0.00035   0.00345   0.00783   0.00856   0.00904

  Beta  occ. eigenvalues --  -38.44117 -38.43982 -38.43896 -38.43772 -38.43379
  Beta  occ. eigenvalues --  -38.43168 -38.43062  -2.19947  -2.19872  -2.19642
  Beta  occ. eigenvalues --   -2.19595  -2.19241  -2.19064  -2.19031  -1.13626
  Beta  occ. eigenvalues --   -1.13600  -1.13587  -1.13585  -1.13515  -1.13507
  Beta  occ. eigenvalues --   -1.13359  -1.13331  -1.13319  -1.13269  -1.13248
  Beta  occ. eigenvalues --   -1.13237  -1.13030  -1.12880  -1.12854  -1.12769
  Beta  occ. eigenvalues --   -1.12728  -1.12702  -1.12688  -1.12669  -1.12657
  Beta  occ. eigenvalues --   -0.17909  -0.13034  -0.12035
  Beta virt. eigenvalues --   -0.06946  -0.05627  -0.05174  -0.04492  -0.02533
  Beta virt. eigenvalues --   -0.02070  -0.01680  -0.01440  -0.01049  -0.00435
  Beta virt. eigenvalues --   -0.00293   0.00137   0.00387   0.00841   0.00893

 Mulliken charges and spin densities:
               1          2
     1  Na   0.095968   0.080913
     2  Na  -0.428305   0.003547
     3  Na   0.250934   0.033049
     4  Na   0.122749   0.059347
     5  Na   0.332144   0.034920
     6  Na   0.283790   0.048203
     7  Na  -0.657280   0.740020
 Sum of Mulliken charges =  -0.00000   1.00000

 Dipole moment (field-independent basis, Debye):
    X=             -0.2063    Y=             -0.1842    Z=              0.2545  Tot=              0.3759
 Quadrupole moment (field-independent basis, Debye-Ang):
   XX=            -56.9707   YY=            -63.4069   ZZ=            -73.9375
   XY=              0.0261   XZ=              0.8036   YZ=              0.0388

 Normal termination of Gaussian 16 at Fri Dec  8 01:43:13 2023.
