 Gaussian 16, Revision B.01,
 Gaussian 16:  ES64L-G16RevB.01 20-Dec-2017

 -------------------------
 #P B3LYP/6-311+g(d) force
 -------------------------

 -----
 DPGEN
 -----
 Symbolic Z-matrix:
 Charge =  0 Multiplicity = 2

                         Standard orientation:
 ---------------------------------------------------------------------
 Center     Atomic      Atomic             Coordinates (Angstroms)
 Number     Number       Type             X           Y           Z
 ---------------------------------------------------------------------
      1         11           0       -0.408077    1.294141    2.245782
      2         11           0        1.820036   -0.487773   -0.516297
      3         11           0       -1.457006   -2.508658    0.711767
      4         11           0        5.732566   -0.358640    0.106198
      5         11           0       -0.219067    2.422194   -1.013539
      6         11           0       -1.834545   -0.536582   -1.951653
      7         11           0       -3.633907    0.175318    0.417743
 ---------------------------------------------------------------------

 SCF Done:  E(UB3LYP) =  -1136.10640686     A.U. after   32 cycles

 The electronic state is 2-A.
 Alpha  occ. eigenvalues --  -38.45668 -38.45418 -38.44266 -38.44127 -38.44050
 Alpha  occ. eigenvalues --  -38.43997 -38.42960  -2.21502  -2.21125  -2.20081
 Alpha  occ. eigenvalues --   -2.20050  -2.19869  -2.19762  -2.18800  -1.15224
 Alpha  occ. eigenvalues --   -1.15152  -1.15107  -1.14797  -1.14796  -1.14749
 Alpha  occ. eigenvalues --   -1.13782  -1.13746  -1.13740  -1.13720  -1.13683
 Alpha  occ. eigenvalues --   -1.13626  -1.13526  -1.13510  -1.13486  -1.13467
 Alpha  occ. eigenvalues --   -1.13434  -1.13383  -1.12475  -1.12456  -1.12441
 Alpha  occ. eigenvalues --   -0.18039  -0.12676  -0.11547  -0.11285
 Alpha virt. eigenvalues --   -0.08256  -0.04396  -0.04330  -0.03597  -0.03188
 Alpha virt. eigenvalues --   -0.02851  -0.02628  -0.01299  -0.00978  -0.00791
 Alpha virt. eigenvalues --   -0.00449  -0.00166   0.00120   0.00600   0.00871

  Beta  occ. eigenvalues --  -38.45655 -38.45410 -38.44259 -38.44060 -38.43994
  Beta  occ. eigenvalues --  -38.43974 -38.42945  -2.21482  -2.21109  -2.20070
  Beta  occ. eigenvalues --   -2.19927  -2.19759  -2.19728  -2.18776  -1.15196
  Beta  occ. eigenvalues --   -1.15124  -1.15098  -1.14785  -1.14784  -1.14739
  Beta  occ. eigenvalues --   -1.13769  -1.13719  -1.13710  -1.13661  -1.13611
  Beta  occ. eigenvalues --   -1.13532  -1.13456  -1.13437  -1.13427  -1.13414
  Beta  occ. eigenvalues --   -1.13388  -1.13376  -1.12453  -1.12443  -1.12408
  Beta  occ. eigenvalues --   -0.17288  -0.12486  -0.11190
  Beta virt. eigenvalues --   -0.08118  -0.07528  -0.04317  -0.03842  -0.03205
  Beta virt. eigenvalues --   -0.02928  -0.02338  -0.01883  -0.01132  -0.00917
  Beta virt. eigenvalues --   -0.00661  -0.00396   0.00060   0.00169   0.00660

 Mulliken charges and spin densities:
               1          2
     1  Na   0.203425   0.478608
     2  Na  -1.673334   0.059495
     3  Na   0.169262   0.055877
     4  Na  -0.075780   0.082373
     5  Na  -0.032259  -0.076250
     6  Na   1.461089   0.317200
     7  Na  -0.052403   0.082698
 Sum of Mulliken charges =  -0.00000   1.00000

 Dipole moment (field-independent basis, Debye):
    X=             -0.7461    Y=              0.2919    Z=              0.4834  Tot=              0.9358
 Quadrupole moment (field-independent basis, Debye-Ang):
   XX=            -52.7508   YY=            -73.2129   ZZ=            -69.2804
   XY=             -1.8765   XZ=              0.8300   YZ=             -1.8262

 Normal termination of Gaussian 16 at Tue Dec  5 17:55:45 2023.
