 Gaussian 16, Revision B.01,
 Gaussian 16:  ES64L-G16RevB.01 20-Dec-2017

 -------------------------
 #P B3LYP/6-311+g(d) force
 -------------------------

 -----
 DPGEN
 -----
 Symbolic Z-matrix:
 Charge =  0 Multiplicity = 2

                         Standard orientation:
 ---------------------------------------------------------------------
 Center     Atomic      Atomic             Coordinates (Angstroms)
 Number     Number       Type             X           Y           Z
 ---------------------------------------------------------------------
      1         11           0       -2.070769    2.236047   -0.580064
      2         11           0       -1.250337   -0.139032    2.283405
      3         11           0       -3.688092   -1.164149   -0.475461
      4         11           0        1.273526    1.694835    0.150574
      5         11           0       -0.558717   -1.024928   -1.252595
      6         11           0        4.275473    0.295944   -0.326693
      7         11           0        2.018917   -1.898717    0.200834
 ---------------------------------------------------------------------

 SCF Done:  E(UB3LYP) =  -1136.11689529     A.U. after   28 cycles

 The electronic state is 2-A.
 Alpha  occ. eigenvalues --  -38.45294 -38.44586 -38.44541 -38.44266 -38.43761
 Alpha  occ. eigenvalues --  -38.43305 -38.42838  -2.21118  -2.20410  -2.20371
 Alpha  occ. eigenvalues --   -2.20172  -2.19637  -2.19136  -2.18711  -1.14781
 Alpha  occ. eigenvalues --   -1.14768  -1.14756  -1.14093  -1.14059  -1.14041
 Alpha  occ. eigenvalues --   -1.14032  -1.14001  -1.13982  -1.13891  -1.13819
 Alpha  occ. eigenvalues --   -1.13808  -1.13344  -1.13279  -1.13260  -1.12826
 Alpha  occ. eigenvalues --   -1.12785  -1.12766  -1.12429  -1.12389  -1.12318
 Alpha  occ. eigenvalues --   -0.18251  -0.14401  -0.11023  -0.10787
 Alpha virt. eigenvalues --   -0.07629  -0.05416  -0.04031  -0.03285  -0.03047
 Alpha virt. eigenvalues --   -0.02440  -0.02157  -0.01422  -0.00915  -0.00444
 Alpha virt. eigenvalues --   -0.00291   0.00185   0.00350   0.00620   0.00674

  Beta  occ. eigenvalues --  -38.45271 -38.44546 -38.44448 -38.44264 -38.43759
  Beta  occ. eigenvalues --  -38.43287 -38.42833  -2.21074  -2.20337  -2.20199
  Beta  occ. eigenvalues --   -2.20172  -2.19634  -2.19105  -2.18705  -1.14750
  Beta  occ. eigenvalues --   -1.14740  -1.14726  -1.14045  -1.14008  -1.13983
  Beta  occ. eigenvalues --   -1.13907  -1.13891  -1.13860  -1.13857  -1.13822
  Beta  occ. eigenvalues --   -1.13808  -1.13347  -1.13276  -1.13241  -1.12804
  Beta  occ. eigenvalues --   -1.12767  -1.12729  -1.12430  -1.12363  -1.12312
  Beta  occ. eigenvalues --   -0.17673  -0.13984  -0.10854
  Beta virt. eigenvalues --   -0.07466  -0.06927  -0.05296  -0.03583  -0.03042
  Beta virt. eigenvalues --   -0.02906  -0.01705  -0.01540  -0.01334  -0.00468
  Beta virt. eigenvalues --   -0.00326  -0.00170   0.00206   0.00494   0.00673

 Mulliken charges and spin densities:
               1          2
     1  Na  -0.144190   0.085822
     2  Na  -0.238489   0.390523
     3  Na   0.246817   0.158446
     4  Na  -0.319233   0.027135
     5  Na  -0.321303   0.095141
     6  Na   0.200098   0.087942
     7  Na   0.576301   0.154991
 Sum of Mulliken charges =  -0.00000   1.00000

 Dipole moment (field-independent basis, Debye):
    X=              0.3532    Y=             -0.1842    Z=              0.6207  Tot=              0.7375
 Quadrupole moment (field-independent basis, Debye-Ang):
   XX=            -45.9180   YY=            -78.1981   ZZ=            -69.8084
   XY=             -0.4172   XZ=             -3.0358   YZ=             -2.0345

 Normal termination of Gaussian 16 at Thu Dec  7 21:09:05 2023.
