 Gaussian 16, Revision B.01,
 Gaussian 16:  ES64L-G16RevB.01 20-Dec-2017

 -------------------------
 #P B3LYP/6-311+g(d) force
 -------------------------

 -----
 DPGEN
 -----
 Symbolic Z-matrix:
 Charge =  0 Multiplicity = 2

                         Standard orientation:
 ---------------------------------------------------------------------
 Center     Atomic      Atomic             Coordinates (Angstroms)
 Number     Number       Type             X           Y           Z
 ---------------------------------------------------------------------
      1         11           0       -3.803686    1.689772    0.340075
      2         11           0       -3.090584   -1.461395    1.409194
      3         11           0        2.438072    2.389343    0.377618
      4         11           0        4.669060   -0.337898    0.702557
      5         11           0        2.461181   -1.975416   -0.590773
      6         11           0       -1.711970   -2.976504   -0.997556
      7         11           0       -0.962074    2.672099   -1.241113
 ---------------------------------------------------------------------

 SCF Done:  E(UB3LYP) =  -1136.10755848     A.U. after   24 cycles

 The electronic state is 2-A.
 Alpha  occ. eigenvalues --  -38.45761 -38.45264 -38.44563 -38.44166 -38.43951
 Alpha  occ. eigenvalues --  -38.43830 -38.43519  -2.21543  -2.21031  -2.20368
 Alpha  occ. eigenvalues --   -2.20022  -2.19713  -2.19647  -2.19324  -1.15228
 Alpha  occ. eigenvalues --   -1.15199  -1.15190  -1.14710  -1.14690  -1.14642
 Alpha  occ. eigenvalues --   -1.14053  -1.14036  -1.14022  -1.13699  -1.13659
 Alpha  occ. eigenvalues --   -1.13643  -1.13397  -1.13393  -1.13366  -1.13306
 Alpha  occ. eigenvalues --   -1.13295  -1.13261  -1.12981  -1.12973  -1.12957
 Alpha  occ. eigenvalues --   -0.15935  -0.14385  -0.12499  -0.10482
 Alpha virt. eigenvalues --   -0.07488  -0.05099  -0.04345  -0.03770  -0.03486
 Alpha virt. eigenvalues --   -0.02293  -0.02003  -0.01633  -0.01437  -0.00743
 Alpha virt. eigenvalues --   -0.00453  -0.00195   0.00172   0.00458   0.00578

  Beta  occ. eigenvalues --  -38.45736 -38.45216 -38.44566 -38.44128 -38.43959
  Beta  occ. eigenvalues --  -38.43782 -38.43480  -2.21501  -2.20944  -2.20377
  Beta  occ. eigenvalues --   -2.19951  -2.19730  -2.19557  -2.19248  -1.15197
  Beta  occ. eigenvalues --   -1.15175  -1.15132  -1.14654  -1.14632  -1.14568
  Beta  occ. eigenvalues --   -1.14064  -1.14045  -1.13996  -1.13643  -1.13612
  Beta  occ. eigenvalues --   -1.13599  -1.13411  -1.13406  -1.13355  -1.13244
  Beta  occ. eigenvalues --   -1.13235  -1.13211  -1.12940  -1.12921  -1.12901
  Beta  occ. eigenvalues --   -0.15420  -0.13957  -0.11988
  Beta virt. eigenvalues --   -0.07489  -0.07140  -0.04699  -0.03777  -0.03574
  Beta virt. eigenvalues --   -0.03191  -0.02152  -0.01729  -0.01468  -0.01082
  Beta virt. eigenvalues --   -0.00487  -0.00299   0.00108   0.00248   0.00483

 Mulliken charges and spin densities:
               1          2
     1  Na   0.214571   0.242528
     2  Na  -0.025409  -0.005834
     3  Na  -0.261717   0.260244
     4  Na   1.023143   0.148280
     5  Na  -0.638472   0.240927
     6  Na  -0.175784   0.194019
     7  Na  -0.136330  -0.080162
 Sum of Mulliken charges =  -0.00000   1.00000

 Dipole moment (field-independent basis, Debye):
    X=              1.4340    Y=              0.0408    Z=              0.3734  Tot=              1.4824
 Quadrupole moment (field-independent basis, Debye-Ang):
   XX=            -61.7569   YY=            -73.4432   ZZ=            -66.6140
   XY=              2.0892   XZ=              1.8649   YZ=              1.5476

 Normal termination of Gaussian 16 at Sun Dec  3 15:00:27 2023.
