 Gaussian 16, Revision B.01,
 Gaussian 16:  ES64L-G16RevB.01 20-Dec-2017

 -------------------------
 #P B3LYP/6-311+g(d) force
 -------------------------

 -----
 DPGEN
 -----
 Symbolic Z-matrix:
 Charge =  0 Multiplicity = 2

                         Standard orientation:
 ---------------------------------------------------------------------
 Center     Atomic      Atomic             Coordinates (Angstroms)
 Number     Number       Type             X           Y           Z
 ---------------------------------------------------------------------
      1         11           0        2.394758    1.574915   -0.081435
      2         11           0       -0.862039    2.631896    0.011013
      3         11           0       -2.979389    0.005832   -0.038181
      4         11           0        0.185854    0.025992    1.780672
      5         11           0       -1.080169   -2.483919    0.083383
      6         11           0       -0.085295   -0.033518   -1.636063
      7         11           0        2.426281   -1.721197   -0.119388
 ---------------------------------------------------------------------

 SCF Done:  E(UB3LYP) =  -1136.13752356     A.U. after   18 cycles

 The electronic state is 2-A.
 Alpha  occ. eigenvalues --  -38.43786 -38.43587 -38.43585 -38.43202 -38.43102
 Alpha  occ. eigenvalues --  -38.43063 -38.42951  -2.19691  -2.19498  -2.19468
 Alpha  occ. eigenvalues --   -2.19139  -2.19081  -2.19019  -2.19014  -1.13388
 Alpha  occ. eigenvalues --   -1.13352  -1.13338  -1.13218  -1.13171  -1.13160
 Alpha  occ. eigenvalues --   -1.13133  -1.13127  -1.13075  -1.12880  -1.12822
 Alpha  occ. eigenvalues --   -1.12792  -1.12758  -1.12729  -1.12714  -1.12689
 Alpha  occ. eigenvalues --   -1.12667  -1.12648  -1.12640  -1.12623  -1.12600
 Alpha  occ. eigenvalues --   -0.19575  -0.13382  -0.12690  -0.10778
 Alpha virt. eigenvalues --   -0.05403  -0.05098  -0.04519  -0.03193  -0.02815
 Alpha virt. eigenvalues --   -0.02294  -0.01429  -0.01027  -0.00064  -0.00041
 Alpha virt. eigenvalues --    0.00031   0.00368   0.00853   0.00948   0.00962

  Beta  occ. eigenvalues --  -38.43781 -38.43579 -38.43579 -38.43193 -38.43095
  Beta  occ. eigenvalues --  -38.42978 -38.42877  -2.19686  -2.19489  -2.19461
  Beta  occ. eigenvalues --   -2.19128  -2.19008  -2.18925  -2.18882  -1.13387
  Beta  occ. eigenvalues --   -1.13347  -1.13311  -1.13215  -1.13159  -1.13130
  Beta  occ. eigenvalues --   -1.13125  -1.13098  -1.13074  -1.12860  -1.12769
  Beta  occ. eigenvalues --   -1.12755  -1.12745  -1.12665  -1.12646  -1.12639
  Beta  occ. eigenvalues --   -1.12581  -1.12581  -1.12563  -1.12530  -1.12517
  Beta  occ. eigenvalues --   -0.18829  -0.13102  -0.12404
  Beta virt. eigenvalues --   -0.06811  -0.05385  -0.05103  -0.04527  -0.02343
  Beta virt. eigenvalues --   -0.01993  -0.01347  -0.01234  -0.00970  -0.00118
  Beta virt. eigenvalues --   -0.00099   0.00154   0.00392   0.00903   0.00944

 Mulliken charges and spin densities:
               1          2
     1  Na   0.228305  -0.070771
     2  Na   0.230091  -0.086775
     3  Na   0.182162  -0.042610
     4  Na  -0.539662   0.727921
     5  Na   0.285027  -0.067013
     6  Na  -0.570382   0.619363
     7  Na   0.184458  -0.080114
 Sum of Mulliken charges =  -0.00000   1.00000

 Dipole moment (field-independent basis, Debye):
    X=              0.0821    Y=             -0.0060    Z=              0.0641  Tot=              0.1044
 Quadrupole moment (field-independent basis, Debye-Ang):
   XX=            -55.9501   YY=            -62.5942   ZZ=            -74.4851
   XY=             -0.4433   XZ=             -0.5795   YZ=             -0.1062

 Normal termination of Gaussian 16 at Tue Nov 28 20:27:30 2023.
