 Gaussian 16, Revision B.01,
 Gaussian 16:  ES64L-G16RevB.01 20-Dec-2017

 -------------------------
 #P B3LYP/6-311+g(d) force
 -------------------------

 -----
 DPGEN
 -----
 Symbolic Z-matrix:
 Charge =  0 Multiplicity = 2

                         Standard orientation:
 ---------------------------------------------------------------------
 Center     Atomic      Atomic             Coordinates (Angstroms)
 Number     Number       Type             X           Y           Z
 ---------------------------------------------------------------------
      1         11           0       -2.609942    1.988332   -0.192925
      2         11           0        1.558236    2.463704   -0.515144
      3         11           0       -2.794220   -1.684320    0.513929
      4         11           0        0.054585    0.402233    2.146264
      5         11           0        0.994091   -2.589249   -0.471683
      6         11           0        3.482267   -0.288379    0.257443
      7         11           0       -0.685017   -0.292321   -1.737884
 ---------------------------------------------------------------------

 SCF Done:  E(UB3LYP) =  -1136.13079068     A.U. after   20 cycles

 The electronic state is 2-A.
 Alpha  occ. eigenvalues --  -38.44492 -38.44454 -38.44186 -38.44150 -38.43673
 Alpha  occ. eigenvalues --  -38.43377 -38.43092  -2.20285  -2.20254  -2.20008
 Alpha  occ. eigenvalues --   -2.19947  -2.19473  -2.19315  -2.18935  -1.13960
 Alpha  occ. eigenvalues --   -1.13940  -1.13934  -1.13928  -1.13914  -1.13888
 Alpha  occ. eigenvalues --   -1.13675  -1.13646  -1.13636  -1.13624  -1.13599
 Alpha  occ. eigenvalues --   -1.13582  -1.13154  -1.13139  -1.13105  -1.13015
 Alpha  occ. eigenvalues --   -1.12962  -1.12936  -1.12629  -1.12588  -1.12549
 Alpha  occ. eigenvalues --   -0.18016  -0.13208  -0.11845  -0.10808
 Alpha virt. eigenvalues --   -0.06135  -0.05721  -0.04180  -0.03430  -0.02869
 Alpha virt. eigenvalues --   -0.02645  -0.01851  -0.01322  -0.00633  -0.00221
 Alpha virt. eigenvalues --   -0.00069   0.00328   0.00631   0.00704   0.00786

  Beta  occ. eigenvalues --  -38.44494 -38.44443 -38.44145 -38.44100 -38.43665
  Beta  occ. eigenvalues --  -38.43314 -38.43084  -2.20290  -2.20234  -2.19942
  Beta  occ. eigenvalues --   -2.19849  -2.19462  -2.19199  -2.18922  -1.13957
  Beta  occ. eigenvalues --   -1.13943  -1.13936  -1.13908  -1.13893  -1.13874
  Beta  occ. eigenvalues --   -1.13621  -1.13595  -1.13577  -1.13567  -1.13533
  Beta  occ. eigenvalues --   -1.13505  -1.13142  -1.13123  -1.13096  -1.12936
  Beta  occ. eigenvalues --   -1.12880  -1.12853  -1.12609  -1.12566  -1.12544
  Beta  occ. eigenvalues --   -0.17304  -0.13059  -0.11611
  Beta virt. eigenvalues --   -0.06958  -0.05971  -0.05701  -0.04056  -0.02789
  Beta virt. eigenvalues --   -0.02146  -0.01741  -0.01672  -0.01217  -0.00641
  Beta virt. eigenvalues --   -0.00232   0.00074   0.00365   0.00741   0.00793

 Mulliken charges and spin densities:
               1          2
     1  Na   0.083964  -0.079827
     2  Na  -0.080308  -0.058130
     3  Na   0.004491   0.070447
     4  Na  -0.360476   0.687381
     5  Na   0.012330  -0.039576
     6  Na   0.036559  -0.003059
     7  Na   0.303440   0.422765
 Sum of Mulliken charges =  -0.00000   1.00000

 Dipole moment (field-independent basis, Debye):
    X=             -0.2370    Y=              0.1334    Z=              0.3472  Tot=              0.4411
 Quadrupole moment (field-independent basis, Debye-Ang):
   XX=            -52.4977   YY=            -67.5809   ZZ=            -73.7081
   XY=              0.0646   XZ=             -0.8758   YZ=             -2.0803

 Normal termination of Gaussian 16 at Thu Dec  7 10:01:42 2023.
