 Gaussian 16, Revision B.01,
 Gaussian 16:  ES64L-G16RevB.01 20-Dec-2017

 -------------------------
 #P B3LYP/6-311+g(d) force
 -------------------------

 -----
 DPGEN
 -----
 Symbolic Z-matrix:
 Charge =  0 Multiplicity = 2

                         Standard orientation:
 ---------------------------------------------------------------------
 Center     Atomic      Atomic             Coordinates (Angstroms)
 Number     Number       Type             X           Y           Z
 ---------------------------------------------------------------------
      1         11           0       -0.312193   -0.600649   -1.336022
      2         11           0        1.025871   -2.535709    1.289369
      3         11           0        0.909879    0.775875    1.687631
      4         11           0       -1.984912    1.676959    0.717565
      5         11           0       -4.023483   -0.942784   -0.598953
      6         11           0        1.437002    2.350300   -0.612936
      7         11           0        2.947836   -0.723991   -1.146653
 ---------------------------------------------------------------------

 SCF Done:  E(UB3LYP) =  -1136.12604471     A.U. after   22 cycles

 The electronic state is 2-A.
 Alpha  occ. eigenvalues --  -38.44215 -38.44175 -38.43783 -38.43619 -38.43586
 Alpha  occ. eigenvalues --  -38.43460 -38.43289  -2.20046  -2.19978  -2.19704
 Alpha  occ. eigenvalues --   -2.19489  -2.19484  -2.19435  -2.19221  -1.13742
 Alpha  occ. eigenvalues --   -1.13697  -1.13660  -1.13649  -1.13641  -1.13606
 Alpha  occ. eigenvalues --   -1.13422  -1.13373  -1.13314  -1.13307  -1.13245
 Alpha  occ. eigenvalues --   -1.13163  -1.13149  -1.13115  -1.13079  -1.13072
 Alpha  occ. eigenvalues --   -1.13046  -1.13028  -1.12870  -1.12848  -1.12800
 Alpha  occ. eigenvalues --   -0.18759  -0.13218  -0.11939  -0.11386
 Alpha virt. eigenvalues --   -0.06236  -0.04945  -0.04197  -0.03141  -0.03054
 Alpha virt. eigenvalues --   -0.02545  -0.02010  -0.01110  -0.00559  -0.00023
 Alpha virt. eigenvalues --    0.00120   0.00239   0.00527   0.00789   0.00847

  Beta  occ. eigenvalues --  -38.44207 -38.44140 -38.43755 -38.43609 -38.43538
  Beta  occ. eigenvalues --  -38.43397 -38.43275  -2.19985  -2.19964  -2.19654
  Beta  occ. eigenvalues --   -2.19469  -2.19375  -2.19346  -2.19198  -1.13691
  Beta  occ. eigenvalues --   -1.13660  -1.13637  -1.13632  -1.13605  -1.13596
  Beta  occ. eigenvalues --   -1.13383  -1.13331  -1.13272  -1.13245  -1.13205
  Beta  occ. eigenvalues --   -1.13145  -1.13084  -1.13072  -1.13023  -1.13018
  Beta  occ. eigenvalues --   -1.12988  -1.12962  -1.12850  -1.12820  -1.12754
  Beta  occ. eigenvalues --   -0.18034  -0.12942  -0.11658
  Beta virt. eigenvalues --   -0.07508  -0.06004  -0.04782  -0.03951  -0.02699
  Beta virt. eigenvalues --   -0.02511  -0.01997  -0.01497  -0.01084  -0.00273
  Beta virt. eigenvalues --    0.00081   0.00152   0.00295   0.00640   0.00859

 Mulliken charges and spin densities:
               1          2
     1  Na  -0.562890   0.340947
     2  Na  -0.285287   0.100584
     3  Na   0.582976   0.447312
     4  Na  -0.494869  -0.116159
     5  Na   0.329607   0.061535
     6  Na  -0.072255   0.151528
     7  Na   0.502718   0.014254
 Sum of Mulliken charges =  -0.00000   1.00000

 Dipole moment (field-independent basis, Debye):
    X=              0.0874    Y=             -0.2402    Z=             -0.0880  Tot=              0.2704
 Quadrupole moment (field-independent basis, Debye-Ang):
   XX=            -55.4330   YY=            -68.4335   ZZ=            -69.7494
   XY=              0.8019   XZ=             -2.2689   YZ=             -1.7260

 Normal termination of Gaussian 16 at Tue Dec  5 10:14:45 2023.
