 Gaussian 16, Revision B.01,
 Gaussian 16:  ES64L-G16RevB.01 20-Dec-2017

 -------------------------
 #P B3LYP/6-311+g(d) force
 -------------------------

 -----
 DPGEN
 -----
 Symbolic Z-matrix:
 Charge =  0 Multiplicity = 2

                         Standard orientation:
 ---------------------------------------------------------------------
 Center     Atomic      Atomic             Coordinates (Angstroms)
 Number     Number       Type             X           Y           Z
 ---------------------------------------------------------------------
      1         11           0        0.104731   -0.180547    2.046808
      2         11           0       -0.518155    2.618055   -0.486984
      3         11           0        2.575946    1.594999    0.229379
      4         11           0        2.536173   -1.874366   -0.279728
      5         11           0       -2.942349    0.451953    0.351743
      6         11           0       -0.355240   -0.293214   -1.836698
      7         11           0       -1.401105   -2.316881   -0.024519
 ---------------------------------------------------------------------

 SCF Done:  E(UB3LYP) =  -1136.13451350     A.U. after   19 cycles

 The electronic state is 2-A.
 Alpha  occ. eigenvalues --  -38.43915 -38.43872 -38.43868 -38.43721 -38.43667
 Alpha  occ. eigenvalues --  -38.43391 -38.42856  -2.19820  -2.19769  -2.19671
 Alpha  occ. eigenvalues --   -2.19658  -2.19557  -2.19331  -2.18748  -1.13510
 Alpha  occ. eigenvalues --   -1.13465  -1.13458  -1.13452  -1.13423  -1.13415
 Alpha  occ. eigenvalues --   -1.13412  -1.13353  -1.13331  -1.13314  -1.13308
 Alpha  occ. eigenvalues --   -1.13241  -1.13231  -1.13220  -1.13191  -1.12990
 Alpha  occ. eigenvalues --   -1.12982  -1.12923  -1.12442  -1.12397  -1.12381
 Alpha  occ. eigenvalues --   -0.18999  -0.13177  -0.12305  -0.11278
 Alpha virt. eigenvalues --   -0.05506  -0.05230  -0.04209  -0.03473  -0.03002
 Alpha virt. eigenvalues --   -0.02916  -0.01454  -0.00939  -0.00139  -0.00071
 Alpha virt. eigenvalues --    0.00052   0.00377   0.00816   0.00899   0.00955

  Beta  occ. eigenvalues --  -38.43866 -38.43863 -38.43828 -38.43719 -38.43587
  Beta  occ. eigenvalues --  -38.43380 -38.42845  -2.19756  -2.19671  -2.19658
  Beta  occ. eigenvalues --   -2.19557  -2.19513  -2.19317  -2.18733  -1.13463
  Beta  occ. eigenvalues --   -1.13424  -1.13392  -1.13381  -1.13347  -1.13346
  Beta  occ. eigenvalues --   -1.13338  -1.13332  -1.13312  -1.13305  -1.13226
  Beta  occ. eigenvalues --   -1.13211  -1.13204  -1.13195  -1.13139  -1.12972
  Beta  occ. eigenvalues --   -1.12933  -1.12911  -1.12425  -1.12379  -1.12364
  Beta  occ. eigenvalues --   -0.18226  -0.12955  -0.12039
  Beta virt. eigenvalues --   -0.07314  -0.05452  -0.05194  -0.04184  -0.02673
  Beta virt. eigenvalues --   -0.02218  -0.01852  -0.01354  -0.00881  -0.00131
  Beta virt. eigenvalues --   -0.00079   0.00113   0.00400   0.00875   0.00913

 Mulliken charges and spin densities:
               1          2
     1  Na  -0.428167   0.597201
     2  Na   0.071884  -0.023698
     3  Na  -0.029006  -0.039168
     4  Na  -0.006569  -0.120080
     5  Na   0.240274   0.085112
     6  Na  -0.236138   0.574137
     7  Na   0.387721  -0.073504
 Sum of Mulliken charges =  -0.00000   1.00000

 Dipole moment (field-independent basis, Debye):
    X=              0.1523    Y=             -0.1815    Z=              0.2299  Tot=              0.3302
 Quadrupole moment (field-independent basis, Debye-Ang):
   XX=            -57.2298   YY=            -66.4333   ZZ=            -71.4064
   XY=             -0.6033   XZ=             -1.0903   YZ=              0.2073

 Normal termination of Gaussian 16 at Tue Dec  5 17:09:02 2023.
