 Gaussian 16, Revision B.01,
 Gaussian 16:  ES64L-G16RevB.01 20-Dec-2017

 -------------------------
 #P B3LYP/6-311+g(d) force
 -------------------------

 -----
 DPGEN
 -----
 Symbolic Z-matrix:
 Charge =  0 Multiplicity = 2

                         Standard orientation:
 ---------------------------------------------------------------------
 Center     Atomic      Atomic             Coordinates (Angstroms)
 Number     Number       Type             X           Y           Z
 ---------------------------------------------------------------------
      1         11           0       -2.476399    1.732051    0.142674
      2         11           0        0.019898    0.129042   -1.674836
      3         11           0        0.287410    2.735383   -0.189070
      4         11           0        3.228525    0.739068    0.408530
      5         11           0       -2.838622   -2.001154   -0.054746
      6         11           0        1.763879   -2.582150   -0.602952
      7         11           0        0.015309   -0.752241    1.970399
 ---------------------------------------------------------------------

 SCF Done:  E(UB3LYP) =  -1136.12942867     A.U. after   20 cycles

 The electronic state is 2-A.
 Alpha  occ. eigenvalues --  -38.44394 -38.44307 -38.44100 -38.43917 -38.43745
 Alpha  occ. eigenvalues --  -38.43331 -38.43084  -2.20182  -2.20068  -2.19908
 Alpha  occ. eigenvalues --   -2.19789  -2.19588  -2.19289  -2.19013  -1.13852
 Alpha  occ. eigenvalues --   -1.13840  -1.13820  -1.13744  -1.13723  -1.13714
 Alpha  occ. eigenvalues --   -1.13590  -1.13565  -1.13533  -1.13524  -1.13447
 Alpha  occ. eigenvalues --   -1.13413  -1.13265  -1.13233  -1.13195  -1.13032
 Alpha  occ. eigenvalues --   -1.12940  -1.12896  -1.12676  -1.12662  -1.12621
 Alpha  occ. eigenvalues --   -0.18279  -0.12991  -0.12337  -0.10539
 Alpha virt. eigenvalues --   -0.06159  -0.05437  -0.04453  -0.03238  -0.02914
 Alpha virt. eigenvalues --   -0.02390  -0.01825  -0.01343  -0.00638  -0.00259
 Alpha virt. eigenvalues --   -0.00024   0.00325   0.00693   0.00776   0.00813

  Beta  occ. eigenvalues --  -38.44382 -38.44311 -38.44080 -38.43915 -38.43672
  Beta  occ. eigenvalues --  -38.43262 -38.43078  -2.20163  -2.20077  -2.19873
  Beta  occ. eigenvalues --   -2.19788  -2.19453  -2.19163  -2.19006  -1.13830
  Beta  occ. eigenvalues --   -1.13820  -1.13810  -1.13739  -1.13728  -1.13722
  Beta  occ. eigenvalues --   -1.13557  -1.13532  -1.13526  -1.13512  -1.13432
  Beta  occ. eigenvalues --   -1.13407  -1.13175  -1.13138  -1.13095  -1.12950
  Beta  occ. eigenvalues --   -1.12853  -1.12807  -1.12668  -1.12641  -1.12598
  Beta  occ. eigenvalues --   -0.17588  -0.12761  -0.12117
  Beta virt. eigenvalues --   -0.06735  -0.06081  -0.05331  -0.04424  -0.02512
  Beta virt. eigenvalues --   -0.02232  -0.01744  -0.01372  -0.01220  -0.00671
  Beta virt. eigenvalues --   -0.00268   0.00117   0.00358   0.00726   0.00818

 Mulliken charges and spin densities:
               1          2
     1  Na   0.034173  -0.010905
     2  Na   0.031030   0.381525
     3  Na   0.224163   0.079976
     4  Na   0.060700   0.094331
     5  Na   0.049719  -0.092726
     6  Na   0.030977  -0.050042
     7  Na  -0.430761   0.597841
 Sum of Mulliken charges =  -0.00000   1.00000

 Dipole moment (field-independent basis, Debye):
    X=              0.0887    Y=             -0.4663    Z=              0.1506  Tot=              0.4980
 Quadrupole moment (field-independent basis, Debye-Ang):
   XX=            -54.8489   YY=            -63.1986   ZZ=            -75.1754
   XY=              0.5063   XZ=              0.4671   YZ=              1.9676

 Normal termination of Gaussian 16 at Fri Dec  8 06:18:28 2023.
