 Gaussian 16, Revision B.01,
 Gaussian 16:  ES64L-G16RevB.01 20-Dec-2017

 -------------------------
 #P B3LYP/6-311+g(d) force
 -------------------------

 -----
 DPGEN
 -----
 Symbolic Z-matrix:
 Charge =  0 Multiplicity = 2

                         Standard orientation:
 ---------------------------------------------------------------------
 Center     Atomic      Atomic             Coordinates (Angstroms)
 Number     Number       Type             X           Y           Z
 ---------------------------------------------------------------------
      1         11           0       -0.127932    0.277300    2.052805
      2         11           0        0.896415   -2.965246    0.215034
      3         11           0        0.179220   -0.341988   -0.920953
      4         11           0       -2.864126   -1.613209   -0.254841
      5         11           0        3.266246   -0.119524   -0.614182
      6         11           0        0.918942    2.926930    0.133928
      7         11           0       -2.268766    1.835738   -0.611791
 ---------------------------------------------------------------------

 SCF Done:  E(UB3LYP) =  -1136.13070311     A.U. after   19 cycles

 The electronic state is 2-A.
 Alpha  occ. eigenvalues --  -38.44099 -38.43968 -38.43887 -38.43596 -38.43590
 Alpha  occ. eigenvalues --  -38.43450 -38.42648  -2.19941  -2.19793  -2.19699
 Alpha  occ. eigenvalues --   -2.19455  -2.19438  -2.19369  -2.18787  -1.13692
 Alpha  occ. eigenvalues --   -1.13592  -1.13543  -1.13497  -1.13436  -1.13408
 Alpha  occ. eigenvalues --   -1.13379  -1.13358  -1.13336  -1.13163  -1.13132
 Alpha  occ. eigenvalues --   -1.13115  -1.13104  -1.13091  -1.13081  -1.13047
 Alpha  occ. eigenvalues --   -1.12973  -1.12952  -1.12497  -1.12438  -1.12394
 Alpha  occ. eigenvalues --   -0.18615  -0.12946  -0.12631  -0.10314
 Alpha virt. eigenvalues --   -0.05654  -0.05145  -0.05036  -0.02858  -0.02713
 Alpha virt. eigenvalues --   -0.02048  -0.01609  -0.01402  -0.00595  -0.00447
 Alpha virt. eigenvalues --   -0.00005   0.00311   0.00788   0.00811   0.00854

  Beta  occ. eigenvalues --  -38.44096 -38.43945 -38.43882 -38.43591 -38.43572
  Beta  occ. eigenvalues --  -38.43346 -38.42621  -2.19938  -2.19752  -2.19693
  Beta  occ. eigenvalues --   -2.19433  -2.19423  -2.19177  -2.18744  -1.13690
  Beta  occ. eigenvalues --   -1.13574  -1.13538  -1.13465  -1.13403  -1.13382
  Beta  occ. eigenvalues --   -1.13370  -1.13356  -1.13322  -1.13145  -1.13106
  Beta  occ. eigenvalues --   -1.13095  -1.13080  -1.13072  -1.13029  -1.12968
  Beta  occ. eigenvalues --   -1.12844  -1.12813  -1.12424  -1.12413  -1.12365
  Beta  occ. eigenvalues --   -0.17941  -0.12648  -0.12385
  Beta virt. eigenvalues --   -0.06550  -0.05522  -0.05107  -0.04884  -0.02190
  Beta virt. eigenvalues --   -0.02065  -0.01490  -0.01341  -0.01087  -0.00571
  Beta virt. eigenvalues --   -0.00422   0.00162   0.00383   0.00806   0.00862

 Mulliken charges and spin densities:
               1          2
     1  Na  -0.179002   0.593815
     2  Na   0.252509   0.126429
     3  Na  -1.143169  -0.154067
     4  Na   0.244906   0.038816
     5  Na   0.339772   0.162878
     6  Na   0.330689   0.111264
     7  Na   0.154295   0.120864
 Sum of Mulliken charges =  -0.00000   1.00000

 Dipole moment (field-independent basis, Debye):
    X=              0.0558    Y=             -0.1793    Z=              0.3458  Tot=              0.3935
 Quadrupole moment (field-independent basis, Debye-Ang):
   XX=            -57.6006   YY=            -57.2648   ZZ=            -75.8431
   XY=              1.0943   XZ=              0.2366   YZ=             -1.4143

 Normal termination of Gaussian 16 at Thu Dec  7 11:11:50 2023.
