 Gaussian 16, Revision B.01,
 Gaussian 16:  ES64L-G16RevB.01 20-Dec-2017

 -------------------------
 #P B3LYP/6-311+g(d) force
 -------------------------

 -----
 DPGEN
 -----
 Symbolic Z-matrix:
 Charge =  0 Multiplicity = 2

                         Standard orientation:
 ---------------------------------------------------------------------
 Center     Atomic      Atomic             Coordinates (Angstroms)
 Number     Number       Type             X           Y           Z
 ---------------------------------------------------------------------
      1         11           0        0.184614    0.180195    1.800497
      2         11           0       -0.715135   -2.663402    0.413700
      3         11           0       -1.468021    2.424613   -0.027386
      4         11           0        2.859678   -1.366025   -0.192673
      5         11           0       -3.248114   -0.211353   -0.159291
      6         11           0       -0.037017   -0.355841   -1.789710
      7         11           0        2.423995    1.991813   -0.045137
 ---------------------------------------------------------------------

 SCF Done:  E(UB3LYP) =  -1136.13747490     A.U. after   19 cycles

 The electronic state is 2-A.
 Alpha  occ. eigenvalues --  -38.44332 -38.44187 -38.43789 -38.43419 -38.43230
 Alpha  occ. eigenvalues --  -38.43189 -38.43010  -2.20175  -2.20021  -2.19618
 Alpha  occ. eigenvalues --   -2.19355  -2.19145  -2.19100  -2.18889  -1.13854
 Alpha  occ. eigenvalues --   -1.13837  -1.13815  -1.13699  -1.13684  -1.13657
 Alpha  occ. eigenvalues --   -1.13296  -1.13278  -1.13256  -1.13049  -1.12998
 Alpha  occ. eigenvalues --   -1.12969  -1.12844  -1.12813  -1.12771  -1.12762
 Alpha  occ. eigenvalues --   -1.12744  -1.12724  -1.12567  -1.12552  -1.12504
 Alpha  occ. eigenvalues --   -0.18771  -0.13389  -0.12172  -0.10658
 Alpha virt. eigenvalues --   -0.05963  -0.05330  -0.04261  -0.03300  -0.02761
 Alpha virt. eigenvalues --   -0.02389  -0.01824  -0.01125  -0.00364  -0.00229
 Alpha virt. eigenvalues --   -0.00005   0.00350   0.00748   0.00871   0.00900

  Beta  occ. eigenvalues --  -38.44329 -38.44181 -38.43786 -38.43349 -38.43224
  Beta  occ. eigenvalues --  -38.43106 -38.42996  -2.20172  -2.20012  -2.19616
  Beta  occ. eigenvalues --   -2.19226  -2.19094  -2.18993  -2.18867  -1.13854
  Beta  occ. eigenvalues --   -1.13820  -1.13809  -1.13686  -1.13667  -1.13651
  Beta  occ. eigenvalues --   -1.13288  -1.13268  -1.13253  -1.12963  -1.12909
  Beta  occ. eigenvalues --   -1.12873  -1.12799  -1.12741  -1.12732  -1.12722
  Beta  occ. eigenvalues --   -1.12662  -1.12650  -1.12549  -1.12504  -1.12494
  Beta  occ. eigenvalues --   -0.18043  -0.13151  -0.11917
  Beta virt. eigenvalues --   -0.06767  -0.05888  -0.05343  -0.04237  -0.02525
  Beta virt. eigenvalues --   -0.01989  -0.01715  -0.01350  -0.01075  -0.00406
  Beta virt. eigenvalues --   -0.00263   0.00127   0.00379   0.00809   0.00869

 Mulliken charges and spin densities:
               1          2
     1  Na  -0.212414   0.691403
     2  Na   0.127065  -0.069860
     3  Na   0.052249  -0.120077
     4  Na   0.189513  -0.045611
     5  Na   0.156610  -0.015511
     6  Na  -0.328164   0.676023
     7  Na   0.015141  -0.116366
 Sum of Mulliken charges =  -0.00000   1.00000

 Dipole moment (field-independent basis, Debye):
    X=              0.1332    Y=             -0.0773    Z=             -0.0967  Tot=              0.1818
 Quadrupole moment (field-independent basis, Debye-Ang):
   XX=            -52.8116   YY=            -65.2629   ZZ=            -74.7934
   XY=              0.3196   XZ=             -0.3295   YZ=             -1.0523

 Normal termination of Gaussian 16 at Sun Dec  3 22:30:03 2023.
