 Gaussian 16, Revision B.01,
 Gaussian 16:  ES64L-G16RevB.01 20-Dec-2017

 -------------------------
 #P B3LYP/6-311+g(d) force
 -------------------------

 -----
 DPGEN
 -----
 Symbolic Z-matrix:
 Charge =  0 Multiplicity = 2

                         Standard orientation:
 ---------------------------------------------------------------------
 Center     Atomic      Atomic             Coordinates (Angstroms)
 Number     Number       Type             X           Y           Z
 ---------------------------------------------------------------------
      1         11           0       -2.103743   -2.019790   -0.063356
      2         11           0        0.149850    2.980910   -0.352844
      3         11           0       -0.303452    0.271285    1.817407
      4         11           0       -2.640414    1.059454    0.036792
      5         11           0        3.142421    0.850553    0.074514
      6         11           0        0.039737   -0.538377   -1.747722
      7         11           0        1.715603   -2.604036    0.235210
 ---------------------------------------------------------------------

 SCF Done:  E(UB3LYP) =  -1136.13535808     A.U. after   19 cycles

 The electronic state is 2-A.
 Alpha  occ. eigenvalues --  -38.44265 -38.43870 -38.43608 -38.43531 -38.43450
 Alpha  occ. eigenvalues --  -38.43333 -38.43208  -2.20043  -2.19684  -2.19522
 Alpha  occ. eigenvalues --   -2.19472  -2.19289  -2.19286  -2.19166  -1.13723
 Alpha  occ. eigenvalues --   -1.13699  -1.13684  -1.13371  -1.13348  -1.13314
 Alpha  occ. eigenvalues --   -1.13294  -1.13224  -1.13193  -1.13162  -1.13117
 Alpha  occ. eigenvalues --   -1.13060  -1.12967  -1.12954  -1.12944  -1.12922
 Alpha  occ. eigenvalues --   -1.12898  -1.12887  -1.12838  -1.12786  -1.12783
 Alpha  occ. eigenvalues --   -0.18812  -0.13005  -0.12625  -0.10589
 Alpha virt. eigenvalues --   -0.05708  -0.05156  -0.04833  -0.03130  -0.02966
 Alpha virt. eigenvalues --   -0.02298  -0.01418  -0.01196  -0.00456  -0.00347
 Alpha virt. eigenvalues --    0.00018   0.00363   0.00813   0.00860   0.00910

  Beta  occ. eigenvalues --  -38.44266 -38.43866 -38.43598 -38.43520 -38.43443
  Beta  occ. eigenvalues --  -38.43254 -38.43136  -2.20046  -2.19679  -2.19509
  Beta  occ. eigenvalues --   -2.19459  -2.19274  -2.19144  -2.19034  -1.13711
  Beta  occ. eigenvalues --   -1.13702  -1.13689  -1.13362  -1.13333  -1.13312
  Beta  occ. eigenvalues --   -1.13284  -1.13192  -1.13180  -1.13130  -1.13076
  Beta  occ. eigenvalues --   -1.13056  -1.12949  -1.12925  -1.12916  -1.12859
  Beta  occ. eigenvalues --   -1.12798  -1.12787  -1.12752  -1.12690  -1.12686
  Beta  occ. eigenvalues --   -0.18072  -0.12768  -0.12389
  Beta virt. eigenvalues --   -0.06693  -0.05713  -0.05095  -0.04772  -0.02350
  Beta virt. eigenvalues --   -0.02208  -0.01373  -0.01263  -0.01123  -0.00488
  Beta virt. eigenvalues --   -0.00395   0.00154   0.00394   0.00825   0.00891

 Mulliken charges and spin densities:
               1          2
     1  Na   0.378111  -0.063872
     2  Na  -0.090740  -0.066161
     3  Na  -0.346235   0.656190
     4  Na   0.483827   0.090336
     5  Na  -0.125345  -0.112886
     6  Na  -0.227199   0.634040
     7  Na  -0.072418  -0.137647
 Sum of Mulliken charges =  -0.00000   1.00000

 Dipole moment (field-independent basis, Debye):
    X=              0.4093    Y=             -0.1117    Z=              0.0426  Tot=              0.4264
 Quadrupole moment (field-independent basis, Debye-Ang):
   XX=            -57.5324   YY=            -60.7806   ZZ=            -74.9779
   XY=              0.2774   XZ=              0.7964   YZ=             -1.8421

 Normal termination of Gaussian 16 at Thu Dec  7 08:46:09 2023.
