 Gaussian 16, Revision B.01,
 Gaussian 16:  ES64L-G16RevB.01 20-Dec-2017

 -------------------------
 #P B3LYP/6-311+g(d) force
 -------------------------

 -----
 DPGEN
 -----
 Symbolic Z-matrix:
 Charge =  0 Multiplicity = 2

                         Standard orientation:
 ---------------------------------------------------------------------
 Center     Atomic      Atomic             Coordinates (Angstroms)
 Number     Number       Type             X           Y           Z
 ---------------------------------------------------------------------
      1         11           0       -0.326528    1.646127    1.874280
      2         11           0       -1.980654    1.284466   -0.728613
      3         11           0        0.866749   -0.606572   -0.886611
      4         11           0       -3.075953   -1.531352   -1.154160
      5         11           0        3.442831   -2.215621   -0.204422
      6         11           0        1.867767    2.875720   -0.764750
      7         11           0       -0.794212   -1.452768    1.864275
 ---------------------------------------------------------------------

 SCF Done:  E(UB3LYP) =  -1136.12016057     A.U. after   21 cycles

 The electronic state is 2-A.
 Alpha  occ. eigenvalues --  -38.44570 -38.44363 -38.44117 -38.43998 -38.43920
 Alpha  occ. eigenvalues --  -38.43634 -38.42798  -2.20453  -2.20137  -2.19958
 Alpha  occ. eigenvalues --   -2.19930  -2.19846  -2.19413  -2.18739  -1.14172
 Alpha  occ. eigenvalues --   -1.14090  -1.14039  -1.13813  -1.13795  -1.13755
 Alpha  occ. eigenvalues --   -1.13735  -1.13670  -1.13618  -1.13593  -1.13574
 Alpha  occ. eigenvalues --   -1.13511  -1.13491  -1.13461  -1.13419  -1.13104
 Alpha  occ. eigenvalues --   -1.13067  -1.13056  -1.12449  -1.12389  -1.12363
 Alpha  occ. eigenvalues --   -0.18437  -0.12751  -0.11862  -0.11783
 Alpha virt. eigenvalues --   -0.05981  -0.05596  -0.03887  -0.03214  -0.03067
 Alpha virt. eigenvalues --   -0.02733  -0.01747  -0.01444  -0.00671  -0.00005
 Alpha virt. eigenvalues --    0.00132   0.00231   0.00370   0.00686   0.00719

  Beta  occ. eigenvalues --  -38.44491 -38.44346 -38.44087 -38.43972 -38.43859
  Beta  occ. eigenvalues --  -38.43640 -38.42782  -2.20310  -2.20104  -2.19904
  Beta  occ. eigenvalues --   -2.19886  -2.19738  -2.19425  -2.18712  -1.14064
  Beta  occ. eigenvalues --   -1.13973  -1.13950  -1.13786  -1.13772  -1.13735
  Beta  occ. eigenvalues --   -1.13686  -1.13630  -1.13580  -1.13550  -1.13539
  Beta  occ. eigenvalues --   -1.13452  -1.13429  -1.13405  -1.13323  -1.13110
  Beta  occ. eigenvalues --   -1.13075  -1.13063  -1.12416  -1.12370  -1.12346
  Beta  occ. eigenvalues --   -0.17654  -0.12404  -0.11788
  Beta virt. eigenvalues --   -0.07738  -0.05819  -0.05359  -0.03440  -0.02990
  Beta virt. eigenvalues --   -0.02412  -0.02072  -0.01538  -0.01306  -0.00309
  Beta virt. eigenvalues --    0.00026   0.00239   0.00277   0.00419   0.00725

 Mulliken charges and spin densities:
               1          2
     1  Na  -0.113855   0.249758
     2  Na   1.029886   0.135899
     3  Na  -0.616999   0.240947
     4  Na   0.015147   0.138916
     5  Na  -0.238051  -0.061258
     6  Na  -0.092959   0.037798
     7  Na   0.016832   0.257940
 Sum of Mulliken charges =  -0.00000   1.00000

 Dipole moment (field-independent basis, Debye):
    X=             -0.2749    Y=              0.2875    Z=              0.2996  Tot=              0.4980
 Quadrupole moment (field-independent basis, Debye-Ang):
   XX=            -60.6341   YY=            -64.1774   ZZ=            -68.2957
   XY=              4.8295   XZ=              0.9642   YZ=             -2.3216

 Normal termination of Gaussian 16 at Tue Nov 28 23:25:49 2023.
