 Gaussian 16, Revision B.01,
 Gaussian 16:  ES64L-G16RevB.01 20-Dec-2017

 -------------------------
 #P B3LYP/6-311+g(d) force
 -------------------------

 -----
 DPGEN
 -----
 Symbolic Z-matrix:
 Charge =  0 Multiplicity = 2

                         Standard orientation:
 ---------------------------------------------------------------------
 Center     Atomic      Atomic             Coordinates (Angstroms)
 Number     Number       Type             X           Y           Z
 ---------------------------------------------------------------------
      1         11           0       -1.086392   -1.573696   -0.447600
      2         11           0       -1.509744    1.349206    0.282729
      3         11           0        1.630326    0.919314   -0.670492
      4         11           0        2.466356   -1.002265    1.682325
      5         11           0        2.188092   -2.810027   -0.870149
      6         11           0        0.625361    4.230876   -0.225033
      7         11           0       -4.313999   -1.113408    0.248220
 ---------------------------------------------------------------------

 SCF Done:  E(UB3LYP) =  -1136.12272670     A.U. after   23 cycles

 The electronic state is 2-A.
 Alpha  occ. eigenvalues --  -38.44357 -38.44280 -38.44166 -38.44092 -38.44024
 Alpha  occ. eigenvalues --  -38.43428 -38.43130  -2.20159  -2.20137  -2.20001
 Alpha  occ. eigenvalues --   -2.19964  -2.19884  -2.19348  -2.19040  -1.13950
 Alpha  occ. eigenvalues --   -1.13841  -1.13816  -1.13802  -1.13776  -1.13740
 Alpha  occ. eigenvalues --   -1.13712  -1.13686  -1.13637  -1.13624  -1.13580
 Alpha  occ. eigenvalues --   -1.13573  -1.13563  -1.13540  -1.13514  -1.13084
 Alpha  occ. eigenvalues --   -1.13019  -1.12913  -1.12702  -1.12669  -1.12649
 Alpha  occ. eigenvalues --   -0.17890  -0.13645  -0.12934  -0.09616
 Alpha virt. eigenvalues --   -0.06734  -0.05579  -0.04746  -0.03209  -0.02422
 Alpha virt. eigenvalues --   -0.02319  -0.02174  -0.01351  -0.01006  -0.00427
 Alpha virt. eigenvalues --   -0.00209   0.00128   0.00442   0.00577   0.00642

  Beta  occ. eigenvalues --  -38.44360 -38.44278 -38.44149 -38.44079 -38.43993
  Beta  occ. eigenvalues --  -38.43400 -38.43045  -2.20156  -2.20142  -2.19982
  Beta  occ. eigenvalues --   -2.19932  -2.19832  -2.19300  -2.18884  -1.13948
  Beta  occ. eigenvalues --   -1.13832  -1.13820  -1.13803  -1.13777  -1.13736
  Beta  occ. eigenvalues --   -1.13686  -1.13643  -1.13615  -1.13601  -1.13570
  Beta  occ. eigenvalues --   -1.13558  -1.13526  -1.13493  -1.13463  -1.13054
  Beta  occ. eigenvalues --   -1.12982  -1.12860  -1.12592  -1.12563  -1.12542
  Beta  occ. eigenvalues --   -0.17386  -0.13309  -0.12750
  Beta virt. eigenvalues --   -0.06539  -0.05843  -0.05406  -0.04615  -0.02716
  Beta virt. eigenvalues --   -0.02232  -0.02184  -0.01927  -0.00939  -0.00780
  Beta virt. eigenvalues --   -0.00218   0.00104   0.00345   0.00609   0.00699

 Mulliken charges and spin densities:
               1          2
     1  Na  -1.677260   0.204525
     2  Na  -0.756588   0.023941
     3  Na  -1.006371   0.331234
     4  Na   0.224328   0.335267
     5  Na   1.339024   0.001796
     6  Na   0.860762  -0.114877
     7  Na   1.016106   0.218115
 Sum of Mulliken charges =  -0.00000   1.00000

 Dipole moment (field-independent basis, Debye):
    X=             -0.7102    Y=              0.6183    Z=             -0.2696  Tot=              0.9795
 Quadrupole moment (field-independent basis, Debye-Ang):
   XX=            -60.7849   YY=            -55.6423   ZZ=            -75.1453
   XY=              0.0136   XZ=             -5.1185   YZ=             -0.1861

 Normal termination of Gaussian 16 at Wed Nov 29 00:59:33 2023.
