 Gaussian 16, Revision B.01,
 Gaussian 16:  ES64L-G16RevB.01 20-Dec-2017

 -------------------------
 #P B3LYP/6-311+g(d) force
 -------------------------

 -----
 DPGEN
 -----
 Symbolic Z-matrix:
 Charge =  0 Multiplicity = 2

                         Standard orientation:
 ---------------------------------------------------------------------
 Center     Atomic      Atomic             Coordinates (Angstroms)
 Number     Number       Type             X           Y           Z
 ---------------------------------------------------------------------
      1         11           0        3.172583   -0.001811   -0.142808
      2         11           0       -0.050745    0.009603    2.164597
      3         11           0       -2.503365    1.629149   -0.181947
      4         11           0       -2.791210   -1.639142   -0.081074
      5         11           0        1.031788    2.746891   -0.123547
      6         11           0        1.255949   -2.655423   -0.130888
      7         11           0       -0.115000   -0.089267   -1.504334
 ---------------------------------------------------------------------

 SCF Done:  E(UB3LYP) =  -1136.13702792     A.U. after   19 cycles

 The electronic state is 2-A.
 Alpha  occ. eigenvalues --  -38.44202 -38.44062 -38.43851 -38.43657 -38.43336
 Alpha  occ. eigenvalues --  -38.43091 -38.43053  -2.20045  -2.19890  -2.19720
 Alpha  occ. eigenvalues --   -2.19523  -2.19193  -2.19102  -2.18900  -1.13716
 Alpha  occ. eigenvalues --   -1.13708  -1.13692  -1.13577  -1.13556  -1.13533
 Alpha  occ. eigenvalues --   -1.13417  -1.13376  -1.13336  -1.13185  -1.13144
 Alpha  occ. eigenvalues --   -1.13139  -1.12919  -1.12848  -1.12824  -1.12788
 Alpha  occ. eigenvalues --   -1.12735  -1.12724  -1.12572  -1.12560  -1.12537
 Alpha  occ. eigenvalues --   -0.18661  -0.13355  -0.12168  -0.10699
 Alpha virt. eigenvalues --   -0.05819  -0.05327  -0.04453  -0.03258  -0.02656
 Alpha virt. eigenvalues --   -0.02612  -0.01699  -0.01136  -0.00434  -0.00326
 Alpha virt. eigenvalues --   -0.00021   0.00342   0.00747   0.00863   0.00889

  Beta  occ. eigenvalues --  -38.44199 -38.44060 -38.43844 -38.43550 -38.43331
  Beta  occ. eigenvalues --  -38.43050 -38.43037  -2.20042  -2.19889  -2.19711
  Beta  occ. eigenvalues --   -2.19325  -2.19188  -2.19006  -2.18896  -1.13712
  Beta  occ. eigenvalues --   -1.13697  -1.13686  -1.13577  -1.13544  -1.13525
  Beta  occ. eigenvalues --   -1.13405  -1.13351  -1.13334  -1.13053  -1.13005
  Beta  occ. eigenvalues --   -1.12999  -1.12903  -1.12833  -1.12816  -1.12720
  Beta  occ. eigenvalues --   -1.12673  -1.12655  -1.12563  -1.12539  -1.12535
  Beta  occ. eigenvalues --   -0.17940  -0.13133  -0.11947
  Beta virt. eigenvalues --   -0.06730  -0.05773  -0.05334  -0.04437  -0.02470
  Beta virt. eigenvalues --   -0.01905  -0.01608  -0.01485  -0.01075  -0.00485
  Beta virt. eigenvalues --   -0.00376   0.00140   0.00375   0.00819   0.00857

 Mulliken charges and spin densities:
               1          2
     1  Na   0.175789   0.004965
     2  Na  -0.651906   0.786783
     3  Na   0.301531   0.022717
     4  Na   0.223164  -0.018795
     5  Na   0.161672  -0.008304
     6  Na   0.238050  -0.025352
     7  Na  -0.448301   0.237986
 Sum of Mulliken charges =  -0.00000   1.00000

 Dipole moment (field-independent basis, Debye):
    X=             -0.1225    Y=             -0.1231    Z=              0.1805  Tot=              0.2505
 Quadrupole moment (field-independent basis, Debye-Ang):
   XX=            -54.3797   YY=            -63.8113   ZZ=            -75.0462
   XY=              0.7030   XZ=             -0.1065   YZ=             -0.2481

 Normal termination of Gaussian 16 at Fri Dec  8 07:23:55 2023.
