 Gaussian 16, Revision B.01,
 Gaussian 16:  ES64L-G16RevB.01 20-Dec-2017

 -------------------------
 #P B3LYP/6-311+g(d) force
 -------------------------

 -----
 DPGEN
 -----
 Symbolic Z-matrix:
 Charge =  0 Multiplicity = 2

                         Standard orientation:
 ---------------------------------------------------------------------
 Center     Atomic      Atomic             Coordinates (Angstroms)
 Number     Number       Type             X           Y           Z
 ---------------------------------------------------------------------
      1         11           0       -1.338905   -2.897282    0.048154
      2         11           0       -0.024219    0.029258    2.158349
      3         11           0       -1.220400    3.005896    0.114268
      4         11           0       -3.339362   -0.098333   -0.544373
      5         11           0        0.317976    0.114070   -1.373078
      6         11           0        2.758451    1.562127   -0.261147
      7         11           0        2.846458   -1.715736   -0.142174
 ---------------------------------------------------------------------

 SCF Done:  E(UB3LYP) =  -1136.13126281     A.U. after   19 cycles

 The electronic state is 2-A.
 Alpha  occ. eigenvalues --  -38.44347 -38.44271 -38.44258 -38.43569 -38.43511
 Alpha  occ. eigenvalues --  -38.43495 -38.43453  -2.20139  -2.20120  -2.20093
 Alpha  occ. eigenvalues --   -2.19420  -2.19416  -2.19303  -2.19280  -1.13860
 Alpha  occ. eigenvalues --   -1.13816  -1.13800  -1.13789  -1.13771  -1.13770
 Alpha  occ. eigenvalues --   -1.13754  -1.13737  -1.13689  -1.13133  -1.13075
 Alpha  occ. eigenvalues --   -1.13064  -1.13046  -1.13037  -1.13026  -1.12976
 Alpha  occ. eigenvalues --   -1.12963  -1.12952  -1.12948  -1.12935  -1.12926
 Alpha  occ. eigenvalues --   -0.18071  -0.13314  -0.11937  -0.10419
 Alpha virt. eigenvalues --   -0.05880  -0.05604  -0.04827  -0.03165  -0.02588
 Alpha virt. eigenvalues --   -0.02411  -0.01857  -0.01343  -0.00743  -0.00668
 Alpha virt. eigenvalues --   -0.00041   0.00292   0.00686   0.00775   0.00816

  Beta  occ. eigenvalues --  -38.44329 -38.44268 -38.44249 -38.43511 -38.43495
  Beta  occ. eigenvalues --  -38.43458 -38.43418  -2.20107  -2.20106  -2.20091
  Beta  occ. eigenvalues --   -2.19354  -2.19305  -2.19282  -2.19215  -1.13849
  Beta  occ. eigenvalues --   -1.13794  -1.13784  -1.13769  -1.13763  -1.13750
  Beta  occ. eigenvalues --   -1.13731  -1.13724  -1.13682  -1.13070  -1.13026
  Beta  occ. eigenvalues --   -1.12995  -1.12969  -1.12967  -1.12945  -1.12942
  Beta  occ. eigenvalues --   -1.12938  -1.12936  -1.12924  -1.12904  -1.12874
  Beta  occ. eigenvalues --   -0.17404  -0.13032  -0.11773
  Beta virt. eigenvalues --   -0.06574  -0.05742  -0.05581  -0.04768  -0.02471
  Beta virt. eigenvalues --   -0.01906  -0.01730  -0.01402  -0.01290  -0.00737
  Beta virt. eigenvalues --   -0.00684   0.00131   0.00358   0.00775   0.00780

 Mulliken charges and spin densities:
               1          2
     1  Na   0.026345   0.001307
     2  Na  -0.411056   0.772216
     3  Na   0.033285   0.000058
     4  Na   0.055477   0.083381
     5  Na  -0.323700   0.065671
     6  Na   0.461416   0.063285
     7  Na   0.158232   0.014081
 Sum of Mulliken charges =  -0.00000   1.00000

 Dipole moment (field-independent basis, Debye):
    X=              0.3607    Y=             -0.0083    Z=              0.0819  Tot=              0.3700
 Quadrupole moment (field-independent basis, Debye-Ang):
   XX=            -54.7802   YY=            -61.9726   ZZ=            -76.2321
   XY=             -1.0699   XZ=              0.8611   YZ=              0.1026

 Normal termination of Gaussian 16 at Thu Dec  7 10:17:30 2023.
