 Gaussian 16, Revision B.01,
 Gaussian 16:  ES64L-G16RevB.01 20-Dec-2017

 -------------------------
 #P B3LYP/6-311+g(d) force
 -------------------------

 -----
 DPGEN
 -----
 Symbolic Z-matrix:
 Charge =  0 Multiplicity = 2

                         Standard orientation:
 ---------------------------------------------------------------------
 Center     Atomic      Atomic             Coordinates (Angstroms)
 Number     Number       Type             X           Y           Z
 ---------------------------------------------------------------------
      1         11           0       -1.630012   -1.886176    0.857949
      2         11           0       -4.648874   -2.154099   -0.349353
      3         11           0       -3.353533    0.530908   -0.819138
      4         11           0       -1.024974    3.289679   -0.950058
      5         11           0        0.716966    2.212244    1.899901
      6         11           0        3.979997   -1.188637    0.756443
      7         11           0        5.960430   -0.803919   -1.395744
 ---------------------------------------------------------------------

 SCF Done:  E(UB3LYP) =  -1136.10734476     A.U. after   20 cycles

 The electronic state is 2-A.
 Alpha  occ. eigenvalues --  -38.45236 -38.45005 -38.44719 -38.44404 -38.43823
 Alpha  occ. eigenvalues --  -38.43622 -38.43586  -2.21058  -2.20864  -2.20465
 Alpha  occ. eigenvalues --   -2.20288  -2.19608  -2.19425  -2.19400  -1.14730
 Alpha  occ. eigenvalues --   -1.14721  -1.14683  -1.14576  -1.14508  -1.14480
 Alpha  occ. eigenvalues --   -1.14135  -1.14120  -1.14095  -1.13962  -1.13951
 Alpha  occ. eigenvalues --   -1.13893  -1.13278  -1.13269  -1.13246  -1.13239
 Alpha  occ. eigenvalues --   -1.13086  -1.13078  -1.13033  -1.13031  -1.12945
 Alpha  occ. eigenvalues --   -0.16566  -0.13389  -0.12560  -0.10675
 Alpha virt. eigenvalues --   -0.06672  -0.05609  -0.04856  -0.03808  -0.02671
 Alpha virt. eigenvalues --   -0.02484  -0.02296  -0.01743  -0.01221  -0.00951
 Alpha virt. eigenvalues --   -0.00501  -0.00205   0.00025   0.00140   0.00453

  Beta  occ. eigenvalues --  -38.45177 -38.45003 -38.44692 -38.44354 -38.43804
  Beta  occ. eigenvalues --  -38.43628 -38.43562  -2.20947  -2.20862  -2.20413
  Beta  occ. eigenvalues --   -2.20198  -2.19573  -2.19436  -2.19359  -1.14654
  Beta  occ. eigenvalues --   -1.14647  -1.14614  -1.14559  -1.14509  -1.14459
  Beta  occ. eigenvalues --   -1.14100  -1.14080  -1.14063  -1.13901  -1.13884
  Beta  occ. eigenvalues --   -1.13823  -1.13256  -1.13238  -1.13231  -1.13210
  Beta  occ. eigenvalues --   -1.13094  -1.13082  -1.13007  -1.13006  -1.12927
  Beta  occ. eigenvalues --   -0.15987  -0.13189  -0.12292
  Beta virt. eigenvalues --   -0.07327  -0.06089  -0.05084  -0.04598  -0.03619
  Beta virt. eigenvalues --   -0.02419  -0.02302  -0.01948  -0.01614  -0.01011
  Beta virt. eigenvalues --   -0.00572  -0.00174  -0.00008   0.00155   0.00320

 Mulliken charges and spin densities:
               1          2
     1  Na  -0.707730   0.347758
     2  Na   2.082271   0.026381
     3  Na  -0.943817   0.335979
     4  Na  -0.204957   0.077658
     5  Na  -0.119815   0.154800
     6  Na  -0.552900  -0.060248
     7  Na   0.446946   0.117672
 Sum of Mulliken charges =  -0.00000   1.00000

 Dipole moment (field-independent basis, Debye):
    X=             -2.1318    Y=             -0.7232    Z=             -0.1496  Tot=              2.2561
 Quadrupole moment (field-independent basis, Debye-Ang):
   XX=            -63.0059   YY=            -66.8985   ZZ=            -67.4423
   XY=             11.8736   XZ=             -2.0530   YZ=             -0.2449

 Normal termination of Gaussian 16 at Wed Nov 29 01:43:26 2023.
