 Gaussian 16, Revision B.01,
 Gaussian 16:  ES64L-G16RevB.01 20-Dec-2017

 -------------------------
 #P B3LYP/6-311+g(d) force
 -------------------------

 -----
 DPGEN
 -----
 Symbolic Z-matrix:
 Charge =  0 Multiplicity = 2

                         Standard orientation:
 ---------------------------------------------------------------------
 Center     Atomic      Atomic             Coordinates (Angstroms)
 Number     Number       Type             X           Y           Z
 ---------------------------------------------------------------------
      1         11           0        1.911769   -2.254862   -0.159179
      2         11           0        0.066087   -0.404955   -1.550223
      3         11           0        2.973306    0.702389   -0.139502
      4         11           0        0.054937    0.065073    2.093140
      5         11           0       -2.259331   -2.160399    0.195557
      6         11           0        0.288658    2.907967   -0.056131
      7         11           0       -3.035428    1.144787   -0.383664
 ---------------------------------------------------------------------

 SCF Done:  E(UB3LYP) =  -1136.13500329     A.U. after   19 cycles

 The electronic state is 2-A.
 Alpha  occ. eigenvalues --  -38.44274 -38.44011 -38.43851 -38.43587 -38.43563
 Alpha  occ. eigenvalues --  -38.43297 -38.43043  -2.20076  -2.19893  -2.19675
 Alpha  occ. eigenvalues --   -2.19471  -2.19465  -2.19291  -2.18874  -1.13752
 Alpha  occ. eigenvalues --   -1.13731  -1.13716  -1.13588  -1.13561  -1.13533
 Alpha  occ. eigenvalues --   -1.13352  -1.13340  -1.13311  -1.13261  -1.13137
 Alpha  occ. eigenvalues --   -1.13110  -1.13091  -1.13083  -1.13078  -1.12958
 Alpha  occ. eigenvalues --   -1.12909  -1.12891  -1.12548  -1.12544  -1.12513
 Alpha  occ. eigenvalues --   -0.18654  -0.13339  -0.12194  -0.10701
 Alpha virt. eigenvalues --   -0.05778  -0.05421  -0.04471  -0.03295  -0.02767
 Alpha virt. eigenvalues --   -0.02503  -0.01664  -0.01159  -0.00423  -0.00353
 Alpha virt. eigenvalues --   -0.00016   0.00340   0.00744   0.00846   0.00893

  Beta  occ. eigenvalues --  -38.44267 -38.44005 -38.43848 -38.43556 -38.43486
  Beta  occ. eigenvalues --  -38.43244 -38.43041  -2.20064  -2.19886  -2.19670
  Beta  occ. eigenvalues --   -2.19459  -2.19279  -2.19195  -2.18872  -1.13730
  Beta  occ. eigenvalues --   -1.13724  -1.13710  -1.13587  -1.13548  -1.13512
  Beta  occ. eigenvalues --   -1.13347  -1.13323  -1.13306  -1.13238  -1.13099
  Beta  occ. eigenvalues --   -1.13062  -1.13009  -1.12960  -1.12945  -1.12890
  Beta  occ. eigenvalues --   -1.12843  -1.12823  -1.12548  -1.12526  -1.12510
  Beta  occ. eigenvalues --   -0.17932  -0.13100  -0.11968
  Beta virt. eigenvalues --   -0.06788  -0.05715  -0.05402  -0.04438  -0.02523
  Beta virt. eigenvalues --   -0.02001  -0.01562  -0.01459  -0.01088  -0.00475
  Beta virt. eigenvalues --   -0.00385   0.00136   0.00378   0.00816   0.00850

 Mulliken charges and spin densities:
               1          2
     1  Na   0.539653   0.054866
     2  Na  -0.343804   0.281455
     3  Na   0.200628   0.015181
     4  Na  -0.522316   0.734523
     5  Na   0.146483  -0.008929
     6  Na  -0.012097  -0.045467
     7  Na  -0.008547  -0.031629
 Sum of Mulliken charges =  -0.00000   1.00000

 Dipole moment (field-independent basis, Debye):
    X=             -0.2384    Y=             -0.1000    Z=              0.1438  Tot=              0.2958
 Quadrupole moment (field-independent basis, Debye-Ang):
   XX=            -54.8327   YY=            -63.9924   ZZ=            -74.7448
   XY=              0.0229   XZ=              0.1895   YZ=             -1.2960

 Normal termination of Gaussian 16 at Fri Dec  8 07:14:22 2023.
