 Gaussian 16, Revision B.01,
 Gaussian 16:  ES64L-G16RevB.01 20-Dec-2017

 -------------------------
 #P B3LYP/6-311+g(d) force
 -------------------------

 -----
 DPGEN
 -----
 Symbolic Z-matrix:
 Charge =  0 Multiplicity = 2

                         Standard orientation:
 ---------------------------------------------------------------------
 Center     Atomic      Atomic             Coordinates (Angstroms)
 Number     Number       Type             X           Y           Z
 ---------------------------------------------------------------------
      1         11           0       -2.314840    2.183691   -0.031584
      2         11           0        1.432734    2.513329   -0.396499
      3         11           0        0.606542    0.253995    2.161719
      4         11           0        0.083343   -2.770683   -0.042165
      5         11           0       -2.866302   -1.253814    0.161090
      6         11           0       -0.238375   -0.280500   -1.628374
      7         11           0        3.296898   -0.646018   -0.224188
 ---------------------------------------------------------------------

 SCF Done:  E(UB3LYP) =  -1136.13512064     A.U. after   19 cycles

 The electronic state is 2-A.
 Alpha  occ. eigenvalues --  -38.44456 -38.43915 -38.43746 -38.43692 -38.43640
 Alpha  occ. eigenvalues --  -38.43309 -38.43252  -2.20243  -2.19766  -2.19597
 Alpha  occ. eigenvalues --   -2.19495  -2.19469  -2.19289  -2.19143  -1.13917
 Alpha  occ. eigenvalues --   -1.13893  -1.13890  -1.13452  -1.13428  -1.13411
 Alpha  occ. eigenvalues --   -1.13259  -1.13236  -1.13213  -1.13171  -1.13161
 Alpha  occ. eigenvalues --   -1.13155  -1.13141  -1.13131  -1.13086  -1.13081
 Alpha  occ. eigenvalues --   -1.12941  -1.12896  -1.12791  -1.12778  -1.12745
 Alpha  occ. eigenvalues --   -0.18396  -0.13060  -0.12314  -0.10659
 Alpha virt. eigenvalues --   -0.05911  -0.05283  -0.04547  -0.03311  -0.02825
 Alpha virt. eigenvalues --   -0.02564  -0.01742  -0.01091  -0.00462  -0.00346
 Alpha virt. eigenvalues --   -0.00048   0.00340   0.00753   0.00844   0.00877

  Beta  occ. eigenvalues --  -38.44454 -38.43913 -38.43693 -38.43650 -38.43630
  Beta  occ. eigenvalues --  -38.43250 -38.43245  -2.20241  -2.19764  -2.19497
  Beta  occ. eigenvalues --   -2.19454  -2.19419  -2.19183  -2.19133  -1.13897
  Beta  occ. eigenvalues --   -1.13893  -1.13891  -1.13448  -1.13417  -1.13407
  Beta  occ. eigenvalues --   -1.13168  -1.13158  -1.13152  -1.13140  -1.13129
  Beta  occ. eigenvalues --   -1.13121  -1.13088  -1.13085  -1.13078  -1.13028
  Beta  occ. eigenvalues --   -1.12868  -1.12819  -1.12770  -1.12743  -1.12732
  Beta  occ. eigenvalues --   -0.17685  -0.12865  -0.12097
  Beta virt. eigenvalues --   -0.06753  -0.05857  -0.05263  -0.04487  -0.02546
  Beta virt. eigenvalues --   -0.02082  -0.01656  -0.01513  -0.01026  -0.00504
  Beta virt. eigenvalues --   -0.00387   0.00121   0.00372   0.00820   0.00842

 Mulliken charges and spin densities:
               1          2
     1  Na   0.034110  -0.061136
     2  Na   0.102700  -0.059922
     3  Na  -0.608113   0.776529
     4  Na   0.286580  -0.014237
     5  Na   0.086860   0.012370
     6  Na  -0.115892   0.398087
     7  Na   0.213756  -0.051692
 Sum of Mulliken charges =  -0.00000   1.00000

 Dipole moment (field-independent basis, Debye):
    X=              0.2463    Y=              0.0237    Z=              0.1284  Tot=              0.2788
 Quadrupole moment (field-independent basis, Debye-Ang):
   XX=            -54.4458   YY=            -64.4404   ZZ=            -74.5568
   XY=             -0.4982   XZ=             -1.9046   YZ=             -1.0347

 Normal termination of Gaussian 16 at Fri Dec  8 01:35:29 2023.
