 Gaussian 16, Revision B.01,
 Gaussian 16:  ES64L-G16RevB.01 20-Dec-2017

 -------------------------
 #P B3LYP/6-311+g(d) force
 -------------------------

 -----
 DPGEN
 -----
 Symbolic Z-matrix:
 Charge =  0 Multiplicity = 2

                         Standard orientation:
 ---------------------------------------------------------------------
 Center     Atomic      Atomic             Coordinates (Angstroms)
 Number     Number       Type             X           Y           Z
 ---------------------------------------------------------------------
      1         11           0        2.510258   -2.006044   -0.628982
      2         11           0        0.026831   -0.146104   -1.491002
      3         11           0        2.532908    1.745318    0.172698
      4         11           0        0.378276   -0.348208    2.121198
      5         11           0       -1.623215   -2.548071    0.178853
      6         11           0       -0.533339    2.714433   -0.178294
      7         11           0       -3.291719    0.588676   -0.174472
 ---------------------------------------------------------------------

 SCF Done:  E(UB3LYP) =  -1136.13583806     A.U. after   19 cycles

 The electronic state is 2-A.
 Alpha  occ. eigenvalues --  -38.44073 -38.43952 -38.43847 -38.43837 -38.43704
 Alpha  occ. eigenvalues --  -38.43109 -38.43070  -2.19878  -2.19770  -2.19689
 Alpha  occ. eigenvalues --   -2.19671  -2.19572  -2.19107  -2.18955  -1.13551
 Alpha  occ. eigenvalues --   -1.13536  -1.13524  -1.13466  -1.13413  -1.13400
 Alpha  occ. eigenvalues --   -1.13371  -1.13357  -1.13356  -1.13348  -1.13324
 Alpha  occ. eigenvalues --   -1.13292  -1.13233  -1.13195  -1.13185  -1.12818
 Alpha  occ. eigenvalues --   -1.12773  -1.12725  -1.12624  -1.12608  -1.12581
 Alpha  occ. eigenvalues --   -0.18479  -0.12972  -0.12442  -0.10721
 Alpha virt. eigenvalues --   -0.05730  -0.05435  -0.04523  -0.03096  -0.02879
 Alpha virt. eigenvalues --   -0.02513  -0.01665  -0.01297  -0.00507  -0.00248
 Alpha virt. eigenvalues --   -0.00033   0.00319   0.00750   0.00827   0.00881

  Beta  occ. eigenvalues --  -38.44073 -38.43930 -38.43842 -38.43832 -38.43608
  Beta  occ. eigenvalues --  -38.43066 -38.43056  -2.19880  -2.19732  -2.19682
  Beta  occ. eigenvalues --   -2.19664  -2.19393  -2.19012  -2.18950  -1.13547
  Beta  occ. eigenvalues --   -1.13535  -1.13524  -1.13429  -1.13383  -1.13374
  Beta  occ. eigenvalues --   -1.13369  -1.13351  -1.13331  -1.13318  -1.13315
  Beta  occ. eigenvalues --   -1.13291  -1.13116  -1.13075  -1.13055  -1.12758
  Beta  occ. eigenvalues --   -1.12709  -1.12655  -1.12603  -1.12596  -1.12568
  Beta  occ. eigenvalues --   -0.17794  -0.12755  -0.12169
  Beta virt. eigenvalues --   -0.06828  -0.05670  -0.05370  -0.04475  -0.02393
  Beta virt. eigenvalues --   -0.02151  -0.01570  -0.01454  -0.01204  -0.00539
  Beta virt. eigenvalues --   -0.00276   0.00126   0.00366   0.00798   0.00855

 Mulliken charges and spin densities:
               1          2
     1  Na   0.142689   0.015263
     2  Na  -0.314733   0.304332
     3  Na   0.300104   0.078213
     4  Na  -0.436542   0.646570
     5  Na   0.189689  -0.004137
     6  Na   0.091386  -0.012346
     7  Na   0.027406  -0.027897
 Sum of Mulliken charges =  -0.00000   1.00000

 Dipole moment (field-independent basis, Debye):
    X=              0.0090    Y=             -0.2754    Z=              0.2235  Tot=              0.3548
 Quadrupole moment (field-independent basis, Debye-Ang):
   XX=            -54.9622   YY=            -63.3191   ZZ=            -74.7801
   XY=              0.2747   XZ=             -0.4035   YZ=              0.5193

 Normal termination of Gaussian 16 at Mon Dec  4 01:48:33 2023.
