 Gaussian 16, Revision B.01,
 Gaussian 16:  ES64L-G16RevB.01 20-Dec-2017

 -------------------------
 #P B3LYP/6-311+g(d) force
 -------------------------

 -----
 DPGEN
 -----
 Symbolic Z-matrix:
 Charge =  0 Multiplicity = 2

                         Standard orientation:
 ---------------------------------------------------------------------
 Center     Atomic      Atomic             Coordinates (Angstroms)
 Number     Number       Type             X           Y           Z
 ---------------------------------------------------------------------
      1         11           0        2.383810   -2.877412   -0.680105
      2         11           0       -3.881853    1.783551   -0.013957
      3         11           0        3.008252    2.959122    0.289349
      4         11           0       -3.878451   -1.130137    0.818323
      5         11           0        4.493655   -0.721329    0.663030
      6         11           0       -1.644508   -3.207704   -0.320779
      7         11           0       -0.480906    3.193908   -0.755862
 ---------------------------------------------------------------------

 SCF Done:  E(UB3LYP) =  -1136.10354780     A.U. after   25 cycles

 The electronic state is 2-A.
 Alpha  occ. eigenvalues --  -38.45061 -38.45043 -38.44797 -38.44788 -38.44692
 Alpha  occ. eigenvalues --  -38.44150 -38.44055  -2.20798  -2.20790  -2.20630
 Alpha  occ. eigenvalues --   -2.20542  -2.20474  -2.19986  -2.19856  -1.14481
 Alpha  occ. eigenvalues --   -1.14476  -1.14472  -1.14470  -1.14443  -1.14418
 Alpha  occ. eigenvalues --   -1.14347  -1.14292  -1.14287  -1.14211  -1.14192
 Alpha  occ. eigenvalues --   -1.14167  -1.14135  -1.14119  -1.14106  -1.13644
 Alpha  occ. eigenvalues --   -1.13622  -1.13604  -1.13505  -1.13500  -1.13483
 Alpha  occ. eigenvalues --   -0.15557  -0.14152  -0.13159  -0.10889
 Alpha virt. eigenvalues --   -0.07894  -0.04962  -0.04477  -0.03655  -0.03542
 Alpha virt. eigenvalues --   -0.02392  -0.02188  -0.01816  -0.01359  -0.01033
 Alpha virt. eigenvalues --   -0.00870  -0.00146   0.00144   0.00258   0.00606

  Beta  occ. eigenvalues --  -38.45062 -38.45033 -38.44790 -38.44745 -38.44654
  Beta  occ. eigenvalues --  -38.44089 -38.43983  -2.20797  -2.20785  -2.20626
  Beta  occ. eigenvalues --   -2.20464  -2.20407  -2.19873  -2.19723  -1.14490
  Beta  occ. eigenvalues --   -1.14480  -1.14471  -1.14464  -1.14406  -1.14396
  Beta  occ. eigenvalues --   -1.14316  -1.14292  -1.14265  -1.14159  -1.14141
  Beta  occ. eigenvalues --   -1.14107  -1.14091  -1.14076  -1.14051  -1.13570
  Beta  occ. eigenvalues --   -1.13545  -1.13530  -1.13415  -1.13412  -1.13394
  Beta  occ. eigenvalues --   -0.14984  -0.13455  -0.12363
  Beta virt. eigenvalues --   -0.08083  -0.07825  -0.04419  -0.03966  -0.03483
  Beta virt. eigenvalues --   -0.03332  -0.02155  -0.01993  -0.01602  -0.01027
  Beta virt. eigenvalues --   -0.00804  -0.00688   0.00095   0.00190   0.00248

 Mulliken charges and spin densities:
               1          2
     1  Na  -0.069288   0.056134
     2  Na   0.335504   0.293000
     3  Na   0.126683   0.139790
     4  Na  -0.111246   0.007416
     5  Na   0.038393   0.138286
     6  Na  -0.146281   0.343259
     7  Na  -0.173765   0.022115
 Sum of Mulliken charges =  -0.00000   1.00000

 Dipole moment (field-independent basis, Debye):
    X=              0.5370    Y=              0.1541    Z=              0.0289  Tot=              0.5594
 Quadrupole moment (field-independent basis, Debye-Ang):
   XX=            -59.7930   YY=            -70.5272   ZZ=            -70.8916
   XY=              1.5412   XZ=              1.5953   YZ=              0.8482

 Normal termination of Gaussian 16 at Mon Dec  4 02:09:04 2023.
