 Gaussian 16, Revision B.01,
 Gaussian 16:  ES64L-G16RevB.01 20-Dec-2017

 -------------------------
 #P B3LYP/6-311+g(d) force
 -------------------------

 -----
 DPGEN
 -----
 Symbolic Z-matrix:
 Charge =  0 Multiplicity = 2

                         Standard orientation:
 ---------------------------------------------------------------------
 Center     Atomic      Atomic             Coordinates (Angstroms)
 Number     Number       Type             X           Y           Z
 ---------------------------------------------------------------------
      1         11           0       -2.688455    2.498502    0.002561
      2         11           0       -1.420386   -2.713027   -0.462888
      3         11           0       -3.919616   -0.392397   -1.111258
      4         11           0        1.843668    2.443130    0.119610
      5         11           0        4.305483   -0.202470   -1.637358
      6         11           0        2.377788   -1.085246    1.169145
      7         11           0       -0.498482   -0.548492    1.920188
 ---------------------------------------------------------------------

 SCF Done:  E(UB3LYP) =  -1136.11387955     A.U. after   23 cycles

 The electronic state is 2-A.
 Alpha  occ. eigenvalues --  -38.45248 -38.44766 -38.44269 -38.44240 -38.44024
 Alpha  occ. eigenvalues --  -38.44013 -38.43666  -2.20974  -2.20562  -2.20126
 Alpha  occ. eigenvalues --   -2.20047  -2.19893  -2.19820  -2.19431  -1.14668
 Alpha  occ. eigenvalues --   -1.14649  -1.14595  -1.14213  -1.14208  -1.14163
 Alpha  occ. eigenvalues --   -1.13896  -1.13792  -1.13736  -1.13718  -1.13696
 Alpha  occ. eigenvalues --   -1.13688  -1.13560  -1.13545  -1.13508  -1.13493
 Alpha  occ. eigenvalues --   -1.13468  -1.13435  -1.13111  -1.13095  -1.13073
 Alpha  occ. eigenvalues --   -0.16806  -0.14065  -0.11484  -0.11310
 Alpha virt. eigenvalues --   -0.06711  -0.05539  -0.04720  -0.03605  -0.02914
 Alpha virt. eigenvalues --   -0.02656  -0.01897  -0.01506  -0.00825  -0.00629
 Alpha virt. eigenvalues --   -0.00434  -0.00115   0.00149   0.00357   0.00495

  Beta  occ. eigenvalues --  -38.45247 -38.44675 -38.44251 -38.44208 -38.44012
  Beta  occ. eigenvalues --  -38.43967 -38.43668  -2.20974  -2.20392  -2.20098
  Beta  occ. eigenvalues --   -2.19988  -2.19810  -2.19800  -2.19434  -1.14669
  Beta  occ. eigenvalues --   -1.14644  -1.14584  -1.14094  -1.14091  -1.14054
  Beta  occ. eigenvalues --   -1.13835  -1.13770  -1.13725  -1.13677  -1.13661
  Beta  occ. eigenvalues --   -1.13644  -1.13522  -1.13489  -1.13479  -1.13452
  Beta  occ. eigenvalues --   -1.13436  -1.13401  -1.13113  -1.13099  -1.13067
  Beta  occ. eigenvalues --   -0.16201  -0.13484  -0.11353
  Beta virt. eigenvalues --   -0.07860  -0.06428  -0.04985  -0.04390  -0.03474
  Beta virt. eigenvalues --   -0.02469  -0.02131  -0.01684  -0.01194  -0.00753
  Beta virt. eigenvalues --   -0.00444  -0.00277   0.00123   0.00326   0.00463

 Mulliken charges and spin densities:
               1          2
     1  Na  -0.101612   0.001827
     2  Na  -0.389299   0.134903
     3  Na   0.089701   0.127239
     4  Na  -0.487885   0.053910
     5  Na   0.176073   0.441873
     6  Na  -0.224436   0.041891
     7  Na   0.937459   0.198357
 Sum of Mulliken charges =  -0.00000   1.00000

 Dipole moment (field-independent basis, Debye):
    X=              0.7326    Y=             -0.2752    Z=             -0.4356  Tot=              0.8957
 Quadrupole moment (field-independent basis, Debye-Ang):
   XX=            -63.4205   YY=            -69.1163   ZZ=            -67.8373
   XY=              1.4932   XZ=             -0.6084   YZ=              3.5692

 Normal termination of Gaussian 16 at Sun Dec  3 13:26:04 2023.
