 Gaussian 16, Revision B.01,
 Gaussian 16:  ES64L-G16RevB.01 20-Dec-2017

 -------------------------
 #P B3LYP/6-311+g(d) force
 -------------------------

 -----
 DPGEN
 -----
 Symbolic Z-matrix:
 Charge =  0 Multiplicity = 2

                         Standard orientation:
 ---------------------------------------------------------------------
 Center     Atomic      Atomic             Coordinates (Angstroms)
 Number     Number       Type             X           Y           Z
 ---------------------------------------------------------------------
      1         11           0        3.657264   -1.165609   -0.605071
      2         11           0        2.036983    2.020556   -0.498218
      3         11           0        1.363401   -0.228553    1.947774
      4         11           0       -1.918256   -0.719359    1.783736
      5         11           0       -1.501914    1.841049   -0.145626
      6         11           0        0.146634   -1.213779   -1.429576
      7         11           0       -3.784112   -0.534305   -1.053018
 ---------------------------------------------------------------------

 SCF Done:  E(UB3LYP) =  -1136.12358211     A.U. after   30 cycles

 The electronic state is 2-A.
 Alpha  occ. eigenvalues --  -38.44550 -38.44286 -38.44160 -38.43970 -38.43911
 Alpha  occ. eigenvalues --  -38.43806 -38.43398  -2.20338  -2.20143  -2.19985
 Alpha  occ. eigenvalues --   -2.19878  -2.19731  -2.19701  -2.19289  -1.14060
 Alpha  occ. eigenvalues --   -1.14042  -1.13928  -1.13820  -1.13796  -1.13754
 Alpha  occ. eigenvalues --   -1.13664  -1.13653  -1.13614  -1.13565  -1.13553
 Alpha  occ. eigenvalues --   -1.13476  -1.13404  -1.13393  -1.13385  -1.13359
 Alpha  occ. eigenvalues --   -1.13350  -1.13296  -1.12986  -1.12940  -1.12900
 Alpha  occ. eigenvalues --   -0.18464  -0.14347  -0.11609  -0.10760
 Alpha virt. eigenvalues --   -0.06858  -0.05222  -0.04959  -0.03331  -0.02618
 Alpha virt. eigenvalues --   -0.02447  -0.02149  -0.01268  -0.00969  -0.00220
 Alpha virt. eigenvalues --    0.00090   0.00281   0.00299   0.00514   0.00665

  Beta  occ. eigenvalues --  -38.44562 -38.44233 -38.44145 -38.43920 -38.43895
  Beta  occ. eigenvalues --  -38.43766 -38.43359  -2.20361  -2.20047  -2.19957
  Beta  occ. eigenvalues --   -2.19788  -2.19702  -2.19630  -2.19221  -1.14064
  Beta  occ. eigenvalues --   -1.14049  -1.13949  -1.13746  -1.13740  -1.13677
  Beta  occ. eigenvalues --   -1.13637  -1.13633  -1.13598  -1.13511  -1.13485
  Beta  occ. eigenvalues --   -1.13404  -1.13375  -1.13369  -1.13344  -1.13343
  Beta  occ. eigenvalues --   -1.13292  -1.13238  -1.12934  -1.12882  -1.12848
  Beta  occ. eigenvalues --   -0.17808  -0.14128  -0.10493
  Beta virt. eigenvalues --   -0.07613  -0.06708  -0.05059  -0.04412  -0.02871
  Beta virt. eigenvalues --   -0.02567  -0.01888  -0.01662  -0.01100  -0.00456
  Beta virt. eigenvalues --   -0.00071   0.00126   0.00301   0.00456   0.00634

 Mulliken charges and spin densities:
               1          2
     1  Na   0.866651   0.049123
     2  Na   0.067424   0.188231
     3  Na  -0.441874   0.255111
     4  Na   0.119809   0.112717
     5  Na  -0.469980   0.269454
     6  Na  -1.018064   0.010709
     7  Na   0.876035   0.114654
 Sum of Mulliken charges =  -0.00000   1.00000

 Dipole moment (field-independent basis, Debye):
    X=             -0.0950    Y=              0.2520    Z=              0.0919  Tot=              0.2846
 Quadrupole moment (field-independent basis, Debye-Ang):
   XX=            -50.2667   YY=            -72.0283   ZZ=            -74.2948
   XY=              1.5564   XZ=              0.7179   YZ=             -5.1528

 Normal termination of Gaussian 16 at Thu Dec  7 21:53:42 2023.
