 Gaussian 16, Revision B.01,
 Gaussian 16:  ES64L-G16RevB.01 20-Dec-2017

 -------------------------
 #P B3LYP/6-311+g(d) force
 -------------------------

 -----
 DPGEN
 -----
 Symbolic Z-matrix:
 Charge =  0 Multiplicity = 2

                         Standard orientation:
 ---------------------------------------------------------------------
 Center     Atomic      Atomic             Coordinates (Angstroms)
 Number     Number       Type             X           Y           Z
 ---------------------------------------------------------------------
      1         11           0        0.294430    0.362620    1.554194
      2         11           0        2.418538   -1.265271    0.858017
      3         11           0       -3.660134   -0.441036    0.349794
      4         11           0       -1.312379    0.483730   -0.793121
      5         11           0       -0.023558   -2.174357   -0.700140
      6         11           0        0.467831    2.660898    0.004979
      7         11           0        1.815272    0.373417   -1.273724
 ---------------------------------------------------------------------

 SCF Done:  E(UB3LYP) =  -1136.08976866     A.U. after   22 cycles

 The electronic state is 2-A.
 Alpha  occ. eigenvalues --  -38.44940 -38.44235 -38.44015 -38.43786 -38.43469
 Alpha  occ. eigenvalues --  -38.43168 -38.43136  -2.20776  -2.20307  -2.20218
 Alpha  occ. eigenvalues --   -2.19947  -2.19472  -2.19401  -2.19178  -1.14565
 Alpha  occ. eigenvalues --   -1.14399  -1.14382  -1.14275  -1.14129  -1.14013
 Alpha  occ. eigenvalues --   -1.13906  -1.13830  -1.13692  -1.13639  -1.13560
 Alpha  occ. eigenvalues --   -1.13509  -1.13291  -1.13126  -1.13110  -1.13070
 Alpha  occ. eigenvalues --   -1.13016  -1.12975  -1.12826  -1.12785  -1.12734
 Alpha  occ. eigenvalues --   -0.20597  -0.13646  -0.12613  -0.11491
 Alpha virt. eigenvalues --   -0.06332  -0.04215  -0.03859  -0.03482  -0.02738
 Alpha virt. eigenvalues --   -0.02386  -0.01850  -0.00725  -0.00287   0.00245
 Alpha virt. eigenvalues --    0.00395   0.00496   0.00764   0.00897   0.00999

  Beta  occ. eigenvalues --  -38.44941 -38.44203 -38.43939 -38.43733 -38.43444
  Beta  occ. eigenvalues --  -38.43136 -38.43128  -2.20779  -2.20249  -2.20085
  Beta  occ. eigenvalues --   -2.19854  -2.19430  -2.19351  -2.19167  -1.14567
  Beta  occ. eigenvalues --   -1.14395  -1.14385  -1.14218  -1.14048  -1.13931
  Beta  occ. eigenvalues --   -1.13857  -1.13746  -1.13610  -1.13570  -1.13478
  Beta  occ. eigenvalues --   -1.13441  -1.13255  -1.13100  -1.13072  -1.13022
  Beta  occ. eigenvalues --   -1.12957  -1.12917  -1.12810  -1.12754  -1.12717
  Beta  occ. eigenvalues --   -0.19771  -0.13449  -0.12339
  Beta virt. eigenvalues --   -0.07217  -0.06214  -0.04208  -0.03827  -0.02808
  Beta virt. eigenvalues --   -0.02015  -0.01842  -0.01183  -0.00674  -0.00018
  Beta virt. eigenvalues --    0.00276   0.00388   0.00544   0.00900   0.00917

 Mulliken charges and spin densities:
               1          2
     1  Na  -0.441456   0.483949
     2  Na   0.781040   0.019200
     3  Na   0.119877  -0.183774
     4  Na  -0.233280   0.431937
     5  Na  -0.768563   0.053322
     6  Na   0.306732  -0.046071
     7  Na   0.235649   0.241438
 Sum of Mulliken charges =  -0.00000   1.00000

 Dipole moment (field-independent basis, Debye):
    X=             -0.4186    Y=             -0.2893    Z=              0.1135  Tot=              0.5213
 Quadrupole moment (field-independent basis, Debye-Ang):
   XX=            -54.5363   YY=            -67.4998   ZZ=            -71.0810
   XY=              0.7202   XZ=             -2.1450   YZ=             -0.4598

 Normal termination of Gaussian 16 at Sat Dec  9 05:43:32 2023.
