 Gaussian 16, Revision B.01,
 Gaussian 16:  ES64L-G16RevB.01 20-Dec-2017

 -------------------------
 #P B3LYP/6-311+g(d) force
 -------------------------

 -----
 DPGEN
 -----
 Symbolic Z-matrix:
 Charge =  0 Multiplicity = 2

                         Standard orientation:
 ---------------------------------------------------------------------
 Center     Atomic      Atomic             Coordinates (Angstroms)
 Number     Number       Type             X           Y           Z
 ---------------------------------------------------------------------
      1         11           0        0.599362   -0.134193   -1.389035
      2         11           0       -0.882803   -2.280260   -0.070611
      3         11           0        3.400814    0.116468   -0.451140
      4         11           0        1.258307   -0.472290    1.457210
      5         11           0       -0.345228    2.355943    0.384602
      6         11           0       -2.261488    0.381940   -1.473262
      7         11           0       -1.768965    0.032392    1.542236
 ---------------------------------------------------------------------

 SCF Done:  E(UB3LYP) =  -1136.10603741     A.U. after   23 cycles

 The electronic state is 2-A.
 Alpha  occ. eigenvalues --  -38.44536 -38.44235 -38.44011 -38.43667 -38.43666
 Alpha  occ. eigenvalues --  -38.42439 -38.42379  -2.20437  -2.20249  -2.20120
 Alpha  occ. eigenvalues --   -2.19887  -2.19774  -2.18413  -2.18410  -1.14206
 Alpha  occ. eigenvalues --   -1.14142  -1.14039  -1.14023  -1.13962  -1.13866
 Alpha  occ. eigenvalues --   -1.13811  -1.13754  -1.13707  -1.13686  -1.13515
 Alpha  occ. eigenvalues --   -1.13473  -1.13424  -1.13365  -1.13339  -1.12131
 Alpha  occ. eigenvalues --   -1.12122  -1.12076  -1.12069  -1.12006  -1.12005
 Alpha  occ. eigenvalues --   -0.20522  -0.13782  -0.12483  -0.11769
 Alpha virt. eigenvalues --   -0.05901  -0.04294  -0.03544  -0.03410  -0.03178
 Alpha virt. eigenvalues --   -0.02803  -0.01612  -0.00601  -0.00334   0.00292
 Alpha virt. eigenvalues --    0.00545   0.00593   0.00844   0.01011   0.01020

  Beta  occ. eigenvalues --  -38.44530 -38.44182 -38.43950 -38.43616 -38.43606
  Beta  occ. eigenvalues --  -38.42426 -38.42370  -2.20426  -2.20155  -2.20014
  Beta  occ. eigenvalues --   -2.19780  -2.19686  -2.18401  -2.18394  -1.14189
  Beta  occ. eigenvalues --   -1.14121  -1.14018  -1.13967  -1.13891  -1.13776
  Beta  occ. eigenvalues --   -1.13747  -1.13678  -1.13631  -1.13616  -1.13438
  Beta  occ. eigenvalues --   -1.13402  -1.13344  -1.13283  -1.13278  -1.12121
  Beta  occ. eigenvalues --   -1.12117  -1.12044  -1.12032  -1.11994  -1.11979
  Beta  occ. eigenvalues --   -0.19678  -0.13616  -0.11468
  Beta virt. eigenvalues --   -0.08130  -0.05793  -0.03723  -0.03432  -0.03337
  Beta virt. eigenvalues --   -0.02149  -0.01987  -0.01483  -0.00338  -0.00214
  Beta virt. eigenvalues --    0.00321   0.00621   0.00739   0.00841   0.01013

 Mulliken charges and spin densities:
               1          2
     1  Na   0.387732   0.460159
     2  Na  -0.696508   0.209669
     3  Na   0.009110   0.021372
     4  Na   0.029228   0.133279
     5  Na  -0.902847  -0.075738
     6  Na   0.338214  -0.062767
     7  Na   0.835071   0.314026
 Sum of Mulliken charges =  -0.00000   1.00000

 Dipole moment (field-independent basis, Debye):
    X=              0.3211    Y=              0.1752    Z=             -0.1242  Tot=              0.3863
 Quadrupole moment (field-independent basis, Debye-Ang):
   XX=            -54.6438   YY=            -74.4241   ZZ=            -65.1181
   XY=              0.8287   XZ=              0.2652   YZ=             -0.0828

 Normal termination of Gaussian 16 at Fri Dec  8 19:09:36 2023.
