 Gaussian 16, Revision B.01,
 Gaussian 16:  ES64L-G16RevB.01 20-Dec-2017

 -------------------------
 #P B3LYP/6-311+g(d) force
 -------------------------

 -----
 DPGEN
 -----
 Symbolic Z-matrix:
 Charge =  0 Multiplicity = 2

                         Standard orientation:
 ---------------------------------------------------------------------
 Center     Atomic      Atomic             Coordinates (Angstroms)
 Number     Number       Type             X           Y           Z
 ---------------------------------------------------------------------
      1         11           0       -0.741307    1.585484   -0.881339
      2         11           0        1.900850    3.328863    0.742402
      3         11           0        2.986057    0.404895   -0.565322
      4         11           0        0.672757   -1.927607   -0.385591
      5         11           0       -3.032938   -0.828352   -0.888001
      6         11           0        4.049784   -2.279637    0.883245
      7         11           0       -5.835203   -0.283646    1.094606
 ---------------------------------------------------------------------

 SCF Done:  E(UB3LYP) =  -1136.12410789     A.U. after   18 cycles

 The electronic state is 2-A.
 Alpha  occ. eigenvalues --  -38.44712 -38.44524 -38.44168 -38.44081 -38.43960
 Alpha  occ. eigenvalues --  -38.43409 -38.43350  -2.20508  -2.20350  -2.19981
 Alpha  occ. eigenvalues --   -2.19905  -2.19850  -2.19225  -2.19158  -1.14141
 Alpha  occ. eigenvalues --   -1.14140  -1.14119  -1.14069  -1.14039  -1.13919
 Alpha  occ. eigenvalues --   -1.13675  -1.13639  -1.13605  -1.13601  -1.13588
 Alpha  occ. eigenvalues --   -1.13563  -1.13534  -1.13514  -1.13419  -1.12921
 Alpha  occ. eigenvalues --   -1.12903  -1.12864  -1.12825  -1.12818  -1.12781
 Alpha  occ. eigenvalues --   -0.16899  -0.13982  -0.12225  -0.11265
 Alpha virt. eigenvalues --   -0.05875  -0.05302  -0.04933  -0.03764  -0.02508
 Alpha virt. eigenvalues --   -0.02353  -0.02214  -0.01511  -0.00972  -0.00601
 Alpha virt. eigenvalues --   -0.00468  -0.00065  -0.00006   0.00369   0.00661

  Beta  occ. eigenvalues --  -38.44595 -38.44489 -38.44155 -38.44066 -38.43948
  Beta  occ. eigenvalues --  -38.43411 -38.43332  -2.20290  -2.20287  -2.19956
  Beta  occ. eigenvalues --   -2.19880  -2.19830  -2.19239  -2.19126  -1.14030
  Beta  occ. eigenvalues --   -1.13999  -1.13993  -1.13992  -1.13975  -1.13858
  Beta  occ. eigenvalues --   -1.13653  -1.13623  -1.13590  -1.13586  -1.13566
  Beta  occ. eigenvalues --   -1.13535  -1.13522  -1.13493  -1.13405  -1.12939
  Beta  occ. eigenvalues --   -1.12920  -1.12813  -1.12799  -1.12796  -1.12763
  Beta  occ. eigenvalues --   -0.16422  -0.13262  -0.11949
  Beta virt. eigenvalues --   -0.07744  -0.05553  -0.05084  -0.04501  -0.03605
  Beta virt. eigenvalues --   -0.02280  -0.02113  -0.01596  -0.01296  -0.00769
  Beta virt. eigenvalues --   -0.00362  -0.00156   0.00081   0.00184   0.00513

 Mulliken charges and spin densities:
               1          2
     1  Na  -0.374255  -0.010165
     2  Na   0.433727   0.117883
     3  Na  -0.437462   0.110869
     4  Na  -0.254411   0.199494
     5  Na  -0.021908  -0.105947
     6  Na   0.530253   0.087019
     7  Na   0.124057   0.600847
 Sum of Mulliken charges =  -0.00000   1.00000

 Dipole moment (field-independent basis, Debye):
    X=              0.8771    Y=             -0.3930    Z=              0.6797  Tot=              1.1772
 Quadrupole moment (field-independent basis, Debye-Ang):
   XX=            -61.8203   YY=            -66.8329   ZZ=            -67.8417
   XY=             -4.0761   XZ=              1.2505   YZ=             -0.0465

 Normal termination of Gaussian 16 at Wed Nov 29 01:19:46 2023.
