 Gaussian 16, Revision B.01,
 Gaussian 16:  ES64L-G16RevB.01 20-Dec-2017

 -------------------------
 #P B3LYP/6-311+g(d) force
 -------------------------

 -----
 DPGEN
 -----
 Symbolic Z-matrix:
 Charge =  0 Multiplicity = 2

                         Standard orientation:
 ---------------------------------------------------------------------
 Center     Atomic      Atomic             Coordinates (Angstroms)
 Number     Number       Type             X           Y           Z
 ---------------------------------------------------------------------
      1         11           0       -3.017519    0.483846    0.418306
      2         11           0       -0.531323    2.738430   -0.407294
      3         11           0        0.192051    0.148549    2.104053
      4         11           0       -0.570313   -0.448594   -2.059433
      5         11           0        2.769483    1.310341   -0.101415
      6         11           0        2.047466   -1.622118   -0.071888
      7         11           0       -0.889846   -2.610454    0.117671
 ---------------------------------------------------------------------

 SCF Done:  E(UB3LYP) =  -1136.13592800     A.U. after   19 cycles

 The electronic state is 2-A.
 Alpha  occ. eigenvalues --  -38.44039 -38.43937 -38.43913 -38.43534 -38.43419
 Alpha  occ. eigenvalues --  -38.43229 -38.43148  -2.19941  -2.19856  -2.19740
 Alpha  occ. eigenvalues --   -2.19394  -2.19255  -2.19186  -2.19069  -1.13616
 Alpha  occ. eigenvalues --   -1.13572  -1.13563  -1.13545  -1.13497  -1.13473
 Alpha  occ. eigenvalues --   -1.13410  -1.13393  -1.13381  -1.13150  -1.13043
 Alpha  occ. eigenvalues --   -1.13032  -1.12935  -1.12920  -1.12904  -1.12881
 Alpha  occ. eigenvalues --   -1.12835  -1.12816  -1.12741  -1.12711  -1.12670
 Alpha  occ. eigenvalues --   -0.18905  -0.12929  -0.12504  -0.11464
 Alpha virt. eigenvalues --   -0.05413  -0.04683  -0.04623  -0.03510  -0.03345
 Alpha virt. eigenvalues --   -0.03023  -0.01243  -0.00826  -0.00161  -0.00033
 Alpha virt. eigenvalues --    0.00104   0.00400   0.00871   0.00904   0.00959

  Beta  occ. eigenvalues --  -38.43953 -38.43906 -38.43858 -38.43533 -38.43412
  Beta  occ. eigenvalues --  -38.43222 -38.43141  -2.19784  -2.19730  -2.19711
  Beta  occ. eigenvalues --   -2.19395  -2.19243  -2.19177  -2.19061  -1.13514
  Beta  occ. eigenvalues --   -1.13461  -1.13453  -1.13447  -1.13400  -1.13394
  Beta  occ. eigenvalues --   -1.13382  -1.13377  -1.13352  -1.13153  -1.13036
  Beta  occ. eigenvalues --   -1.13024  -1.12921  -1.12902  -1.12898  -1.12877
  Beta  occ. eigenvalues --   -1.12820  -1.12787  -1.12729  -1.12682  -1.12665
  Beta  occ. eigenvalues --   -0.18111  -0.12715  -0.12269
  Beta virt. eigenvalues --   -0.07516  -0.05353  -0.04693  -0.04480  -0.02735
  Beta virt. eigenvalues --   -0.02523  -0.02017  -0.01159  -0.00767  -0.00106
  Beta virt. eigenvalues --    0.00049   0.00063   0.00421   0.00922   0.00951

 Mulliken charges and spin densities:
               1          2
     1  Na   0.178791  -0.044420
     2  Na   0.038042  -0.012704
     3  Na  -0.575982   0.567968
     4  Na  -0.518987   0.481104
     5  Na   0.044865  -0.059168
     6  Na   0.275598   0.038079
     7  Na   0.557672   0.029141
 Sum of Mulliken charges =  -0.00000   1.00000

 Dipole moment (field-independent basis, Debye):
    X=             -0.3619    Y=              0.2070    Z=              0.0653  Tot=              0.4220
 Quadrupole moment (field-independent basis, Debye-Ang):
   XX=            -60.9900   YY=            -66.1543   ZZ=            -69.1940
   XY=              0.8692   XZ=             -1.5076   YZ=             -1.1857

 Normal termination of Gaussian 16 at Tue Dec  5 21:40:52 2023.
