 Gaussian 16, Revision B.01,
 Gaussian 16:  ES64L-G16RevB.01 20-Dec-2017

 -------------------------
 #P B3LYP/6-311+g(d) force
 -------------------------

 -----
 DPGEN
 -----
 Symbolic Z-matrix:
 Charge =  0 Multiplicity = 2

                         Standard orientation:
 ---------------------------------------------------------------------
 Center     Atomic      Atomic             Coordinates (Angstroms)
 Number     Number       Type             X           Y           Z
 ---------------------------------------------------------------------
      1         11           0        0.498045   -1.828252    0.915527
      2         11           0        3.930465   -2.315349   -0.135873
      3         11           0        2.331320    0.216214   -1.028838
      4         11           0        1.921360    3.407925    0.433649
      5         11           0       -0.423858    1.238801   -0.346648
      6         11           0       -3.158423   -0.094684    1.197354
      7         11           0       -5.098910   -0.624654   -1.035171
 ---------------------------------------------------------------------

 SCF Done:  E(UB3LYP) =  -1136.11916046     A.U. after   20 cycles

 The electronic state is 2-A.
 Alpha  occ. eigenvalues --  -38.44164 -38.44124 -38.43863 -38.43843 -38.43724
 Alpha  occ. eigenvalues --  -38.43700 -38.43694  -2.19999  -2.19976  -2.19822
 Alpha  occ. eigenvalues --   -2.19655  -2.19643  -2.19578  -2.19529  -1.13698
 Alpha  occ. eigenvalues --   -1.13697  -1.13654  -1.13624  -1.13620  -1.13619
 Alpha  occ. eigenvalues --   -1.13558  -1.13497  -1.13430  -1.13353  -1.13326
 Alpha  occ. eigenvalues --   -1.13317  -1.13300  -1.13293  -1.13256  -1.13239
 Alpha  occ. eigenvalues --   -1.13217  -1.13189  -1.13177  -1.13168  -1.13133
 Alpha  occ. eigenvalues --   -0.17529  -0.14086  -0.12298  -0.10712
 Alpha virt. eigenvalues --   -0.06125  -0.05400  -0.04411  -0.03649  -0.02722
 Alpha virt. eigenvalues --   -0.02238  -0.01977  -0.01598  -0.00688  -0.00496
 Alpha virt. eigenvalues --   -0.00332   0.00224   0.00319   0.00497   0.00694

  Beta  occ. eigenvalues --  -38.44081 -38.44073 -38.43847 -38.43828 -38.43724
  Beta  occ. eigenvalues --  -38.43681 -38.43665  -2.19885  -2.19845  -2.19796
  Beta  occ. eigenvalues --   -2.19628  -2.19612  -2.19587  -2.19476  -1.13642
  Beta  occ. eigenvalues --   -1.13604  -1.13595  -1.13579  -1.13518  -1.13514
  Beta  occ. eigenvalues --   -1.13490  -1.13472  -1.13407  -1.13334  -1.13309
  Beta  occ. eigenvalues --   -1.13297  -1.13276  -1.13267  -1.13255  -1.13242
  Beta  occ. eigenvalues --   -1.13174  -1.13146  -1.13142  -1.13132  -1.13105
  Beta  occ. eigenvalues --   -0.16941  -0.13422  -0.12074
  Beta virt. eigenvalues --   -0.07261  -0.05946  -0.04862  -0.04175  -0.03376
  Beta virt. eigenvalues --   -0.02402  -0.02139  -0.01703  -0.01117  -0.00443
  Beta virt. eigenvalues --   -0.00276  -0.00166   0.00410   0.00480   0.00605

 Mulliken charges and spin densities:
               1          2
     1  Na  -0.355649   0.165505
     2  Na   0.552615   0.180683
     3  Na  -0.235696   0.203763
     4  Na   0.771340   0.156971
     5  Na  -1.204381  -0.051028
     6  Na   0.567745  -0.084907
     7  Na  -0.095974   0.429014
 Sum of Mulliken charges =  -0.00000   1.00000

 Dipole moment (field-independent basis, Debye):
    X=              0.7686    Y=             -0.0782    Z=              0.5167  Tot=              0.9294
 Quadrupole moment (field-independent basis, Debye-Ang):
   XX=            -67.6512   YY=            -66.1124   ZZ=            -65.2488
   XY=              0.3945   XZ=              3.2474   YZ=              2.0418

 Normal termination of Gaussian 16 at Wed Nov 29 02:55:55 2023.
