 Gaussian 16, Revision B.01,
 Gaussian 16:  ES64L-G16RevB.01 20-Dec-2017

 -------------------------
 #P B3LYP/6-311+g(d) force
 -------------------------

 -----
 DPGEN
 -----
 Symbolic Z-matrix:
 Charge =  0 Multiplicity = 2

                         Standard orientation:
 ---------------------------------------------------------------------
 Center     Atomic      Atomic             Coordinates (Angstroms)
 Number     Number       Type             X           Y           Z
 ---------------------------------------------------------------------
      1         11           0       -2.495051   -1.410130   -0.145178
      2         11           0       -3.026042    2.054744   -0.193309
      3         11           0       -0.172547    0.314641   -1.095363
      4         11           0        3.128449    0.137036   -0.190119
      5         11           0        1.020800   -2.822658   -0.695094
      6         11           0       -0.189093   -1.151431    2.003517
      7         11           0        1.733484    2.877797    0.315546
 ---------------------------------------------------------------------

 SCF Done:  E(UB3LYP) =  -1136.12831275     A.U. after   20 cycles

 The electronic state is 2-A.
 Alpha  occ. eigenvalues --  -38.44229 -38.44127 -38.44048 -38.43924 -38.43370
 Alpha  occ. eigenvalues --  -38.43318 -38.43021  -2.20037  -2.20013  -2.19905
 Alpha  occ. eigenvalues --   -2.19747  -2.19234  -2.19231  -2.19041  -1.13778
 Alpha  occ. eigenvalues --   -1.13724  -1.13680  -1.13672  -1.13667  -1.13618
 Alpha  occ. eigenvalues --   -1.13605  -1.13573  -1.13551  -1.13400  -1.13392
 Alpha  occ. eigenvalues --   -1.13371  -1.12927  -1.12908  -1.12894  -1.12872
 Alpha  occ. eigenvalues --   -1.12857  -1.12814  -1.12741  -1.12706  -1.12647
 Alpha  occ. eigenvalues --   -0.18402  -0.13416  -0.12428  -0.10152
 Alpha virt. eigenvalues --   -0.05972  -0.05444  -0.04937  -0.03016  -0.02655
 Alpha virt. eigenvalues --   -0.02010  -0.01729  -0.01397  -0.00806  -0.00522
 Alpha virt. eigenvalues --   -0.00023   0.00295   0.00724   0.00744   0.00835

  Beta  occ. eigenvalues --  -38.44228 -38.44116 -38.44042 -38.43917 -38.43345
  Beta  occ. eigenvalues --  -38.43226 -38.42987  -2.20022  -2.20012  -2.19897
  Beta  occ. eigenvalues --   -2.19735  -2.19190  -2.19061  -2.18983  -1.13772
  Beta  occ. eigenvalues --   -1.13678  -1.13670  -1.13667  -1.13663  -1.13614
  Beta  occ. eigenvalues --   -1.13602  -1.13551  -1.13544  -1.13390  -1.13380
  Beta  occ. eigenvalues --   -1.13363  -1.12888  -1.12860  -1.12830  -1.12790
  Beta  occ. eigenvalues --   -1.12736  -1.12710  -1.12692  -1.12651  -1.12600
  Beta  occ. eigenvalues --   -0.17756  -0.13170  -0.12194
  Beta virt. eigenvalues --   -0.06397  -0.05777  -0.05368  -0.04820  -0.02346
  Beta virt. eigenvalues --   -0.02076  -0.01715  -0.01395  -0.00952  -0.00765
  Beta virt. eigenvalues --   -0.00522   0.00185   0.00372   0.00754   0.00815

 Mulliken charges and spin densities:
               1          2
     1  Na   0.582520   0.040377
     2  Na  -0.109351  -0.031637
     3  Na  -0.019043   0.338038
     4  Na   0.243547   0.024180
     5  Na   0.216123   0.070266
     6  Na  -0.647391   0.555959
     7  Na  -0.266405   0.002818
 Sum of Mulliken charges =  -0.00000   1.00000

 Dipole moment (field-independent basis, Debye):
    X=             -0.1228    Y=              0.2786    Z=              0.1954  Tot=              0.3618
 Quadrupole moment (field-independent basis, Debye-Ang):
   XX=            -56.7291   YY=            -59.3387   ZZ=            -76.6253
   XY=             -1.8182   XZ=              0.3335   YZ=              3.0011

 Normal termination of Gaussian 16 at Wed Nov 29 02:22:20 2023.
