 Gaussian 16, Revision B.01,
 Gaussian 16:  ES64L-G16RevB.01 20-Dec-2017

 -------------------------
 #P B3LYP/6-311+g(d) force
 -------------------------

 -----
 DPGEN
 -----
 Symbolic Z-matrix:
 Charge =  0 Multiplicity = 2

                         Standard orientation:
 ---------------------------------------------------------------------
 Center     Atomic      Atomic             Coordinates (Angstroms)
 Number     Number       Type             X           Y           Z
 ---------------------------------------------------------------------
      1         11           0       -0.396195    1.483328   -0.117299
      2         11           0        2.137402    3.474078    0.204283
      3         11           0        3.275410    0.276166   -0.385702
      4         11           0        0.107066   -1.561505   -0.943676
      5         11           0       -3.040976   -1.245456   -0.496574
      6         11           0        3.426219   -2.767791    1.001778
      7         11           0       -5.508927    0.341179    0.737189
 ---------------------------------------------------------------------

 SCF Done:  E(UB3LYP) =  -1136.12310643     A.U. after   21 cycles

 The electronic state is 2-A.
 Alpha  occ. eigenvalues --  -38.44776 -38.44346 -38.44065 -38.44001 -38.43826
 Alpha  occ. eigenvalues --  -38.43694 -38.43369  -2.20600  -2.20206  -2.19911
 Alpha  occ. eigenvalues --   -2.19893  -2.19614  -2.19558  -2.19198  -1.14242
 Alpha  occ. eigenvalues --   -1.14224  -1.14218  -1.13935  -1.13894  -1.13798
 Alpha  occ. eigenvalues --   -1.13618  -1.13598  -1.13575  -1.13566  -1.13514
 Alpha  occ. eigenvalues --   -1.13492  -1.13277  -1.13272  -1.13238  -1.13229
 Alpha  occ. eigenvalues --   -1.13224  -1.13201  -1.12864  -1.12853  -1.12837
 Alpha  occ. eigenvalues --   -0.17132  -0.14286  -0.12139  -0.11482
 Alpha virt. eigenvalues --   -0.05782  -0.05517  -0.04402  -0.03973  -0.02667
 Alpha virt. eigenvalues --   -0.02441  -0.01999  -0.01566  -0.01016  -0.00753
 Alpha virt. eigenvalues --   -0.00477  -0.00068   0.00356   0.00506   0.00771

  Beta  occ. eigenvalues --  -38.44666 -38.44329 -38.44047 -38.43947 -38.43799
  Beta  occ. eigenvalues --  -38.43685 -38.43364  -2.20394  -2.20178  -2.19878
  Beta  occ. eigenvalues --   -2.19798  -2.19565  -2.19554  -2.19190  -1.14105
  Beta  occ. eigenvalues --   -1.14084  -1.14080  -1.13902  -1.13877  -1.13778
  Beta  occ. eigenvalues --   -1.13591  -1.13576  -1.13518  -1.13501  -1.13484
  Beta  occ. eigenvalues --   -1.13411  -1.13243  -1.13233  -1.13233  -1.13224
  Beta  occ. eigenvalues --   -1.13201  -1.13139  -1.12857  -1.12847  -1.12832
  Beta  occ. eigenvalues --   -0.16560  -0.13396  -0.11954
  Beta virt. eigenvalues --   -0.07931  -0.05579  -0.05229  -0.03953  -0.03774
  Beta virt. eigenvalues --   -0.02351  -0.02081  -0.01739  -0.01229  -0.00761
  Beta virt. eigenvalues --   -0.00531  -0.00102   0.00067   0.00497   0.00576

 Mulliken charges and spin densities:
               1          2
     1  Na  -1.110241  -0.112628
     2  Na   0.648005   0.034875
     3  Na  -0.217266   0.341507
     4  Na  -0.550169   0.050918
     5  Na   0.499779   0.117657
     6  Na   0.460245   0.113738
     7  Na   0.269647   0.453934
 Sum of Mulliken charges =  -0.00000   1.00000

 Dipole moment (field-independent basis, Debye):
    X=             -0.0855    Y=              0.2189    Z=              0.3417  Tot=              0.4146
 Quadrupole moment (field-independent basis, Debye-Ang):
   XX=            -63.3750   YY=            -64.1070   ZZ=            -69.8957
   XY=             -0.3971   XZ=             -0.4963   YZ=              0.1345

 Normal termination of Gaussian 16 at Tue Nov 28 22:19:55 2023.
