 Gaussian 16, Revision B.01,
 Gaussian 16:  ES64L-G16RevB.01 20-Dec-2017

 -------------------------
 #P B3LYP/6-311+g(d) force
 -------------------------

 -----
 DPGEN
 -----
 Symbolic Z-matrix:
 Charge =  0 Multiplicity = 2

                         Standard orientation:
 ---------------------------------------------------------------------
 Center     Atomic      Atomic             Coordinates (Angstroms)
 Number     Number       Type             X           Y           Z
 ---------------------------------------------------------------------
      1         11           0        0.594327   -1.104808   -1.247869
      2         11           0        1.527278    1.323829    0.667713
      3         11           0       -0.669989   -0.238234    2.248627
      4         11           0       -1.067907    3.078289    0.128586
      5         11           0        4.275769   -0.723068   -0.496074
      6         11           0       -2.146689   -2.774506    0.594751
      7         11           0       -2.512788    0.438498   -1.895734
 ---------------------------------------------------------------------

 SCF Done:  E(UB3LYP) =  -1136.12442090     A.U. after   20 cycles

 The electronic state is 2-A.
 Alpha  occ. eigenvalues --  -38.44863 -38.44679 -38.44091 -38.44069 -38.43654
 Alpha  occ. eigenvalues --  -38.43240 -38.43238  -2.20669  -2.20560  -2.19925
 Alpha  occ. eigenvalues --   -2.19852  -2.19455  -2.19182  -2.19061  -1.14347
 Alpha  occ. eigenvalues --   -1.14301  -1.14272  -1.14261  -1.14187  -1.14155
 Alpha  occ. eigenvalues --   -1.13656  -1.13605  -1.13525  -1.13524  -1.13506
 Alpha  occ. eigenvalues --   -1.13467  -1.13132  -1.13118  -1.13084  -1.12910
 Alpha  occ. eigenvalues --   -1.12882  -1.12813  -1.12722  -1.12711  -1.12668
 Alpha  occ. eigenvalues --   -0.17985  -0.12802  -0.12047  -0.11783
 Alpha virt. eigenvalues --   -0.06192  -0.05124  -0.04285  -0.03315  -0.03257
 Alpha virt. eigenvalues --   -0.02875  -0.01988  -0.01200  -0.00610  -0.00140
 Alpha virt. eigenvalues --    0.00148   0.00259   0.00570   0.00608   0.00726

  Beta  occ. eigenvalues --  -38.44784 -38.44588 -38.44090 -38.44045 -38.43646
  Beta  occ. eigenvalues --  -38.43244 -38.43224  -2.20523  -2.20392  -2.19883
  Beta  occ. eigenvalues --   -2.19851  -2.19442  -2.19156  -2.19073  -1.14240
  Beta  occ. eigenvalues --   -1.14206  -1.14172  -1.14143  -1.14078  -1.14029
  Beta  occ. eigenvalues --   -1.13630  -1.13559  -1.13524  -1.13522  -1.13486
  Beta  occ. eigenvalues --   -1.13459  -1.13117  -1.13104  -1.13074  -1.12890
  Beta  occ. eigenvalues --   -1.12863  -1.12791  -1.12730  -1.12707  -1.12661
  Beta  occ. eigenvalues --   -0.17231  -0.12488  -0.11827
  Beta virt. eigenvalues --   -0.07993  -0.05933  -0.04717  -0.04055  -0.02870
  Beta virt. eigenvalues --   -0.02683  -0.02272  -0.01755  -0.01120  -0.00329
  Beta virt. eigenvalues --   -0.00123   0.00227   0.00364   0.00653   0.00773

 Mulliken charges and spin densities:
               1          2
     1  Na  -0.849619   0.463581
     2  Na   0.372289   0.098542
     3  Na  -0.040576   0.341346
     4  Na  -0.281621   0.001442
     5  Na   0.290589  -0.046528
     6  Na   0.234558  -0.098612
     7  Na   0.274381   0.240229
 Sum of Mulliken charges =  -0.00000   1.00000

 Dipole moment (field-independent basis, Debye):
    X=             -0.3407    Y=             -0.3198    Z=             -0.0125  Tot=              0.4675
 Quadrupole moment (field-independent basis, Debye-Ang):
   XX=            -57.4833   YY=            -68.2845   ZZ=            -68.1651
   XY=             -0.6214   XZ=              1.3333   YZ=             -0.3578

 Normal termination of Gaussian 16 at Wed Nov 29 17:19:25 2023.
