 Gaussian 16, Revision B.01,
 Gaussian 16:  ES64L-G16RevB.01 20-Dec-2017

 -------------------------
 #P B3LYP/6-311+g(d) force
 -------------------------

 -----
 DPGEN
 -----
 Symbolic Z-matrix:
 Charge =  0 Multiplicity = 2

                         Standard orientation:
 ---------------------------------------------------------------------
 Center     Atomic      Atomic             Coordinates (Angstroms)
 Number     Number       Type             X           Y           Z
 ---------------------------------------------------------------------
      1         11           0        3.337466   -0.050149   -0.328186
      2         11           0        1.157864   -2.470267   -1.425102
      3         11           0        0.591866   -1.806913    2.389898
      4         11           0       -2.604736   -0.041496    1.626358
      5         11           0        1.741384    3.083012    0.081835
      6         11           0       -2.499221   -1.081596   -1.782484
      7         11           0       -1.724623    2.367408   -0.562320
 ---------------------------------------------------------------------

 SCF Done:  E(UB3LYP) =  -1136.12042783     A.U. after   20 cycles

 The electronic state is 2-A.
 Alpha  occ. eigenvalues --  -38.45042 -38.44701 -38.44642 -38.44283 -38.44145
 Alpha  occ. eigenvalues --  -38.44080 -38.43359  -2.20812  -2.20490  -2.20452
 Alpha  occ. eigenvalues --   -2.20058  -2.19924  -2.19874  -2.19122  -1.14473
 Alpha  occ. eigenvalues --   -1.14459  -1.14419  -1.14164  -1.14142  -1.14132
 Alpha  occ. eigenvalues --   -1.14117  -1.14101  -1.14071  -1.13751  -1.13725
 Alpha  occ. eigenvalues --   -1.13691  -1.13599  -1.13576  -1.13570  -1.13553
 Alpha  occ. eigenvalues --   -1.13548  -1.13485  -1.12799  -1.12787  -1.12768
 Alpha  occ. eigenvalues --   -0.16752  -0.13139  -0.12069  -0.11596
 Alpha virt. eigenvalues --   -0.06035  -0.05938  -0.05092  -0.03653  -0.03132
 Alpha virt. eigenvalues --   -0.02849  -0.01255  -0.00973  -0.00742  -0.00698
 Alpha virt. eigenvalues --   -0.00408   0.00021   0.00186   0.00354   0.00503

  Beta  occ. eigenvalues --  -38.44959 -38.44648 -38.44612 -38.44281 -38.44122
  Beta  occ. eigenvalues --  -38.44076 -38.43368  -2.20659  -2.20400  -2.20391
  Beta  occ. eigenvalues --   -2.20054  -2.19880  -2.19867  -2.19139  -1.14368
  Beta  occ. eigenvalues --   -1.14357  -1.14305  -1.14100  -1.14095  -1.14087
  Beta  occ. eigenvalues --   -1.14063  -1.14040  -1.14011  -1.13742  -1.13721
  Beta  occ. eigenvalues --   -1.13692  -1.13567  -1.13558  -1.13548  -1.13544
  Beta  occ. eigenvalues --   -1.13518  -1.13485  -1.12810  -1.12799  -1.12780
  Beta  occ. eigenvalues --   -0.16139  -0.13086  -0.11811
  Beta virt. eigenvalues --   -0.07724  -0.05924  -0.05620  -0.04430  -0.03479
  Beta virt. eigenvalues --   -0.02525  -0.02269  -0.01211  -0.00840  -0.00647
  Beta virt. eigenvalues --   -0.00623  -0.00089   0.00213   0.00378   0.00550

 Mulliken charges and spin densities:
               1          2
     1  Na  -0.013235  -0.000035
     2  Na  -0.053026   0.278600
     3  Na  -0.005424   0.312489
     4  Na   0.187414   0.249067
     5  Na   0.037128  -0.087576
     6  Na  -0.031803   0.157749
     7  Na  -0.121054   0.089706
 Sum of Mulliken charges =  -0.00000   1.00000

 Dipole moment (field-independent basis, Debye):
    X=             -0.4971    Y=             -0.6351    Z=              0.1368  Tot=              0.8181
 Quadrupole moment (field-independent basis, Debye-Ang):
   XX=            -62.0759   YY=            -71.0956   ZZ=            -67.2589
   XY=             -1.7742   XZ=              1.3059   YZ=              0.7224

 Normal termination of Gaussian 16 at Sun Dec  3 21:53:36 2023.
