 Gaussian 16, Revision B.01,
 Gaussian 16:  ES64L-G16RevB.01 20-Dec-2017

 -------------------------
 #P B3LYP/6-311+g(d) force
 -------------------------

 -----
 DPGEN
 -----
 Symbolic Z-matrix:
 Charge =  0 Multiplicity = 2

                         Standard orientation:
 ---------------------------------------------------------------------
 Center     Atomic      Atomic             Coordinates (Angstroms)
 Number     Number       Type             X           Y           Z
 ---------------------------------------------------------------------
      1         11           0        0.311772    1.490648   -0.288880
      2         11           0       -2.247402    3.777775    0.116411
      3         11           0       -3.126021    0.527586    0.047047
      4         11           0       -0.355291   -1.954710   -0.684907
      5         11           0        2.695315   -0.999192   -1.106339
      6         11           0       -3.101822   -3.162278    0.887846
      7         11           0        5.823450    0.320172    1.028822
 ---------------------------------------------------------------------

 SCF Done:  E(UB3LYP) =  -1136.12549832     A.U. after   19 cycles

 The electronic state is 2-A.
 Alpha  occ. eigenvalues --  -38.44995 -38.44368 -38.44345 -38.44038 -38.43603
 Alpha  occ. eigenvalues --  -38.43484 -38.43471  -2.20779  -2.20190  -2.20183
 Alpha  occ. eigenvalues --   -2.19849  -2.19398  -2.19368  -2.19296  -1.14408
 Alpha  occ. eigenvalues --   -1.14407  -1.14377  -1.13917  -1.13896  -1.13885
 Alpha  occ. eigenvalues --   -1.13879  -1.13777  -1.13755  -1.13515  -1.13510
 Alpha  occ. eigenvalues --   -1.13473  -1.13082  -1.13069  -1.13064  -1.13055
 Alpha  occ. eigenvalues --   -1.13039  -1.13006  -1.12962  -1.12954  -1.12892
 Alpha  occ. eigenvalues --   -0.16853  -0.13660  -0.12649  -0.11303
 Alpha virt. eigenvalues --   -0.05804  -0.05567  -0.04721  -0.03954  -0.02444
 Alpha virt. eigenvalues --   -0.02185  -0.02018  -0.01672  -0.01584  -0.00910
 Alpha virt. eigenvalues --   -0.00332  -0.00077   0.00165   0.00355   0.00645

  Beta  occ. eigenvalues --  -38.44849 -38.44360 -38.44332 -38.44036 -38.43586
  Beta  occ. eigenvalues --  -38.43470 -38.43464  -2.20505  -2.20175  -2.20161
  Beta  occ. eigenvalues --   -2.19846  -2.19367  -2.19334  -2.19301  -1.14222
  Beta  occ. eigenvalues --   -1.14221  -1.14194  -1.13905  -1.13885  -1.13871
  Beta  occ. eigenvalues --   -1.13863  -1.13763  -1.13739  -1.13511  -1.13508
  Beta  occ. eigenvalues --   -1.13471  -1.13058  -1.13051  -1.13043  -1.13034
  Beta  occ. eigenvalues --   -1.13012  -1.12991  -1.12965  -1.12950  -1.12852
  Beta  occ. eigenvalues --   -0.16542  -0.13002  -0.12305
  Beta virt. eigenvalues --   -0.07400  -0.05679  -0.05439  -0.04197  -0.03846
  Beta virt. eigenvalues --   -0.02177  -0.01972  -0.01512  -0.01460  -0.01116
  Beta virt. eigenvalues --   -0.00618   0.00044   0.00079   0.00325   0.00518

 Mulliken charges and spin densities:
               1          2
     1  Na  -1.319184  -0.052446
     2  Na   1.102371   0.017828
     3  Na  -0.448967   0.134890
     4  Na  -1.017896  -0.016405
     5  Na   0.539004  -0.024822
     6  Na   0.969772   0.162517
     7  Na   0.174900   0.778439
 Sum of Mulliken charges =  -0.00000   1.00000

 Dipole moment (field-independent basis, Debye):
    X=             -0.8946    Y=              0.8206    Z=              0.2007  Tot=              1.2305
 Quadrupole moment (field-independent basis, Debye-Ang):
   XX=            -67.4818   YY=            -59.1132   ZZ=            -71.2623
   XY=             -1.9605   XZ=             -1.3465   YZ=              0.2694

 Normal termination of Gaussian 16 at Tue Nov 28 19:00:14 2023.
