 Gaussian 16, Revision B.01,
 Gaussian 16:  ES64L-G16RevB.01 20-Dec-2017

 -------------------------
 #P B3LYP/6-311+g(d) force
 -------------------------

 -----
 DPGEN
 -----
 Symbolic Z-matrix:
 Charge =  0 Multiplicity = 2

                         Standard orientation:
 ---------------------------------------------------------------------
 Center     Atomic      Atomic             Coordinates (Angstroms)
 Number     Number       Type             X           Y           Z
 ---------------------------------------------------------------------
      1         11           0       -2.498509    1.314853   -0.147636
      2         11           0        3.028045    0.149069   -0.972797
      3         11           0        0.280029    3.122092    0.315722
      4         11           0       -0.146424   -0.236437   -1.782838
      5         11           0        1.535883   -2.561746    0.604470
      6         11           0        0.634394    0.228892    1.994872
      7         11           0       -2.833418   -2.016723   -0.011792
 ---------------------------------------------------------------------

 SCF Done:  E(UB3LYP) =  -1136.13438872     A.U. after   19 cycles

 The electronic state is 2-A.
 Alpha  occ. eigenvalues --  -38.44177 -38.43826 -38.43820 -38.43795 -38.43744
 Alpha  occ. eigenvalues --  -38.43557 -38.43114  -2.20017  -2.19717  -2.19706
 Alpha  occ. eigenvalues --   -2.19659  -2.19532  -2.19436  -2.18948  -1.13710
 Alpha  occ. eigenvalues --   -1.13653  -1.13647  -1.13426  -1.13396  -1.13368
 Alpha  occ. eigenvalues --   -1.13360  -1.13354  -1.13327  -1.13301  -1.13294
 Alpha  occ. eigenvalues --   -1.13278  -1.13217  -1.13192  -1.13177  -1.13128
 Alpha  occ. eigenvalues --   -1.13100  -1.13038  -1.12621  -1.12604  -1.12591
 Alpha  occ. eigenvalues --   -0.18262  -0.13133  -0.12103  -0.11169
 Alpha virt. eigenvalues --   -0.05554  -0.05096  -0.04731  -0.03449  -0.02926
 Alpha virt. eigenvalues --   -0.02812  -0.01528  -0.01173  -0.00499  -0.00178
 Alpha virt. eigenvalues --   -0.00015   0.00334   0.00802   0.00817   0.00891

  Beta  occ. eigenvalues --  -38.44141 -38.43800 -38.43749 -38.43747 -38.43732
  Beta  occ. eigenvalues --  -38.43555 -38.43111  -2.19952  -2.19627  -2.19592
  Beta  occ. eigenvalues --   -2.19571  -2.19543  -2.19433  -2.18946  -1.13652
  Beta  occ. eigenvalues --   -1.13607  -1.13601  -1.13359  -1.13320  -1.13294
  Beta  occ. eigenvalues --   -1.13273  -1.13270  -1.13261  -1.13250  -1.13241
  Beta  occ. eigenvalues --   -1.13224  -1.13206  -1.13189  -1.13182  -1.13114
  Beta  occ. eigenvalues --   -1.13091  -1.13038  -1.12610  -1.12605  -1.12582
  Beta  occ. eigenvalues --   -0.17552  -0.12887  -0.11914
  Beta virt. eigenvalues --   -0.07222  -0.05408  -0.05012  -0.04683  -0.02771
  Beta virt. eigenvalues --   -0.02296  -0.01841  -0.01347  -0.01080  -0.00465
  Beta virt. eigenvalues --   -0.00144   0.00093   0.00389   0.00838   0.00890

 Mulliken charges and spin densities:
               1          2
     1  Na   0.015639  -0.061606
     2  Na   0.101310   0.107819
     3  Na   0.093453  -0.025374
     4  Na   0.002624   0.433100
     5  Na   0.017103   0.048005
     6  Na  -0.149967   0.565364
     7  Na  -0.080163  -0.067307
 Sum of Mulliken charges =  -0.00000   1.00000

 Dipole moment (field-independent basis, Debye):
    X=              0.3076    Y=             -0.2468    Z=              0.0256  Tot=              0.3952
 Quadrupole moment (field-independent basis, Debye-Ang):
   XX=            -59.9289   YY=            -62.6008   ZZ=            -72.5411
   XY=              1.0243   XZ=             -1.9456   YZ=             -1.6714

 Normal termination of Gaussian 16 at Tue Dec  5 12:49:51 2023.
