 Gaussian 16, Revision B.01,
 Gaussian 16:  ES64L-G16RevB.01 20-Dec-2017

 -------------------------
 #P B3LYP/6-311+g(d) force
 -------------------------

 -----
 DPGEN
 -----
 Symbolic Z-matrix:
 Charge =  0 Multiplicity = 2

                         Standard orientation:
 ---------------------------------------------------------------------
 Center     Atomic      Atomic             Coordinates (Angstroms)
 Number     Number       Type             X           Y           Z
 ---------------------------------------------------------------------
      1         11           0       -3.209205   -2.370999   -0.410726
      2         11           0       -3.773569    0.270735    1.135497
      3         11           0        0.434357   -2.900033   -0.672155
      4         11           0        3.942163   -2.334989    0.393690
      5         11           0        3.481632    1.346930    0.511433
      6         11           0       -2.272307    2.501243   -0.344489
      7         11           0        1.396929    3.487113   -0.613250
 ---------------------------------------------------------------------

 SCF Done:  E(UB3LYP) =  -1136.10861477     A.U. after   23 cycles

 The electronic state is 2-A.
 Alpha  occ. eigenvalues --  -38.45334 -38.45153 -38.44889 -38.44642 -38.44326
 Alpha  occ. eigenvalues --  -38.43707 -38.43605  -2.21064  -2.20935  -2.20693
 Alpha  occ. eigenvalues --   -2.20504  -2.20149  -2.19498  -2.19413  -1.14762
 Alpha  occ. eigenvalues --   -1.14751  -1.14675  -1.14616  -1.14609  -1.14565
 Alpha  occ. eigenvalues --   -1.14419  -1.14351  -1.14329  -1.14186  -1.14144
 Alpha  occ. eigenvalues --   -1.14131  -1.13807  -1.13789  -1.13776  -1.13154
 Alpha  occ. eigenvalues --   -1.13143  -1.13126  -1.13082  -1.13068  -1.13048
 Alpha  occ. eigenvalues --   -0.15945  -0.14204  -0.13193  -0.10734
 Alpha virt. eigenvalues --   -0.07570  -0.04781  -0.04497  -0.03640  -0.03470
 Alpha virt. eigenvalues --   -0.02307  -0.02255  -0.01890  -0.01179  -0.00903
 Alpha virt. eigenvalues --   -0.00549  -0.00116   0.00168   0.00400   0.00714

  Beta  occ. eigenvalues --  -38.45319 -38.45127 -38.44853 -38.44623 -38.44285
  Beta  occ. eigenvalues --  -38.43649 -38.43574  -2.21043  -2.20894  -2.20631
  Beta  occ. eigenvalues --   -2.20472  -2.20073  -2.19390  -2.19358  -1.14752
  Beta  occ. eigenvalues --   -1.14742  -1.14625  -1.14592  -1.14583  -1.14503
  Beta  occ. eigenvalues --   -1.14365  -1.14311  -1.14282  -1.14163  -1.14126
  Beta  occ. eigenvalues --   -1.14087  -1.13760  -1.13740  -1.13714  -1.13080
  Beta  occ. eigenvalues --   -1.13068  -1.13057  -1.13038  -1.13031  -1.13010
  Beta  occ. eigenvalues --   -0.15445  -0.13511  -0.12448
  Beta virt. eigenvalues --   -0.07750  -0.07482  -0.04349  -0.04218  -0.03365
  Beta virt. eigenvalues --   -0.03075  -0.02044  -0.02003  -0.01684  -0.00987
  Beta virt. eigenvalues --   -0.00617  -0.00335   0.00174   0.00241   0.00369

 Mulliken charges and spin densities:
               1          2
     1  Na  -0.001362   0.127363
     2  Na   0.126174   0.062155
     3  Na  -0.368624   0.083844
     4  Na   0.724970   0.340360
     5  Na  -0.572258   0.152456
     6  Na  -0.532712   0.133587
     7  Na   0.623811   0.100234
 Sum of Mulliken charges =  -0.00000   1.00000

 Dipole moment (field-independent basis, Debye):
    X=             -0.6689    Y=             -0.0238    Z=              0.0872  Tot=              0.6749
 Quadrupole moment (field-independent basis, Debye-Ang):
   XX=            -61.1153   YY=            -70.8767   ZZ=            -69.8409
   XY=              1.1892   XZ=              0.6476   YZ=             -0.8130

 Normal termination of Gaussian 16 at Mon Dec  4 00:07:16 2023.
