 Gaussian 16, Revision B.01,
 Gaussian 16:  ES64L-G16RevB.01 20-Dec-2017

 -------------------------
 #P B3LYP/6-311+g(d) force
 -------------------------

 -----
 DPGEN
 -----
 Symbolic Z-matrix:
 Charge =  0 Multiplicity = 2

                         Standard orientation:
 ---------------------------------------------------------------------
 Center     Atomic      Atomic             Coordinates (Angstroms)
 Number     Number       Type             X           Y           Z
 ---------------------------------------------------------------------
      1         11           0       -1.670931    1.203159   -1.122154
      2         11           0        1.811658    0.417260   -1.441896
      3         11           0       -0.107900    0.011007    2.069360
      4         11           0       -0.650907   -1.760272   -1.321845
      5         11           0       -3.792859   -0.987070    0.677263
      6         11           0        1.063423    3.226436    0.501250
      7         11           0        3.347517   -2.110520    0.638021
 ---------------------------------------------------------------------

 SCF Done:  E(UB3LYP) =  -1136.12692190     A.U. after   22 cycles

 The electronic state is 2-A.
 Alpha  occ. eigenvalues --  -38.44889 -38.44476 -38.44092 -38.43934 -38.43795
 Alpha  occ. eigenvalues --  -38.43500 -38.42998  -2.20690  -2.20254  -2.19968
 Alpha  occ. eigenvalues --   -2.19694  -2.19684  -2.19385  -2.18799  -1.14367
 Alpha  occ. eigenvalues --   -1.14320  -1.14307  -1.13930  -1.13914  -1.13879
 Alpha  occ. eigenvalues --   -1.13721  -1.13622  -1.13563  -1.13400  -1.13359
 Alpha  occ. eigenvalues --   -1.13357  -1.13348  -1.13309  -1.13273  -1.13100
 Alpha  occ. eigenvalues --   -1.13047  -1.12978  -1.12473  -1.12463  -1.12434
 Alpha  occ. eigenvalues --   -0.18054  -0.12865  -0.11599  -0.11353
 Alpha virt. eigenvalues --   -0.06324  -0.05132  -0.04462  -0.03197  -0.03012
 Alpha virt. eigenvalues --   -0.02803  -0.01960  -0.01324  -0.00790  -0.00101
 Alpha virt. eigenvalues --    0.00207   0.00247   0.00440   0.00586   0.00693

  Beta  occ. eigenvalues --  -38.44811 -38.44466 -38.44050 -38.43925 -38.43765
  Beta  occ. eigenvalues --  -38.43472 -38.42998  -2.20545  -2.20238  -2.19896
  Beta  occ. eigenvalues --   -2.19667  -2.19644  -2.19337  -2.18800  -1.14270
  Beta  occ. eigenvalues --   -1.14216  -1.14200  -1.13919  -1.13893  -1.13871
  Beta  occ. eigenvalues --   -1.13662  -1.13553  -1.13518  -1.13361  -1.13349
  Beta  occ. eigenvalues --   -1.13332  -1.13300  -1.13295  -1.13245  -1.13057
  Beta  occ. eigenvalues --   -1.13000  -1.12947  -1.12475  -1.12452  -1.12437
  Beta  occ. eigenvalues --   -0.17223  -0.12725  -0.11415
  Beta virt. eigenvalues --   -0.07493  -0.06017  -0.04972  -0.04220  -0.02836
  Beta virt. eigenvalues --   -0.02342  -0.02068  -0.01800  -0.01147  -0.00471
  Beta virt. eigenvalues --   -0.00110   0.00234   0.00330   0.00559   0.00684

 Mulliken charges and spin densities:
               1          2
     1  Na   0.039344   0.202213
     2  Na   0.520721   0.283138
     3  Na  -0.515726   0.824803
     4  Na  -0.165241   0.014252
     5  Na   0.282787  -0.018739
     6  Na  -0.004264  -0.196891
     7  Na  -0.157622  -0.108776
 Sum of Mulliken charges =  -0.00000   1.00000

 Dipole moment (field-independent basis, Debye):
    X=             -0.8144    Y=             -0.2511    Z=              0.3950  Tot=              0.9393
 Quadrupole moment (field-independent basis, Debye-Ang):
   XX=            -56.6769   YY=            -68.5823   ZZ=            -68.8499
   XY=              1.9993   XZ=             -0.2011   YZ=             -1.3939

 Normal termination of Gaussian 16 at Thu Dec  7 02:25:53 2023.
