 Gaussian 16, Revision B.01,
 Gaussian 16:  ES64L-G16RevB.01 20-Dec-2017

 -------------------------
 #P B3LYP/6-311+g(d) force
 -------------------------

 -----
 DPGEN
 -----
 Symbolic Z-matrix:
 Charge =  0 Multiplicity = 2

                         Standard orientation:
 ---------------------------------------------------------------------
 Center     Atomic      Atomic             Coordinates (Angstroms)
 Number     Number       Type             X           Y           Z
 ---------------------------------------------------------------------
      1         11           0        1.347028    3.581266   -0.201467
      2         11           0       -2.567192   -1.540195   -0.245030
      3         11           0        3.231234    0.153800   -0.269136
      4         11           0        1.424402   -2.068717    1.551830
      5         11           0        0.517072   -2.102703   -1.445326
      6         11           0       -3.906429    1.334068    0.239105
      7         11           0       -0.046115    0.642480    0.370024
 ---------------------------------------------------------------------

 SCF Done:  E(UB3LYP) =  -1136.12168761     A.U. after   22 cycles

 The electronic state is 2-A.
 Alpha  occ. eigenvalues --  -38.44989 -38.44160 -38.43768 -38.43657 -38.43592
 Alpha  occ. eigenvalues --  -38.43426 -38.43356  -2.20816  -2.19963  -2.19685
 Alpha  occ. eigenvalues --   -2.19535  -2.19397  -2.19379  -2.19298  -1.14505
 Alpha  occ. eigenvalues --   -1.14500  -1.14421  -1.13633  -1.13613  -1.13591
 Alpha  occ. eigenvalues --   -1.13375  -1.13347  -1.13302  -1.13233  -1.13204
 Alpha  occ. eigenvalues --   -1.13168  -1.13124  -1.13105  -1.13042  -1.13036
 Alpha  occ. eigenvalues --   -1.13016  -1.12975  -1.12948  -1.12934  -1.12907
 Alpha  occ. eigenvalues --   -0.18245  -0.13620  -0.12395  -0.09950
 Alpha virt. eigenvalues --   -0.06815  -0.05358  -0.04925  -0.02834  -0.02414
 Alpha virt. eigenvalues --   -0.02332  -0.01717  -0.01492  -0.01157  -0.00537
 Alpha virt. eigenvalues --   -0.00185   0.00158   0.00360   0.00587   0.00816

  Beta  occ. eigenvalues --  -38.44980 -38.44124 -38.43713 -38.43642 -38.43580
  Beta  occ. eigenvalues --  -38.43422 -38.43298  -2.20805  -2.19895  -2.19584
  Beta  occ. eigenvalues --   -2.19514  -2.19392  -2.19357  -2.19194  -1.14499
  Beta  occ. eigenvalues --   -1.14482  -1.14400  -1.13589  -1.13564  -1.13547
  Beta  occ. eigenvalues --   -1.13312  -1.13278  -1.13225  -1.13217  -1.13190
  Beta  occ. eigenvalues --   -1.13116  -1.13099  -1.13086  -1.13034  -1.13021
  Beta  occ. eigenvalues --   -1.13006  -1.12967  -1.12882  -1.12867  -1.12820
  Beta  occ. eigenvalues --   -0.17742  -0.13175  -0.12091
  Beta virt. eigenvalues --   -0.06662  -0.06294  -0.05095  -0.04807  -0.02344
  Beta virt. eigenvalues --   -0.02190  -0.02019  -0.01400  -0.01293  -0.00737
  Beta virt. eigenvalues --   -0.00470   0.00090   0.00326   0.00556   0.00634

 Mulliken charges and spin densities:
               1          2
     1  Na   0.076443  -0.094210
     2  Na   0.360687   0.104260
     3  Na   0.801962   0.238363
     4  Na   0.429108   0.317463
     5  Na   0.185909   0.145175
     6  Na   0.069358   0.147405
     7  Na  -1.923467   0.141542
 Sum of Mulliken charges =  -0.00000   1.00000

 Dipole moment (field-independent basis, Debye):
    X=              0.5157    Y=             -0.1106    Z=             -0.3428  Tot=              0.6290
 Quadrupole moment (field-independent basis, Debye-Ang):
   XX=            -57.9757   YY=            -63.5543   ZZ=            -72.9602
   XY=             -1.4419   XZ=             -3.4219   YZ=             -0.6256

 Normal termination of Gaussian 16 at Tue Dec  5 15:19:56 2023.
