 Gaussian 16, Revision B.01,
 Gaussian 16:  ES64L-G16RevB.01 20-Dec-2017

 -------------------------
 #P B3LYP/6-311+g(d) force
 -------------------------

 -----
 DPGEN
 -----
 Symbolic Z-matrix:
 Charge =  0 Multiplicity = 2

                         Standard orientation:
 ---------------------------------------------------------------------
 Center     Atomic      Atomic             Coordinates (Angstroms)
 Number     Number       Type             X           Y           Z
 ---------------------------------------------------------------------
      1         11           0       -2.106922    0.241514    1.501552
      2         11           0       -0.555144   -0.851781   -0.982476
      3         11           0       -4.086897   -0.999515   -0.532876
      4         11           0        2.810277   -2.291281    0.327609
      5         11           0        2.647259    0.587099   -1.275016
      6         11           0       -0.255503    2.380373   -0.781240
      7         11           0        1.546931    0.933591    1.742446
 ---------------------------------------------------------------------

 SCF Done:  E(UB3LYP) =  -1136.12585558     A.U. after   21 cycles

 The electronic state is 2-A.
 Alpha  occ. eigenvalues --  -38.44502 -38.44245 -38.44140 -38.43986 -38.43774
 Alpha  occ. eigenvalues --  -38.43018 -38.42607  -2.20325  -2.20170  -2.20058
 Alpha  occ. eigenvalues --   -2.19907  -2.19675  -2.18837  -2.18511  -1.14025
 Alpha  occ. eigenvalues --   -1.13972  -1.13968  -1.13918  -1.13846  -1.13780
 Alpha  occ. eigenvalues --   -1.13760  -1.13716  -1.13655  -1.13597  -1.13549
 Alpha  occ. eigenvalues --   -1.13496  -1.13353  -1.13334  -1.13266  -1.12504
 Alpha  occ. eigenvalues --   -1.12493  -1.12486  -1.12205  -1.12153  -1.12142
 Alpha  occ. eigenvalues --   -0.18604  -0.14143  -0.11303  -0.11032
 Alpha virt. eigenvalues --   -0.06597  -0.04950  -0.04594  -0.03085  -0.02654
 Alpha virt. eigenvalues --   -0.02524  -0.02224  -0.01020  -0.00741  -0.00175
 Alpha virt. eigenvalues --    0.00159   0.00215   0.00337   0.00699   0.00842

  Beta  occ. eigenvalues --  -38.44500 -38.44213 -38.44111 -38.43951 -38.43715
  Beta  occ. eigenvalues --  -38.43015 -38.42587  -2.20321  -2.20116  -2.20005
  Beta  occ. eigenvalues --   -2.19845  -2.19566  -2.18832  -2.18479  -1.14020
  Beta  occ. eigenvalues --   -1.13969  -1.13960  -1.13872  -1.13792  -1.13746
  Beta  occ. eigenvalues --   -1.13719  -1.13677  -1.13609  -1.13555  -1.13505
  Beta  occ. eigenvalues --   -1.13440  -1.13269  -1.13260  -1.13187  -1.12501
  Beta  occ. eigenvalues --   -1.12485  -1.12479  -1.12182  -1.12135  -1.12093
  Beta  occ. eigenvalues --   -0.17876  -0.13984  -0.11112
  Beta virt. eigenvalues --   -0.07069  -0.06444  -0.04780  -0.04109  -0.02934
  Beta virt. eigenvalues --   -0.02445  -0.01976  -0.01461  -0.00825  -0.00391
  Beta virt. eigenvalues --   -0.00118   0.00207   0.00296   0.00467   0.00768

 Mulliken charges and spin densities:
               1          2
     1  Na  -0.112412   0.014713
     2  Na  -0.983275   0.412807
     3  Na   0.470436   0.014446
     4  Na   0.071235  -0.094474
     5  Na   0.693977   0.108501
     6  Na   0.024033   0.094615
     7  Na  -0.163995   0.449391
 Sum of Mulliken charges =  -0.00000   1.00000

 Dipole moment (field-independent basis, Debye):
    X=             -0.8766    Y=              0.3415    Z=             -0.1564  Tot=              0.9537
 Quadrupole moment (field-independent basis, Debye-Ang):
   XX=            -53.7050   YY=            -71.1872   ZZ=            -69.4170
   XY=              2.4172   XZ=              0.9533   YZ=             -0.7969

 Normal termination of Gaussian 16 at Tue Dec  5 14:50:56 2023.
