 Gaussian 16, Revision B.01,
 Gaussian 16:  ES64L-G16RevB.01 20-Dec-2017

 -------------------------
 #P B3LYP/6-311+g(d) force
 -------------------------

 -----
 DPGEN
 -----
 Symbolic Z-matrix:
 Charge =  0 Multiplicity = 2

                         Standard orientation:
 ---------------------------------------------------------------------
 Center     Atomic      Atomic             Coordinates (Angstroms)
 Number     Number       Type             X           Y           Z
 ---------------------------------------------------------------------
      1         11           0        0.213868   -1.641482   -0.950527
      2         11           0        4.050677   -1.246690    0.202917
      3         11           0       -2.422113   -0.427999    1.609764
      4         11           0       -3.403201   -1.251013   -0.812335
      5         11           0       -1.326593    2.418832   -0.628534
      6         11           0        1.853364    1.335546   -1.118388
      7         11           0        1.033998    0.812805    1.697103
 ---------------------------------------------------------------------

 SCF Done:  E(UB3LYP) =  -1136.11810150     A.U. after   23 cycles

 The electronic state is 2-A.
 Alpha  occ. eigenvalues --  -38.44764 -38.44601 -38.44326 -38.44195 -38.43785
 Alpha  occ. eigenvalues --  -38.43681 -38.43179  -2.20577  -2.20362  -2.20210
 Alpha  occ. eigenvalues --   -2.20104  -2.19693  -2.19617  -2.19003  -1.14280
 Alpha  occ. eigenvalues --   -1.14268  -1.14187  -1.14161  -1.14043  -1.14032
 Alpha  occ. eigenvalues --   -1.13984  -1.13829  -1.13827  -1.13735  -1.13704
 Alpha  occ. eigenvalues --   -1.13612  -1.13509  -1.13377  -1.13301  -1.13265
 Alpha  occ. eigenvalues --   -1.13229  -1.13178  -1.12675  -1.12657  -1.12640
 Alpha  occ. eigenvalues --   -0.18314  -0.14111  -0.11410  -0.10778
 Alpha virt. eigenvalues --   -0.06897  -0.05241  -0.04750  -0.03284  -0.02710
 Alpha virt. eigenvalues --   -0.02520  -0.02176  -0.01302  -0.00764  -0.00210
 Alpha virt. eigenvalues --    0.00106   0.00221   0.00416   0.00515   0.00713

  Beta  occ. eigenvalues --  -38.44729 -38.44604 -38.44322 -38.44155 -38.43731
  Beta  occ. eigenvalues --  -38.43655 -38.43164  -2.20516  -2.20370  -2.20201
  Beta  occ. eigenvalues --   -2.20035  -2.19597  -2.19569  -2.18978  -1.14238
  Beta  occ. eigenvalues --   -1.14207  -1.14161  -1.14119  -1.14048  -1.14032
  Beta  occ. eigenvalues --   -1.13990  -1.13820  -1.13811  -1.13689  -1.13661
  Beta  occ. eigenvalues --   -1.13570  -1.13454  -1.13309  -1.13256  -1.13199
  Beta  occ. eigenvalues --   -1.13172  -1.13142  -1.12647  -1.12634  -1.12625
  Beta  occ. eigenvalues --   -0.17623  -0.13997  -0.11191
  Beta virt. eigenvalues --   -0.07009  -0.06638  -0.05225  -0.04025  -0.03124
  Beta virt. eigenvalues --   -0.02592  -0.01947  -0.01460  -0.01164  -0.00348
  Beta virt. eigenvalues --   -0.00148   0.00143   0.00279   0.00552   0.00632

 Mulliken charges and spin densities:
               1          2
     1  Na  -0.762327   0.295835
     2  Na   0.504357  -0.068238
     3  Na  -0.013524   0.034183
     4  Na   0.452769   0.084607
     5  Na  -0.331778   0.173390
     6  Na   0.515587   0.173593
     7  Na  -0.365083   0.306630
 Sum of Mulliken charges =  -0.00000   1.00000

 Dipole moment (field-independent basis, Debye):
    X=              0.3429    Y=             -0.0758    Z=             -0.2940  Tot=              0.4581
 Quadrupole moment (field-independent basis, Debye-Ang):
   XX=            -50.9826   YY=            -73.7476   ZZ=            -70.9912
   XY=             -2.1516   XZ=              1.9627   YZ=             -0.5736

 Normal termination of Gaussian 16 at Tue Dec  5 13:12:09 2023.
