 Gaussian 16, Revision B.01,
 Gaussian 16:  ES64L-G16RevB.01 20-Dec-2017

 -------------------------
 #P B3LYP/6-311+g(d) force
 -------------------------

 -----
 DPGEN
 -----
 Symbolic Z-matrix:
 Charge =  0 Multiplicity = 2

                         Standard orientation:
 ---------------------------------------------------------------------
 Center     Atomic      Atomic             Coordinates (Angstroms)
 Number     Number       Type             X           Y           Z
 ---------------------------------------------------------------------
      1         11           0        2.878422    1.552116    0.154256
      2         11           0       -0.718023    2.846895    0.056163
      3         11           0       -3.414164    0.504620   -0.027115
      4         11           0        0.413273   -0.514717    1.779916
      5         11           0       -0.544289   -0.060960   -1.517305
      6         11           0        2.719311   -1.553317   -0.654390
      7         11           0       -1.334530   -2.774637    0.208476
 ---------------------------------------------------------------------

 SCF Done:  E(UB3LYP) =  -1136.13273886     A.U. after   21 cycles

 The electronic state is 2-A.
 Alpha  occ. eigenvalues --  -38.44854 -38.44095 -38.44020 -38.43444 -38.43339
 Alpha  occ. eigenvalues --  -38.43306 -38.43075  -2.20658  -2.19919  -2.19865
 Alpha  occ. eigenvalues --   -2.19288  -2.19267  -2.19163  -2.18999  -1.14342
 Alpha  occ. eigenvalues --   -1.14313  -1.14287  -1.13637  -1.13587  -1.13564
 Alpha  occ. eigenvalues --   -1.13523  -1.13505  -1.13478  -1.13011  -1.12977
 Alpha  occ. eigenvalues --   -1.12968  -1.12916  -1.12901  -1.12886  -1.12833
 Alpha  occ. eigenvalues --   -1.12825  -1.12782  -1.12677  -1.12626  -1.12609
 Alpha  occ. eigenvalues --   -0.18370  -0.13446  -0.12200  -0.10165
 Alpha virt. eigenvalues --   -0.06254  -0.05404  -0.04620  -0.03219  -0.02604
 Alpha virt. eigenvalues --   -0.02045  -0.02006  -0.01274  -0.00639  -0.00480
 Alpha virt. eigenvalues --   -0.00012   0.00299   0.00712   0.00780   0.00845

  Beta  occ. eigenvalues --  -38.44852 -38.44092 -38.43994 -38.43436 -38.43336
  Beta  occ. eigenvalues --  -38.43257 -38.42996  -2.20655  -2.19916  -2.19817
  Beta  occ. eigenvalues --   -2.19277  -2.19178  -2.19159  -2.18853  -1.14329
  Beta  occ. eigenvalues --   -1.14309  -1.14287  -1.13628  -1.13570  -1.13556
  Beta  occ. eigenvalues --   -1.13479  -1.13470  -1.13452  -1.12992  -1.12934
  Beta  occ. eigenvalues --   -1.12918  -1.12911  -1.12863  -1.12827  -1.12818
  Beta  occ. eigenvalues --   -1.12800  -1.12771  -1.12580  -1.12525  -1.12500
  Beta  occ. eigenvalues --   -0.17720  -0.13193  -0.11951
  Beta virt. eigenvalues --   -0.06440  -0.06119  -0.05367  -0.04524  -0.02536
  Beta virt. eigenvalues --   -0.01935  -0.01905  -0.01192  -0.01093  -0.00640
  Beta virt. eigenvalues --   -0.00475   0.00146   0.00359   0.00771   0.00806

 Mulliken charges and spin densities:
               1          2
     1  Na   0.038649  -0.004711
     2  Na  -0.132485  -0.059543
     3  Na   0.173032  -0.064960
     4  Na  -0.208882   0.650233
     5  Na  -0.082328   0.434198
     6  Na   0.120954   0.136500
     7  Na   0.091060  -0.091717
 Sum of Mulliken charges =  -0.00000   1.00000

 Dipole moment (field-independent basis, Debye):
    X=             -0.4240    Y=             -0.0034    Z=              0.1136  Tot=              0.4389
 Quadrupole moment (field-independent basis, Debye-Ang):
   XX=            -51.7900   YY=            -63.5944   ZZ=            -76.7168
   XY=              0.9813   XZ=             -1.5578   YZ=              1.2917

 Normal termination of Gaussian 16 at Wed Nov 29 16:48:40 2023.
