 Gaussian 16, Revision B.01,
 Gaussian 16:  ES64L-G16RevB.01 20-Dec-2017

 -------------------------
 #P B3LYP/6-311+g(d) force
 -------------------------

 -----
 DPGEN
 -----
 Symbolic Z-matrix:
 Charge =  0 Multiplicity = 2

                         Standard orientation:
 ---------------------------------------------------------------------
 Center     Atomic      Atomic             Coordinates (Angstroms)
 Number     Number       Type             X           Y           Z
 ---------------------------------------------------------------------
      1         11           0        3.449630   -0.561309    0.489980
      2         11           0       -0.853925    2.833971    0.498124
      3         11           0        1.591525    0.914029   -1.346976
      4         11           0        0.241156   -0.106844    2.081940
      5         11           0       -2.911237   -1.600871    0.591209
      6         11           0       -1.803135    0.627141   -1.321027
      7         11           0        0.285986   -2.106117   -0.993250
 ---------------------------------------------------------------------

 SCF Done:  E(UB3LYP) =  -1136.13068571     A.U. after   20 cycles

 The electronic state is 2-A.
 Alpha  occ. eigenvalues --  -38.44327 -38.44304 -38.43815 -38.43637 -38.43492
 Alpha  occ. eigenvalues --  -38.43327 -38.42753  -2.20175  -2.20170  -2.19648
 Alpha  occ. eigenvalues --   -2.19513  -2.19448  -2.19306  -2.18625  -1.13899
 Alpha  occ. eigenvalues --   -1.13842  -1.13825  -1.13807  -1.13796  -1.13779
 Alpha  occ. eigenvalues --   -1.13360  -1.13298  -1.13279  -1.13258  -1.13181
 Alpha  occ. eigenvalues --   -1.13143  -1.13109  -1.13091  -1.13041  -1.12989
 Alpha  occ. eigenvalues --   -1.12977  -1.12920  -1.12301  -1.12279  -1.12251
 Alpha  occ. eigenvalues --   -0.18831  -0.13336  -0.11836  -0.11604
 Alpha virt. eigenvalues --   -0.06044  -0.04592  -0.04220  -0.03500  -0.03136
 Alpha virt. eigenvalues --   -0.02941  -0.01777  -0.00812  -0.00487   0.00196
 Alpha virt. eigenvalues --    0.00283   0.00368   0.00610   0.00867   0.00915

  Beta  occ. eigenvalues --  -38.44324 -38.44213 -38.43812 -38.43609 -38.43454
  Beta  occ. eigenvalues --  -38.43298 -38.42749  -2.20169  -2.20006  -2.19643
  Beta  occ. eigenvalues --   -2.19466  -2.19381  -2.19255  -2.18620  -1.13896
  Beta  occ. eigenvalues --   -1.13805  -1.13794  -1.13727  -1.13686  -1.13667
  Beta  occ. eigenvalues --   -1.13356  -1.13284  -1.13274  -1.13215  -1.13130
  Beta  occ. eigenvalues --   -1.13095  -1.13067  -1.13046  -1.12995  -1.12952
  Beta  occ. eigenvalues --   -1.12927  -1.12887  -1.12298  -1.12265  -1.12240
  Beta  occ. eigenvalues --   -0.18012  -0.13188  -0.11650
  Beta virt. eigenvalues --   -0.07564  -0.05895  -0.04443  -0.03959  -0.03076
  Beta virt. eigenvalues --   -0.02353  -0.02029  -0.01677  -0.00718  -0.00209
  Beta virt. eigenvalues --    0.00196   0.00335   0.00419   0.00713   0.00876

 Mulliken charges and spin densities:
               1          2
     1  Na   0.399944  -0.111308
     2  Na  -0.192341  -0.132749
     3  Na  -0.105899   0.271798
     4  Na  -0.305747   0.746660
     5  Na   0.101389  -0.097629
     6  Na   0.539853   0.245370
     7  Na  -0.437200   0.077858
 Sum of Mulliken charges =  -0.00000   1.00000

 Dipole moment (field-independent basis, Debye):
    X=              0.4549    Y=             -0.4355    Z=              0.4487  Tot=              0.7733
 Quadrupole moment (field-independent basis, Debye-Ang):
   XX=            -56.1877   YY=            -70.7439   ZZ=            -68.0362
   XY=             -0.1839   XZ=             -0.1738   YZ=              0.1325

 Normal termination of Gaussian 16 at Wed Nov 29 16:08:09 2023.
