 Gaussian 16, Revision B.01,
 Gaussian 16:  ES64L-G16RevB.01 20-Dec-2017

 -------------------------
 #P B3LYP/6-311+g(d) force
 -------------------------

 -----
 DPGEN
 -----
 Symbolic Z-matrix:
 Charge =  0 Multiplicity = 2

                         Standard orientation:
 ---------------------------------------------------------------------
 Center     Atomic      Atomic             Coordinates (Angstroms)
 Number     Number       Type             X           Y           Z
 ---------------------------------------------------------------------
      1         11           0        0.029814    0.136671   -1.803150
      2         11           0       -0.099287    0.095168    1.965885
      3         11           0        0.111242   -2.627309    0.172453
      4         11           0       -2.669385   -1.109689   -0.092514
      5         11           0       -1.917629    2.025565   -0.221739
      6         11           0        1.577078    2.280192    0.273359
      7         11           0        2.968167   -0.800597   -0.294294
 ---------------------------------------------------------------------

 SCF Done:  E(UB3LYP) =  -1136.13846801     A.U. after   18 cycles

 The electronic state is 2-A.
 Alpha  occ. eigenvalues --  -38.43761 -38.43603 -38.43505 -38.43417 -38.43303
 Alpha  occ. eigenvalues --  -38.43287 -38.42953  -2.19612  -2.19572  -2.19423
 Alpha  occ. eigenvalues --   -2.19422  -2.19208  -2.19200  -2.18875  -1.13294
 Alpha  occ. eigenvalues --   -1.13271  -1.13262  -1.13249  -1.13225  -1.13195
 Alpha  occ. eigenvalues --   -1.13146  -1.13106  -1.13092  -1.13074  -1.13068
 Alpha  occ. eigenvalues --   -1.13031  -1.12881  -1.12869  -1.12861  -1.12858
 Alpha  occ. eigenvalues --   -1.12836  -1.12798  -1.12559  -1.12537  -1.12498
 Alpha  occ. eigenvalues --   -0.19398  -0.13163  -0.12595  -0.11265
 Alpha virt. eigenvalues --   -0.05314  -0.04945  -0.04374  -0.03327  -0.03067
 Alpha virt. eigenvalues --   -0.02820  -0.01336  -0.00909  -0.00085   0.00070
 Alpha virt. eigenvalues --    0.00115   0.00372   0.00868   0.00964   0.00984

  Beta  occ. eigenvalues --  -38.43757 -38.43511 -38.43500 -38.43341 -38.43294
  Beta  occ. eigenvalues --  -38.43278 -38.42945  -2.19606  -2.19416  -2.19403
  Beta  occ. eigenvalues --   -2.19283  -2.19196  -2.19188  -2.18866  -1.13281
  Beta  occ. eigenvalues --   -1.13262  -1.13251  -1.13158  -1.13118  -1.13105
  Beta  occ. eigenvalues --   -1.13091  -1.13073  -1.13038  -1.13028  -1.12976
  Beta  occ. eigenvalues --   -1.12946  -1.12861  -1.12849  -1.12836  -1.12821
  Beta  occ. eigenvalues --   -1.12815  -1.12792  -1.12553  -1.12509  -1.12486
  Beta  occ. eigenvalues --   -0.18629  -0.12892  -0.12311
  Beta virt. eigenvalues --   -0.07286  -0.05281  -0.04950  -0.04367  -0.02499
  Beta virt. eigenvalues --   -0.02225  -0.01731  -0.01251  -0.00850  -0.00042
  Beta virt. eigenvalues --    0.00055   0.00112   0.00384   0.00928   0.00948

 Mulliken charges and spin densities:
               1          2
     1  Na  -0.542830   0.589575
     2  Na  -0.544565   0.641313
     3  Na   0.227771  -0.028134
     4  Na   0.168942  -0.050433
     5  Na   0.385862  -0.040958
     6  Na   0.258402  -0.044989
     7  Na   0.046418  -0.066374
 Sum of Mulliken charges =  -0.00000   1.00000

 Dipole moment (field-independent basis, Debye):
    X=              0.1454    Y=              0.0783    Z=              0.0406  Tot=              0.1701
 Quadrupole moment (field-independent basis, Debye-Ang):
   XX=            -57.8693   YY=            -65.1258   ZZ=            -71.6947
   XY=             -0.1309   XZ=              0.0644   YZ=              0.2244

 Normal termination of Gaussian 16 at Thu Dec  7 20:28:45 2023.
