 Gaussian 16, Revision B.01,
 Gaussian 16:  ES64L-G16RevB.01 20-Dec-2017

 -------------------------
 #P B3LYP/6-311+g(d) force
 -------------------------

 -----
 DPGEN
 -----
 Symbolic Z-matrix:
 Charge =  0 Multiplicity = 2

                         Standard orientation:
 ---------------------------------------------------------------------
 Center     Atomic      Atomic             Coordinates (Angstroms)
 Number     Number       Type             X           Y           Z
 ---------------------------------------------------------------------
      1         11           0       -2.777497   -1.523794   -0.274045
      2         11           0        1.508402   -2.805813   -0.485684
      3         11           0        3.002773    0.050849    0.018514
      4         11           0        1.293011    2.898560    0.033083
      5         11           0       -2.656977    1.414045    0.198987
      6         11           0       -0.053431   -0.586700    2.141209
      7         11           0       -0.316281    0.552854   -1.632063
 ---------------------------------------------------------------------

 SCF Done:  E(UB3LYP) =  -1136.13091033     A.U. after   20 cycles

 The electronic state is 2-A.
 Alpha  occ. eigenvalues --  -38.44338 -38.44278 -38.44016 -38.43800 -38.43486
 Alpha  occ. eigenvalues --  -38.43437 -38.43222  -2.20202  -2.20173  -2.19872
 Alpha  occ. eigenvalues --   -2.19641  -2.19428  -2.19247  -2.19054  -1.14019
 Alpha  occ. eigenvalues --   -1.13877  -1.13843  -1.13836  -1.13801  -1.13730
 Alpha  occ. eigenvalues --   -1.13551  -1.13543  -1.13517  -1.13303  -1.13274
 Alpha  occ. eigenvalues --   -1.13256  -1.13119  -1.13068  -1.13056  -1.12916
 Alpha  occ. eigenvalues --   -1.12902  -1.12890  -1.12722  -1.12711  -1.12697
 Alpha  occ. eigenvalues --   -0.18361  -0.13589  -0.12038  -0.10662
 Alpha virt. eigenvalues --   -0.05785  -0.05491  -0.04625  -0.03540  -0.02902
 Alpha virt. eigenvalues --   -0.02386  -0.01605  -0.01129  -0.00544  -0.00422
 Alpha virt. eigenvalues --   -0.00034   0.00369   0.00715   0.00807   0.00876

  Beta  occ. eigenvalues --  -38.44332 -38.44272 -38.44014 -38.43706 -38.43433
  Beta  occ. eigenvalues --  -38.43429 -38.43221  -2.20195  -2.20165  -2.19870
  Beta  occ. eigenvalues --   -2.19466  -2.19332  -2.19233  -2.19055  -1.14019
  Beta  occ. eigenvalues --   -1.13866  -1.13828  -1.13815  -1.13770  -1.13729
  Beta  occ. eigenvalues --   -1.13545  -1.13528  -1.13517  -1.13187  -1.13150
  Beta  occ. eigenvalues --   -1.13132  -1.13051  -1.12998  -1.12985  -1.12906
  Beta  occ. eigenvalues --   -1.12884  -1.12877  -1.12721  -1.12705  -1.12693
  Beta  occ. eigenvalues --   -0.17651  -0.13378  -0.11858
  Beta virt. eigenvalues --   -0.06789  -0.05702  -0.05431  -0.04543  -0.02748
  Beta virt. eigenvalues --   -0.02178  -0.01502  -0.01450  -0.01052  -0.00579
  Beta virt. eigenvalues --   -0.00431   0.00144   0.00408   0.00793   0.00831

 Mulliken charges and spin densities:
               1          2
     1  Na   0.121612  -0.046844
     2  Na  -0.080544  -0.020583
     3  Na   0.095259   0.009911
     4  Na   0.087926  -0.025102
     5  Na   0.259431   0.072090
     6  Na  -0.432910   0.617876
     7  Na  -0.050773   0.392652
 Sum of Mulliken charges =  -0.00000   1.00000

 Dipole moment (field-independent basis, Debye):
    X=             -0.4704    Y=             -0.0841    Z=              0.1135  Tot=              0.4912
 Quadrupole moment (field-independent basis, Debye-Ang):
   XX=            -57.2284   YY=            -63.5603   ZZ=            -74.4505
   XY=              1.0020   XZ=             -0.0577   YZ=              2.7181

 Normal termination of Gaussian 16 at Thu Dec  7 21:33:16 2023.
