 Gaussian 16, Revision B.01,
 Gaussian 16:  ES64L-G16RevB.01 20-Dec-2017

 -------------------------
 #P B3LYP/6-311+g(d) force
 -------------------------

 -----
 DPGEN
 -----
 Symbolic Z-matrix:
 Charge =  0 Multiplicity = 2

                         Standard orientation:
 ---------------------------------------------------------------------
 Center     Atomic      Atomic             Coordinates (Angstroms)
 Number     Number       Type             X           Y           Z
 ---------------------------------------------------------------------
      1         11           0        1.067516   -1.225946   -1.159147
      2         11           0        3.147369    0.955157   -1.306528
      3         11           0       -3.792506    0.990337    0.216342
      4         11           0       -2.454784   -2.387926   -0.981236
      5         11           0        2.974536   -1.108914    1.738978
      6         11           0       -0.156317    2.664735   -0.380067
      7         11           0       -0.785815    0.112558    1.871658
 ---------------------------------------------------------------------

 SCF Done:  E(UB3LYP) =  -1136.11826111     A.U. after   23 cycles

 The electronic state is 2-A.
 Alpha  occ. eigenvalues --  -38.45535 -38.44773 -38.44615 -38.44482 -38.43690
 Alpha  occ. eigenvalues --  -38.43295 -38.43206  -2.21287  -2.20585  -2.20439
 Alpha  occ. eigenvalues --   -2.20336  -2.19572  -2.19073  -2.18981  -1.14981
 Alpha  occ. eigenvalues --   -1.14933  -1.14913  -1.14239  -1.14229  -1.14209
 Alpha  occ. eigenvalues --   -1.14140  -1.14078  -1.14062  -1.14052  -1.13963
 Alpha  occ. eigenvalues --   -1.13945  -1.13254  -1.13238  -1.13199  -1.12769
 Alpha  occ. eigenvalues --   -1.12761  -1.12685  -1.12655  -1.12634  -1.12618
 Alpha  occ. eigenvalues --   -0.17543  -0.13793  -0.11351  -0.11020
 Alpha virt. eigenvalues --   -0.06968  -0.05225  -0.05009  -0.03277  -0.02856
 Alpha virt. eigenvalues --   -0.02464  -0.02296  -0.01333  -0.01014  -0.00217
 Alpha virt. eigenvalues --   -0.00064   0.00121   0.00239   0.00479   0.00586

  Beta  occ. eigenvalues --  -38.45537 -38.44706 -38.44567 -38.44442 -38.43667
  Beta  occ. eigenvalues --  -38.43301 -38.43186  -2.21290  -2.20460  -2.20351
  Beta  occ. eigenvalues --   -2.20263  -2.19533  -2.19084  -2.18945  -1.14980
  Beta  occ. eigenvalues --   -1.14936  -1.14916  -1.14154  -1.14137  -1.14123
  Beta  occ. eigenvalues --   -1.14083  -1.14021  -1.14006  -1.13975  -1.13912
  Beta  occ. eigenvalues --   -1.13894  -1.13226  -1.13186  -1.13173  -1.12779
  Beta  occ. eigenvalues --   -1.12765  -1.12685  -1.12627  -1.12610  -1.12595
  Beta  occ. eigenvalues --   -0.16927  -0.13589  -0.10873
  Beta virt. eigenvalues --   -0.07470  -0.06822  -0.04890  -0.04560  -0.03098
  Beta virt. eigenvalues --   -0.02359  -0.02152  -0.01690  -0.01093  -0.00664
  Beta virt. eigenvalues --   -0.00185  -0.00040   0.00184   0.00367   0.00685

 Mulliken charges and spin densities:
               1          2
     1  Na  -0.364973   0.391501
     2  Na   0.694418   0.116875
     3  Na   0.521728   0.015313
     4  Na  -0.338881   0.048790
     5  Na  -0.086692   0.186336
     6  Na  -0.495424  -0.067569
     7  Na   0.069824   0.308754
 Sum of Mulliken charges =  -0.00000   1.00000

 Dipole moment (field-independent basis, Debye):
    X=             -0.0631    Y=              0.6170    Z=              0.4371  Tot=              0.7588
 Quadrupole moment (field-independent basis, Debye-Ang):
   XX=            -46.6068   YY=            -76.7402   ZZ=            -70.8700
   XY=             -2.4929   XZ=              0.5496   YZ=             -2.8000

 Normal termination of Gaussian 16 at Sun Dec  3 23:54:36 2023.
