 Gaussian 16, Revision B.01,
 Gaussian 16:  ES64L-G16RevB.01 20-Dec-2017

 -------------------------
 #P B3LYP/6-311+g(d) force
 -------------------------

 -----
 DPGEN
 -----
 Symbolic Z-matrix:
 Charge =  0 Multiplicity = 2

                         Standard orientation:
 ---------------------------------------------------------------------
 Center     Atomic      Atomic             Coordinates (Angstroms)
 Number     Number       Type             X           Y           Z
 ---------------------------------------------------------------------
      1         11           0       -2.478281    1.345871   -0.412775
      2         11           0        1.083274    0.782902    0.531991
      3         11           0        1.958538   -2.796153   -0.216545
      4         11           0       -1.069359   -2.109762   -0.544394
      5         11           0       -4.471157   -0.885172    0.649833
      6         11           0        4.537210    0.033995    0.281095
      7         11           0        0.439775    3.628320   -0.289206
 ---------------------------------------------------------------------

 SCF Done:  E(UB3LYP) =  -1136.12758405     A.U. after   18 cycles

 The electronic state is 2-A.
 Alpha  occ. eigenvalues --  -38.44307 -38.44065 -38.43937 -38.43865 -38.43754
 Alpha  occ. eigenvalues --  -38.43676 -38.43644  -2.20114  -2.19910  -2.19767
 Alpha  occ. eigenvalues --   -2.19697  -2.19614  -2.19537  -2.19503  -1.13757
 Alpha  occ. eigenvalues --   -1.13751  -1.13721  -1.13621  -1.13604  -1.13553
 Alpha  occ. eigenvalues --   -1.13432  -1.13411  -1.13406  -1.13367  -1.13363
 Alpha  occ. eigenvalues --   -1.13330  -1.13312  -1.13291  -1.13284  -1.13227
 Alpha  occ. eigenvalues --   -1.13209  -1.13188  -1.13152  -1.13131  -1.13060
 Alpha  occ. eigenvalues --   -0.17047  -0.13941  -0.12812  -0.10834
 Alpha virt. eigenvalues --   -0.05629  -0.05426  -0.04826  -0.03709  -0.02521
 Alpha virt. eigenvalues --   -0.02248  -0.01791  -0.01470  -0.01182  -0.00699
 Alpha virt. eigenvalues --   -0.00292  -0.00014   0.00565   0.00599   0.00733

  Beta  occ. eigenvalues --  -38.44202 -38.44058 -38.43883 -38.43850 -38.43717
  Beta  occ. eigenvalues --  -38.43675 -38.43641  -2.19919  -2.19902  -2.19675
  Beta  occ. eigenvalues --   -2.19665  -2.19549  -2.19533  -2.19501  -1.13624
  Beta  occ. eigenvalues --   -1.13618  -1.13611  -1.13600  -1.13594  -1.13517
  Beta  occ. eigenvalues --   -1.13384  -1.13357  -1.13343  -1.13336  -1.13320
  Beta  occ. eigenvalues --   -1.13307  -1.13301  -1.13251  -1.13245  -1.13226
  Beta  occ. eigenvalues --   -1.13184  -1.13151  -1.13129  -1.13125  -1.13059
  Beta  occ. eigenvalues --   -0.16638  -0.13126  -0.12424
  Beta virt. eigenvalues --   -0.07365  -0.05526  -0.05259  -0.04449  -0.03219
  Beta virt. eigenvalues --   -0.02150  -0.01929  -0.01555  -0.01259  -0.01035
  Beta virt. eigenvalues --   -0.00351   0.00058   0.00189   0.00638   0.00690

 Mulliken charges and spin densities:
               1          2
     1  Na  -0.124171   0.233410
     2  Na  -1.667759  -0.004524
     3  Na   0.132699   0.012920
     4  Na  -0.123751   0.051772
     5  Na   0.546422   0.244195
     6  Na   0.569932   0.464304
     7  Na   0.666627  -0.002077
 Sum of Mulliken charges =  -0.00000   1.00000

 Dipole moment (field-independent basis, Debye):
    X=             -0.1816    Y=              0.0689    Z=             -0.1640  Tot=              0.2543
 Quadrupole moment (field-independent basis, Debye-Ang):
   XX=            -63.1450   YY=            -61.3117   ZZ=            -71.1446
   XY=              0.4100   XZ=             -1.9094   YZ=             -1.8981

 Normal termination of Gaussian 16 at Tue Nov 28 19:25:07 2023.
