 Gaussian 16, Revision B.01,
 Gaussian 16:  ES64L-G16RevB.01 20-Dec-2017

 -------------------------
 #P B3LYP/6-311+g(d) force
 -------------------------

 -----
 DPGEN
 -----
 Symbolic Z-matrix:
 Charge =  0 Multiplicity = 2

                         Standard orientation:
 ---------------------------------------------------------------------
 Center     Atomic      Atomic             Coordinates (Angstroms)
 Number     Number       Type             X           Y           Z
 ---------------------------------------------------------------------
      1         11           0        3.991265    0.601487    0.212928
      2         11           0        0.576839   -0.841326    1.979888
      3         11           0        1.990265   -2.480953   -1.048789
      4         11           0        0.920755    2.734592   -1.435916
      5         11           0       -1.535636    1.821585    1.302932
      6         11           0       -3.979093    0.150719   -0.710930
      7         11           0       -1.964395   -1.986105   -0.300112
 ---------------------------------------------------------------------

 SCF Done:  E(UB3LYP) =  -1136.11284112     A.U. after   23 cycles

 The electronic state is 2-A.
 Alpha  occ. eigenvalues --  -38.45251 -38.44576 -38.44543 -38.44295 -38.44086
 Alpha  occ. eigenvalues --  -38.43854 -38.43844  -2.20985  -2.20296  -2.20292
 Alpha  occ. eigenvalues --   -2.20146  -2.19930  -2.19686  -2.19667  -1.14667
 Alpha  occ. eigenvalues --   -1.14625  -1.14621  -1.13983  -1.13980  -1.13950
 Alpha  occ. eigenvalues --   -1.13944  -1.13931  -1.13927  -1.13881  -1.13780
 Alpha  occ. eigenvalues --   -1.13758  -1.13605  -1.13572  -1.13541  -1.13361
 Alpha  occ. eigenvalues --   -1.13348  -1.13337  -1.13321  -1.13315  -1.13293
 Alpha  occ. eigenvalues --   -0.16953  -0.13552  -0.11674  -0.10837
 Alpha virt. eigenvalues --   -0.07015  -0.05892  -0.04092  -0.03486  -0.03155
 Alpha virt. eigenvalues --   -0.02755  -0.02042  -0.01564  -0.00876  -0.00431
 Alpha virt. eigenvalues --   -0.00322   0.00005   0.00230   0.00486   0.00608

  Beta  occ. eigenvalues --  -38.45231 -38.44573 -38.44539 -38.44247 -38.44001
  Beta  occ. eigenvalues --  -38.43831 -38.43819  -2.20947  -2.20289  -2.20284
  Beta  occ. eigenvalues --   -2.20057  -2.19776  -2.19668  -2.19606  -1.14636
  Beta  occ. eigenvalues --   -1.14601  -1.14594  -1.13979  -1.13974  -1.13945
  Beta  occ. eigenvalues --   -1.13938  -1.13925  -1.13918  -1.13820  -1.13719
  Beta  occ. eigenvalues --   -1.13698  -1.13502  -1.13471  -1.13419  -1.13349
  Beta  occ. eigenvalues --   -1.13321  -1.13298  -1.13279  -1.13261  -1.13258
  Beta  occ. eigenvalues --   -0.16290  -0.13076  -0.11554
  Beta virt. eigenvalues --   -0.07240  -0.06826  -0.05682  -0.03572  -0.03345
  Beta virt. eigenvalues --   -0.02787  -0.02287  -0.01563  -0.01348  -0.00777
  Beta virt. eigenvalues --   -0.00291  -0.00193   0.00232   0.00265   0.00590

 Mulliken charges and spin densities:
               1          2
     1  Na  -0.136012   0.205673
     2  Na   0.809372   0.330338
     3  Na  -0.101363   0.042739
     4  Na   0.018028  -0.032385
     5  Na  -0.433989   0.196005
     6  Na   0.492725   0.151375
     7  Na  -0.648762   0.106255
 Sum of Mulliken charges =  -0.00000   1.00000

 Dipole moment (field-independent basis, Debye):
    X=              0.6743    Y=             -0.0259    Z=             -0.2163  Tot=              0.7086
 Quadrupole moment (field-independent basis, Debye-Ang):
   XX=            -58.8430   YY=            -72.3858   ZZ=            -67.8100
   XY=             -3.8945   XZ=              1.5814   YZ=              1.1533

 Normal termination of Gaussian 16 at Sun Dec  3 19:41:48 2023.
