 Gaussian 16, Revision B.01,
 Gaussian 16:  ES64L-G16RevB.01 20-Dec-2017

 -------------------------
 #P B3LYP/6-311+g(d) force
 -------------------------

 -----
 DPGEN
 -----
 Symbolic Z-matrix:
 Charge =  0 Multiplicity = 2

                         Standard orientation:
 ---------------------------------------------------------------------
 Center     Atomic      Atomic             Coordinates (Angstroms)
 Number     Number       Type             X           Y           Z
 ---------------------------------------------------------------------
      1         11           0       -0.427290    0.286395   -2.399700
      2         11           0        2.673128   -1.237095   -0.952294
      3         11           0        1.512080   -1.290115    2.428920
      4         11           0        2.084136    2.450805   -0.215068
      5         11           0       -1.254967    2.149681    1.281763
      6         11           0       -3.748958   -0.340902    0.074225
      7         11           0       -0.838128   -2.018770   -0.217846
 ---------------------------------------------------------------------

 SCF Done:  E(UB3LYP) =  -1136.12532659     A.U. after   22 cycles

 The electronic state is 2-A.
 Alpha  occ. eigenvalues --  -38.45176 -38.44774 -38.44235 -38.44205 -38.43768
 Alpha  occ. eigenvalues --  -38.43200 -38.43089  -2.21007  -2.20572  -2.20019
 Alpha  occ. eigenvalues --   -2.20006  -2.19539  -2.18969  -2.18965  -1.14702
 Alpha  occ. eigenvalues --   -1.14628  -1.14611  -1.14227  -1.14202  -1.14187
 Alpha  occ. eigenvalues --   -1.13695  -1.13683  -1.13677  -1.13670  -1.13660
 Alpha  occ. eigenvalues --   -1.13646  -1.13223  -1.13199  -1.13157  -1.12689
 Alpha  occ. eigenvalues --   -1.12646  -1.12643  -1.12630  -1.12618  -1.12562
 Alpha  occ. eigenvalues --   -0.17597  -0.12864  -0.11831  -0.11474
 Alpha virt. eigenvalues --   -0.06028  -0.05113  -0.04817  -0.03411  -0.03361
 Alpha virt. eigenvalues --   -0.03006  -0.01728  -0.00857  -0.00706  -0.00194
 Alpha virt. eigenvalues --    0.00052   0.00141   0.00308   0.00504   0.00813

  Beta  occ. eigenvalues --  -38.45095 -38.44693 -38.44237 -38.44204 -38.43742
  Beta  occ. eigenvalues --  -38.43203 -38.43080  -2.20859  -2.20419  -2.20023
  Beta  occ. eigenvalues --   -2.20008  -2.19491  -2.18977  -2.18952  -1.14602
  Beta  occ. eigenvalues --   -1.14522  -1.14503  -1.14120  -1.14098  -1.14086
  Beta  occ. eigenvalues --   -1.13698  -1.13676  -1.13673  -1.13670  -1.13664
  Beta  occ. eigenvalues --   -1.13636  -1.13186  -1.13168  -1.13125  -1.12667
  Beta  occ. eigenvalues --   -1.12643  -1.12634  -1.12622  -1.12614  -1.12562
  Beta  occ. eigenvalues --   -0.16821  -0.12679  -0.11290
  Beta virt. eigenvalues --   -0.08021  -0.05789  -0.04953  -0.04148  -0.03229
  Beta virt. eigenvalues --   -0.02655  -0.02354  -0.01680  -0.00811  -0.00307
  Beta virt. eigenvalues --   -0.00081   0.00139   0.00288   0.00379   0.00645

 Mulliken charges and spin densities:
               1          2
     1  Na   0.026606   0.373991
     2  Na   0.281862   0.013865
     3  Na   0.050537   0.295214
     4  Na  -0.183951  -0.028443
     5  Na  -0.314022   0.220929
     6  Na   0.316089  -0.147346
     7  Na  -0.177120   0.271789
 Sum of Mulliken charges =  -0.00000   1.00000

 Dipole moment (field-independent basis, Debye):
    X=             -0.1516    Y=             -0.3275    Z=             -0.1176  Tot=              0.3796
 Quadrupole moment (field-independent basis, Debye-Ang):
   XX=            -57.0844   YY=            -76.8446   ZZ=            -62.9310
   XY=             -1.0397   XZ=             -0.6190   YZ=             -0.6148

 Normal termination of Gaussian 16 at Sun Dec  3 16:06:24 2023.
