 Gaussian 16, Revision B.01,
 Gaussian 16:  ES64L-G16RevB.01 20-Dec-2017

 -------------------------
 #P B3LYP/6-311+g(d) force
 -------------------------

 -----
 DPGEN
 -----
 Symbolic Z-matrix:
 Charge =  0 Multiplicity = 2

                         Standard orientation:
 ---------------------------------------------------------------------
 Center     Atomic      Atomic             Coordinates (Angstroms)
 Number     Number       Type             X           Y           Z
 ---------------------------------------------------------------------
      1         11           0       -3.191621    0.987830   -0.064450
      2         11           0        3.264213    0.776994    0.093368
      3         11           0       -0.352519    0.165007   -1.784996
      4         11           0       -1.818642   -2.079629    0.185072
      5         11           0        0.211284   -0.287787    2.517521
      6         11           0        1.634353   -2.285546   -0.793130
      7         11           0        0.252931    2.723129   -0.153386
 ---------------------------------------------------------------------

 SCF Done:  E(UB3LYP) =  -1136.13253841     A.U. after   19 cycles

 The electronic state is 2-A.
 Alpha  occ. eigenvalues --  -38.44752 -38.44340 -38.44161 -38.43706 -38.43253
 Alpha  occ. eigenvalues --  -38.43248 -38.43135  -2.20561  -2.20121  -2.19975
 Alpha  occ. eigenvalues --   -2.19671  -2.19119  -2.19094  -2.18977  -1.14205
 Alpha  occ. eigenvalues --   -1.14188  -1.14179  -1.13794  -1.13777  -1.13769
 Alpha  occ. eigenvalues --   -1.13654  -1.13639  -1.13613  -1.13365  -1.13339
 Alpha  occ. eigenvalues --   -1.13287  -1.12806  -1.12790  -1.12785  -1.12757
 Alpha  occ. eigenvalues --   -1.12737  -1.12711  -1.12689  -1.12638  -1.12578
 Alpha  occ. eigenvalues --   -0.18260  -0.12915  -0.11993  -0.11484
 Alpha virt. eigenvalues --   -0.06017  -0.04931  -0.04211  -0.03490  -0.03333
 Alpha virt. eigenvalues --   -0.02985  -0.01714  -0.00922  -0.00239  -0.00154
 Alpha virt. eigenvalues --   -0.00060   0.00342   0.00659   0.00763   0.00894

  Beta  occ. eigenvalues --  -38.44640 -38.44343 -38.44161 -38.43648 -38.43242
  Beta  occ. eigenvalues --  -38.43235 -38.43132  -2.20353  -2.20127  -2.19977
  Beta  occ. eigenvalues --   -2.19566  -2.19113  -2.19064  -2.18973  -1.14065
  Beta  occ. eigenvalues --   -1.14046  -1.14030  -1.13787  -1.13780  -1.13774
  Beta  occ. eigenvalues --   -1.13652  -1.13631  -1.13616  -1.13295  -1.13266
  Beta  occ. eigenvalues --   -1.13209  -1.12803  -1.12762  -1.12755  -1.12744
  Beta  occ. eigenvalues --   -1.12713  -1.12696  -1.12679  -1.12624  -1.12578
  Beta  occ. eigenvalues --   -0.17530  -0.12766  -0.11761
  Beta virt. eigenvalues --   -0.07457  -0.05912  -0.04907  -0.04074  -0.02764
  Beta virt. eigenvalues --   -0.02409  -0.02143  -0.01625  -0.00851  -0.00224
  Beta virt. eigenvalues --   -0.00148   0.00055   0.00378   0.00826   0.00892

 Mulliken charges and spin densities:
               1          2
     1  Na   0.143015  -0.036582
     2  Na  -0.027552  -0.013146
     3  Na   0.183507   0.196912
     4  Na   0.098904   0.138225
     5  Na  -0.545848   0.644499
     6  Na   0.138929   0.058493
     7  Na   0.009045   0.011599
 Sum of Mulliken charges =  -0.00000   1.00000

 Dipole moment (field-independent basis, Debye):
    X=              0.0059    Y=              0.1254    Z=              0.4148  Tot=              0.4334
 Quadrupole moment (field-independent basis, Debye-Ang):
   XX=            -55.6482   YY=            -69.5211   ZZ=            -70.2353
   XY=             -0.6216   XZ=             -0.5796   YZ=              1.0836

 Normal termination of Gaussian 16 at Thu Dec  7 17:19:31 2023.
