 Gaussian 16, Revision B.01,
 Gaussian 16:  ES64L-G16RevB.01 20-Dec-2017

 -------------------------
 #P B3LYP/6-311+g(d) force
 -------------------------

 -----
 DPGEN
 -----
 Symbolic Z-matrix:
 Charge =  0 Multiplicity = 2

                         Standard orientation:
 ---------------------------------------------------------------------
 Center     Atomic      Atomic             Coordinates (Angstroms)
 Number     Number       Type             X           Y           Z
 ---------------------------------------------------------------------
      1         11           0        3.140686   -1.563586    0.243947
      2         11           0       -0.119273    0.147784   -1.770496
      3         11           0        2.343163    1.847588   -0.330507
      4         11           0       -0.067378   -0.239526    2.092136
      5         11           0       -1.072172    2.619627    0.209238
      6         11           0       -0.808920   -2.383411   -0.519886
      7         11           0       -3.416106   -0.428476    0.075568
 ---------------------------------------------------------------------

 SCF Done:  E(UB3LYP) =  -1136.13099782     A.U. after   20 cycles

 The electronic state is 2-A.
 Alpha  occ. eigenvalues --  -38.44738 -38.44160 -38.44060 -38.43737 -38.43622
 Alpha  occ. eigenvalues --  -38.43272 -38.42931  -2.20540  -2.19927  -2.19920
 Alpha  occ. eigenvalues --   -2.19602  -2.19575  -2.19187  -2.18783  -1.14207
 Alpha  occ. eigenvalues --   -1.14202  -1.14182  -1.13600  -1.13595  -1.13594
 Alpha  occ. eigenvalues --   -1.13565  -1.13560  -1.13525  -1.13378  -1.13301
 Alpha  occ. eigenvalues --   -1.13244  -1.13227  -1.13193  -1.13184  -1.12874
 Alpha  occ. eigenvalues --   -1.12834  -1.12769  -1.12467  -1.12456  -1.12405
 Alpha  occ. eigenvalues --   -0.18507  -0.13093  -0.11994  -0.11006
 Alpha virt. eigenvalues --   -0.06236  -0.05132  -0.04072  -0.03314  -0.02866
 Alpha virt. eigenvalues --   -0.02824  -0.02032  -0.01123  -0.00221  -0.00178
 Alpha virt. eigenvalues --   -0.00032   0.00301   0.00718   0.00739   0.00869

  Beta  occ. eigenvalues --  -38.44738 -38.44161 -38.43969 -38.43731 -38.43545
  Beta  occ. eigenvalues --  -38.43252 -38.42925  -2.20542  -2.19931  -2.19754
  Beta  occ. eigenvalues --   -2.19566  -2.19464  -2.19156  -2.18777  -1.14209
  Beta  occ. eigenvalues --   -1.14191  -1.14181  -1.13600  -1.13589  -1.13569
  Beta  occ. eigenvalues --   -1.13484  -1.13443  -1.13403  -1.13290  -1.13264
  Beta  occ. eigenvalues --   -1.13222  -1.13193  -1.13141  -1.13096  -1.12840
  Beta  occ. eigenvalues --   -1.12785  -1.12750  -1.12465  -1.12434  -1.12397
  Beta  occ. eigenvalues --   -0.17751  -0.12905  -0.11741
  Beta virt. eigenvalues --   -0.07074  -0.06139  -0.05131  -0.04035  -0.02601
  Beta virt. eigenvalues --   -0.02097  -0.01935  -0.01728  -0.01063  -0.00270
  Beta virt. eigenvalues --   -0.00135   0.00061   0.00320   0.00788   0.00853

 Mulliken charges and spin densities:
               1          2
     1  Na  -0.021067  -0.066083
     2  Na  -0.010797   0.422156
     3  Na   0.134388  -0.063825
     4  Na  -0.557806   0.835880
     5  Na   0.002672  -0.060565
     6  Na   0.356544  -0.015714
     7  Na   0.096066  -0.051849
 Sum of Mulliken charges =  -0.00000   1.00000

 Dipole moment (field-independent basis, Debye):
    X=             -0.2656    Y=             -0.0706    Z=              0.2782  Tot=              0.3910
 Quadrupole moment (field-independent basis, Debye-Ang):
   XX=            -51.7399   YY=            -68.3304   ZZ=            -73.1969
   XY=             -0.4433   XZ=             -0.4584   YZ=              0.2017

 Normal termination of Gaussian 16 at Tue Dec  5 11:47:59 2023.
