 Gaussian 16, Revision B.01,
 Gaussian 16:  ES64L-G16RevB.01 20-Dec-2017

 -------------------------
 #P B3LYP/6-311+g(d) force
 -------------------------

 -----
 DPGEN
 -----
 Symbolic Z-matrix:
 Charge =  0 Multiplicity = 2

                         Standard orientation:
 ---------------------------------------------------------------------
 Center     Atomic      Atomic             Coordinates (Angstroms)
 Number     Number       Type             X           Y           Z
 ---------------------------------------------------------------------
      1         11           0        2.240040   -1.737265   -0.459600
      2         11           0        0.419652   -0.112119    2.061678
      3         11           0       -0.327492   -0.026798   -1.574871
      4         11           0       -0.793948   -2.590997    0.127676
      5         11           0        2.569602    1.579085   -0.115526
      6         11           0       -0.782215    2.917264   -0.033060
      7         11           0       -3.325639   -0.029170   -0.006297
 ---------------------------------------------------------------------

 SCF Done:  E(UB3LYP) =  -1136.13741793     A.U. after   20 cycles

 The electronic state is 2-A.
 Alpha  occ. eigenvalues --  -38.44170 -38.43694 -38.43665 -38.43544 -38.43351
 Alpha  occ. eigenvalues --  -38.43228 -38.43064  -2.19969  -2.19517  -2.19508
 Alpha  occ. eigenvalues --   -2.19451  -2.19273  -2.19155  -2.19078  -1.13648
 Alpha  occ. eigenvalues --   -1.13624  -1.13609  -1.13210  -1.13200  -1.13189
 Alpha  occ. eigenvalues --   -1.13178  -1.13162  -1.13126  -1.13121  -1.13072
 Alpha  occ. eigenvalues --   -1.13070  -1.12997  -1.12934  -1.12909  -1.12888
 Alpha  occ. eigenvalues --   -1.12812  -1.12756  -1.12742  -1.12694  -1.12682
 Alpha  occ. eigenvalues --   -0.18891  -0.12913  -0.12632  -0.10803
 Alpha virt. eigenvalues --   -0.05714  -0.04946  -0.04725  -0.03078  -0.02954
 Alpha virt. eigenvalues --   -0.02550  -0.01534  -0.01063  -0.00371  -0.00190
 Alpha virt. eigenvalues --   -0.00003   0.00351   0.00835   0.00870   0.00935

  Beta  occ. eigenvalues --  -38.44171 -38.43693 -38.43659 -38.43446 -38.43336
  Beta  occ. eigenvalues --  -38.43218 -38.43005  -2.19973  -2.19512  -2.19507
  Beta  occ. eigenvalues --   -2.19272  -2.19249  -2.19141  -2.18971  -1.13642
  Beta  occ. eigenvalues --   -1.13623  -1.13615  -1.13205  -1.13194  -1.13166
  Beta  occ. eigenvalues --   -1.13162  -1.13155  -1.13124  -1.13024  -1.12971
  Beta  occ. eigenvalues --   -1.12949  -1.12941  -1.12910  -1.12869  -1.12865
  Beta  occ. eigenvalues --   -1.12767  -1.12749  -1.12674  -1.12620  -1.12605
  Beta  occ. eigenvalues --   -0.18142  -0.12699  -0.12386
  Beta virt. eigenvalues --   -0.06825  -0.05696  -0.04923  -0.04691  -0.02337
  Beta virt. eigenvalues --   -0.02155  -0.01515  -0.01411  -0.00987  -0.00413
  Beta virt. eigenvalues --   -0.00225   0.00141   0.00383   0.00856   0.00896

 Mulliken charges and spin densities:
               1          2
     1  Na   0.346653   0.073797
     2  Na  -0.550522   0.734554
     3  Na  -0.269109   0.380056
     4  Na   0.339128   0.049636
     5  Na   0.137918  -0.031250
     6  Na  -0.036765  -0.119742
     7  Na   0.032699  -0.087052
 Sum of Mulliken charges =  -0.00000   1.00000

 Dipole moment (field-independent basis, Debye):
    X=             -0.2737    Y=              0.2588    Z=              0.1968  Tot=              0.4250
 Quadrupole moment (field-independent basis, Debye-Ang):
   XX=            -56.4311   YY=            -62.6864   ZZ=            -74.1022
   XY=             -0.0604   XZ=             -1.6697   YZ=              0.2869

 Normal termination of Gaussian 16 at Thu Dec  7 03:20:16 2023.
