 Gaussian 16, Revision B.01,
 Gaussian 16:  ES64L-G16RevB.01 20-Dec-2017

 -------------------------
 #P B3LYP/6-311+g(d) force
 -------------------------

 -----
 DPGEN
 -----
 Symbolic Z-matrix:
 Charge =  0 Multiplicity = 2

                         Standard orientation:
 ---------------------------------------------------------------------
 Center     Atomic      Atomic             Coordinates (Angstroms)
 Number     Number       Type             X           Y           Z
 ---------------------------------------------------------------------
      1         11           0        0.055433   -0.309267    1.753479
      2         11           0       -2.568863    1.988862    0.128403
      3         11           0       -0.083856    0.016955   -1.693817
      4         11           0       -2.837648   -1.694707   -0.237345
      5         11           0        3.526486   -0.039050   -0.243652
      6         11           0        0.873062   -2.574399    0.166049
      7         11           0        1.035386    2.611605    0.126883
 ---------------------------------------------------------------------

 SCF Done:  E(UB3LYP) =  -1136.13307827     A.U. after   20 cycles

 The electronic state is 2-A.
 Alpha  occ. eigenvalues --  -38.44681 -38.44208 -38.43985 -38.43340 -38.43320
 Alpha  occ. eigenvalues --  -38.43260 -38.43185  -2.20460  -2.20008  -2.19783
 Alpha  occ. eigenvalues --   -2.19264  -2.19252  -2.19156  -2.19108  -1.14133
 Alpha  occ. eigenvalues --   -1.14117  -1.14096  -1.13684  -1.13664  -1.13645
 Alpha  occ. eigenvalues --   -1.13459  -1.13440  -1.13425  -1.13135  -1.12986
 Alpha  occ. eigenvalues --   -1.12943  -1.12882  -1.12862  -1.12833  -1.12819
 Alpha  occ. eigenvalues --   -1.12782  -1.12780  -1.12734  -1.12725  -1.12719
 Alpha  occ. eigenvalues --   -0.18559  -0.13026  -0.12335  -0.10337
 Alpha virt. eigenvalues --   -0.06200  -0.05401  -0.04373  -0.03029  -0.02714
 Alpha virt. eigenvalues --   -0.02170  -0.02088  -0.01317  -0.00470  -0.00301
 Alpha virt. eigenvalues --   -0.00023   0.00287   0.00713   0.00816   0.00857

  Beta  occ. eigenvalues --  -38.44677 -38.44202 -38.43983 -38.43327 -38.43255
  Beta  occ. eigenvalues --  -38.43253 -38.43100  -2.20454  -2.19999  -2.19783
  Beta  occ. eigenvalues --   -2.19231  -2.19144  -2.19100  -2.19002  -1.14120
  Beta  occ. eigenvalues --   -1.14108  -1.14094  -1.13662  -1.13660  -1.13640
  Beta  occ. eigenvalues --   -1.13447  -1.13441  -1.13422  -1.13085  -1.12913
  Beta  occ. eigenvalues --   -1.12877  -1.12828  -1.12819  -1.12782  -1.12773
  Beta  occ. eigenvalues --   -1.12748  -1.12714  -1.12699  -1.12633  -1.12629
  Beta  occ. eigenvalues --   -0.17854  -0.12801  -0.12062
  Beta virt. eigenvalues --   -0.06519  -0.06097  -0.05405  -0.04346  -0.02351
  Beta virt. eigenvalues --   -0.01988  -0.01902  -0.01272  -0.01149  -0.00514
  Beta virt. eigenvalues --   -0.00328   0.00117   0.00321   0.00766   0.00813

 Mulliken charges and spin densities:
               1          2
     1  Na  -0.145496   0.635085
     2  Na  -0.022561  -0.108582
     3  Na  -0.294835   0.778094
     4  Na   0.108322  -0.082993
     5  Na   0.039896  -0.022978
     6  Na   0.325184  -0.090143
     7  Na  -0.010510  -0.108483
 Sum of Mulliken charges =  -0.00000   1.00000

 Dipole moment (field-independent basis, Debye):
    X=              0.0011    Y=             -0.0159    Z=             -0.0675  Tot=              0.0694
 Quadrupole moment (field-independent basis, Debye-Ang):
   XX=            -49.9490   YY=            -64.5449   ZZ=            -76.5255
   XY=              0.1537   XZ=             -0.5870   YZ=              0.9974

 Normal termination of Gaussian 16 at Sun Dec  3 15:33:09 2023.
