 Gaussian 16, Revision B.01,
 Gaussian 16:  ES64L-G16RevB.01 20-Dec-2017

 -------------------------
 #P B3LYP/6-311+g(d) force
 -------------------------

 -----
 DPGEN
 -----
 Symbolic Z-matrix:
 Charge =  0 Multiplicity = 2

                         Standard orientation:
 ---------------------------------------------------------------------
 Center     Atomic      Atomic             Coordinates (Angstroms)
 Number     Number       Type             X           Y           Z
 ---------------------------------------------------------------------
      1         11           0       -0.176458    0.491814   -1.510076
      2         11           0       -1.871970   -2.226904   -0.438600
      3         11           0        1.556017   -2.017988   -0.171741
      4         11           0       -3.109805    1.297433   -0.159457
      5         11           0        0.458990    2.752213    0.444068
      6         11           0       -0.382883   -0.735579    2.044833
      7         11           0        3.526109    0.439010   -0.209026
 ---------------------------------------------------------------------

 SCF Done:  E(UB3LYP) =  -1136.13134075     A.U. after   21 cycles

 The electronic state is 2-A.
 Alpha  occ. eigenvalues --  -38.44537 -38.44445 -38.43652 -38.43416 -38.43403
 Alpha  occ. eigenvalues --  -38.43254 -38.43105  -2.20335  -2.20246  -2.19483
 Alpha  occ. eigenvalues --   -2.19317  -2.19301  -2.19247  -2.19039  -1.14017
 Alpha  occ. eigenvalues --   -1.13988  -1.13970  -1.13940  -1.13906  -1.13872
 Alpha  occ. eigenvalues --   -1.13245  -1.13142  -1.13082  -1.13045  -1.12995
 Alpha  occ. eigenvalues --   -1.12985  -1.12940  -1.12927  -1.12923  -1.12895
 Alpha  occ. eigenvalues --   -1.12887  -1.12851  -1.12714  -1.12702  -1.12656
 Alpha  occ. eigenvalues --   -0.18650  -0.13133  -0.12350  -0.10619
 Alpha virt. eigenvalues --   -0.06273  -0.05107  -0.04300  -0.03062  -0.02953
 Alpha virt. eigenvalues --   -0.02362  -0.02022  -0.01160  -0.00434  -0.00069
 Alpha virt. eigenvalues --   -0.00057   0.00294   0.00772   0.00837   0.00878

  Beta  occ. eigenvalues --  -38.44532 -38.44445 -38.43640 -38.43404 -38.43310
  Beta  occ. eigenvalues --  -38.43206 -38.43094  -2.20330  -2.20248  -2.19464
  Beta  occ. eigenvalues --   -2.19284  -2.19160  -2.19143  -2.19024  -1.14001
  Beta  occ. eigenvalues --   -1.13984  -1.13964  -1.13942  -1.13897  -1.13874
  Beta  occ. eigenvalues --   -1.13226  -1.13112  -1.13072  -1.13006  -1.12948
  Beta  occ. eigenvalues --   -1.12919  -1.12889  -1.12862  -1.12824  -1.12817
  Beta  occ. eigenvalues --   -1.12792  -1.12789  -1.12699  -1.12663  -1.12636
  Beta  occ. eigenvalues --   -0.17932  -0.12908  -0.12136
  Beta virt. eigenvalues --   -0.06725  -0.06186  -0.05074  -0.04214  -0.02397
  Beta virt. eigenvalues --   -0.02202  -0.01949  -0.01328  -0.01114  -0.00409
  Beta virt. eigenvalues --   -0.00096   0.00115   0.00331   0.00818   0.00868

 Mulliken charges and spin densities:
               1          2
     1  Na  -0.363292   0.353042
     2  Na   0.366980  -0.025527
     3  Na   0.421906   0.064424
     4  Na   0.153936  -0.036212
     5  Na   0.045235   0.032212
     6  Na  -0.586634   0.656412
     7  Na  -0.038131  -0.044351
 Sum of Mulliken charges =  -0.00000   1.00000

 Dipole moment (field-independent basis, Debye):
    X=             -0.2445    Y=              0.3593    Z=              0.1622  Tot=              0.4639
 Quadrupole moment (field-independent basis, Debye-Ang):
   XX=            -51.6844   YY=            -66.3437   ZZ=            -74.4425
   XY=              0.9044   XZ=              0.1877   YZ=              2.2796

 Normal termination of Gaussian 16 at Thu Dec  7 16:51:39 2023.
