 Gaussian 16, Revision B.01,
 Gaussian 16:  ES64L-G16RevB.01 20-Dec-2017

 -------------------------
 #P B3LYP/6-311+g(d) force
 -------------------------

 -----
 DPGEN
 -----
 Symbolic Z-matrix:
 Charge =  0 Multiplicity = 2

                         Standard orientation:
 ---------------------------------------------------------------------
 Center     Atomic      Atomic             Coordinates (Angstroms)
 Number     Number       Type             X           Y           Z
 ---------------------------------------------------------------------
      1         11           0       -0.153227   -0.145094    2.258511
      2         11           0       -2.635304   -1.181499   -0.630178
      3         11           0        0.363942   -2.543392    0.336877
      4         11           0       -1.898440    1.857987    0.099728
      5         11           0        1.301839    2.472613    0.109449
      6         11           0        0.023819    0.175286   -1.724214
      7         11           0        2.997370   -0.635902   -0.450174
 ---------------------------------------------------------------------

 SCF Done:  E(UB3LYP) =  -1136.13529864     A.U. after   19 cycles

 The electronic state is 2-A.
 Alpha  occ. eigenvalues --  -38.44337 -38.43674 -38.43464 -38.43463 -38.43182
 Alpha  occ. eigenvalues --  -38.43160 -38.43011  -2.20245  -2.19522  -2.19507
 Alpha  occ. eigenvalues --   -2.19365  -2.19130  -2.19049  -2.18931  -1.13915
 Alpha  occ. eigenvalues --   -1.13878  -1.13852  -1.13242  -1.13223  -1.13185
 Alpha  occ. eigenvalues --   -1.13175  -1.13160  -1.13122  -1.13031  -1.13016
 Alpha  occ. eigenvalues --   -1.12992  -1.12821  -1.12790  -1.12769  -1.12720
 Alpha  occ. eigenvalues --   -1.12704  -1.12655  -1.12635  -1.12590  -1.12541
 Alpha  occ. eigenvalues --   -0.19292  -0.12957  -0.12557  -0.11700
 Alpha virt. eigenvalues --   -0.05145  -0.04710  -0.04365  -0.03418  -0.03314
 Alpha virt. eigenvalues --   -0.03175  -0.01238  -0.00822  -0.00161   0.00193
 Alpha virt. eigenvalues --    0.00265   0.00369   0.00873   0.00977   0.01010

  Beta  occ. eigenvalues --  -38.44230 -38.43668 -38.43450 -38.43399 -38.43174
  Beta  occ. eigenvalues --  -38.43157 -38.43001  -2.20048  -2.19514  -2.19390
  Beta  occ. eigenvalues --   -2.19341  -2.19120  -2.19046  -2.18916  -1.13783
  Beta  occ. eigenvalues --   -1.13736  -1.13716  -1.13210  -1.13167  -1.13163
  Beta  occ. eigenvalues --   -1.13155  -1.13107  -1.13055  -1.13014  -1.12978
  Beta  occ. eigenvalues --   -1.12959  -1.12815  -1.12769  -1.12745  -1.12709
  Beta  occ. eigenvalues --   -1.12689  -1.12650  -1.12616  -1.12554  -1.12539
  Beta  occ. eigenvalues --   -0.18519  -0.12681  -0.12296
  Beta virt. eigenvalues --   -0.07673  -0.05102  -0.04706  -0.04314  -0.02585
  Beta virt. eigenvalues --   -0.02473  -0.02124  -0.01148  -0.00767  -0.00006
  Beta virt. eigenvalues --    0.00165   0.00230   0.00393   0.00956   0.00971

 Mulliken charges and spin densities:
               1          2
     1  Na  -0.620757   0.475468
     2  Na   0.289430   0.017420
     3  Na   0.314774   0.129677
     4  Na   0.358699   0.103776
     5  Na   0.128299   0.012070
     6  Na  -0.568636   0.322515
     7  Na   0.098191  -0.060926
 Sum of Mulliken charges =  -0.00000   1.00000

 Dipole moment (field-independent basis, Debye):
    X=              0.1217    Y=             -0.0076    Z=              0.2442  Tot=              0.2730
 Quadrupole moment (field-independent basis, Debye-Ang):
   XX=            -59.8330   YY=            -66.5302   ZZ=            -69.2584
   XY=              0.5919   XZ=              0.2006   YZ=              1.1694

 Normal termination of Gaussian 16 at Thu Dec  7 18:23:41 2023.
