 Gaussian 16, Revision B.01,
 Gaussian 16:  ES64L-G16RevB.01 20-Dec-2017

 -------------------------
 #P B3LYP/6-311+g(d) force
 -------------------------

 -----
 DPGEN
 -----
 Symbolic Z-matrix:
 Charge =  0 Multiplicity = 2

                         Standard orientation:
 ---------------------------------------------------------------------
 Center     Atomic      Atomic             Coordinates (Angstroms)
 Number     Number       Type             X           Y           Z
 ---------------------------------------------------------------------
      1         11           0        1.756151   -1.364563    1.697192
      2         11           0       -2.817466   -1.940940    0.417595
      3         11           0        3.007062   -0.055587   -0.841244
      4         11           0        2.017211    3.164782    0.093889
      5         11           0       -0.481779    0.728897    0.264733
      6         11           0       -3.972868    1.943305   -0.328448
      7         11           0        0.491689   -2.475894   -1.303716
 ---------------------------------------------------------------------

 SCF Done:  E(UB3LYP) =  -1136.11688284     A.U. after   29 cycles

 The electronic state is 2-A.
 Alpha  occ. eigenvalues --  -38.45339 -38.45235 -38.44267 -38.43895 -38.43821
 Alpha  occ. eigenvalues --  -38.43357 -38.43288  -2.21088  -2.20963  -2.20044
 Alpha  occ. eigenvalues --   -2.19783  -2.19718  -2.19255  -2.19140  -1.14771
 Alpha  occ. eigenvalues --   -1.14758  -1.14707  -1.14638  -1.14627  -1.14586
 Alpha  occ. eigenvalues --   -1.13713  -1.13709  -1.13687  -1.13542  -1.13454
 Alpha  occ. eigenvalues --   -1.13386  -1.13374  -1.13333  -1.13323  -1.12971
 Alpha  occ. eigenvalues --   -1.12926  -1.12873  -1.12820  -1.12787  -1.12765
 Alpha  occ. eigenvalues --   -0.17756  -0.13371  -0.12081  -0.09699
 Alpha virt. eigenvalues --   -0.07307  -0.05900  -0.04767  -0.02957  -0.02437
 Alpha virt. eigenvalues --   -0.02310  -0.01870  -0.01643  -0.01450  -0.00637
 Alpha virt. eigenvalues --   -0.00260   0.00163   0.00222   0.00402   0.00660

  Beta  occ. eigenvalues --  -38.45339 -38.45228 -38.44268 -38.43862 -38.43757
  Beta  occ. eigenvalues --  -38.43336 -38.43246  -2.21089  -2.20951  -2.20047
  Beta  occ. eigenvalues --   -2.19724  -2.19602  -2.19222  -2.19064  -1.14765
  Beta  occ. eigenvalues --   -1.14757  -1.14710  -1.14629  -1.14618  -1.14579
  Beta  occ. eigenvalues --   -1.13716  -1.13703  -1.13689  -1.13487  -1.13411
  Beta  occ. eigenvalues --   -1.13327  -1.13291  -1.13258  -1.13237  -1.12932
  Beta  occ. eigenvalues --   -1.12893  -1.12853  -1.12770  -1.12737  -1.12694
  Beta  occ. eigenvalues --   -0.17130  -0.13221  -0.11906
  Beta virt. eigenvalues --   -0.07192  -0.05890  -0.05755  -0.04562  -0.02543
  Beta virt. eigenvalues --   -0.02208  -0.01953  -0.01833  -0.01418  -0.00827
  Beta virt. eigenvalues --   -0.00503   0.00078   0.00318   0.00333   0.00421

 Mulliken charges and spin densities:
               1          2
     1  Na   0.729459   0.200697
     2  Na   0.669003   0.062862
     3  Na   0.381897   0.313171
     4  Na   0.642614  -0.058268
     5  Na  -2.492557   0.171549
     6  Na   0.046086   0.031767
     7  Na   0.023499   0.278221
 Sum of Mulliken charges =  -0.00000   1.00000

 Dipole moment (field-independent basis, Debye):
    X=             -1.2251    Y=              0.2279    Z=              0.4126  Tot=              1.3127
 Quadrupole moment (field-independent basis, Debye-Ang):
   XX=            -52.7093   YY=            -60.2869   ZZ=            -77.6603
   XY=              2.2795   XZ=              1.9569   YZ=             -2.1065

 Normal termination of Gaussian 16 at Fri Dec  8 18:48:49 2023.
