 Gaussian 16, Revision B.01,
 Gaussian 16:  ES64L-G16RevB.01 20-Dec-2017

 -------------------------
 #P B3LYP/6-311+g(d) force
 -------------------------

 -----
 DPGEN
 -----
 Symbolic Z-matrix:
 Charge =  0 Multiplicity = 2

                         Standard orientation:
 ---------------------------------------------------------------------
 Center     Atomic      Atomic             Coordinates (Angstroms)
 Number     Number       Type             X           Y           Z
 ---------------------------------------------------------------------
      1         11           0       -1.247337   -1.748257   -0.508071
      2         11           0        1.943691   -2.817270    0.316594
      3         11           0        4.010106   -0.396695   -0.368203
      4         11           0       -4.343283   -0.285296   -0.948249
      5         11           0        1.688557    3.558660   -0.648409
      6         11           0        0.553695    0.645149    0.893282
      7         11           0       -2.605429    1.043709    1.263056
 ---------------------------------------------------------------------

 SCF Done:  E(UB3LYP) =  -1136.11795669     A.U. after   23 cycles

 The electronic state is 2-A.
 Alpha  occ. eigenvalues --  -38.45051 -38.44434 -38.44303 -38.44253 -38.43945
 Alpha  occ. eigenvalues --  -38.43379 -38.43029  -2.20920  -2.20242  -2.20176
 Alpha  occ. eigenvalues --   -2.19984  -2.19815  -2.19213  -2.18960  -1.14627
 Alpha  occ. eigenvalues --   -1.14582  -1.14552  -1.13903  -1.13887  -1.13881
 Alpha  occ. eigenvalues --   -1.13858  -1.13856  -1.13778  -1.13667  -1.13641
 Alpha  occ. eigenvalues --   -1.13637  -1.13471  -1.13444  -1.13430  -1.12885
 Alpha  occ. eigenvalues --   -1.12880  -1.12863  -1.12666  -1.12634  -1.12559
 Alpha  occ. eigenvalues --   -0.17547  -0.14297  -0.11794  -0.10563
 Alpha virt. eigenvalues --   -0.07112  -0.05139  -0.04216  -0.04087  -0.02958
 Alpha virt. eigenvalues --   -0.02371  -0.01561  -0.01453  -0.01047  -0.00561
 Alpha virt. eigenvalues --   -0.00443   0.00147   0.00390   0.00559   0.00606

  Beta  occ. eigenvalues --  -38.45034 -38.44366 -38.44274 -38.44274 -38.43869
  Beta  occ. eigenvalues --  -38.43377 -38.42983  -2.20897  -2.20129  -2.20113
  Beta  occ. eigenvalues --   -2.20024  -2.19673  -2.19214  -2.18881  -1.14576
  Beta  occ. eigenvalues --   -1.14559  -1.14534  -1.13843  -1.13815  -1.13809
  Beta  occ. eigenvalues --   -1.13804  -1.13768  -1.13741  -1.13695  -1.13665
  Beta  occ. eigenvalues --   -1.13664  -1.13373  -1.13347  -1.13340  -1.12889
  Beta  occ. eigenvalues --   -1.12878  -1.12837  -1.12614  -1.12558  -1.12501
  Beta  occ. eigenvalues --   -0.16838  -0.13632  -0.11743
  Beta virt. eigenvalues --   -0.07081  -0.06780  -0.04951  -0.03877  -0.03589
  Beta virt. eigenvalues --   -0.02527  -0.02237  -0.01171  -0.01038  -0.00950
  Beta virt. eigenvalues --   -0.00411  -0.00208   0.00300   0.00547   0.00643

 Mulliken charges and spin densities:
               1          2
     1  Na  -0.725420   0.156420
     2  Na   0.568215  -0.021474
     3  Na   0.483441   0.439297
     4  Na   0.626696   0.426280
     5  Na   0.291755  -0.052403
     6  Na  -1.257547   0.019977
     7  Na   0.012861   0.031904
 Sum of Mulliken charges =  -0.00000   1.00000

 Dipole moment (field-independent basis, Debye):
    X=             -0.6028    Y=              0.0386    Z=             -0.1225  Tot=              0.6163
 Quadrupole moment (field-independent basis, Debye-Ang):
   XX=            -66.1973   YY=            -65.6596   ZZ=            -67.3729
   XY=             -0.9609   XZ=             -1.9591   YZ=             -0.7226

 Normal termination of Gaussian 16 at Wed Nov 29 01:37:47 2023.
