 Gaussian 16, Revision B.01,
 Gaussian 16:  ES64L-G16RevB.01 20-Dec-2017

 -------------------------
 #P B3LYP/6-311+g(d) force
 -------------------------

 -----
 DPGEN
 -----
 Symbolic Z-matrix:
 Charge =  0 Multiplicity = 2

                         Standard orientation:
 ---------------------------------------------------------------------
 Center     Atomic      Atomic             Coordinates (Angstroms)
 Number     Number       Type             X           Y           Z
 ---------------------------------------------------------------------
      1         11           0       -0.105811   -0.124420    1.583490
      2         11           0       -0.102317    0.123780   -1.582440
      3         11           0       -2.000749    1.450835    0.109690
      4         11           0       -2.002480   -1.447665   -0.113310
      5         11           0        0.831635    2.111023    0.018890
      6         11           0        0.828036   -2.112297   -0.014010
      7         11           0        2.551686   -0.001256   -0.002310
 ---------------------------------------------------------------------

 SCF Done:  E(UB3LYP) =  -1136.06917245     A.U. after   19 cycles

 The electronic state is 2-A.
 Alpha  occ. eigenvalues --  -38.44081 -38.43892 -38.43890 -38.43719 -38.43719
 Alpha  occ. eigenvalues --  -38.43695 -38.43693  -2.20279  -2.20252  -2.20216
 Alpha  occ. eigenvalues --   -2.19917  -2.19900  -2.19845  -2.19816  -1.14348
 Alpha  occ. eigenvalues --   -1.14225  -1.14168  -1.14103  -1.14052  -1.13971
 Alpha  occ. eigenvalues --   -1.13921  -1.13867  -1.13753  -1.13650  -1.13544
 Alpha  occ. eigenvalues --   -1.13528  -1.13482  -1.13464  -1.13456  -1.13446
 Alpha  occ. eigenvalues --   -1.13401  -1.13386  -1.13364  -1.13349  -1.13253
 Alpha  occ. eigenvalues --   -0.21949  -0.14024  -0.13329  -0.11952
 Alpha virt. eigenvalues --   -0.05158  -0.04490  -0.04264  -0.03501  -0.03115
 Alpha virt. eigenvalues --   -0.02373  -0.01030  -0.00627   0.00001   0.00358
 Alpha virt. eigenvalues --    0.00765   0.00788   0.01021   0.01143   0.01190

  Beta  occ. eigenvalues --  -38.44070 -38.43802 -38.43800 -38.43703 -38.43703
  Beta  occ. eigenvalues --  -38.43681 -38.43680  -2.20209  -2.20116  -2.20091
  Beta  occ. eigenvalues --   -2.19895  -2.19874  -2.19826  -2.19798  -1.14295
  Beta  occ. eigenvalues --   -1.14169  -1.14111  -1.14078  -1.13948  -1.13868
  Beta  occ. eigenvalues --   -1.13819  -1.13810  -1.13679  -1.13629  -1.13513
  Beta  occ. eigenvalues --   -1.13489  -1.13448  -1.13423  -1.13405  -1.13381
  Beta  occ. eigenvalues --   -1.13349  -1.13339  -1.13321  -1.13305  -1.13248
  Beta  occ. eigenvalues --   -0.21147  -0.13633  -0.12947
  Beta virt. eigenvalues --   -0.07723  -0.05207  -0.04467  -0.04241  -0.02520
  Beta virt. eigenvalues --   -0.02176  -0.01295  -0.00958  -0.00580   0.00130
  Beta virt. eigenvalues --    0.00395   0.00729   0.00756   0.01050   0.01146

 Mulliken charges and spin densities:
               1          2
     1  Na  -0.687293   0.396738
     2  Na  -0.688870   0.395974
     3  Na   0.267720   0.015141
     4  Na   0.267999   0.015414
     5  Na   0.414532   0.092659
     6  Na   0.417867   0.092910
     7  Na   0.008046  -0.008836
 Sum of Mulliken charges =  -0.00000   1.00000

 Dipole moment (field-independent basis, Debye):
    X=             -0.0670    Y=              0.0006    Z=              0.0006  Tot=              0.0670
 Quadrupole moment (field-independent basis, Debye-Ang):
   XX=            -59.8824   YY=            -66.3180   ZZ=            -71.1460
   XY=             -0.0034   XZ=              0.0054   YZ=              0.5245

 Normal termination of Gaussian 16 at Thu Dec  7 09:39:51 2023.
