 Gaussian 16, Revision B.01,
 Gaussian 16:  ES64L-G16RevB.01 20-Dec-2017

 -------------------------
 #P B3LYP/6-311+g(d) force
 -------------------------

 -----
 DPGEN
 -----
 Symbolic Z-matrix:
 Charge =  0 Multiplicity = 2

                         Standard orientation:
 ---------------------------------------------------------------------
 Center     Atomic      Atomic             Coordinates (Angstroms)
 Number     Number       Type             X           Y           Z
 ---------------------------------------------------------------------
      1         11           0       -1.449816    2.810926   -0.360526
      2         11           0        1.606724   -3.127410   -0.212455
      3         11           0       -2.406918   -1.761064   -1.167366
      4         11           0        2.357820    2.673680   -0.745509
      5         11           0        0.373460    0.265371    1.807289
      6         11           0        3.683157   -0.653622    0.116924
      7         11           0       -4.164427   -0.207881    0.561642
 ---------------------------------------------------------------------

 SCF Done:  E(UB3LYP) =  -1136.11212906     A.U. after   20 cycles

 The electronic state is 2-A.
 Alpha  occ. eigenvalues --  -38.44801 -38.44633 -38.44538 -38.44419 -38.44193
 Alpha  occ. eigenvalues --  -38.44153 -38.43646  -2.20579  -2.20380  -2.20366
 Alpha  occ. eigenvalues --   -2.20236  -2.19975  -2.19971  -2.19432  -1.14254
 Alpha  occ. eigenvalues --   -1.14236  -1.14185  -1.14183  -1.14068  -1.14033
 Alpha  occ. eigenvalues --   -1.14014  -1.14009  -1.13984  -1.13882  -1.13863
 Alpha  occ. eigenvalues --   -1.13821  -1.13696  -1.13649  -1.13640  -1.13628
 Alpha  occ. eigenvalues --   -1.13613  -1.13558  -1.13111  -1.13088  -1.13047
 Alpha  occ. eigenvalues --   -0.16550  -0.13866  -0.12277  -0.09908
 Alpha virt. eigenvalues --   -0.06866  -0.06359  -0.04347  -0.03483  -0.02921
 Alpha virt. eigenvalues --   -0.02427  -0.01937  -0.01663  -0.01509  -0.00741
 Alpha virt. eigenvalues --   -0.00144   0.00116   0.00251   0.00421   0.00582

  Beta  occ. eigenvalues --  -38.44738 -38.44627 -38.44519 -38.44399 -38.44184
  Beta  occ. eigenvalues --  -38.44126 -38.43598  -2.20463  -2.20369  -2.20334
  Beta  occ. eigenvalues --   -2.20202  -2.19959  -2.19924  -2.19344  -1.14176
  Beta  occ. eigenvalues --   -1.14158  -1.14157  -1.14097  -1.14059  -1.14018
  Beta  occ. eigenvalues --   -1.14009  -1.13992  -1.13950  -1.13861  -1.13835
  Beta  occ. eigenvalues --   -1.13788  -1.13677  -1.13629  -1.13617  -1.13605
  Beta  occ. eigenvalues --   -1.13589  -1.13514  -1.13053  -1.13030  -1.12971
  Beta  occ. eigenvalues --   -0.16033  -0.13340  -0.12052
  Beta virt. eigenvalues --   -0.06705  -0.06426  -0.06205  -0.04152  -0.03148
  Beta virt. eigenvalues --   -0.02401  -0.02197  -0.01651  -0.01523  -0.01083
  Beta virt. eigenvalues --   -0.00646   0.00040   0.00337   0.00374   0.00502

 Mulliken charges and spin densities:
               1          2
     1  Na  -0.076151   0.003025
     2  Na  -0.161736   0.018198
     3  Na  -0.224497   0.089208
     4  Na  -0.158600   0.283866
     5  Na   0.119234   0.236477
     6  Na   0.233144   0.233737
     7  Na   0.268605   0.135490
 Sum of Mulliken charges =  -0.00000   1.00000

 Dipole moment (field-independent basis, Debye):
    X=             -0.9411    Y=             -0.0958    Z=              0.2632  Tot=              0.9819
 Quadrupole moment (field-independent basis, Debye-Ang):
   XX=            -68.0553   YY=            -67.1214   ZZ=            -68.2920
   XY=             -8.3776   XZ=             -1.3944   YZ=              0.4312

 Normal termination of Gaussian 16 at Sun Dec  3 18:32:49 2023.
