 Gaussian 16, Revision B.01,
 Gaussian 16:  ES64L-G16RevB.01 20-Dec-2017

 -------------------------
 #P B3LYP/6-311+g(d) force
 -------------------------

 -----
 DPGEN
 -----
 Symbolic Z-matrix:
 Charge =  0 Multiplicity = 2

                         Standard orientation:
 ---------------------------------------------------------------------
 Center     Atomic      Atomic             Coordinates (Angstroms)
 Number     Number       Type             X           Y           Z
 ---------------------------------------------------------------------
      1         11           0        2.987022    1.009796   -1.539926
      2         11           0        0.513618    2.581955    0.670603
      3         11           0       -3.484772   -1.950191   -0.791608
      4         11           0       -0.865303    0.004426    2.500417
      5         11           0       -2.729565    1.366603   -0.643216
      6         11           0        0.382985   -0.790590   -0.900091
      7         11           0        3.196016   -2.222000    0.703821
 ---------------------------------------------------------------------

 SCF Done:  E(UB3LYP) =  -1136.12175618     A.U. after   22 cycles

 The electronic state is 2-A.
 Alpha  occ. eigenvalues --  -38.44619 -38.44613 -38.44493 -38.44467 -38.43868
 Alpha  occ. eigenvalues --  -38.43590 -38.42709  -2.20434  -2.20428  -2.20289
 Alpha  occ. eigenvalues --   -2.20258  -2.19737  -2.19365  -2.18543  -1.14124
 Alpha  occ. eigenvalues --   -1.14095  -1.14090  -1.14060  -1.14042  -1.14035
 Alpha  occ. eigenvalues --   -1.13986  -1.13936  -1.13924  -1.13916  -1.13894
 Alpha  occ. eigenvalues --   -1.13872  -1.13464  -1.13408  -1.13342  -1.13034
 Alpha  occ. eigenvalues --   -1.13032  -1.13004  -1.12225  -1.12216  -1.12183
 Alpha  occ. eigenvalues --   -0.17476  -0.13437  -0.11336  -0.11084
 Alpha virt. eigenvalues --   -0.06255  -0.05773  -0.04642  -0.03070  -0.02913
 Alpha virt. eigenvalues --   -0.02655  -0.02047  -0.01493  -0.00744  -0.00484
 Alpha virt. eigenvalues --    0.00063   0.00151   0.00187   0.00428   0.00649

  Beta  occ. eigenvalues --  -38.44608 -38.44521 -38.44459 -38.44422 -38.43859
  Beta  occ. eigenvalues --  -38.43594 -38.42708  -2.20409  -2.20262  -2.20206
  Beta  occ. eigenvalues --   -2.20195  -2.19724  -2.19372  -2.18547  -1.14106
  Beta  occ. eigenvalues --   -1.14078  -1.14027  -1.13975  -1.13943  -1.13927
  Beta  occ. eigenvalues --   -1.13923  -1.13884  -1.13880  -1.13867  -1.13842
  Beta  occ. eigenvalues --   -1.13822  -1.13424  -1.13395  -1.13339  -1.13039
  Beta  occ. eigenvalues --   -1.13032  -1.13009  -1.12226  -1.12220  -1.12162
  Beta  occ. eigenvalues --   -0.16870  -0.13117  -0.11126
  Beta virt. eigenvalues --   -0.07484  -0.05845  -0.05516  -0.04315  -0.02910
  Beta virt. eigenvalues --   -0.02333  -0.02057  -0.01829  -0.01246  -0.00560
  Beta virt. eigenvalues --   -0.00291   0.00181   0.00228   0.00364   0.00568

 Mulliken charges and spin densities:
               1          2
     1  Na   0.542841   0.062173
     2  Na  -0.003198   0.090961
     3  Na   0.053345  -0.046371
     4  Na  -0.128135   0.484664
     5  Na   0.316383   0.013904
     6  Na  -0.832564   0.299602
     7  Na   0.051329   0.095066
 Sum of Mulliken charges =  -0.00000   1.00000

 Dipole moment (field-independent basis, Debye):
    X=              0.3569    Y=              0.1547    Z=              0.3616  Tot=              0.5311
 Quadrupole moment (field-independent basis, Debye-Ang):
   XX=            -57.5022   YY=            -68.1915   ZZ=            -69.5834
   XY=             -0.4031   XZ=             -0.9423   YZ=             -5.1063

 Normal termination of Gaussian 16 at Thu Dec  7 20:49:18 2023.
