 Gaussian 16, Revision B.01,
 Gaussian 16:  ES64L-G16RevB.01 20-Dec-2017

 -------------------------
 #P B3LYP/6-311+g(d) force
 -------------------------

 -----
 DPGEN
 -----
 Symbolic Z-matrix:
 Charge =  0 Multiplicity = 2

                         Standard orientation:
 ---------------------------------------------------------------------
 Center     Atomic      Atomic             Coordinates (Angstroms)
 Number     Number       Type             X           Y           Z
 ---------------------------------------------------------------------
      1         11           0        1.569055   -1.903645   -1.045764
      2         11           0        4.136866   -0.160263    0.873985
      3         11           0       -2.031085    2.035322   -0.141466
      4         11           0       -1.739456   -0.959945   -1.582247
      5         11           0       -3.378849   -0.979756    1.099114
      6         11           0        1.403676    1.998168   -0.976790
      7         11           0        0.039794   -0.029881    1.773168
 ---------------------------------------------------------------------

 SCF Done:  E(UB3LYP) =  -1136.12277554     A.U. after   25 cycles

 The electronic state is 2-A.
 Alpha  occ. eigenvalues --  -38.45333 -38.45176 -38.44177 -38.43745 -38.43696
 Alpha  occ. eigenvalues --  -38.43139 -38.43046  -2.21091  -2.21005  -2.20033
 Alpha  occ. eigenvalues --   -2.19649  -2.19518  -2.18951  -2.18924  -1.14763
 Alpha  occ. eigenvalues --   -1.14747  -1.14711  -1.14704  -1.14650  -1.14625
 Alpha  occ. eigenvalues --   -1.13722  -1.13684  -1.13671  -1.13322  -1.13301
 Alpha  occ. eigenvalues --   -1.13280  -1.13202  -1.13187  -1.13126  -1.12638
 Alpha  occ. eigenvalues --   -1.12624  -1.12613  -1.12595  -1.12576  -1.12523
 Alpha  occ. eigenvalues --   -0.18212  -0.13978  -0.11262  -0.10864
 Alpha virt. eigenvalues --   -0.07101  -0.05136  -0.04785  -0.03154  -0.02877
 Alpha virt. eigenvalues --   -0.02472  -0.02263  -0.01236  -0.00865  -0.00312
 Alpha virt. eigenvalues --    0.00072   0.00220   0.00236   0.00568   0.00695

  Beta  occ. eigenvalues --  -38.45313 -38.45136 -38.44158 -38.43698 -38.43658
  Beta  occ. eigenvalues --  -38.43127 -38.43038  -2.21054  -2.20932  -2.19999
  Beta  occ. eigenvalues --   -2.19565  -2.19453  -2.18930  -2.18912  -1.14734
  Beta  occ. eigenvalues --   -1.14722  -1.14687  -1.14648  -1.14605  -1.14562
  Beta  occ. eigenvalues --   -1.13704  -1.13657  -1.13639  -1.13262  -1.13235
  Beta  occ. eigenvalues --   -1.13215  -1.13160  -1.13135  -1.13064  -1.12624
  Beta  occ. eigenvalues --   -1.12602  -1.12599  -1.12583  -1.12560  -1.12510
  Beta  occ. eigenvalues --   -0.17527  -0.13796  -0.10675
  Beta virt. eigenvalues --   -0.07457  -0.06779  -0.05027  -0.04303  -0.02903
  Beta virt. eigenvalues --   -0.02560  -0.01947  -0.01565  -0.00946  -0.00705
  Beta virt. eigenvalues --   -0.00251   0.00133   0.00271   0.00351   0.00681

 Mulliken charges and spin densities:
               1          2
     1  Na  -0.206246   0.073300
     2  Na   0.499364   0.137833
     3  Na   0.012966   0.100530
     4  Na  -0.125956   0.191772
     5  Na   0.544080   0.103380
     6  Na  -0.293995   0.092974
     7  Na  -0.430213   0.300212
 Sum of Mulliken charges =  -0.00000   1.00000

 Dipole moment (field-independent basis, Debye):
    X=              0.7183    Y=              0.0602    Z=              0.6544  Tot=              0.9735
 Quadrupole moment (field-independent basis, Debye-Ang):
   XX=            -47.5194   YY=            -78.8892   ZZ=            -68.0651
   XY=              0.3915   XZ=              0.6674   YZ=             -0.7904

 Normal termination of Gaussian 16 at Fri Dec  8 04:31:02 2023.
