 Gaussian 16, Revision B.01,
 Gaussian 16:  ES64L-G16RevB.01 20-Dec-2017

 -------------------------
 #P B3LYP/6-311+g(d) force
 -------------------------

 -----
 DPGEN
 -----
 Symbolic Z-matrix:
 Charge =  0 Multiplicity = 2

                         Standard orientation:
 ---------------------------------------------------------------------
 Center     Atomic      Atomic             Coordinates (Angstroms)
 Number     Number       Type             X           Y           Z
 ---------------------------------------------------------------------
      1         11           0       -3.039923   -1.268164   -0.004506
      2         11           0       -0.276636   -0.450350    2.173715
      3         11           0       -0.179696   -1.972440   -1.203151
      4         11           0       -3.294461    2.053534   -0.028072
      5         11           0        0.027953    1.523547   -1.006052
      6         11           0        4.023943    1.615934    0.093883
      7         11           0        2.738820   -1.502060   -0.025817
 ---------------------------------------------------------------------

 SCF Done:  E(UB3LYP) =  -1136.11520854     A.U. after   27 cycles

 The electronic state is 2-A.
 Alpha  occ. eigenvalues --  -38.45244 -38.44801 -38.44784 -38.44574 -38.44133
 Alpha  occ. eigenvalues --  -38.44013 -38.42511  -2.21090  -2.20590  -2.20551
 Alpha  occ. eigenvalues --   -2.20410  -2.19969  -2.19811  -2.18436  -1.14777
 Alpha  occ. eigenvalues --   -1.14748  -1.14728  -1.14295  -1.14268  -1.14238
 Alpha  occ. eigenvalues --   -1.14221  -1.14197  -1.14179  -1.14100  -1.14074
 Alpha  occ. eigenvalues --   -1.14033  -1.13638  -1.13592  -1.13579  -1.13489
 Alpha  occ. eigenvalues --   -1.13467  -1.13457  -1.12122  -1.12101  -1.12049
 Alpha  occ. eigenvalues --   -0.18091  -0.13820  -0.11506  -0.10531
 Alpha virt. eigenvalues --   -0.07418  -0.06285  -0.03571  -0.03490  -0.02876
 Alpha virt. eigenvalues --   -0.02520  -0.02372  -0.01910  -0.00929  -0.00385
 Alpha virt. eigenvalues --   -0.00030   0.00101   0.00340   0.00474   0.00604

  Beta  occ. eigenvalues --  -38.45233 -38.44817 -38.44744 -38.44570 -38.44032
  Beta  occ. eigenvalues --  -38.44016 -38.42472  -2.21075  -2.20582  -2.20519
  Beta  occ. eigenvalues --   -2.20405  -2.19820  -2.19782  -2.18367  -1.14761
  Beta  occ. eigenvalues --   -1.14724  -1.14713  -1.14259  -1.14242  -1.14238
  Beta  occ. eigenvalues --   -1.14215  -1.14205  -1.14132  -1.14089  -1.14059
  Beta  occ. eigenvalues --   -1.14037  -1.13509  -1.13497  -1.13463  -1.13461
  Beta  occ. eigenvalues --   -1.13461  -1.13450  -1.12072  -1.12055  -1.11987
  Beta  occ. eigenvalues --   -0.17371  -0.13770  -0.11312
  Beta virt. eigenvalues --   -0.07261  -0.06533  -0.06253  -0.03413  -0.02944
  Beta virt. eigenvalues --   -0.02698  -0.02195  -0.01597  -0.01314  -0.00988
  Beta virt. eigenvalues --   -0.00131   0.00037   0.00135   0.00484   0.00585

 Mulliken charges and spin densities:
               1          2
     1  Na   0.224293   0.267448
     2  Na  -0.291831   0.539441
     3  Na   0.250009   0.030563
     4  Na   0.261824  -0.132165
     5  Na  -0.695176   0.302460
     6  Na   0.180854  -0.134246
     7  Na   0.070027   0.126500
 Sum of Mulliken charges =  -0.00000   1.00000

 Dipole moment (field-independent basis, Debye):
    X=              0.0148    Y=              0.0243    Z=              0.1521  Tot=              0.1548
 Quadrupole moment (field-independent basis, Debye-Ang):
   XX=            -48.7631   YY=            -70.0812   ZZ=            -76.5474
   XY=              1.7977   XZ=              0.3997   YZ=              0.7775

 Normal termination of Gaussian 16 at Thu Dec  7 16:47:39 2023.
