 Gaussian 16, Revision B.01,
 Gaussian 16:  ES64L-G16RevB.01 20-Dec-2017

 -------------------------
 #P B3LYP/6-311+g(d) force
 -------------------------

 -----
 DPGEN
 -----
 Symbolic Z-matrix:
 Charge =  0 Multiplicity = 2

                         Standard orientation:
 ---------------------------------------------------------------------
 Center     Atomic      Atomic             Coordinates (Angstroms)
 Number     Number       Type             X           Y           Z
 ---------------------------------------------------------------------
      1         11           0       -1.935919   -1.798698    0.421281
      2         11           0       -4.756158   -1.120428   -0.769217
      3         11           0       -5.445563    1.867806    0.623041
      4         11           0       -1.204119    1.197270   -0.682453
      5         11           0        1.998655   -0.809187    0.010746
      6         11           0        4.464273    0.059295    1.251386
      7         11           0        6.878831    0.603943   -0.854783
 ---------------------------------------------------------------------

 SCF Done:  E(UB3LYP) =  -1136.10466423     A.U. after   23 cycles

 The electronic state is 2-A.
 Alpha  occ. eigenvalues --  -38.45628 -38.44922 -38.44475 -38.44220 -38.44015
 Alpha  occ. eigenvalues --  -38.43791 -38.43774  -2.21395  -2.20694  -2.20332
 Alpha  occ. eigenvalues --   -2.20053  -2.19896  -2.19639  -2.19571  -1.15094
 Alpha  occ. eigenvalues --   -1.15084  -1.14983  -1.14353  -1.14351  -1.14337
 Alpha  occ. eigenvalues --   -1.14143  -1.13974  -1.13944  -1.13717  -1.13708
 Alpha  occ. eigenvalues --   -1.13626  -1.13594  -1.13552  -1.13513  -1.13308
 Alpha  occ. eigenvalues --   -1.13297  -1.13287  -1.13222  -1.13212  -1.13176
 Alpha  occ. eigenvalues --   -0.16370  -0.14690  -0.11795  -0.10423
 Alpha virt. eigenvalues --   -0.07510  -0.05259  -0.04620  -0.03509  -0.02876
 Alpha virt. eigenvalues --   -0.02722  -0.02169  -0.01862  -0.01057  -0.00780
 Alpha virt. eigenvalues --   -0.00474  -0.00189   0.00092   0.00267   0.00500

  Beta  occ. eigenvalues --  -38.45621 -38.44896 -38.44479 -38.44210 -38.43947
  Beta  occ. eigenvalues --  -38.43771 -38.43705  -2.21381  -2.20645  -2.20341
  Beta  occ. eigenvalues --   -2.20033  -2.19773  -2.19609  -2.19441  -1.15086
  Beta  occ. eigenvalues --   -1.15065  -1.14973  -1.14320  -1.14317  -1.14307
  Beta  occ. eigenvalues --   -1.14138  -1.13982  -1.13946  -1.13703  -1.13690
  Beta  occ. eigenvalues --   -1.13622  -1.13514  -1.13466  -1.13421  -1.13293
  Beta  occ. eigenvalues --   -1.13268  -1.13221  -1.13132  -1.13122  -1.13098
  Beta  occ. eigenvalues --   -0.15919  -0.14370  -0.11460
  Beta virt. eigenvalues --   -0.07337  -0.06702  -0.04836  -0.04549  -0.03341
  Beta virt. eigenvalues --   -0.02718  -0.02264  -0.01770  -0.01649  -0.00755
  Beta virt. eigenvalues --   -0.00595  -0.00257   0.00100   0.00167   0.00428

 Mulliken charges and spin densities:
               1          2
     1  Na  -0.275343   0.549528
     2  Na   0.266236  -0.017256
     3  Na   0.025295   0.345737
     4  Na   0.021571   0.094791
     5  Na  -0.660616  -0.056070
     6  Na   0.387251  -0.040816
     7  Na   0.235605   0.124086
 Sum of Mulliken charges =  -0.00000   1.00000

 Dipole moment (field-independent basis, Debye):
    X=              1.5220    Y=              0.1886    Z=             -0.4473  Tot=              1.5975
 Quadrupole moment (field-independent basis, Debye-Ang):
   XX=            -65.4338   YY=            -70.7826   ZZ=            -66.0815
   XY=              2.3939   XZ=             -3.3250   YZ=             -1.5195

 Normal termination of Gaussian 16 at Wed Nov 29 01:16:09 2023.
