 Gaussian 16, Revision B.01,
 Gaussian 16:  ES64L-G16RevB.01 20-Dec-2017

 -------------------------
 #P B3LYP/6-311+g(d) force
 -------------------------

 -----
 DPGEN
 -----
 Symbolic Z-matrix:
 Charge =  0 Multiplicity = 2

                         Standard orientation:
 ---------------------------------------------------------------------
 Center     Atomic      Atomic             Coordinates (Angstroms)
 Number     Number       Type             X           Y           Z
 ---------------------------------------------------------------------
      1         11           0        3.580403    0.603942    1.624703
      2         11           0        3.840950    0.116171   -1.498642
      3         11           0        0.293282   -1.244567    1.395213
      4         11           0       -1.996760   -2.947639   -0.535367
      5         11           0       -0.039497   -0.021835   -1.373166
      6         11           0       -2.268174    3.314151   -0.238760
      7         11           0       -3.410205    0.179776    0.626020
 ---------------------------------------------------------------------

 SCF Done:  E(UB3LYP) =  -1136.11460799     A.U. after   24 cycles

 The electronic state is 2-A.
 Alpha  occ. eigenvalues --  -38.44821 -38.44702 -38.44695 -38.44613 -38.44256
 Alpha  occ. eigenvalues --  -38.44100 -38.43026  -2.20671  -2.20559  -2.20499
 Alpha  occ. eigenvalues --   -2.20414  -2.20072  -2.19923  -2.18793  -1.14494
 Alpha  occ. eigenvalues --   -1.14306  -1.14264  -1.14238  -1.14213  -1.14196
 Alpha  occ. eigenvalues --   -1.14156  -1.14123  -1.14107  -1.14095  -1.14073
 Alpha  occ. eigenvalues --   -1.14048  -1.13729  -1.13717  -1.13701  -1.13596
 Alpha  occ. eigenvalues --   -1.13587  -1.13548  -1.12464  -1.12459  -1.12432
 Alpha  occ. eigenvalues --   -0.17462  -0.14006  -0.11486  -0.10446
 Alpha virt. eigenvalues --   -0.07235  -0.05467  -0.04800  -0.03562  -0.03024
 Alpha virt. eigenvalues --   -0.02418  -0.01971  -0.01457  -0.01003  -0.00813
 Alpha virt. eigenvalues --   -0.00030   0.00097   0.00240   0.00428   0.00607

  Beta  occ. eigenvalues --  -38.44770 -38.44687 -38.44661 -38.44586 -38.44218
  Beta  occ. eigenvalues --  -38.44097 -38.43030  -2.20580  -2.20487  -2.20482
  Beta  occ. eigenvalues --   -2.20364  -2.20002  -2.19918  -2.18800  -1.14430
  Beta  occ. eigenvalues --   -1.14239  -1.14200  -1.14182  -1.14176  -1.14156
  Beta  occ. eigenvalues --   -1.14145  -1.14099  -1.14060  -1.14056  -1.14039
  Beta  occ. eigenvalues --   -1.14006  -1.13683  -1.13660  -1.13652  -1.13593
  Beta  occ. eigenvalues --   -1.13573  -1.13546  -1.12469  -1.12462  -1.12437
  Beta  occ. eigenvalues --   -0.16932  -0.13713  -0.11438
  Beta virt. eigenvalues --   -0.07091  -0.06725  -0.05044  -0.04462  -0.03326
  Beta virt. eigenvalues --   -0.02734  -0.01808  -0.01642  -0.01256  -0.00865
  Beta virt. eigenvalues --   -0.00563   0.00080   0.00221   0.00385   0.00580

 Mulliken charges and spin densities:
               1          2
     1  Na  -0.029326   0.204827
     2  Na   0.049800   0.115942
     3  Na  -0.387553   0.318046
     4  Na   0.666572   0.021368
     5  Na  -0.518356   0.358083
     6  Na   0.005118  -0.039982
     7  Na   0.213744   0.021715
 Sum of Mulliken charges =  -0.00000   1.00000

 Dipole moment (field-independent basis, Debye):
    X=              0.0817    Y=             -1.0941    Z=             -0.0913  Tot=              1.1009
 Quadrupole moment (field-independent basis, Debye-Ang):
   XX=            -56.0145   YY=            -67.9584   ZZ=            -72.4550
   XY=              9.6159   XZ=             -1.6888   YZ=              1.5352

 Normal termination of Gaussian 16 at Tue Dec  5 10:09:28 2023.
