 Gaussian 16, Revision B.01,
 Gaussian 16:  ES64L-G16RevB.01 20-Dec-2017

 -------------------------
 #P B3LYP/6-311+g(d) force
 -------------------------

 -----
 DPGEN
 -----
 Symbolic Z-matrix:
 Charge =  0 Multiplicity = 2

                         Standard orientation:
 ---------------------------------------------------------------------
 Center     Atomic      Atomic             Coordinates (Angstroms)
 Number     Number       Type             X           Y           Z
 ---------------------------------------------------------------------
      1         11           0       -2.258810    0.165824   -0.681459
      2         11           0       -2.433557    3.606649    0.578980
      3         11           0        2.821685   -0.370396   -0.910807
      4         11           0       -2.852874   -3.215383    1.023308
      5         11           0        5.050465   -0.192060    0.989079
      6         11           0        0.249811    2.415750   -0.257030
      7         11           0       -0.576721   -2.410385   -0.742071
 ---------------------------------------------------------------------

 SCF Done:  E(UB3LYP) =  -1136.11603452     A.U. after   19 cycles

 The electronic state is 2-A.
 Alpha  occ. eigenvalues --  -38.45060 -38.44747 -38.44205 -38.44110 -38.44099
 Alpha  occ. eigenvalues --  -38.43645 -38.43009  -2.20919  -2.20595  -2.20055
 Alpha  occ. eigenvalues --   -2.20003  -2.19954  -2.19484  -2.18858  -1.14644
 Alpha  occ. eigenvalues --   -1.14611  -1.14525  -1.14277  -1.14264  -1.14243
 Alpha  occ. eigenvalues --   -1.13829  -1.13704  -1.13695  -1.13670  -1.13643
 Alpha  occ. eigenvalues --   -1.13618  -1.13597  -1.13573  -1.13543  -1.13200
 Alpha  occ. eigenvalues --   -1.13108  -1.13106  -1.12529  -1.12523  -1.12500
 Alpha  occ. eigenvalues --   -0.17103  -0.13786  -0.13371  -0.10084
 Alpha virt. eigenvalues --   -0.06391  -0.05687  -0.04181  -0.04118  -0.02983
 Alpha virt. eigenvalues --   -0.01973  -0.01770  -0.01683  -0.01569  -0.00682
 Alpha virt. eigenvalues --   -0.00109  -0.00035   0.00201   0.00448   0.00611

  Beta  occ. eigenvalues --  -38.45051 -38.44740 -38.44157 -38.44082 -38.44080
  Beta  occ. eigenvalues --  -38.43580 -38.43004  -2.20909  -2.20585  -2.19978
  Beta  occ. eigenvalues --   -2.19956  -2.19900  -2.19362  -2.18857  -1.14623
  Beta  occ. eigenvalues --   -1.14583  -1.14527  -1.14272  -1.14250  -1.14223
  Beta  occ. eigenvalues --   -1.13776  -1.13676  -1.13644  -1.13614  -1.13606
  Beta  occ. eigenvalues --   -1.13582  -1.13559  -1.13539  -1.13486  -1.13124
  Beta  occ. eigenvalues --   -1.13024  -1.13022  -1.12533  -1.12528  -1.12445
  Beta  occ. eigenvalues --   -0.16555  -0.13503  -0.12825
  Beta virt. eigenvalues --   -0.06866  -0.06089  -0.05219  -0.04006  -0.03728
  Beta virt. eigenvalues --   -0.02839  -0.01794  -0.01651  -0.01370  -0.01070
  Beta virt. eigenvalues --   -0.00438   0.00112   0.00230   0.00402   0.00579

 Mulliken charges and spin densities:
               1          2
     1  Na  -0.687177   0.053152
     2  Na   0.654704   0.174181
     3  Na  -0.304273  -0.167383
     4  Na   0.599240   0.393663
     5  Na   0.098394   0.414823
     6  Na  -0.208203   0.100216
     7  Na  -0.152686   0.031348
 Sum of Mulliken charges =  -0.00000   1.00000

 Dipole moment (field-independent basis, Debye):
    X=             -1.7800    Y=              0.4535    Z=              0.3314  Tot=              1.8665
 Quadrupole moment (field-independent basis, Debye-Ang):
   XX=            -68.8036   YY=            -62.0613   ZZ=            -69.5847
   XY=             -0.9111   XZ=              0.6701   YZ=              0.3444

 Normal termination of Gaussian 16 at Wed Nov 29 02:34:41 2023.
