 Gaussian 16, Revision B.01,
 Gaussian 16:  ES64L-G16RevB.01 20-Dec-2017

 -------------------------
 #P B3LYP/6-311+g(d) force
 -------------------------

 -----
 DPGEN
 -----
 Symbolic Z-matrix:
 Charge =  0 Multiplicity = 2

                         Standard orientation:
 ---------------------------------------------------------------------
 Center     Atomic      Atomic             Coordinates (Angstroms)
 Number     Number       Type             X           Y           Z
 ---------------------------------------------------------------------
      1         11           0       -3.504653   -2.195298    0.456378
      2         11           0        1.370539   -0.434195   -0.422894
      3         11           0        5.604702   -1.075899   -0.143508
      4         11           0        7.584689    1.144492   -0.007929
      5         11           0       -1.345383    0.324587    0.898248
      6         11           0       -5.389382   -0.327001   -0.823967
      7         11           0       -4.320513    2.563315    0.043672
 ---------------------------------------------------------------------

 SCF Done:  E(UB3LYP) =  -1136.10506195     A.U. after   19 cycles

 The electronic state is 2-A.
 Alpha  occ. eigenvalues --  -38.45039 -38.44640 -38.44471 -38.44402 -38.44139
 Alpha  occ. eigenvalues --  -38.43862 -38.43738  -2.20922  -2.20477  -2.20275
 Alpha  occ. eigenvalues --   -2.20267  -2.19943  -2.19642  -2.19592  -1.14626
 Alpha  occ. eigenvalues --   -1.14553  -1.14531  -1.14137  -1.14110  -1.14102
 Alpha  occ. eigenvalues --   -1.13996  -1.13951  -1.13921  -1.13916  -1.13914
 Alpha  occ. eigenvalues --   -1.13892  -1.13596  -1.13589  -1.13568  -1.13374
 Alpha  occ. eigenvalues --   -1.13308  -1.13302  -1.13275  -1.13246  -1.13164
 Alpha  occ. eigenvalues --   -0.16814  -0.13725  -0.12064  -0.11644
 Alpha virt. eigenvalues --   -0.07012  -0.05158  -0.03990  -0.03775  -0.03238
 Alpha virt. eigenvalues --   -0.02832  -0.02321  -0.01803  -0.01150  -0.00982
 Alpha virt. eigenvalues --   -0.00361  -0.00218   0.00202   0.00276   0.00551

  Beta  occ. eigenvalues --  -38.44942 -38.44539 -38.44473 -38.44388 -38.44138
  Beta  occ. eigenvalues --  -38.43867 -38.43726  -2.20745  -2.20287  -2.20271
  Beta  occ. eigenvalues --   -2.20259  -2.19942  -2.19652  -2.19571  -1.14508
  Beta  occ. eigenvalues --   -1.14432  -1.14407  -1.14023  -1.13999  -1.13982
  Beta  occ. eigenvalues --   -1.13973  -1.13919  -1.13918  -1.13917  -1.13911
  Beta  occ. eigenvalues --   -1.13838  -1.13595  -1.13588  -1.13568  -1.13375
  Beta  occ. eigenvalues --   -1.13315  -1.13306  -1.13242  -1.13236  -1.13158
  Beta  occ. eigenvalues --   -0.15955  -0.13707  -0.11856
  Beta virt. eigenvalues --   -0.07618  -0.06861  -0.04987  -0.03584  -0.03140
  Beta virt. eigenvalues --   -0.02885  -0.02424  -0.02224  -0.01667  -0.01033
  Beta virt. eigenvalues --   -0.00458  -0.00220   0.00049   0.00275   0.00319

 Mulliken charges and spin densities:
               1          2
     1  Na   0.497067   0.422184
     2  Na   0.157117  -0.172650
     3  Na  -0.055575   0.011502
     4  Na   0.172139  -0.009728
     5  Na  -0.982084   0.274767
     6  Na  -0.200961   0.003129
     7  Na   0.412297   0.470796
 Sum of Mulliken charges =  -0.00000   1.00000

 Dipole moment (field-independent basis, Debye):
    X=             -0.2866    Y=              0.2055    Z=             -0.1617  Tot=              0.3880
 Quadrupole moment (field-independent basis, Debye-Ang):
   XX=            -58.7242   YY=            -63.9810   ZZ=            -71.3715
   XY=              4.9406   XZ=              0.7536   YZ=              0.6755

 Normal termination of Gaussian 16 at Sun Dec  3 18:36:46 2023.
