 Gaussian 16, Revision B.01,
 Gaussian 16:  ES64L-G16RevB.01 20-Dec-2017

 -------------------------
 #P B3LYP/6-311+g(d) force
 -------------------------

 -----
 DPGEN
 -----
 Symbolic Z-matrix:
 Charge =  0 Multiplicity = 2

                         Standard orientation:
 ---------------------------------------------------------------------
 Center     Atomic      Atomic             Coordinates (Angstroms)
 Number     Number       Type             X           Y           Z
 ---------------------------------------------------------------------
      1         11           0       -0.105804    0.531762    1.967688
      2         11           0       -3.290536   -0.026615   -0.235256
      3         11           0       -0.841466    2.979317   -0.029985
      4         11           0        2.276083   -1.977503    0.036091
      5         11           0        2.997310    1.557188   -0.274984
      6         11           0       -0.802473   -2.801342    0.334181
      7         11           0       -0.233114   -0.262807   -1.797737
 ---------------------------------------------------------------------

 SCF Done:  E(UB3LYP) =  -1136.13574313     A.U. after   19 cycles

 The electronic state is 2-A.
 Alpha  occ. eigenvalues --  -38.44219 -38.44149 -38.43991 -38.43581 -38.43556
 Alpha  occ. eigenvalues --  -38.43499 -38.43376  -2.20017  -2.19916  -2.19801
 Alpha  occ. eigenvalues --   -2.19433  -2.19427  -2.19404  -2.19243  -1.13697
 Alpha  occ. eigenvalues --   -1.13674  -1.13654  -1.13593  -1.13572  -1.13557
 Alpha  occ. eigenvalues --   -1.13506  -1.13466  -1.13420  -1.13141  -1.13102
 Alpha  occ. eigenvalues --   -1.13100  -1.13081  -1.13073  -1.13062  -1.13047
 Alpha  occ. eigenvalues --   -1.13044  -1.13020  -1.12902  -1.12898  -1.12868
 Alpha  occ. eigenvalues --   -0.18202  -0.12790  -0.12478  -0.10572
 Alpha virt. eigenvalues --   -0.05931  -0.05161  -0.04897  -0.03140  -0.02980
 Alpha virt. eigenvalues --   -0.02458  -0.01664  -0.01212  -0.00676  -0.00417
 Alpha virt. eigenvalues --   -0.00034   0.00348   0.00780   0.00801   0.00874

  Beta  occ. eigenvalues --  -38.44213 -38.44146 -38.43987 -38.43578 -38.43473
  Beta  occ. eigenvalues --  -38.43431 -38.43366  -2.20008  -2.19911  -2.19797
  Beta  occ. eigenvalues --   -2.19425  -2.19282  -2.19276  -2.19228  -1.13677
  Beta  occ. eigenvalues --   -1.13664  -1.13650  -1.13581  -1.13567  -1.13555
  Beta  occ. eigenvalues --   -1.13492  -1.13449  -1.13421  -1.13133  -1.13076
  Beta  occ. eigenvalues --   -1.13071  -1.13014  -1.12990  -1.12964  -1.12951
  Beta  occ. eigenvalues --   -1.12941  -1.12928  -1.12888  -1.12869  -1.12853
  Beta  occ. eigenvalues --   -0.17491  -0.12554  -0.12262
  Beta virt. eigenvalues --   -0.06758  -0.05887  -0.05100  -0.04817  -0.02356
  Beta virt. eigenvalues --   -0.02284  -0.01558  -0.01475  -0.01120  -0.00724
  Beta virt. eigenvalues --   -0.00460   0.00110   0.00380   0.00784   0.00852

 Mulliken charges and spin densities:
               1          2
     1  Na  -0.226304   0.672924
     2  Na   0.179896  -0.069920
     3  Na   0.063638  -0.169967
     4  Na   0.022060  -0.061109
     5  Na  -0.038559  -0.080088
     6  Na   0.134305   0.018681
     7  Na  -0.135037   0.689478
 Sum of Mulliken charges =  -0.00000   1.00000

 Dipole moment (field-independent basis, Debye):
    X=             -0.2176    Y=              0.3179    Z=             -0.0205  Tot=              0.3858
 Quadrupole moment (field-independent basis, Debye-Ang):
   XX=            -56.8767   YY=            -61.7126   ZZ=            -74.9182
   XY=              0.3537   XZ=             -0.3306   YZ=             -1.9150

 Normal termination of Gaussian 16 at Tue Dec  5 21:53:37 2023.
