 Gaussian 16, Revision B.01,
 Gaussian 16:  ES64L-G16RevB.01 20-Dec-2017

 -------------------------
 #P B3LYP/6-311+g(d) force
 -------------------------

 -----
 DPGEN
 -----
 Symbolic Z-matrix:
 Charge =  0 Multiplicity = 2

                         Standard orientation:
 ---------------------------------------------------------------------
 Center     Atomic      Atomic             Coordinates (Angstroms)
 Number     Number       Type             X           Y           Z
 ---------------------------------------------------------------------
      1         11           0       -4.387424    0.188246   -0.022840
      2         11           0        4.221814    1.596013    0.658879
      3         11           0       -2.432415    3.132512   -0.630665
      4         11           0        1.421418    3.375306    0.030841
      5         11           0        0.698459   -3.402077   -0.853382
      6         11           0       -3.134938   -2.512424    1.010101
      7         11           0        3.613086   -2.377577   -0.192935
 ---------------------------------------------------------------------

 SCF Done:  E(UB3LYP) =  -1136.10507619     A.U. after   20 cycles

 The electronic state is 2-A.
 Alpha  occ. eigenvalues --  -38.44723 -38.44715 -38.44677 -38.44677 -38.44603
 Alpha  occ. eigenvalues --  -38.44534 -38.44453  -2.20519  -2.20468  -2.20463
 Alpha  occ. eigenvalues --   -2.20453  -2.20384  -2.20317  -2.20236  -1.14245
 Alpha  occ. eigenvalues --   -1.14168  -1.14166  -1.14153  -1.14153  -1.14147
 Alpha  occ. eigenvalues --   -1.14136  -1.14124  -1.14116  -1.14115  -1.14103
 Alpha  occ. eigenvalues --   -1.14072  -1.14046  -1.14029  -1.13989  -1.13972
 Alpha  occ. eigenvalues --   -1.13955  -1.13939  -1.13889  -1.13876  -1.13854
 Alpha  occ. eigenvalues --   -0.15252  -0.13967  -0.13302  -0.11211
 Alpha virt. eigenvalues --   -0.07585  -0.04960  -0.04609  -0.03511  -0.03468
 Alpha virt. eigenvalues --   -0.02497  -0.02177  -0.01949  -0.01320  -0.01132
 Alpha virt. eigenvalues --   -0.00901  -0.00267  -0.00152   0.00361   0.00578

  Beta  occ. eigenvalues --  -38.44734 -38.44678 -38.44656 -38.44652 -38.44588
  Beta  occ. eigenvalues --  -38.44477 -38.44368  -2.20490  -2.20477  -2.20418
  Beta  occ. eigenvalues --   -2.20403  -2.20360  -2.20211  -2.20078  -1.14197
  Beta  occ. eigenvalues --   -1.14176  -1.14170  -1.14155  -1.14135  -1.14124
  Beta  occ. eigenvalues --   -1.14096  -1.14094  -1.14082  -1.14078  -1.14069
  Beta  occ. eigenvalues --   -1.14032  -1.14016  -1.14013  -1.13955  -1.13900
  Beta  occ. eigenvalues --   -1.13886  -1.13869  -1.13781  -1.13770  -1.13751
  Beta  occ. eigenvalues --   -0.14662  -0.13263  -0.12553
  Beta virt. eigenvalues --   -0.08138  -0.07667  -0.04498  -0.04089  -0.03285
  Beta virt. eigenvalues --   -0.03237  -0.02310  -0.02005  -0.01711  -0.01169
  Beta virt. eigenvalues --   -0.00729  -0.00631  -0.00061   0.00068   0.00348

 Mulliken charges and spin densities:
               1          2
     1  Na   0.002415   0.039997
     2  Na   0.162540   0.232178
     3  Na   0.133595   0.452286
     4  Na  -0.019384  -0.075888
     5  Na  -0.270180   0.051243
     6  Na  -0.183439   0.239205
     7  Na   0.174453   0.060978
 Sum of Mulliken charges =  -0.00000   1.00000

 Dipole moment (field-independent basis, Debye):
    X=              0.1277    Y=             -0.5387    Z=              0.1037  Tot=              0.5633
 Quadrupole moment (field-independent basis, Debye-Ang):
   XX=            -58.6847   YY=            -69.1758   ZZ=            -73.0097
   XY=             -0.9689   XZ=              2.5121   YZ=             -1.4666

 Normal termination of Gaussian 16 at Sun Dec  3 13:28:50 2023.
