 Gaussian 16, Revision B.01,
 Gaussian 16:  ES64L-G16RevB.01 20-Dec-2017

 -------------------------
 #P B3LYP/6-311+g(d) force
 -------------------------

 -----
 DPGEN
 -----
 Symbolic Z-matrix:
 Charge =  0 Multiplicity = 2

                         Standard orientation:
 ---------------------------------------------------------------------
 Center     Atomic      Atomic             Coordinates (Angstroms)
 Number     Number       Type             X           Y           Z
 ---------------------------------------------------------------------
      1         11           0        0.318882   -1.368004   -0.659312
      2         11           0        2.469967    0.093287    1.834553
      3         11           0       -1.332894    0.653412    1.667785
      4         11           0       -2.311847    1.051411   -1.712188
      5         11           0        0.845109    2.466946   -0.429820
      6         11           0       -3.583087   -1.648921    0.442216
      7         11           0        3.593870   -1.248130   -1.143234
 ---------------------------------------------------------------------

 SCF Done:  E(UB3LYP) =  -1136.12829173     A.U. after   21 cycles

 The electronic state is 2-A.
 Alpha  occ. eigenvalues --  -38.44504 -38.44426 -38.44181 -38.43797 -38.43715
 Alpha  occ. eigenvalues --  -38.43707 -38.42863  -2.20339  -2.20264  -2.20036
 Alpha  occ. eigenvalues --   -2.19603  -2.19599  -2.19535  -2.18687  -1.14027
 Alpha  occ. eigenvalues --   -1.13993  -1.13946  -1.13946  -1.13914  -1.13863
 Alpha  occ. eigenvalues --   -1.13757  -1.13712  -1.13643  -1.13313  -1.13284
 Alpha  occ. eigenvalues --   -1.13263  -1.13257  -1.13232  -1.13201  -1.13186
 Alpha  occ. eigenvalues --   -1.13179  -1.13167  -1.12365  -1.12345  -1.12333
 Alpha  occ. eigenvalues --   -0.18068  -0.13902  -0.11170  -0.11090
 Alpha virt. eigenvalues --   -0.06290  -0.05408  -0.04962  -0.03085  -0.02668
 Alpha virt. eigenvalues --   -0.02317  -0.02281  -0.01197  -0.01034  -0.00152
 Alpha virt. eigenvalues --    0.00135   0.00285   0.00318   0.00417   0.00565

  Beta  occ. eigenvalues --  -38.44469 -38.44371 -38.44162 -38.43786 -38.43699
  Beta  occ. eigenvalues --  -38.43663 -38.42861  -2.20273  -2.20162  -2.20006
  Beta  occ. eigenvalues --   -2.19579  -2.19524  -2.19506  -2.18687  -1.13977
  Beta  occ. eigenvalues --   -1.13953  -1.13894  -1.13870  -1.13851  -1.13787
  Beta  occ. eigenvalues --   -1.13711  -1.13687  -1.13626  -1.13265  -1.13257
  Beta  occ. eigenvalues --   -1.13244  -1.13220  -1.13189  -1.13174  -1.13167
  Beta  occ. eigenvalues --   -1.13151  -1.13127  -1.12365  -1.12348  -1.12311
  Beta  occ. eigenvalues --   -0.17407  -0.13682  -0.10883
  Beta virt. eigenvalues --   -0.07416  -0.06116  -0.04854  -0.04713  -0.02845
  Beta virt. eigenvalues --   -0.02307  -0.02036  -0.01686  -0.01007  -0.00571
  Beta virt. eigenvalues --   -0.00046   0.00181   0.00384   0.00465   0.00523

 Mulliken charges and spin densities:
               1          2
     1  Na  -1.014718   0.372707
     2  Na   0.241501   0.038027
     3  Na  -0.066962   0.421546
     4  Na   0.140560   0.133121
     5  Na  -0.149195   0.075494
     6  Na   0.508045  -0.026651
     7  Na   0.340770  -0.014244
 Sum of Mulliken charges =  -0.00000   1.00000

 Dipole moment (field-independent basis, Debye):
    X=              0.0579    Y=              0.2856    Z=             -0.0040  Tot=              0.2915
 Quadrupole moment (field-independent basis, Debye-Ang):
   XX=            -53.1294   YY=            -75.1424   ZZ=            -66.8008
   XY=              2.2798   XZ=              2.0546   YZ=             -1.7571

 Normal termination of Gaussian 16 at Tue Dec  5 13:37:43 2023.
