 Gaussian 16, Revision B.01,
 Gaussian 16:  ES64L-G16RevB.01 20-Dec-2017

 -------------------------
 #P B3LYP/6-311+g(d) force
 -------------------------

 -----
 DPGEN
 -----
 Symbolic Z-matrix:
 Charge =  0 Multiplicity = 2

                         Standard orientation:
 ---------------------------------------------------------------------
 Center     Atomic      Atomic             Coordinates (Angstroms)
 Number     Number       Type             X           Y           Z
 ---------------------------------------------------------------------
      1         11           0        1.818280   -0.115177    1.735126
      2         11           0       -4.667674   -0.198274   -0.265861
      3         11           0        2.624103    0.967338   -1.327382
      4         11           0        0.041352    2.574790    0.817488
      5         11           0       -0.518000    0.217792   -1.424785
      6         11           0       -1.721240   -1.231367    0.678584
      7         11           0        2.423178   -2.215102   -0.213170
 ---------------------------------------------------------------------

 SCF Done:  E(UB3LYP) =  -1136.11392597     A.U. after   24 cycles

 The electronic state is 2-A.
 Alpha  occ. eigenvalues --  -38.45765 -38.44582 -38.44407 -38.44213 -38.43588
 Alpha  occ. eigenvalues --  -38.42777 -38.42407  -2.21521  -2.20536  -2.20292
 Alpha  occ. eigenvalues --   -2.20124  -2.19564  -2.18665  -2.18274  -1.15196
 Alpha  occ. eigenvalues --   -1.15183  -1.15149  -1.14439  -1.14155  -1.14148
 Alpha  occ. eigenvalues --   -1.13956  -1.13909  -1.13863  -1.13804  -1.13786
 Alpha  occ. eigenvalues --   -1.13706  -1.13266  -1.13220  -1.13183  -1.12360
 Alpha  occ. eigenvalues --   -1.12303  -1.12295  -1.11948  -1.11939  -1.11901
 Alpha  occ. eigenvalues --   -0.18673  -0.13842  -0.11322  -0.11074
 Alpha virt. eigenvalues --   -0.07423  -0.04448  -0.03860  -0.03268  -0.03024
 Alpha virt. eigenvalues --   -0.02681  -0.02333  -0.01148  -0.00734  -0.00208
 Alpha virt. eigenvalues --   -0.00016   0.00247   0.00308   0.00759   0.00844

  Beta  occ. eigenvalues --  -38.45769 -38.44545 -38.44390 -38.44154 -38.43525
  Beta  occ. eigenvalues --  -38.42773 -38.42391  -2.21529  -2.20472  -2.20263
  Beta  occ. eigenvalues --   -2.20019  -2.19449  -2.18662  -2.18246  -1.15201
  Beta  occ. eigenvalues --   -1.15188  -1.15153  -1.14386  -1.14115  -1.14100
  Beta  occ. eigenvalues --   -1.13922  -1.13883  -1.13829  -1.13723  -1.13711
  Beta  occ. eigenvalues --   -1.13634  -1.13186  -1.13130  -1.13103  -1.12356
  Beta  occ. eigenvalues --   -1.12296  -1.12274  -1.11930  -1.11912  -1.11873
  Beta  occ. eigenvalues --   -0.17915  -0.13732  -0.11080
  Beta virt. eigenvalues --   -0.07306  -0.06981  -0.04318  -0.03620  -0.03019
  Beta virt. eigenvalues --   -0.02950  -0.01901  -0.01461  -0.00876  -0.00507
  Beta virt. eigenvalues --   -0.00166   0.00038   0.00269   0.00440   0.00799

 Mulliken charges and spin densities:
               1          2
     1  Na   0.100956   0.491683
     2  Na   0.470607  -0.018695
     3  Na   0.619765   0.232061
     4  Na  -0.412326   0.045878
     5  Na  -0.276826   0.300914
     6  Na  -0.452178  -0.018479
     7  Na  -0.049997  -0.033362
 Sum of Mulliken charges =  -0.00000   1.00000

 Dipole moment (field-independent basis, Debye):
    X=             -1.8475    Y=              0.5205    Z=             -0.2036  Tot=              1.9302
 Quadrupole moment (field-independent basis, Debye-Ang):
   XX=            -46.7424   YY=            -73.3590   ZZ=            -71.1732
   XY=              0.2046   XZ=             -0.2487   YZ=              0.9706

 Normal termination of Gaussian 16 at Tue Dec  5 15:45:21 2023.
