 Gaussian 16, Revision B.01,
 Gaussian 16:  ES64L-G16RevB.01 20-Dec-2017

 -------------------------
 #P B3LYP/6-311+g(d) force
 -------------------------

 -----
 DPGEN
 -----
 Symbolic Z-matrix:
 Charge =  0 Multiplicity = 2

                         Standard orientation:
 ---------------------------------------------------------------------
 Center     Atomic      Atomic             Coordinates (Angstroms)
 Number     Number       Type             X           Y           Z
 ---------------------------------------------------------------------
      1         11           0        1.879001   -2.072406   -0.952033
      2         11           0        3.705203    0.340602    0.739018
      3         11           0        1.505723    1.869847   -1.018729
      4         11           0       -1.398728   -1.545667   -0.909541
      5         11           0       -4.341766   -0.345603    0.769010
      6         11           0        0.662686   -0.118966    2.023485
      7         11           0       -2.012118    1.872194   -0.651210
 ---------------------------------------------------------------------

 SCF Done:  E(UB3LYP) =  -1136.11903203     A.U. after   28 cycles

 The electronic state is 2-A.
 Alpha  occ. eigenvalues --  -38.46104 -38.45016 -38.44675 -38.43567 -38.43266
 Alpha  occ. eigenvalues --  -38.43217 -38.42963  -2.21907  -2.20812  -2.20546
 Alpha  occ. eigenvalues --   -2.19399  -2.19121  -2.19074  -2.18820  -1.15581
 Alpha  occ. eigenvalues --   -1.15555  -1.15534  -1.14469  -1.14461  -1.14428
 Alpha  occ. eigenvalues --   -1.14217  -1.14204  -1.14176  -1.13093  -1.13078
 Alpha  occ. eigenvalues --   -1.13020  -1.12793  -1.12779  -1.12771  -1.12768
 Alpha  occ. eigenvalues --   -1.12753  -1.12698  -1.12484  -1.12465  -1.12458
 Alpha  occ. eigenvalues --   -0.18023  -0.14367  -0.11158  -0.10884
 Alpha virt. eigenvalues --   -0.07487  -0.05099  -0.04748  -0.03292  -0.03041
 Alpha virt. eigenvalues --   -0.02451  -0.02073  -0.01339  -0.01180  -0.00286
 Alpha virt. eigenvalues --   -0.00164   0.00176   0.00197   0.00645   0.00686

  Beta  occ. eigenvalues --  -38.46066 -38.44966 -38.44659 -38.43545 -38.43245
  Beta  occ. eigenvalues --  -38.43201 -38.42937  -2.21839  -2.20717  -2.20518
  Beta  occ. eigenvalues --   -2.19365  -2.19085  -2.19047  -2.18773  -1.15526
  Beta  occ. eigenvalues --   -1.15501  -1.15491  -1.14401  -1.14398  -1.14368
  Beta  occ. eigenvalues --   -1.14203  -1.14170  -1.14162  -1.13066  -1.13056
  Beta  occ. eigenvalues --   -1.12969  -1.12769  -1.12756  -1.12749  -1.12728
  Beta  occ. eigenvalues --   -1.12724  -1.12669  -1.12447  -1.12441  -1.12417
  Beta  occ. eigenvalues --   -0.17462  -0.14031  -0.10769
  Beta virt. eigenvalues --   -0.07366  -0.07170  -0.05119  -0.04138  -0.02997
  Beta virt. eigenvalues --   -0.02794  -0.01927  -0.01526  -0.01100  -0.00849
  Beta virt. eigenvalues --   -0.00234  -0.00046   0.00196   0.00369   0.00719

 Mulliken charges and spin densities:
               1          2
     1  Na  -0.281674   0.130581
     2  Na   1.323395   0.117648
     3  Na  -0.637954   0.089790
     4  Na  -0.458622   0.096016
     5  Na   0.760918   0.340435
     6  Na  -0.589999   0.210949
     7  Na  -0.116063   0.014581
 Sum of Mulliken charges =  -0.00000   1.00000

 Dipole moment (field-independent basis, Debye):
    X=             -0.1418    Y=             -0.0856    Z=              0.9549  Tot=              0.9692
 Quadrupole moment (field-independent basis, Debye-Ang):
   XX=            -48.7994   YY=            -80.1681   ZZ=            -67.9161
   XY=             -0.4898   XZ=             -3.1067   YZ=             -0.9075

 Normal termination of Gaussian 16 at Fri Dec  8 01:49:06 2023.
