 Gaussian 16, Revision B.01,
 Gaussian 16:  ES64L-G16RevB.01 20-Dec-2017

 -------------------------
 #P B3LYP/6-311+g(d) force
 -------------------------

 -----
 DPGEN
 -----
 Symbolic Z-matrix:
 Charge =  0 Multiplicity = 2

                         Standard orientation:
 ---------------------------------------------------------------------
 Center     Atomic      Atomic             Coordinates (Angstroms)
 Number     Number       Type             X           Y           Z
 ---------------------------------------------------------------------
      1         11           0       -1.376814    2.056453    1.107738
      2         11           0       -3.210725   -0.149712   -0.890935
      3         11           0        1.505909    2.175424   -0.917360
      4         11           0        1.329923    0.020490    2.076226
      5         11           0        0.422072   -0.281480   -1.652825
      6         11           0       -1.518889   -2.301349    0.642722
      7         11           0        2.848523   -1.519826   -0.365566
 ---------------------------------------------------------------------

 SCF Done:  E(UB3LYP) =  -1136.12513441     A.U. after   21 cycles

 The electronic state is 2-A.
 Alpha  occ. eigenvalues --  -38.44154 -38.44077 -38.43905 -38.43845 -38.43808
 Alpha  occ. eigenvalues --  -38.43732 -38.43278  -2.20040  -2.19919  -2.19869
 Alpha  occ. eigenvalues --   -2.19769  -2.19636  -2.19631  -2.19115  -1.13763
 Alpha  occ. eigenvalues --   -1.13708  -1.13695  -1.13652  -1.13618  -1.13608
 Alpha  occ. eigenvalues --   -1.13580  -1.13561  -1.13487  -1.13423  -1.13381
 Alpha  occ. eigenvalues --   -1.13361  -1.13297  -1.13294  -1.13258  -1.13255
 Alpha  occ. eigenvalues --   -1.13237  -1.13208  -1.12799  -1.12769  -1.12744
 Alpha  occ. eigenvalues --   -0.18629  -0.13395  -0.11730  -0.11701
 Alpha virt. eigenvalues --   -0.05730  -0.04959  -0.04423  -0.03376  -0.03244
 Alpha virt. eigenvalues --   -0.03104  -0.01496  -0.00761  -0.00590   0.00142
 Alpha virt. eigenvalues --    0.00290   0.00357   0.00553   0.00725   0.00847

  Beta  occ. eigenvalues --  -38.44071 -38.44068 -38.43900 -38.43803 -38.43779
  Beta  occ. eigenvalues --  -38.43704 -38.43261  -2.19908  -2.19883  -2.19769
  Beta  occ. eigenvalues --   -2.19749  -2.19624  -2.19588  -2.19086  -1.13688
  Beta  occ. eigenvalues --   -1.13604  -1.13603  -1.13595  -1.13569  -1.13560
  Beta  occ. eigenvalues --   -1.13554  -1.13540  -1.13409  -1.13395  -1.13369
  Beta  occ. eigenvalues --   -1.13317  -1.13291  -1.13276  -1.13251  -1.13208
  Beta  occ. eigenvalues --   -1.13204  -1.13159  -1.12770  -1.12741  -1.12730
  Beta  occ. eigenvalues --   -0.17877  -0.13195  -0.11512
  Beta virt. eigenvalues --   -0.07696  -0.05617  -0.04849  -0.04023  -0.03080
  Beta virt. eigenvalues --   -0.02447  -0.02124  -0.01450  -0.00710  -0.00283
  Beta virt. eigenvalues --    0.00186   0.00318   0.00397   0.00673   0.00852

 Mulliken charges and spin densities:
               1          2
     1  Na  -0.323084   0.144203
     2  Na   0.421492  -0.057519
     3  Na  -0.007675  -0.013368
     4  Na   0.002819   0.568888
     5  Na   0.152426   0.340085
     6  Na  -0.311968   0.051626
     7  Na   0.065990  -0.033916
 Sum of Mulliken charges =  -0.00000   1.00000

 Dipole moment (field-independent basis, Debye):
    X=             -0.0205    Y=             -0.1187    Z=              0.1635  Tot=              0.2031
 Quadrupole moment (field-independent basis, Debye-Ang):
   XX=            -57.6415   YY=            -70.4551   ZZ=            -67.8797
   XY=             -1.3085   XZ=              0.6820   YZ=             -1.5148

 Normal termination of Gaussian 16 at Tue Dec  5 13:54:03 2023.
