 Gaussian 16, Revision B.01,
 Gaussian 16:  ES64L-G16RevB.01 20-Dec-2017

 -------------------------
 #P B3LYP/6-311+g(d) force
 -------------------------

 -----
 DPGEN
 -----
 Symbolic Z-matrix:
 Charge =  0 Multiplicity = 2

                         Standard orientation:
 ---------------------------------------------------------------------
 Center     Atomic      Atomic             Coordinates (Angstroms)
 Number     Number       Type             X           Y           Z
 ---------------------------------------------------------------------
      1         11           0       -1.071974    3.821677    0.112476
      2         11           0        4.596656   -0.202451    0.109400
      3         11           0        2.840096    2.730358   -0.013243
      4         11           0        1.931346   -3.030371   -0.616079
      5         11           0       -0.937738   -3.673607    0.792548
      6         11           0       -4.016685   -1.281429   -0.446646
      7         11           0       -3.341702    1.635821    0.061545
 ---------------------------------------------------------------------

 SCF Done:  E(UB3LYP) =  -1136.10592450     A.U. after   21 cycles

 The electronic state is 2-A.
 Alpha  occ. eigenvalues --  -38.45359 -38.44794 -38.44701 -38.44540 -38.44465
 Alpha  occ. eigenvalues --  -38.44221 -38.44009  -2.21093  -2.20567  -2.20471
 Alpha  occ. eigenvalues --   -2.20318  -2.20294  -2.20065  -2.19824  -1.14781
 Alpha  occ. eigenvalues --   -1.14767  -1.14727  -1.14254  -1.14236  -1.14211
 Alpha  occ. eigenvalues --   -1.14138  -1.14121  -1.14092  -1.14028  -1.13979
 Alpha  occ. eigenvalues --   -1.13963  -1.13953  -1.13928  -1.13904  -1.13747
 Alpha  occ. eigenvalues --   -1.13722  -1.13711  -1.13464  -1.13462  -1.13443
 Alpha  occ. eigenvalues --   -0.15474  -0.14007  -0.13456  -0.11091
 Alpha virt. eigenvalues --   -0.07570  -0.04969  -0.04205  -0.03567  -0.03398
 Alpha virt. eigenvalues --   -0.02620  -0.02403  -0.01939  -0.01568  -0.00556
 Alpha virt. eigenvalues --   -0.00326  -0.00119  -0.00046   0.00269   0.00439

  Beta  occ. eigenvalues --  -38.45359 -38.44767 -38.44684 -38.44501 -38.44389
  Beta  occ. eigenvalues --  -38.44211 -38.43938  -2.21096  -2.20521  -2.20444
  Beta  occ. eigenvalues --   -2.20246  -2.20156  -2.20056  -2.19693  -1.14787
  Beta  occ. eigenvalues --   -1.14774  -1.14701  -1.14217  -1.14207  -1.14173
  Beta  occ. eigenvalues --   -1.14122  -1.14104  -1.14052  -1.13935  -1.13931
  Beta  occ. eigenvalues --   -1.13917  -1.13899  -1.13835  -1.13813  -1.13725
  Beta  occ. eigenvalues --   -1.13721  -1.13659  -1.13379  -1.13375  -1.13356
  Beta  occ. eigenvalues --   -0.14863  -0.13249  -0.12678
  Beta virt. eigenvalues --   -0.08001  -0.07745  -0.04564  -0.03663  -0.03326
  Beta virt. eigenvalues --   -0.03085  -0.02407  -0.02177  -0.01764  -0.01399
  Beta virt. eigenvalues --   -0.00162  -0.00107   0.00033   0.00205   0.00332

 Mulliken charges and spin densities:
               1          2
     1  Na   0.593531   0.358608
     2  Na   0.167021   0.125424
     3  Na  -0.098249   0.051407
     4  Na  -0.264392   0.100230
     5  Na  -0.021594   0.047547
     6  Na  -0.194613   0.268220
     7  Na  -0.181704   0.048565
 Sum of Mulliken charges =  -0.00000   1.00000

 Dipole moment (field-independent basis, Debye):
    X=              0.6598    Y=             -0.5930    Z=              0.0019  Tot=              0.8872
 Quadrupole moment (field-independent basis, Debye-Ang):
   XX=            -63.2783   YY=            -64.8187   ZZ=            -72.3159
   XY=              2.2964   XZ=             -1.1686   YZ=             -0.2676

 Normal termination of Gaussian 16 at Sun Dec  3 15:29:58 2023.
