 Gaussian 16, Revision B.01,
 Gaussian 16:  ES64L-G16RevB.01 20-Dec-2017

 -------------------------
 #P B3LYP/6-311+g(d) force
 -------------------------

 -----
 DPGEN
 -----
 Symbolic Z-matrix:
 Charge =  0 Multiplicity = 2

                         Standard orientation:
 ---------------------------------------------------------------------
 Center     Atomic      Atomic             Coordinates (Angstroms)
 Number     Number       Type             X           Y           Z
 ---------------------------------------------------------------------
      1         11           0        3.701856   -1.104856   -0.327375
      2         11           0       -2.864035   -0.867558   -1.816970
      3         11           0        1.076221   -0.618648   -2.016100
      4         11           0        0.606499   -0.437022    2.134506
      5         11           0        1.679033    2.383300    0.290390
      6         11           0       -2.125000    2.534953    0.075916
      7         11           0       -2.074574   -1.890170    1.659633
 ---------------------------------------------------------------------

 SCF Done:  E(UB3LYP) =  -1136.11596222     A.U. after   32 cycles

 The electronic state is 2-A.
 Alpha  occ. eigenvalues --  -38.44955 -38.44559 -38.44522 -38.44290 -38.44239
 Alpha  occ. eigenvalues --  -38.44199 -38.43408  -2.20812  -2.20382  -2.20336
 Alpha  occ. eigenvalues --   -2.20089  -2.20011  -2.19942  -2.19200  -1.14528
 Alpha  occ. eigenvalues --   -1.14439  -1.14426  -1.14067  -1.14020  -1.14019
 Alpha  occ. eigenvalues --   -1.13994  -1.13981  -1.13979  -1.13755  -1.13745
 Alpha  occ. eigenvalues --   -1.13718  -1.13675  -1.13664  -1.13644  -1.13625
 Alpha  occ. eigenvalues --   -1.13593  -1.13566  -1.12897  -1.12879  -1.12807
 Alpha  occ. eigenvalues --   -0.17305  -0.13291  -0.12314  -0.11101
 Alpha virt. eigenvalues --   -0.06044  -0.05558  -0.05110  -0.03590  -0.03056
 Alpha virt. eigenvalues --   -0.02830  -0.01962  -0.00975  -0.00886  -0.00322
 Alpha virt. eigenvalues --   -0.00005   0.00138   0.00206   0.00326   0.00556

  Beta  occ. eigenvalues --  -38.44868 -38.44503 -38.44489 -38.44299 -38.44207
  Beta  occ. eigenvalues --  -38.44176 -38.43411  -2.20655  -2.20282  -2.20275
  Beta  occ. eigenvalues --   -2.20107  -2.19951  -2.19900  -2.19204  -1.14411
  Beta  occ. eigenvalues --   -1.14330  -1.14312  -1.13983  -1.13979  -1.13957
  Beta  occ. eigenvalues --   -1.13953  -1.13940  -1.13903  -1.13763  -1.13751
  Beta  occ. eigenvalues --   -1.13727  -1.13628  -1.13619  -1.13610  -1.13591
  Beta  occ. eigenvalues --   -1.13567  -1.13539  -1.12892  -1.12884  -1.12811
  Beta  occ. eigenvalues --   -0.16583  -0.13028  -0.10950
  Beta virt. eigenvalues --   -0.08337  -0.05809  -0.05247  -0.04641  -0.03088
  Beta virt. eigenvalues --   -0.02645  -0.02340  -0.01814  -0.00876  -0.00511
  Beta virt. eigenvalues --   -0.00244   0.00132   0.00267   0.00361   0.00390

 Mulliken charges and spin densities:
               1          2
     1  Na   0.659202  -0.114161
     2  Na   0.026544   0.248136
     3  Na  -0.513140   0.202400
     4  Na  -0.327546   0.466002
     5  Na   0.124826  -0.019486
     6  Na  -0.186167   0.148517
     7  Na   0.216281   0.068592
 Sum of Mulliken charges =  -0.00000   1.00000

 Dipole moment (field-independent basis, Debye):
    X=              0.3281    Y=             -0.3461    Z=              0.1179  Tot=              0.4913
 Quadrupole moment (field-independent basis, Debye-Ang):
   XX=            -55.5235   YY=            -75.1638   ZZ=            -68.0002
   XY=             -0.6654   XZ=              2.7211   YZ=             -4.5450

 Normal termination of Gaussian 16 at Mon Dec  4 02:27:52 2023.
