 Gaussian 16, Revision B.01,
 Gaussian 16:  ES64L-G16RevB.01 20-Dec-2017

 -------------------------
 #P B3LYP/6-311+g(d) force
 -------------------------

 -----
 DPGEN
 -----
 Symbolic Z-matrix:
 Charge =  0 Multiplicity = 2

                         Standard orientation:
 ---------------------------------------------------------------------
 Center     Atomic      Atomic             Coordinates (Angstroms)
 Number     Number       Type             X           Y           Z
 ---------------------------------------------------------------------
      1         11           0       -2.194658   -0.833852    0.514074
      2         11           0       -5.244399   -2.276684   -0.204707
      3         11           0       -3.846381    1.704375   -1.051693
      4         11           0       -1.115175    2.359245    0.513175
      5         11           0        1.284270   -0.063392    1.403415
      6         11           0        3.943135   -0.582076   -0.991492
      7         11           0        7.173208   -0.307616   -0.182772
 ---------------------------------------------------------------------

 SCF Done:  E(UB3LYP) =  -1136.11597242     A.U. after   22 cycles

 The electronic state is 2-A.
 Alpha  occ. eigenvalues --  -38.44884 -38.44369 -38.44245 -38.44184 -38.44064
 Alpha  occ. eigenvalues --  -38.43988 -38.43750  -2.20727  -2.20136  -2.20114
 Alpha  occ. eigenvalues --   -2.20057  -2.19836  -2.19770  -2.19573  -1.14413
 Alpha  occ. eigenvalues --   -1.14388  -1.14326  -1.13818  -1.13793  -1.13792
 Alpha  occ. eigenvalues --   -1.13785  -1.13771  -1.13761  -1.13749  -1.13727
 Alpha  occ. eigenvalues --   -1.13638  -1.13516  -1.13512  -1.13466  -1.13428
 Alpha  occ. eigenvalues --   -1.13427  -1.13381  -1.13243  -1.13234  -1.13182
 Alpha  occ. eigenvalues --   -0.16883  -0.13772  -0.12022  -0.11435
 Alpha virt. eigenvalues --   -0.06486  -0.05391  -0.04390  -0.03737  -0.03094
 Alpha virt. eigenvalues --   -0.02350  -0.02131  -0.01697  -0.01167  -0.00936
 Alpha virt. eigenvalues --   -0.00474  -0.00240   0.00046   0.00495   0.00604

  Beta  occ. eigenvalues --  -38.44818 -38.44337 -38.44217 -38.44164 -38.44074
  Beta  occ. eigenvalues --  -38.43946 -38.43714  -2.20610  -2.20076  -2.20067
  Beta  occ. eigenvalues --   -2.20022  -2.19858  -2.19691  -2.19505  -1.14330
  Beta  occ. eigenvalues --   -1.14310  -1.14228  -1.13789  -1.13758  -1.13752
  Beta  occ. eigenvalues --   -1.13751  -1.13740  -1.13734  -1.13702  -1.13664
  Beta  occ. eigenvalues --   -1.13611  -1.13532  -1.13528  -1.13465  -1.13375
  Beta  occ. eigenvalues --   -1.13367  -1.13333  -1.13192  -1.13189  -1.13146
  Beta  occ. eigenvalues --   -0.16214  -0.13433  -0.11474
  Beta virt. eigenvalues --   -0.08015  -0.06104  -0.05125  -0.04095  -0.03532
  Beta virt. eigenvalues --   -0.02567  -0.02128  -0.01822  -0.01540  -0.00983
  Beta virt. eigenvalues --   -0.00542  -0.00232  -0.00115   0.00262   0.00560

 Mulliken charges and spin densities:
               1          2
     1  Na  -2.347152   0.388327
     2  Na   0.235484   0.195211
     3  Na   0.162184   0.268978
     4  Na   0.396662   0.042256
     5  Na   1.450514   0.027220
     6  Na  -0.259002  -0.061050
     7  Na   0.361310   0.139056
 Sum of Mulliken charges =  -0.00000   1.00000

 Dipole moment (field-independent basis, Debye):
    X=             -0.6257    Y=              0.7587    Z=             -0.0830  Tot=              0.9869
 Quadrupole moment (field-independent basis, Debye-Ang):
   XX=            -57.4103   YY=            -67.9072   ZZ=            -69.7742
   XY=              0.7421   XZ=              5.7845   YZ=             -0.5881

 Normal termination of Gaussian 16 at Tue Nov 28 19:38:25 2023.
