 Gaussian 16, Revision B.01,
 Gaussian 16:  ES64L-G16RevB.01 20-Dec-2017

 -------------------------
 #P B3LYP/6-311+g(d) force
 -------------------------

 -----
 DPGEN
 -----
 Symbolic Z-matrix:
 Charge =  0 Multiplicity = 2

                         Standard orientation:
 ---------------------------------------------------------------------
 Center     Atomic      Atomic             Coordinates (Angstroms)
 Number     Number       Type             X           Y           Z
 ---------------------------------------------------------------------
      1         11           0        6.570909    2.246252    0.561732
      2         11           0        5.647019   -0.339014   -0.602558
      3         11           0       -5.856953    2.980214    0.292790
      4         11           0       -0.127100   -1.265591    1.338555
      5         11           0        1.966317   -1.359704   -1.007528
      6         11           0       -3.408735   -2.688035    0.567208
      7         11           0       -4.791457    0.425878   -1.150199
 ---------------------------------------------------------------------

 SCF Done:  E(UB3LYP) =  -1136.10468135     A.U. after   18 cycles

 The electronic state is 2-A.
 Alpha  occ. eigenvalues --  -38.44989 -38.44462 -38.44412 -38.44403 -38.44249
 Alpha  occ. eigenvalues --  -38.43986 -38.43953  -2.20776  -2.20246  -2.20227
 Alpha  occ. eigenvalues --   -2.20218  -2.20053  -2.19793  -2.19739  -1.14426
 Alpha  occ. eigenvalues --   -1.14405  -1.14391  -1.13997  -1.13929  -1.13922
 Alpha  occ. eigenvalues --   -1.13898  -1.13872  -1.13855  -1.13854  -1.13852
 Alpha  occ. eigenvalues --   -1.13810  -1.13725  -1.13693  -1.13691  -1.13454
 Alpha  occ. eigenvalues --   -1.13451  -1.13434  -1.13413  -1.13404  -1.13380
 Alpha  occ. eigenvalues --   -0.15237  -0.14097  -0.12720  -0.11206
 Alpha virt. eigenvalues --   -0.06741  -0.05349  -0.04275  -0.03274  -0.03228
 Alpha virt. eigenvalues --   -0.02438  -0.02348  -0.01977  -0.01187  -0.01115
 Alpha virt. eigenvalues --   -0.00972  -0.00553  -0.00042   0.00375   0.00414

  Beta  occ. eigenvalues --  -38.44893 -38.44481 -38.44362 -38.44348 -38.44195
  Beta  occ. eigenvalues --  -38.43993 -38.43964  -2.20596  -2.20285  -2.20141
  Beta  occ. eigenvalues --   -2.20108  -2.19952  -2.19811  -2.19763  -1.14303
  Beta  occ. eigenvalues --   -1.14284  -1.14275  -1.13986  -1.13952  -1.13907
  Beta  occ. eigenvalues --   -1.13883  -1.13801  -1.13799  -1.13792  -1.13778
  Beta  occ. eigenvalues --   -1.13755  -1.13665  -1.13625  -1.13623  -1.13469
  Beta  occ. eigenvalues --   -1.13462  -1.13433  -1.13422  -1.13419  -1.13360
  Beta  occ. eigenvalues --   -0.14638  -0.13502  -0.12188
  Beta virt. eigenvalues --   -0.08110  -0.06303  -0.04933  -0.03964  -0.03137
  Beta virt. eigenvalues --   -0.03013  -0.02251  -0.02121  -0.01665  -0.01054
  Beta virt. eigenvalues --   -0.00722  -0.00617  -0.00350   0.00143   0.00442

 Mulliken charges and spin densities:
               1          2
     1  Na   0.214255   0.165560
     2  Na  -0.310144  -0.032997
     3  Na   0.356882   0.260774
     4  Na  -0.366418  -0.063189
     5  Na   0.345693   0.285921
     6  Na   0.178219   0.431224
     7  Na  -0.418486  -0.047294
 Sum of Mulliken charges =  -0.00000   1.00000

 Dipole moment (field-independent basis, Debye):
    X=             -0.0202    Y=              0.1749    Z=              0.5193  Tot=              0.5483
 Quadrupole moment (field-independent basis, Debye-Ang):
   XX=            -73.1904   YY=            -61.3531   ZZ=            -66.6657
   XY=              3.2286   XZ=             -1.6274   YZ=              6.5457

 Normal termination of Gaussian 16 at Mon Dec  4 00:53:55 2023.
