 Gaussian 16, Revision B.01,
 Gaussian 16:  ES64L-G16RevB.01 20-Dec-2017

 -------------------------
 #P B3LYP/6-311+g(d) force
 -------------------------

 -----
 DPGEN
 -----
 Symbolic Z-matrix:
 Charge =  0 Multiplicity = 2

                         Standard orientation:
 ---------------------------------------------------------------------
 Center     Atomic      Atomic             Coordinates (Angstroms)
 Number     Number       Type             X           Y           Z
 ---------------------------------------------------------------------
      1         11           0        0.129513    3.106914   -0.412116
      2         11           0       -5.794765   -0.642117    0.486758
      3         11           0       -2.726762    1.355351    0.363122
      4         11           0       -2.718851   -1.812563   -0.804118
      5         11           0        0.152380   -0.916192   -0.225267
      6         11           0        3.919880   -0.790652    0.786208
      7         11           0        7.038604   -0.300741   -0.194587
 ---------------------------------------------------------------------

 SCF Done:  E(UB3LYP) =  -1136.11423432     A.U. after   21 cycles

 The electronic state is 2-A.
 Alpha  occ. eigenvalues --  -38.44572 -38.44443 -38.44396 -38.44378 -38.44208
 Alpha  occ. eigenvalues --  -38.44064 -38.43995  -2.20459  -2.20299  -2.20183
 Alpha  occ. eigenvalues --   -2.20140  -2.20070  -2.19853  -2.19761  -1.14186
 Alpha  occ. eigenvalues --   -1.14122  -1.14079  -1.14003  -1.13983  -1.13896
 Alpha  occ. eigenvalues --   -1.13840  -1.13824  -1.13801  -1.13800  -1.13789
 Alpha  occ. eigenvalues --   -1.13782  -1.13734  -1.13730  -1.13663  -1.13519
 Alpha  occ. eigenvalues --   -1.13517  -1.13472  -1.13437  -1.13432  -1.13388
 Alpha  occ. eigenvalues --   -0.17007  -0.13387  -0.12235  -0.11603
 Alpha virt. eigenvalues --   -0.06856  -0.05541  -0.03957  -0.03800  -0.03336
 Alpha virt. eigenvalues --   -0.02245  -0.02035  -0.01731  -0.01511  -0.00885
 Alpha virt. eigenvalues --   -0.00608  -0.00087   0.00132   0.00349   0.00537

  Beta  occ. eigenvalues --  -38.44525 -38.44411 -38.44367 -38.44345 -38.44143
  Beta  occ. eigenvalues --  -38.44043 -38.43999  -2.20378  -2.20240  -2.20120
  Beta  occ. eigenvalues --   -2.20088  -2.19954  -2.19815  -2.19769  -1.14125
  Beta  occ. eigenvalues --   -1.14070  -1.13996  -1.13965  -1.13934  -1.13840
  Beta  occ. eigenvalues --   -1.13787  -1.13786  -1.13777  -1.13769  -1.13754
  Beta  occ. eigenvalues --   -1.13733  -1.13657  -1.13648  -1.13572  -1.13492
  Beta  occ. eigenvalues --   -1.13488  -1.13450  -1.13442  -1.13439  -1.13387
  Beta  occ. eigenvalues --   -0.16235  -0.13276  -0.11671
  Beta virt. eigenvalues --   -0.08033  -0.06511  -0.05159  -0.03764  -0.03554
  Beta virt. eigenvalues --   -0.02719  -0.02169  -0.01765  -0.01520  -0.01240
  Beta virt. eigenvalues --   -0.00531  -0.00343   0.00013   0.00333   0.00412

 Mulliken charges and spin densities:
               1          2
     1  Na   0.615396   0.071551
     2  Na   0.314178   0.113201
     3  Na  -0.684505   0.368494
     4  Na   0.728863  -0.214548
     5  Na  -0.889604   0.669750
     6  Na  -0.563714  -0.037802
     7  Na   0.479387   0.029352
 Sum of Mulliken charges =  -0.00000   1.00000

 Dipole moment (field-independent basis, Debye):
    X=             -0.6518    Y=              0.3985    Z=             -0.3047  Tot=              0.8224
 Quadrupole moment (field-independent basis, Debye-Ang):
   XX=            -54.3861   YY=            -68.1202   ZZ=            -71.5130
   XY=              5.7896   XZ=             -4.6089   YZ=             -0.1572

 Normal termination of Gaussian 16 at Tue Nov 28 22:21:51 2023.
