 Gaussian 16, Revision B.01,
 Gaussian 16:  ES64L-G16RevB.01 20-Dec-2017

 -------------------------
 #P B3LYP/6-311+g(d) force
 -------------------------

 -----
 DPGEN
 -----
 Symbolic Z-matrix:
 Charge =  0 Multiplicity = 2

                         Standard orientation:
 ---------------------------------------------------------------------
 Center     Atomic      Atomic             Coordinates (Angstroms)
 Number     Number       Type             X           Y           Z
 ---------------------------------------------------------------------
      1         11           0        4.711831   -0.020128    0.352919
      2         11           0       -1.013762    2.718299   -1.114293
      3         11           0        2.000185    2.055363    1.227603
      4         11           0       -3.645016    1.794126   -0.128106
      5         11           0        3.116718   -1.956238   -0.813785
      6         11           0       -1.178791   -2.470872   -0.455176
      7         11           0       -3.991166   -2.120549    0.930837
 ---------------------------------------------------------------------

 SCF Done:  E(UB3LYP) =  -1136.10080117     A.U. after   22 cycles

 The electronic state is 2-A.
 Alpha  occ. eigenvalues --  -38.45184 -38.45030 -38.44500 -38.44398 -38.44351
 Alpha  occ. eigenvalues --  -38.44235 -38.43685  -2.21044  -2.20794  -2.20325
 Alpha  occ. eigenvalues --   -2.20214  -2.20197  -2.20037  -2.19503  -1.14866
 Alpha  occ. eigenvalues --   -1.14683  -1.14661  -1.14470  -1.14456  -1.14447
 Alpha  occ. eigenvalues --   -1.14039  -1.13969  -1.13939  -1.13868  -1.13851
 Alpha  occ. eigenvalues --   -1.13847  -1.13836  -1.13830  -1.13814  -1.13689
 Alpha  occ. eigenvalues --   -1.13675  -1.13647  -1.13181  -1.13160  -1.13142
 Alpha  occ. eigenvalues --   -0.16005  -0.14444  -0.12733  -0.10502
 Alpha virt. eigenvalues --   -0.07658  -0.04766  -0.04593  -0.03724  -0.03402
 Alpha virt. eigenvalues --   -0.02761  -0.02405  -0.01487  -0.01017  -0.00908
 Alpha virt. eigenvalues --   -0.00439  -0.00256   0.00103   0.00429   0.00540

  Beta  occ. eigenvalues --  -38.45182 -38.45028 -38.44458 -38.44381 -38.44292
  Beta  occ. eigenvalues --  -38.44136 -38.43689  -2.21047  -2.20793  -2.20250
  Beta  occ. eigenvalues --   -2.20166  -2.20104  -2.19853  -2.19514  -1.14845
  Beta  occ. eigenvalues --   -1.14693  -1.14633  -1.14467  -1.14456  -1.14437
  Beta  occ. eigenvalues --   -1.13988  -1.13918  -1.13886  -1.13830  -1.13822
  Beta  occ. eigenvalues --   -1.13817  -1.13802  -1.13755  -1.13737  -1.13562
  Beta  occ. eigenvalues --   -1.13551  -1.13525  -1.13181  -1.13171  -1.13130
  Beta  occ. eigenvalues --   -0.15492  -0.13948  -0.12163
  Beta virt. eigenvalues --   -0.07580  -0.07141  -0.04480  -0.04218  -0.03582
  Beta virt. eigenvalues --   -0.03005  -0.02562  -0.02062  -0.01309  -0.00763
  Beta virt. eigenvalues --   -0.00600  -0.00253  -0.00042   0.00177   0.00585

 Mulliken charges and spin densities:
               1          2
     1  Na   0.523243  -0.035737
     2  Na  -0.050102  -0.005379
     3  Na  -0.344564   0.538499
     4  Na  -0.017944   0.151014
     5  Na  -0.391672   0.327744
     6  Na  -0.446327   0.004352
     7  Na   0.727364   0.019507
 Sum of Mulliken charges =  -0.00000   1.00000

 Dipole moment (field-independent basis, Debye):
    X=             -0.3003    Y=             -0.3918    Z=              0.2905  Tot=              0.5728
 Quadrupole moment (field-independent basis, Debye-Ang):
   XX=            -52.7864   YY=            -79.0444   ZZ=            -70.7257
   XY=              2.7618   XZ=             -3.5479   YZ=              0.3761

 Normal termination of Gaussian 16 at Sun Dec  3 20:27:06 2023.
