 Gaussian 16, Revision B.01,
 Gaussian 16:  ES64L-G16RevB.01 20-Dec-2017

 -------------------------
 #P B3LYP/6-311+g(d) force
 -------------------------

 -----
 DPGEN
 -----
 Symbolic Z-matrix:
 Charge =  0 Multiplicity = 2

                         Standard orientation:
 ---------------------------------------------------------------------
 Center     Atomic      Atomic             Coordinates (Angstroms)
 Number     Number       Type             X           Y           Z
 ---------------------------------------------------------------------
      1         11           0        1.851156   -2.181055    0.698603
      2         11           0       -3.613657    1.212603    1.205302
      3         11           0       -1.270074   -4.392113   -0.314966
      4         11           0       -3.432569   -1.733113   -0.862127
      5         11           0        6.543030    1.590082   -0.443662
      6         11           0        3.561676    0.905231    0.218759
      7         11           0       -3.639561    4.598365   -0.501909
 ---------------------------------------------------------------------

 SCF Done:  E(UB3LYP) =  -1136.09993801     A.U. after   20 cycles

 The electronic state is 2-A.
 Alpha  occ. eigenvalues --  -38.45353 -38.44867 -38.44680 -38.44676 -38.44619
 Alpha  occ. eigenvalues --  -38.44539 -38.43717  -2.21095  -2.20599  -2.20456
 Alpha  occ. eigenvalues --   -2.20409  -2.20404  -2.20345  -2.19517  -1.14751
 Alpha  occ. eigenvalues --   -1.14750  -1.14698  -1.14289  -1.14271  -1.14262
 Alpha  occ. eigenvalues --   -1.14113  -1.14109  -1.14101  -1.14100  -1.14071
 Alpha  occ. eigenvalues --   -1.14062  -1.14051  -1.14042  -1.14005  -1.13996
 Alpha  occ. eigenvalues --   -1.13981  -1.13978  -1.13189  -1.13188  -1.13178
 Alpha  occ. eigenvalues --   -0.14973  -0.13883  -0.12614  -0.11081
 Alpha virt. eigenvalues --   -0.07640  -0.05545  -0.04234  -0.03347  -0.03174
 Alpha virt. eigenvalues --   -0.02430  -0.02398  -0.01858  -0.01590  -0.01368
 Alpha virt. eigenvalues --   -0.00972  -0.00468  -0.00156   0.00088   0.00243

  Beta  occ. eigenvalues --  -38.45285 -38.44904 -38.44709 -38.44583 -38.44564
  Beta  occ. eigenvalues --  -38.44470 -38.43726  -2.20967  -2.20672  -2.20465
  Beta  occ. eigenvalues --   -2.20303  -2.20282  -2.20217  -2.19540  -1.14663
  Beta  occ. eigenvalues --   -1.14662  -1.14615  -1.14341  -1.14317  -1.14294
  Beta  occ. eigenvalues --   -1.14142  -1.14133  -1.14068  -1.13997  -1.13994
  Beta  occ. eigenvalues --   -1.13991  -1.13990  -1.13953  -1.13941  -1.13914
  Beta  occ. eigenvalues --   -1.13893  -1.13891  -1.13211  -1.13206  -1.13150
  Beta  occ. eigenvalues --   -0.14517  -0.13250  -0.12244
  Beta virt. eigenvalues --   -0.07925  -0.07081  -0.05144  -0.03994  -0.03171
  Beta virt. eigenvalues --   -0.02988  -0.02258  -0.02215  -0.01690  -0.01261
  Beta virt. eigenvalues --   -0.00984  -0.00721  -0.00180  -0.00007   0.00251

 Mulliken charges and spin densities:
               1          2
     1  Na  -0.287020   0.419640
     2  Na  -0.311995  -0.159498
     3  Na   0.362086  -0.161657
     4  Na  -0.144680   0.244128
     5  Na   0.698795   0.231561
     6  Na  -0.463654   0.059040
     7  Na   0.146467   0.366787
 Sum of Mulliken charges =  -0.00000   1.00000

 Dipole moment (field-independent basis, Debye):
    X=             -0.1834    Y=              0.0892    Z=             -0.3461  Tot=              0.4017
 Quadrupole moment (field-independent basis, Debye-Ang):
   XX=            -65.4581   YY=            -57.1294   ZZ=            -71.1408
   XY=              0.5117   XZ=             -0.2089   YZ=             -2.8853

 Normal termination of Gaussian 16 at Sun Dec  3 15:39:23 2023.
