 Gaussian 16, Revision B.01,
 Gaussian 16:  ES64L-G16RevB.01 20-Dec-2017

 -------------------------
 #P B3LYP/6-311+g(d) force
 -------------------------

 -----
 DPGEN
 -----
 Symbolic Z-matrix:
 Charge =  0 Multiplicity = 2

                         Standard orientation:
 ---------------------------------------------------------------------
 Center     Atomic      Atomic             Coordinates (Angstroms)
 Number     Number       Type             X           Y           Z
 ---------------------------------------------------------------------
      1         11           0        1.723714   -1.847996    2.168089
      2         11           0        3.368653   -0.597315   -0.370987
      3         11           0       -2.755891   -0.281253   -0.953183
      4         11           0        2.804001    2.711974   -0.094399
      5         11           0       -5.359495    0.605384    0.898961
      6         11           0        0.050709   -1.378195   -2.090300
      7         11           0        0.168308    0.787401    0.441820
 ---------------------------------------------------------------------

 SCF Done:  E(UB3LYP) =  -1136.10967023     A.U. after   25 cycles

 The electronic state is 2-A.
 Alpha  occ. eigenvalues --  -38.44954 -38.44701 -38.44679 -38.44665 -38.44162
 Alpha  occ. eigenvalues --  -38.43306 -38.42827  -2.20815  -2.20569  -2.20524
 Alpha  occ. eigenvalues --   -2.20504  -2.20018  -2.19178  -2.18658  -1.14524
 Alpha  occ. eigenvalues --   -1.14488  -1.14428  -1.14301  -1.14239  -1.14194
 Alpha  occ. eigenvalues --   -1.14169  -1.14151  -1.14141  -1.14136  -1.14123
 Alpha  occ. eigenvalues --   -1.14115  -1.13688  -1.13684  -1.13637  -1.12868
 Alpha  occ. eigenvalues --   -1.12846  -1.12831  -1.12325  -1.12316  -1.12306
 Alpha  occ. eigenvalues --   -0.17819  -0.14185  -0.11688  -0.11406
 Alpha virt. eigenvalues --   -0.07346  -0.05069  -0.04211  -0.03397  -0.03023
 Alpha virt. eigenvalues --   -0.02384  -0.02211  -0.01676  -0.01391  -0.00654
 Alpha virt. eigenvalues --   -0.00387  -0.00189   0.00118   0.00599   0.00740

  Beta  occ. eigenvalues --  -38.44950 -38.44675 -38.44603 -38.44575 -38.44131
  Beta  occ. eigenvalues --  -38.43301 -38.42827  -2.20811  -2.20590  -2.20329
  Beta  occ. eigenvalues --   -2.20321  -2.19963  -2.19178  -2.18658  -1.14494
  Beta  occ. eigenvalues --   -1.14491  -1.14428  -1.14277  -1.14264  -1.14218
  Beta  occ. eigenvalues --   -1.14041  -1.14019  -1.14016  -1.14012  -1.14003
  Beta  occ. eigenvalues --   -1.13992  -1.13649  -1.13640  -1.13603  -1.12879
  Beta  occ. eigenvalues --   -1.12853  -1.12766  -1.12333  -1.12309  -1.12305
  Beta  occ. eigenvalues --   -0.17391  -0.13315  -0.11060
  Beta virt. eigenvalues --   -0.08097  -0.07216  -0.04665  -0.03963  -0.03001
  Beta virt. eigenvalues --   -0.02826  -0.02149  -0.01890  -0.01301  -0.00906
  Beta virt. eigenvalues --   -0.00379  -0.00170   0.00006   0.00151   0.00660

 Mulliken charges and spin densities:
               1          2
     1  Na  -0.070403   0.260292
     2  Na   0.933416   0.241741
     3  Na  -0.301078   0.352227
     4  Na   0.421594  -0.096924
     5  Na   0.174542   0.380183
     6  Na   0.383559  -0.209711
     7  Na  -1.541629   0.072193
 Sum of Mulliken charges =  -0.00000   1.00000

 Dipole moment (field-independent basis, Debye):
    X=              0.5043    Y=             -0.8703    Z=             -0.0188  Tot=              1.0060
 Quadrupole moment (field-independent basis, Debye-Ang):
   XX=            -61.0112   YY=            -73.5927   ZZ=            -65.4201
   XY=             -3.8260   XZ=             -5.2157   YZ=              2.0058

 Normal termination of Gaussian 16 at Tue Nov 28 19:55:04 2023.
