 Gaussian 16, Revision B.01,
 Gaussian 16:  ES64L-G16RevB.01 20-Dec-2017

 -------------------------
 #P B3LYP/6-311+g(d) force
 -------------------------

 -----
 DPGEN
 -----
 Symbolic Z-matrix:
 Charge =  0 Multiplicity = 2

                         Standard orientation:
 ---------------------------------------------------------------------
 Center     Atomic      Atomic             Coordinates (Angstroms)
 Number     Number       Type             X           Y           Z
 ---------------------------------------------------------------------
      1         11           0        3.854394   -1.673469   -0.364777
      2         11           0       -1.260695    2.141150    0.515291
      3         11           0        2.727123    1.698827   -0.377248
      4         11           0        0.419972    0.073793    2.100879
      5         11           0       -2.609023   -1.662638    1.237495
      6         11           0       -3.313841   -0.072359   -1.715519
      7         11           0        0.182071   -0.505304   -1.396121
 ---------------------------------------------------------------------

 SCF Done:  E(UB3LYP) =  -1136.12281552     A.U. after   25 cycles

 The electronic state is 2-A.
 Alpha  occ. eigenvalues --  -38.44910 -38.44547 -38.44540 -38.44032 -38.43492
 Alpha  occ. eigenvalues --  -38.43310 -38.43133  -2.20714  -2.20390  -2.20364
 Alpha  occ. eigenvalues --   -2.19801  -2.19322  -2.19184  -2.19029  -1.14419
 Alpha  occ. eigenvalues --   -1.14375  -1.14312  -1.14111  -1.14073  -1.14038
 Alpha  occ. eigenvalues --   -1.14003  -1.13986  -1.13979  -1.13469  -1.13469
 Alpha  occ. eigenvalues --   -1.13423  -1.12986  -1.12979  -1.12958  -1.12914
 Alpha  occ. eigenvalues --   -1.12852  -1.12801  -1.12711  -1.12656  -1.12637
 Alpha  occ. eigenvalues --   -0.18048  -0.13803  -0.11339  -0.10834
 Alpha virt. eigenvalues --   -0.06376  -0.05869  -0.04599  -0.03034  -0.02777
 Alpha virt. eigenvalues --   -0.02447  -0.02304  -0.01335  -0.00919  -0.00357
 Alpha virt. eigenvalues --    0.00117   0.00209   0.00367   0.00467   0.00491

  Beta  occ. eigenvalues --  -38.44897 -38.44528 -38.44479 -38.44019 -38.43471
  Beta  occ. eigenvalues --  -38.43290 -38.43101  -2.20693  -2.20359  -2.20252
  Beta  occ. eigenvalues --   -2.19777  -2.19283  -2.19149  -2.18971  -1.14398
  Beta  occ. eigenvalues --   -1.14363  -1.14293  -1.14075  -1.14041  -1.13963
  Beta  occ. eigenvalues --   -1.13957  -1.13930  -1.13895  -1.13453  -1.13451
  Beta  occ. eigenvalues --   -1.13409  -1.12961  -1.12941  -1.12935  -1.12891
  Beta  occ. eigenvalues --   -1.12809  -1.12777  -1.12675  -1.12620  -1.12573
  Beta  occ. eigenvalues --   -0.17359  -0.13574  -0.10752
  Beta virt. eigenvalues --   -0.07477  -0.06207  -0.05413  -0.04240  -0.02750
  Beta virt. eigenvalues --   -0.02394  -0.02207  -0.01710  -0.01011  -0.00627
  Beta virt. eigenvalues --   -0.00238   0.00154   0.00313   0.00485   0.00537

 Mulliken charges and spin densities:
               1          2
     1  Na   0.129023   0.000584
     2  Na  -0.027305   0.207364
     3  Na   0.581180  -0.062672
     4  Na  -0.060034   0.383969
     5  Na  -0.036756   0.057359
     6  Na   0.383147   0.081140
     7  Na  -0.969257   0.332256
 Sum of Mulliken charges =  -0.00000   1.00000

 Dipole moment (field-independent basis, Debye):
    X=              0.3255    Y=              0.5166    Z=              0.2633  Tot=              0.6650
 Quadrupole moment (field-independent basis, Debye-Ang):
   XX=            -56.3596   YY=            -66.9399   ZZ=            -73.5027
   XY=              0.8051   XZ=              0.4976   YZ=             -5.6815

 Normal termination of Gaussian 16 at Thu Dec  7 16:07:24 2023.
