 Gaussian 16, Revision B.01,
 Gaussian 16:  ES64L-G16RevB.01 20-Dec-2017

 -------------------------
 #P B3LYP/6-311+g(d) force
 -------------------------

 -----
 DPGEN
 -----
 Symbolic Z-matrix:
 Charge =  0 Multiplicity = 2

                         Standard orientation:
 ---------------------------------------------------------------------
 Center     Atomic      Atomic             Coordinates (Angstroms)
 Number     Number       Type             X           Y           Z
 ---------------------------------------------------------------------
      1         11           0        2.890158   -1.681370    1.510101
      2         11           0        0.402127   -3.137425   -0.333383
      3         11           0       -2.220335    3.675994    0.159271
      4         11           0        3.924061    0.359283   -1.070000
      5         11           0       -3.339317    0.429156    0.411862
      6         11           0       -3.419062   -2.640530   -0.558142
      7         11           0        1.762368    2.994893   -0.119709
 ---------------------------------------------------------------------

 SCF Done:  E(UB3LYP) =  -1136.11177710     A.U. after   22 cycles

 The electronic state is 2-A.
 Alpha  occ. eigenvalues --  -38.45130 -38.45078 -38.44775 -38.44642 -38.44545
 Alpha  occ. eigenvalues --  -38.43560 -38.43496  -2.20882  -2.20815  -2.20568
 Alpha  occ. eigenvalues --   -2.20446  -2.20337  -2.19377  -2.19285  -1.14572
 Alpha  occ. eigenvalues --   -1.14562  -1.14506  -1.14497  -1.14492  -1.14430
 Alpha  occ. eigenvalues --   -1.14243  -1.14220  -1.14200  -1.14112  -1.14088
 Alpha  occ. eigenvalues --   -1.14074  -1.14024  -1.14008  -1.13986  -1.13039
 Alpha  occ. eigenvalues --   -1.13024  -1.13000  -1.12942  -1.12936  -1.12915
 Alpha  occ. eigenvalues --   -0.15723  -0.13974  -0.13016  -0.10645
 Alpha virt. eigenvalues --   -0.07082  -0.05487  -0.04465  -0.03268  -0.03037
 Alpha virt. eigenvalues --   -0.02405  -0.02195  -0.02028  -0.01488  -0.00982
 Alpha virt. eigenvalues --   -0.00381  -0.00071   0.00162   0.00516   0.00635

  Beta  occ. eigenvalues --  -38.45109 -38.45057 -38.44742 -38.44607 -38.44529
  Beta  occ. eigenvalues --  -38.43511 -38.43445  -2.20849  -2.20782  -2.20510
  Beta  occ. eigenvalues --   -2.20383  -2.20315  -2.19287  -2.19192  -1.14549
  Beta  occ. eigenvalues --   -1.14543  -1.14486  -1.14474  -1.14452  -1.14383
  Beta  occ. eigenvalues --   -1.14207  -1.14185  -1.14140  -1.14070  -1.14046
  Beta  occ. eigenvalues --   -1.14017  -1.14014  -1.14000  -1.13926  -1.12976
  Beta  occ. eigenvalues --   -1.12963  -1.12943  -1.12879  -1.12869  -1.12855
  Beta  occ. eigenvalues --   -0.15202  -0.13259  -0.12271
  Beta virt. eigenvalues --   -0.07481  -0.07250  -0.05156  -0.04127  -0.02952
  Beta virt. eigenvalues --   -0.02642  -0.02116  -0.01976  -0.01797  -0.01303
  Beta virt. eigenvalues --   -0.00783  -0.00097   0.00189   0.00298   0.00516

 Mulliken charges and spin densities:
               1          2
     1  Na   0.238443   0.156317
     2  Na  -0.480124   0.055152
     3  Na   0.344290   0.241581
     4  Na   0.358700   0.154135
     5  Na  -0.815449   0.106398
     6  Na   0.681539   0.238028
     7  Na  -0.327398   0.048388
 Sum of Mulliken charges =  -0.00000   1.00000

 Dipole moment (field-independent basis, Debye):
    X=              1.4205    Y=             -0.6352    Z=             -0.0432  Tot=              1.5566
 Quadrupole moment (field-independent basis, Debye-Ang):
   XX=            -64.5471   YY=            -68.0561   ZZ=            -68.4396
   XY=             -0.3072   XZ=              0.0098   YZ=              2.5400

 Normal termination of Gaussian 16 at Sun Dec  3 17:30:38 2023.
