 Gaussian 16, Revision B.01,
 Gaussian 16:  ES64L-G16RevB.01 20-Dec-2017

 -------------------------
 #P B3LYP/6-311+g(d) force
 -------------------------

 -----
 DPGEN
 -----
 Symbolic Z-matrix:
 Charge =  0 Multiplicity = 2

                         Standard orientation:
 ---------------------------------------------------------------------
 Center     Atomic      Atomic             Coordinates (Angstroms)
 Number     Number       Type             X           Y           Z
 ---------------------------------------------------------------------
      1         11           0       -3.284803    0.285397   -0.194883
      2         11           0       -1.120660    2.368526    0.135687
      3         11           0       -1.793250   -2.365417    0.258770
      4         11           0        0.018757   -0.214905   -1.819747
      5         11           0        2.685035    1.823398   -0.049486
      6         11           0        0.370367   -0.139940    1.842283
      7         11           0        3.124554   -1.757059   -0.172623
 ---------------------------------------------------------------------

 SCF Done:  E(UB3LYP) =  -1136.12727109     A.U. after   23 cycles

 The electronic state is 2-A.
 Alpha  occ. eigenvalues --  -38.44707 -38.44669 -38.44504 -38.43852 -38.43466
 Alpha  occ. eigenvalues --  -38.43376 -38.42710  -2.20563  -2.20475  -2.20303
 Alpha  occ. eigenvalues --   -2.19742  -2.19374  -2.19241  -2.18613  -1.14261
 Alpha  occ. eigenvalues --   -1.14224  -1.14201  -1.14148  -1.14132  -1.14119
 Alpha  occ. eigenvalues --   -1.13984  -1.13962  -1.13933  -1.13437  -1.13381
 Alpha  occ. eigenvalues --   -1.13351  -1.13062  -1.13006  -1.12994  -1.12913
 Alpha  occ. eigenvalues --   -1.12890  -1.12886  -1.12303  -1.12265  -1.12257
 Alpha  occ. eigenvalues --   -0.18567  -0.13762  -0.11635  -0.10603
 Alpha virt. eigenvalues --   -0.06502  -0.05873  -0.03821  -0.03484  -0.02488
 Alpha virt. eigenvalues --   -0.02474  -0.02165  -0.01471  -0.00596  -0.00093
 Alpha virt. eigenvalues --   -0.00065   0.00277   0.00608   0.00721   0.00754

  Beta  occ. eigenvalues --  -38.44706 -38.44666 -38.44501 -38.43781 -38.43381
  Beta  occ. eigenvalues --  -38.43368 -38.42702  -2.20559  -2.20475  -2.20301
  Beta  occ. eigenvalues --   -2.19611  -2.19231  -2.19217  -2.18603  -1.14265
  Beta  occ. eigenvalues --   -1.14224  -1.14175  -1.14137  -1.14131  -1.14121
  Beta  occ. eigenvalues --   -1.13964  -1.13962  -1.13933  -1.13348  -1.13288
  Beta  occ. eigenvalues --   -1.13254  -1.12961  -1.12915  -1.12900  -1.12883
  Beta  occ. eigenvalues --   -1.12872  -1.12844  -1.12300  -1.12255  -1.12222
  Beta  occ. eigenvalues --   -0.17831  -0.13566  -0.11389
  Beta virt. eigenvalues --   -0.06742  -0.06383  -0.05878  -0.03733  -0.02803
  Beta virt. eigenvalues --   -0.02096  -0.01747  -0.01484  -0.01312  -0.00646
  Beta virt. eigenvalues --   -0.00109   0.00091   0.00305   0.00688   0.00754

 Mulliken charges and spin densities:
               1          2
     1  Na   0.172880   0.070383
     2  Na   0.041779   0.006140
     3  Na   0.251752  -0.013100
     4  Na  -0.322104   0.518496
     5  Na   0.060683  -0.036410
     6  Na  -0.217415   0.538104
     7  Na   0.012425  -0.083615
 Sum of Mulliken charges =  -0.00000   1.00000

 Dipole moment (field-independent basis, Debye):
    X=              0.7136    Y=             -0.1358    Z=             -0.1192  Tot=              0.7361
 Quadrupole moment (field-independent basis, Debye-Ang):
   XX=            -49.5548   YY=            -68.3100   ZZ=            -75.2039
   XY=             -0.0179   XZ=             -0.2419   YZ=             -0.2355

 Normal termination of Gaussian 16 at Tue Dec  5 11:23:12 2023.
