 Gaussian 16, Revision B.01,
 Gaussian 16:  ES64L-G16RevB.01 20-Dec-2017

 -------------------------
 #P B3LYP/6-311+g(d) force
 -------------------------

 -----
 DPGEN
 -----
 Symbolic Z-matrix:
 Charge =  0 Multiplicity = 2

                         Standard orientation:
 ---------------------------------------------------------------------
 Center     Atomic      Atomic             Coordinates (Angstroms)
 Number     Number       Type             X           Y           Z
 ---------------------------------------------------------------------
      1         11           0        0.404708    3.269999    0.095494
      2         11           0       -3.346389   -2.029984   -0.570358
      3         11           0       -2.882467    1.312529   -0.286088
      4         11           0        0.330700   -0.639556   -1.858816
      5         11           0        2.421787   -1.232918    1.615914
      6         11           0       -1.095032   -0.322674    1.948669
      7         11           0        4.166694   -0.357396   -0.944816
 ---------------------------------------------------------------------

 SCF Done:  E(UB3LYP) =  -1136.11506951     A.U. after   25 cycles

 The electronic state is 2-A.
 Alpha  occ. eigenvalues --  -38.45987 -38.44994 -38.44496 -38.44487 -38.44374
 Alpha  occ. eigenvalues --  -38.43422 -38.42780  -2.21729  -2.20775  -2.20334
 Alpha  occ. eigenvalues --   -2.20328  -2.20194  -2.19222  -2.18526  -1.15422
 Alpha  occ. eigenvalues --   -1.15385  -1.15331  -1.14456  -1.14432  -1.14410
 Alpha  occ. eigenvalues --   -1.14077  -1.14018  -1.14010  -1.13946  -1.13934
 Alpha  occ. eigenvalues --   -1.13916  -1.13862  -1.13847  -1.13818  -1.12900
 Alpha  occ. eigenvalues --   -1.12883  -1.12862  -1.12202  -1.12193  -1.12159
 Alpha  occ. eigenvalues --   -0.17296  -0.13824  -0.11336  -0.10801
 Alpha virt. eigenvalues --   -0.07094  -0.05314  -0.05019  -0.03289  -0.02996
 Alpha virt. eigenvalues --   -0.02702  -0.02223  -0.01349  -0.01098  -0.00568
 Alpha virt. eigenvalues --   -0.00060   0.00070   0.00128   0.00388   0.00722

  Beta  occ. eigenvalues --  -38.45936 -38.44991 -38.44490 -38.44414 -38.44329
  Beta  occ. eigenvalues --  -38.43422 -38.42780  -2.21634  -2.20769  -2.20324
  Beta  occ. eigenvalues --   -2.20195  -2.20113  -2.19224  -2.18526  -1.15352
  Beta  occ. eigenvalues --   -1.15319  -1.15259  -1.14452  -1.14428  -1.14400
  Beta  occ. eigenvalues --   -1.14052  -1.14001  -1.13923  -1.13916  -1.13856
  Beta  occ. eigenvalues --   -1.13840  -1.13806  -1.13793  -1.13746  -1.12901
  Beta  occ. eigenvalues --   -1.12879  -1.12864  -1.12197  -1.12194  -1.12160
  Beta  occ. eigenvalues --   -0.16603  -0.13747  -0.10715
  Beta virt. eigenvalues --   -0.07419  -0.06756  -0.05056  -0.04601  -0.03105
  Beta virt. eigenvalues --   -0.02564  -0.02137  -0.01790  -0.01112  -0.00762
  Beta virt. eigenvalues --   -0.00555   0.00055   0.00181   0.00239   0.00486

 Mulliken charges and spin densities:
               1          2
     1  Na  -0.247894  -0.043743
     2  Na   0.226215  -0.018235
     3  Na   0.427678   0.139388
     4  Na  -0.432810   0.429418
     5  Na  -0.066896   0.117207
     6  Na  -0.230001   0.362547
     7  Na   0.323709   0.013418
 Sum of Mulliken charges =  -0.00000   1.00000

 Dipole moment (field-independent basis, Debye):
    X=              0.8111    Y=             -0.4924    Z=             -0.5697  Tot=              1.1068
 Quadrupole moment (field-independent basis, Debye-Ang):
   XX=            -52.3489   YY=            -76.3991   ZZ=            -69.3778
   XY=              0.9584   XZ=             -1.4537   YZ=             -0.7808

 Normal termination of Gaussian 16 at Mon Dec  4 02:42:02 2023.
