 Gaussian 16, Revision B.01,
 Gaussian 16:  ES64L-G16RevB.01 20-Dec-2017

 -------------------------
 #P B3LYP/6-311+g(d) force
 -------------------------

 -----
 DPGEN
 -----
 Symbolic Z-matrix:
 Charge =  0 Multiplicity = 2

                         Standard orientation:
 ---------------------------------------------------------------------
 Center     Atomic      Atomic             Coordinates (Angstroms)
 Number     Number       Type             X           Y           Z
 ---------------------------------------------------------------------
      1         11           0        2.288686   -2.092607    0.081941
      2         11           0       -3.055324    0.084538    0.137549
      3         11           0        0.069588   -0.007790   -1.679713
      4         11           0        2.683156    1.158684   -0.110654
      5         11           0        0.273928    0.433131    1.775707
      6         11           0       -1.556733   -2.482690   -0.018786
      7         11           0       -0.703301    2.906734   -0.186045
 ---------------------------------------------------------------------

 SCF Done:  E(UB3LYP) =  -1136.13613412     A.U. after   20 cycles

 The electronic state is 2-A.
 Alpha  occ. eigenvalues --  -38.44013 -38.43981 -38.43744 -38.43475 -38.43339
 Alpha  occ. eigenvalues --  -38.43184 -38.42997  -2.19891  -2.19886  -2.19587
 Alpha  occ. eigenvalues --   -2.19351  -2.19198  -2.19150  -2.18992  -1.13621
 Alpha  occ. eigenvalues --   -1.13601  -1.13568  -1.13539  -1.13517  -1.13510
 Alpha  occ. eigenvalues --   -1.13252  -1.13247  -1.13230  -1.13026  -1.13003
 Alpha  occ. eigenvalues --   -1.12981  -1.12905  -1.12876  -1.12830  -1.12822
 Alpha  occ. eigenvalues --   -1.12781  -1.12744  -1.12670  -1.12623  -1.12601
 Alpha  occ. eigenvalues --   -0.19005  -0.13405  -0.12480  -0.10536
 Alpha virt. eigenvalues --   -0.05597  -0.05298  -0.04701  -0.03235  -0.02745
 Alpha virt. eigenvalues --   -0.02245  -0.01491  -0.01204  -0.00334  -0.00294
 Alpha virt. eigenvalues --    0.00027   0.00368   0.00821   0.00869   0.00913

  Beta  occ. eigenvalues --  -38.44010 -38.43970 -38.43740 -38.43472 -38.43332
  Beta  occ. eigenvalues --  -38.43106 -38.42920  -2.19883  -2.19877  -2.19584
  Beta  occ. eigenvalues --   -2.19348  -2.19189  -2.19007  -2.18852  -1.13622
  Beta  occ. eigenvalues --   -1.13594  -1.13522  -1.13519  -1.13513  -1.13503
  Beta  occ. eigenvalues --   -1.13248  -1.13234  -1.13221  -1.13024  -1.12989
  Beta  occ. eigenvalues --   -1.12973  -1.12889  -1.12840  -1.12825  -1.12735
  Beta  occ. eigenvalues --   -1.12679  -1.12647  -1.12575  -1.12521  -1.12500
  Beta  occ. eigenvalues --   -0.18276  -0.13153  -0.12236
  Beta virt. eigenvalues --   -0.06622  -0.05559  -0.05293  -0.04681  -0.02411
  Beta virt. eigenvalues --   -0.01990  -0.01406  -0.01217  -0.01135  -0.00379
  Beta virt. eigenvalues --   -0.00352   0.00163   0.00391   0.00857   0.00882

 Mulliken charges and spin densities:
               1          2
     1  Na   0.002011  -0.081312
     2  Na   0.071731  -0.041244
     3  Na  -0.318041   0.659833
     4  Na   0.445742  -0.052987
     5  Na  -0.417330   0.707879
     6  Na   0.024366  -0.088116
     7  Na   0.191521  -0.104052
 Sum of Mulliken charges =  -0.00000   1.00000

 Dipole moment (field-independent basis, Debye):
    X=              0.1239    Y=              0.0619    Z=              0.0451  Tot=              0.1456
 Quadrupole moment (field-independent basis, Debye-Ang):
   XX=            -56.4434   YY=            -61.0643   ZZ=            -75.6582
   XY=             -1.1526   XZ=             -0.4729   YZ=             -1.0133

 Normal termination of Gaussian 16 at Sun Dec  3 11:55:11 2023.
