 Gaussian 16, Revision B.01,
 Gaussian 16:  ES64L-G16RevB.01 20-Dec-2017

 -------------------------
 #P B3LYP/6-311+g(d) force
 -------------------------

 -----
 DPGEN
 -----
 Symbolic Z-matrix:
 Charge =  0 Multiplicity = 2

                         Standard orientation:
 ---------------------------------------------------------------------
 Center     Atomic      Atomic             Coordinates (Angstroms)
 Number     Number       Type             X           Y           Z
 ---------------------------------------------------------------------
      1         11           0       -3.455054   -1.198743   -1.296220
      2         11           0        2.521113    1.967106   -0.379936
      3         11           0       -1.367900    2.036372   -0.814973
      4         11           0        1.443929   -0.355423    2.205248
      5         11           0        3.631341   -1.554485   -0.758975
      6         11           0       -3.039962   -0.024530    1.615627
      7         11           0        0.266534   -0.870297   -0.570771
 ---------------------------------------------------------------------

 SCF Done:  E(UB3LYP) =  -1136.11342794     A.U. after   31 cycles

 The electronic state is 2-A.
 Alpha  occ. eigenvalues --  -38.45419 -38.44615 -38.44470 -38.44338 -38.44052
 Alpha  occ. eigenvalues --  -38.43862 -38.42849  -2.21233  -2.20469  -2.20297
 Alpha  occ. eigenvalues --   -2.20265  -2.19854  -2.19671  -2.18677  -1.14899
 Alpha  occ. eigenvalues --   -1.14892  -1.14877  -1.14242  -1.14097  -1.14050
 Alpha  occ. eigenvalues --   -1.13979  -1.13965  -1.13947  -1.13927  -1.13905
 Alpha  occ. eigenvalues --   -1.13872  -1.13547  -1.13510  -1.13473  -1.13344
 Alpha  occ. eigenvalues --   -1.13330  -1.13290  -1.12388  -1.12355  -1.12273
 Alpha  occ. eigenvalues --   -0.17994  -0.14531  -0.10882  -0.10400
 Alpha virt. eigenvalues --   -0.06946  -0.06096  -0.05019  -0.03136  -0.02785
 Alpha virt. eigenvalues --   -0.02223  -0.02040  -0.01400  -0.00954  -0.00599
 Alpha virt. eigenvalues --   -0.00097   0.00113   0.00242   0.00261   0.00461

  Beta  occ. eigenvalues --  -38.45402 -38.44536 -38.44447 -38.44322 -38.44044
  Beta  occ. eigenvalues --  -38.43840 -38.42843  -2.21202  -2.20324  -2.20253
  Beta  occ. eigenvalues --   -2.20241  -2.19841  -2.19629  -2.18669  -1.14879
  Beta  occ. eigenvalues --   -1.14867  -1.14845  -1.14152  -1.13997  -1.13944
  Beta  occ. eigenvalues --   -1.13934  -1.13918  -1.13908  -1.13896  -1.13892
  Beta  occ. eigenvalues --   -1.13856  -1.13526  -1.13503  -1.13464  -1.13313
  Beta  occ. eigenvalues --   -1.13295  -1.13266  -1.12380  -1.12340  -1.12268
  Beta  occ. eigenvalues --   -0.17365  -0.14317  -0.10276
  Beta virt. eigenvalues --   -0.07229  -0.06656  -0.05695  -0.04587  -0.02777
  Beta virt. eigenvalues --   -0.02665  -0.01670  -0.01614  -0.01191  -0.00534
  Beta virt. eigenvalues --   -0.00383   0.00037   0.00192   0.00337   0.00377

 Mulliken charges and spin densities:
               1          2
     1  Na   1.077597  -0.076943
     2  Na   0.115409   0.063554
     3  Na  -0.097262   0.010421
     4  Na   0.096181   0.417011
     5  Na   0.937977   0.269892
     6  Na   0.422132   0.072904
     7  Na  -2.552035   0.243161
 Sum of Mulliken charges =  -0.00000   1.00000

 Dipole moment (field-independent basis, Debye):
    X=             -0.4096    Y=              0.2338    Z=              0.4471  Tot=              0.6499
 Quadrupole moment (field-independent basis, Debye-Ang):
   XX=            -50.2508   YY=            -78.5480   ZZ=            -66.8890
   XY=              1.6388   XZ=             -0.5747   YZ=              3.8773

 Normal termination of Gaussian 16 at Wed Dec  6 00:37:04 2023.
