 Gaussian 16, Revision B.01,
 Gaussian 16:  ES64L-G16RevB.01 20-Dec-2017

 -------------------------
 #P B3LYP/6-311+g(d) force
 -------------------------

 -----
 DPGEN
 -----
 Symbolic Z-matrix:
 Charge =  0 Multiplicity = 2

                         Standard orientation:
 ---------------------------------------------------------------------
 Center     Atomic      Atomic             Coordinates (Angstroms)
 Number     Number       Type             X           Y           Z
 ---------------------------------------------------------------------
      1         11           0        1.757312    2.410024   -0.255192
      2         11           0       -1.704502    2.632296   -0.339441
      3         11           0       -0.203182    0.279040    2.304560
      4         11           0       -0.271088   -0.204521   -1.352349
      5         11           0        0.183862   -3.075585   -0.108442
      6         11           0        3.330669   -0.855486   -0.121291
      7         11           0       -3.093071   -1.185768   -0.127845
 ---------------------------------------------------------------------

 SCF Done:  E(UB3LYP) =  -1136.13396676     A.U. after   19 cycles

 The electronic state is 2-A.
 Alpha  occ. eigenvalues --  -38.44276 -38.44026 -38.43998 -38.43777 -38.43697
 Alpha  occ. eigenvalues --  -38.43686 -38.43020  -2.20079  -2.19812  -2.19795
 Alpha  occ. eigenvalues --   -2.19605  -2.19532  -2.19514  -2.19014  -1.13771
 Alpha  occ. eigenvalues --   -1.13735  -1.13709  -1.13528  -1.13475  -1.13471
 Alpha  occ. eigenvalues --   -1.13452  -1.13443  -1.13416  -1.13295  -1.13264
 Alpha  occ. eigenvalues --   -1.13246  -1.13197  -1.13188  -1.13176  -1.13151
 Alpha  occ. eigenvalues --   -1.13147  -1.13135  -1.12706  -1.12661  -1.12641
 Alpha  occ. eigenvalues --   -0.18101  -0.12728  -0.12484  -0.10498
 Alpha virt. eigenvalues --   -0.05826  -0.05352  -0.05010  -0.02915  -0.02734
 Alpha virt. eigenvalues --   -0.02573  -0.01643  -0.01380  -0.00756  -0.00616
 Alpha virt. eigenvalues --   -0.00036   0.00302   0.00759   0.00783   0.00831

  Beta  occ. eigenvalues --  -38.44273 -38.44028 -38.43995 -38.43770 -38.43681
  Beta  occ. eigenvalues --  -38.43580 -38.42980  -2.20076  -2.19809  -2.19799
  Beta  occ. eigenvalues --   -2.19594  -2.19507  -2.19315  -2.18942  -1.13763
  Beta  occ. eigenvalues --   -1.13721  -1.13710  -1.13523  -1.13464  -1.13459
  Beta  occ. eigenvalues --   -1.13457  -1.13447  -1.13418  -1.13283  -1.13244
  Beta  occ. eigenvalues --   -1.13235  -1.13188  -1.13159  -1.13133  -1.13036
  Beta  occ. eigenvalues --   -1.13000  -1.12997  -1.12647  -1.12609  -1.12589
  Beta  occ. eigenvalues --   -0.17423  -0.12533  -0.12314
  Beta virt. eigenvalues --   -0.06477  -0.05824  -0.05347  -0.04921  -0.02170
  Beta virt. eigenvalues --   -0.02073  -0.01580  -0.01436  -0.01301  -0.00788
  Beta virt. eigenvalues --   -0.00657   0.00154   0.00359   0.00780   0.00826

 Mulliken charges and spin densities:
               1          2
     1  Na   0.171452   0.034223
     2  Na   0.319302   0.034285
     3  Na  -0.604867   0.806206
     4  Na  -0.311642   0.121232
     5  Na   0.172292   0.010689
     6  Na   0.004710  -0.010363
     7  Na   0.248753   0.003729
 Sum of Mulliken charges =  -0.00000   1.00000

 Dipole moment (field-independent basis, Debye):
    X=             -0.2655    Y=             -0.1783    Z=              0.0965  Tot=              0.3340
 Quadrupole moment (field-independent basis, Debye-Ang):
   XX=            -55.9835   YY=            -59.9295   ZZ=            -76.7006
   XY=             -0.1696   XZ=              0.0329   YZ=             -1.0775

 Normal termination of Gaussian 16 at Thu Dec  7 19:16:56 2023.
