 Gaussian 16, Revision B.01,
 Gaussian 16:  ES64L-G16RevB.01 20-Dec-2017

 -------------------------
 #P B3LYP/6-311+g(d) force
 -------------------------

 -----
 DPGEN
 -----
 Symbolic Z-matrix:
 Charge =  0 Multiplicity = 2

                         Standard orientation:
 ---------------------------------------------------------------------
 Center     Atomic      Atomic             Coordinates (Angstroms)
 Number     Number       Type             X           Y           Z
 ---------------------------------------------------------------------
      1         11           0       -0.145114    3.630673   -0.261172
      2         11           0        1.628304   -1.946876   -0.256213
      3         11           0       -3.288160    2.043912   -0.533396
      4         11           0        3.198630    1.765923    0.747125
      5         11           0       -2.064443   -3.277533   -0.196428
      6         11           0        4.898910   -1.245430   -0.225207
      7         11           0       -4.228127   -0.970669    0.725290
 ---------------------------------------------------------------------

 SCF Done:  E(UB3LYP) =  -1136.11164240     A.U. after   23 cycles

 The electronic state is 2-A.
 Alpha  occ. eigenvalues --  -38.45932 -38.45521 -38.44313 -38.44302 -38.44180
 Alpha  occ. eigenvalues --  -38.43752 -38.43668  -2.21682  -2.21286  -2.20128
 Alpha  occ. eigenvalues --   -2.20117  -2.19964  -2.19544  -2.19427  -1.15377
 Alpha  occ. eigenvalues --   -1.15355  -1.15284  -1.14983  -1.14977  -1.14884
 Alpha  occ. eigenvalues --   -1.13790  -1.13790  -1.13788  -1.13776  -1.13770
 Alpha  occ. eigenvalues --   -1.13741  -1.13643  -1.13634  -1.13582  -1.13211
 Alpha  occ. eigenvalues --   -1.13199  -1.13179  -1.13110  -1.13099  -1.13056
 Alpha  occ. eigenvalues --   -0.15848  -0.14237  -0.12709  -0.10676
 Alpha virt. eigenvalues --   -0.07518  -0.05439  -0.04264  -0.03728  -0.03122
 Alpha virt. eigenvalues --   -0.02606  -0.02350  -0.01679  -0.01168  -0.00730
 Alpha virt. eigenvalues --   -0.00489  -0.00382   0.00294   0.00314   0.00522

  Beta  occ. eigenvalues --  -38.45898 -38.45489 -38.44300 -38.44249 -38.44160
  Beta  occ. eigenvalues --  -38.43726 -38.43662  -2.21624  -2.21231  -2.20096
  Beta  occ. eigenvalues --   -2.20030  -2.19929  -2.19495  -2.19415  -1.15341
  Beta  occ. eigenvalues --   -1.15318  -1.15214  -1.14950  -1.14938  -1.14814
  Beta  occ. eigenvalues --   -1.13778  -1.13773  -1.13740  -1.13719  -1.13708
  Beta  occ. eigenvalues --   -1.13680  -1.13620  -1.13612  -1.13553  -1.13180
  Beta  occ. eigenvalues --   -1.13170  -1.13137  -1.13102  -1.13093  -1.13042
  Beta  occ. eigenvalues --   -0.15282  -0.13867  -0.12318
  Beta virt. eigenvalues --   -0.07455  -0.07206  -0.04951  -0.03859  -0.03565
  Beta virt. eigenvalues --   -0.02652  -0.02440  -0.02127  -0.01521  -0.00991
  Beta virt. eigenvalues --   -0.00387  -0.00230  -0.00144   0.00320   0.00429

 Mulliken charges and spin densities:
               1          2
     1  Na   0.100643   0.007860
     2  Na  -1.563741   0.356015
     3  Na  -0.138991   0.135391
     4  Na  -0.109975   0.222432
     5  Na   0.198371  -0.294195
     6  Na   1.650329   0.508541
     7  Na  -0.136636   0.063957
 Sum of Mulliken charges =  -0.00000   1.00000

 Dipole moment (field-independent basis, Debye):
    X=              1.6866    Y=             -0.3390    Z=              0.1988  Tot=              1.7318
 Quadrupole moment (field-independent basis, Debye-Ang):
   XX=            -56.3448   YY=            -70.3512   ZZ=            -71.5765
   XY=              2.4415   XZ=              0.1761   YZ=              0.8607

 Normal termination of Gaussian 16 at Mon Dec  4 03:29:41 2023.
