 Gaussian 16, Revision B.01,
 Gaussian 16:  ES64L-G16RevB.01 20-Dec-2017

 -------------------------
 #P B3LYP/6-311+g(d) force
 -------------------------

 -----
 DPGEN
 -----
 Symbolic Z-matrix:
 Charge =  0 Multiplicity = 2

                         Standard orientation:
 ---------------------------------------------------------------------
 Center     Atomic      Atomic             Coordinates (Angstroms)
 Number     Number       Type             X           Y           Z
 ---------------------------------------------------------------------
      1         11           0        2.799041    1.183883   -0.173036
      2         11           0        2.870791   -2.392058    0.042622
      3         11           0       -2.832263    1.449528   -0.141850
      4         11           0        0.311308   -0.374808    1.903513
      5         11           0       -3.346342   -2.109158    0.196910
      6         11           0       -0.019231   -0.981466   -1.791758
      7         11           0        0.216697    3.224078   -0.036401
 ---------------------------------------------------------------------

 SCF Done:  E(UB3LYP) =  -1136.12535612     A.U. after   21 cycles

 The electronic state is 2-A.
 Alpha  occ. eigenvalues --  -38.44734 -38.44640 -38.44447 -38.44445 -38.44029
 Alpha  occ. eigenvalues --  -38.43869 -38.42967  -2.20478  -2.20416  -2.20277
 Alpha  occ. eigenvalues --   -2.20230  -2.19837  -2.19698  -2.18780  -1.14149
 Alpha  occ. eigenvalues --   -1.14147  -1.14118  -1.14101  -1.14087  -1.14034
 Alpha  occ. eigenvalues --   -1.13960  -1.13952  -1.13922  -1.13896  -1.13891
 Alpha  occ. eigenvalues --   -1.13860  -1.13522  -1.13489  -1.13438  -1.13374
 Alpha  occ. eigenvalues --   -1.13332  -1.13310  -1.12455  -1.12438  -1.12434
 Alpha  occ. eigenvalues --   -0.17522  -0.13250  -0.12056  -0.10080
 Alpha virt. eigenvalues --   -0.06510  -0.06177  -0.04650  -0.03283  -0.02588
 Alpha virt. eigenvalues --   -0.02305  -0.02130  -0.01677  -0.01156  -0.00513
 Alpha virt. eigenvalues --   -0.00101   0.00268   0.00583   0.00607   0.00661

  Beta  occ. eigenvalues --  -38.44739 -38.44638 -38.44448 -38.44438 -38.43958
  Beta  occ. eigenvalues --  -38.43782 -38.42966  -2.20488  -2.20413  -2.20266
  Beta  occ. eigenvalues --   -2.20235  -2.19708  -2.19539  -2.18781  -1.14157
  Beta  occ. eigenvalues --   -1.14145  -1.14125  -1.14087  -1.14085  -1.14037
  Beta  occ. eigenvalues --   -1.13955  -1.13926  -1.13916  -1.13899  -1.13870
  Beta  occ. eigenvalues --   -1.13864  -1.13432  -1.13396  -1.13345  -1.13263
  Beta  occ. eigenvalues --   -1.13219  -1.13197  -1.12456  -1.12437  -1.12425
  Beta  occ. eigenvalues --   -0.16840  -0.13138  -0.11886
  Beta virt. eigenvalues --   -0.06525  -0.06249  -0.05952  -0.04627  -0.02605
  Beta virt. eigenvalues --   -0.02046  -0.01929  -0.01703  -0.01257  -0.01178
  Beta virt. eigenvalues --   -0.00503   0.00107   0.00313   0.00614   0.00677

 Mulliken charges and spin densities:
               1          2
     1  Na   0.200448   0.141916
     2  Na   0.357592   0.014125
     3  Na   0.049028   0.040164
     4  Na  -0.248070   0.553782
     5  Na   0.171371  -0.070227
     6  Na  -0.277935   0.421287
     7  Na  -0.252434  -0.101047
 Sum of Mulliken charges =  -0.00000   1.00000

 Dipole moment (field-independent basis, Debye):
    X=             -0.0912    Y=             -0.8124    Z=             -0.0022  Tot=              0.8175
 Quadrupole moment (field-independent basis, Debye-Ang):
   XX=            -52.2945   YY=            -62.6779   ZZ=            -78.2699
   XY=             -0.8195   XZ=             -0.6592   YZ=             -1.0947

 Normal termination of Gaussian 16 at Fri Dec  8 03:25:39 2023.
