 Gaussian 16, Revision B.01,
 Gaussian 16:  ES64L-G16RevB.01 20-Dec-2017

 -------------------------
 #P B3LYP/6-311+g(d) force
 -------------------------

 -----
 DPGEN
 -----
 Symbolic Z-matrix:
 Charge =  0 Multiplicity = 2

                         Standard orientation:
 ---------------------------------------------------------------------
 Center     Atomic      Atomic             Coordinates (Angstroms)
 Number     Number       Type             X           Y           Z
 ---------------------------------------------------------------------
      1         11           0       -2.806891    1.951518    0.452270
      2         11           0        2.013689   -2.299267    0.506439
      3         11           0        4.093283    0.192213   -0.347202
      4         11           0       -0.934864   -1.512665   -1.386492
      5         11           0        1.179685    2.530458   -1.051493
      6         11           0        0.428559    0.339730    2.015562
      7         11           0       -3.973462   -1.201987   -0.189084
 ---------------------------------------------------------------------

 SCF Done:  E(UB3LYP) =  -1136.11464127     A.U. after   23 cycles

 The electronic state is 2-A.
 Alpha  occ. eigenvalues --  -38.44875 -38.44785 -38.44687 -38.44310 -38.44138
 Alpha  occ. eigenvalues --  -38.44118 -38.43492  -2.20670  -2.20575  -2.20452
 Alpha  occ. eigenvalues --   -2.20123  -2.19966  -2.19864  -2.19332  -1.14332
 Alpha  occ. eigenvalues --   -1.14316  -1.14294  -1.14260  -1.14244  -1.14209
 Alpha  occ. eigenvalues --   -1.14138  -1.14113  -1.14089  -1.13778  -1.13774
 Alpha  occ. eigenvalues --   -1.13762  -1.13633  -1.13609  -1.13579  -1.13565
 Alpha  occ. eigenvalues --   -1.13526  -1.13486  -1.12997  -1.12991  -1.12983
 Alpha  occ. eigenvalues --   -0.17177  -0.13964  -0.11524  -0.10572
 Alpha virt. eigenvalues --   -0.07387  -0.05825  -0.04116  -0.03469  -0.03249
 Alpha virt. eigenvalues --   -0.02514  -0.02123  -0.01860  -0.00783  -0.00444
 Alpha virt. eigenvalues --   -0.00225  -0.00168   0.00274   0.00531   0.00591

  Beta  occ. eigenvalues --  -38.44818 -38.44777 -38.44682 -38.44291 -38.44114
  Beta  occ. eigenvalues --  -38.44051 -38.43479  -2.20565  -2.20561  -2.20443
  Beta  occ. eigenvalues --   -2.20088  -2.19858  -2.19805  -2.19310  -1.14259
  Beta  occ. eigenvalues --   -1.14253  -1.14242  -1.14232  -1.14222  -1.14190
  Beta  occ. eigenvalues --   -1.14130  -1.14109  -1.14075  -1.13751  -1.13749
  Beta  occ. eigenvalues --   -1.13741  -1.13564  -1.13532  -1.13522  -1.13500
  Beta  occ. eigenvalues --   -1.13467  -1.13454  -1.12981  -1.12975  -1.12952
  Beta  occ. eigenvalues --   -0.16616  -0.13532  -0.11290
  Beta virt. eigenvalues --   -0.07244  -0.07039  -0.05534  -0.03747  -0.03074
  Beta virt. eigenvalues --   -0.02956  -0.02323  -0.01664  -0.01401  -0.00654
  Beta virt. eigenvalues --   -0.00247  -0.00142   0.00001   0.00418   0.00625

 Mulliken charges and spin densities:
               1          2
     1  Na   0.011369   0.019151
     2  Na   0.448591   0.156744
     3  Na  -0.121557   0.263614
     4  Na  -0.398113   0.065763
     5  Na  -0.039955   0.068666
     6  Na  -0.129211   0.363927
     7  Na   0.228877   0.062136
 Sum of Mulliken charges =  -0.00000   1.00000

 Dipole moment (field-independent basis, Debye):
    X=             -0.5436    Y=             -0.0864    Z=              0.2795  Tot=              0.6174
 Quadrupole moment (field-independent basis, Debye-Ang):
   XX=            -55.5642   YY=            -73.7686   ZZ=            -70.2958
   XY=             -4.1729   XZ=             -0.9082   YZ=             -1.2688

 Normal termination of Gaussian 16 at Mon Dec  4 02:39:35 2023.
