 Gaussian 16, Revision B.01,
 Gaussian 16:  ES64L-G16RevB.01 20-Dec-2017

 -------------------------
 #P B3LYP/6-311+g(d) force
 -------------------------

 -----
 DPGEN
 -----
 Symbolic Z-matrix:
 Charge =  0 Multiplicity = 2

                         Standard orientation:
 ---------------------------------------------------------------------
 Center     Atomic      Atomic             Coordinates (Angstroms)
 Number     Number       Type             X           Y           Z
 ---------------------------------------------------------------------
      1         11           0       -0.475204   -0.220403    1.750172
      2         11           0       -2.272187    1.968904    0.126765
      3         11           0        1.205109    2.658585    0.221851
      4         11           0       -0.010538    0.126854   -1.579556
      5         11           0        3.514208   -0.339940   -0.382966
      6         11           0        0.656582   -2.632029    0.557268
      7         11           0       -2.617969   -1.561972   -0.693534
 ---------------------------------------------------------------------

 SCF Done:  E(UB3LYP) =  -1136.13394450     A.U. after   20 cycles

 The electronic state is 2-A.
 Alpha  occ. eigenvalues --  -38.44303 -38.43735 -38.43618 -38.43577 -38.43352
 Alpha  occ. eigenvalues --  -38.43255 -38.43248  -2.20069  -2.19606  -2.19495
 Alpha  occ. eigenvalues --   -2.19411  -2.19271  -2.19241  -2.19236  -1.13747
 Alpha  occ. eigenvalues --   -1.13721  -1.13707  -1.13307  -1.13260  -1.13233
 Alpha  occ. eigenvalues --   -1.13202  -1.13172  -1.13136  -1.13123  -1.13102
 Alpha  occ. eigenvalues --   -1.13087  -1.13020  -1.12963  -1.12896  -1.12881
 Alpha  occ. eigenvalues --   -1.12870  -1.12859  -1.12842  -1.12831  -1.12791
 Alpha  occ. eigenvalues --   -0.18824  -0.12887  -0.12578  -0.10715
 Alpha virt. eigenvalues --   -0.05813  -0.05092  -0.04571  -0.03026  -0.02939
 Alpha virt. eigenvalues --   -0.02292  -0.01729  -0.01187  -0.00387  -0.00218
 Alpha virt. eigenvalues --    0.00037   0.00308   0.00779   0.00843   0.00886

  Beta  occ. eigenvalues --  -38.44299 -38.43710 -38.43610 -38.43574 -38.43333
  Beta  occ. eigenvalues --  -38.43190 -38.43173  -2.20064  -2.19563  -2.19485
  Beta  occ. eigenvalues --   -2.19408  -2.19215  -2.19134  -2.19112  -1.13737
  Beta  occ. eigenvalues --   -1.13717  -1.13705  -1.13268  -1.13227  -1.13196
  Beta  occ. eigenvalues --   -1.13185  -1.13151  -1.13110  -1.13094  -1.13074
  Beta  occ. eigenvalues --   -1.13071  -1.13014  -1.12888  -1.12846  -1.12826
  Beta  occ. eigenvalues --   -1.12796  -1.12787  -1.12762  -1.12756  -1.12706
  Beta  occ. eigenvalues --   -0.18134  -0.12619  -0.12293
  Beta virt. eigenvalues --   -0.06838  -0.05715  -0.05061  -0.04522  -0.02387
  Beta virt. eigenvalues --   -0.02163  -0.01641  -0.01274  -0.01096  -0.00358
  Beta virt. eigenvalues --   -0.00224   0.00139   0.00355   0.00837   0.00856

 Mulliken charges and spin densities:
               1          2
     1  Na   0.171614   0.455111
     2  Na   0.183618  -0.037455
     3  Na  -0.176149  -0.052891
     4  Na  -0.235729   0.570182
     5  Na  -0.145010  -0.044975
     6  Na   0.077756   0.012106
     7  Na   0.123900   0.097922
 Sum of Mulliken charges =  -0.00000   1.00000

 Dipole moment (field-independent basis, Debye):
    X=              0.0748    Y=              0.1244    Z=             -0.0561  Tot=              0.1557
 Quadrupole moment (field-independent basis, Debye-Ang):
   XX=            -54.4012   YY=            -63.0507   ZZ=            -74.7327
   XY=             -0.0796   XZ=              0.6490   YZ=              1.2645

 Normal termination of Gaussian 16 at Thu Dec  7 11:25:33 2023.
