 Gaussian 16, Revision B.01,
 Gaussian 16:  ES64L-G16RevB.01 20-Dec-2017

 -------------------------
 #P B3LYP/6-311+g(d) force
 -------------------------

 -----
 DPGEN
 -----
 Symbolic Z-matrix:
 Charge =  0 Multiplicity = 2

                         Standard orientation:
 ---------------------------------------------------------------------
 Center     Atomic      Atomic             Coordinates (Angstroms)
 Number     Number       Type             X           Y           Z
 ---------------------------------------------------------------------
      1         11           0       -0.368762   -0.459842    1.553157
      2         11           0       -0.302961   -0.411042   -1.542843
      3         11           0        1.738434   -1.791849    0.026857
      4         11           0        3.208943    0.731046   -0.033843
      5         11           0        0.455346    1.702556    0.054957
      6         11           0       -2.453844   -1.253834   -0.053243
      7         11           0       -2.277155    1.482965   -0.005043
 ---------------------------------------------------------------------

 SCF Done:  E(UB3LYP) =  -1136.07324809     A.U. after   21 cycles

 The electronic state is 2-A.
 Alpha  occ. eigenvalues --  -38.45335 -38.44868 -38.44045 -38.43891 -38.43841
 Alpha  occ. eigenvalues --  -38.43653 -38.43281  -2.21246  -2.20977  -2.20167
 Alpha  occ. eigenvalues --   -2.20150  -2.20096  -2.19683  -2.19489  -1.14950
 Alpha  occ. eigenvalues --   -1.14944  -1.14874  -1.14864  -1.14689  -1.14637
 Alpha  occ. eigenvalues --   -1.14127  -1.13956  -1.13864  -1.13810  -1.13782
 Alpha  occ. eigenvalues --   -1.13746  -1.13721  -1.13678  -1.13663  -1.13320
 Alpha  occ. eigenvalues --   -1.13307  -1.13278  -1.13101  -1.13060  -1.13039
 Alpha  occ. eigenvalues --   -0.21189  -0.14925  -0.11923  -0.11382
 Alpha virt. eigenvalues --   -0.06710  -0.04905  -0.03909  -0.03356  -0.02329
 Alpha virt. eigenvalues --   -0.02221  -0.01983  -0.00774  -0.00024   0.00170
 Alpha virt. eigenvalues --    0.00281   0.00500   0.00816   0.00927   0.00943

  Beta  occ. eigenvalues --  -38.45340 -38.44847 -38.44031 -38.43810 -38.43757
  Beta  occ. eigenvalues --  -38.43643 -38.43255  -2.21259  -2.20946  -2.20146
  Beta  occ. eigenvalues --   -2.20007  -2.19946  -2.19671  -2.19452  -1.14962
  Beta  occ. eigenvalues --   -1.14954  -1.14855  -1.14854  -1.14626  -1.14600
  Beta  occ. eigenvalues --   -1.14075  -1.13901  -1.13784  -1.13762  -1.13688
  Beta  occ. eigenvalues --   -1.13673  -1.13634  -1.13589  -1.13560  -1.13299
  Beta  occ. eigenvalues --   -1.13274  -1.13250  -1.13075  -1.13023  -1.12957
  Beta  occ. eigenvalues --   -0.20388  -0.14585  -0.11626
  Beta virt. eigenvalues --   -0.07198  -0.06654  -0.04915  -0.03293  -0.02963
  Beta virt. eigenvalues --   -0.02248  -0.01438  -0.00994  -0.00747   0.00155
  Beta virt. eigenvalues --    0.00172   0.00292   0.00479   0.00842   0.00931

 Mulliken charges and spin densities:
               1          2
     1  Na  -0.321821   0.297592
     2  Na  -0.388967   0.305005
     3  Na   0.173696   0.068487
     4  Na  -0.370903  -0.081002
     5  Na  -0.115699   0.168098
     6  Na   0.735284   0.150810
     7  Na   0.288410   0.091010
 Sum of Mulliken charges =  -0.00000   1.00000

 Dipole moment (field-independent basis, Debye):
    X=              0.6440    Y=             -0.2149    Z=             -0.0058  Tot=              0.6789
 Quadrupole moment (field-independent basis, Debye-Ang):
   XX=            -46.8989   YY=            -73.7287   ZZ=            -73.2082
   XY=              0.1144   XZ=             -0.0168   YZ=              0.0010

 Normal termination of Gaussian 16 at Thu Dec  7 18:01:24 2023.
