 Gaussian 16, Revision B.01,
 Gaussian 16:  ES64L-G16RevB.01 20-Dec-2017

 -------------------------
 #P B3LYP/6-311+g(d) force
 -------------------------

 -----
 DPGEN
 -----
 Symbolic Z-matrix:
 Charge =  0 Multiplicity = 2

                         Standard orientation:
 ---------------------------------------------------------------------
 Center     Atomic      Atomic             Coordinates (Angstroms)
 Number     Number       Type             X           Y           Z
 ---------------------------------------------------------------------
      1         11           0       -0.130069    0.338288   -1.587308
      2         11           0       -1.849348    2.694334    0.273255
      3         11           0       -3.004385   -1.350186   -0.212127
      4         11           0        1.897957    2.397197   -0.378193
      5         11           0        3.206142   -1.049065    0.270624
      6         11           0       -0.216430   -0.240905    2.064704
      7         11           0        0.096134   -2.789663   -0.430955
 ---------------------------------------------------------------------

 SCF Done:  E(UB3LYP) =  -1136.13552123     A.U. after   19 cycles

 The electronic state is 2-A.
 Alpha  occ. eigenvalues --  -38.44072 -38.44023 -38.43913 -38.43878 -38.43715
 Alpha  occ. eigenvalues --  -38.43456 -38.43200  -2.19879  -2.19812  -2.19737
 Alpha  occ. eigenvalues --   -2.19659  -2.19570  -2.19320  -2.19158  -1.13551
 Alpha  occ. eigenvalues --   -1.13537  -1.13525  -1.13490  -1.13476  -1.13462
 Alpha  occ. eigenvalues --   -1.13447  -1.13393  -1.13349  -1.13333  -1.13315
 Alpha  occ. eigenvalues --   -1.13302  -1.13242  -1.13203  -1.13181  -1.13027
 Alpha  occ. eigenvalues --   -1.12984  -1.12933  -1.12838  -1.12792  -1.12779
 Alpha  occ. eigenvalues --   -0.18190  -0.12742  -0.12441  -0.10572
 Alpha virt. eigenvalues --   -0.05648  -0.05500  -0.04806  -0.03022  -0.02938
 Alpha virt. eigenvalues --   -0.02486  -0.01600  -0.01414  -0.00603  -0.00408
 Alpha virt. eigenvalues --   -0.00023   0.00332   0.00751   0.00795   0.00862

  Beta  occ. eigenvalues --  -38.44068 -38.44018 -38.43904 -38.43877 -38.43622
  Beta  occ. eigenvalues --  -38.43445 -38.43143  -2.19875  -2.19806  -2.19723
  Beta  occ. eigenvalues --   -2.19659  -2.19399  -2.19302  -2.19053  -1.13538
  Beta  occ. eigenvalues --   -1.13535  -1.13513  -1.13479  -1.13466  -1.13446
  Beta  occ. eigenvalues --   -1.13438  -1.13373  -1.13344  -1.13325  -1.13311
  Beta  occ. eigenvalues --   -1.13302  -1.13128  -1.13086  -1.13055  -1.13007
  Beta  occ. eigenvalues --   -1.12957  -1.12918  -1.12764  -1.12712  -1.12707
  Beta  occ. eigenvalues --   -0.17484  -0.12486  -0.12252
  Beta virt. eigenvalues --   -0.06719  -0.05631  -0.05400  -0.04745  -0.02287
  Beta virt. eigenvalues --   -0.02258  -0.01503  -0.01449  -0.01318  -0.00628
  Beta virt. eigenvalues --   -0.00441   0.00121   0.00364   0.00780   0.00820

 Mulliken charges and spin densities:
               1          2
     1  Na   0.087855   0.307498
     2  Na  -0.034182  -0.050139
     3  Na   0.129063  -0.070064
     4  Na   0.126834  -0.041404
     5  Na  -0.030987  -0.009437
     6  Na  -0.436747   0.828546
     7  Na   0.158164   0.034999
 Sum of Mulliken charges =  -0.00000   1.00000

 Dipole moment (field-independent basis, Debye):
    X=             -0.2484    Y=              0.1744    Z=              0.1557  Tot=              0.3411
 Quadrupole moment (field-independent basis, Debye-Ang):
   XX=            -55.9327   YY=            -61.2929   ZZ=            -75.4128
   XY=             -0.2475   XZ=              0.2906   YZ=              1.1456

 Normal termination of Gaussian 16 at Thu Dec  7 15:30:32 2023.
