 Gaussian 16, Revision B.01,
 Gaussian 16:  ES64L-G16RevB.01 20-Dec-2017

 -------------------------
 #P B3LYP/6-311+g(d) force
 -------------------------

 -----
 DPGEN
 -----
 Symbolic Z-matrix:
 Charge =  0 Multiplicity = 2

                         Standard orientation:
 ---------------------------------------------------------------------
 Center     Atomic      Atomic             Coordinates (Angstroms)
 Number     Number       Type             X           Y           Z
 ---------------------------------------------------------------------
      1         11           0        3.990150    1.864441    0.170307
      2         11           0        0.938526    3.135161    0.681842
      3         11           0        1.002082   -3.068995   -0.469044
      4         11           0        3.806922   -1.920572   -0.384403
      5         11           0       -2.890143    3.034830   -0.532196
      6         11           0       -4.004524   -0.102909   -0.510148
      7         11           0       -2.843012   -2.941956    1.043643
 ---------------------------------------------------------------------

 SCF Done:  E(UB3LYP) =  -1136.10746571     A.U. after   21 cycles

 The electronic state is 2-A.
 Alpha  occ. eigenvalues --  -38.44916 -38.44813 -38.44787 -38.44650 -38.44349
 Alpha  occ. eigenvalues --  -38.44313 -38.44215  -2.20663  -2.20592  -2.20574
 Alpha  occ. eigenvalues --   -2.20433  -2.20141  -2.20133  -2.20013  -1.14346
 Alpha  occ. eigenvalues --   -1.14342  -1.14304  -1.14279  -1.14276  -1.14267
 Alpha  occ. eigenvalues --   -1.14248  -1.14240  -1.14223  -1.14095  -1.14079
 Alpha  occ. eigenvalues --   -1.14064  -1.13790  -1.13788  -1.13781  -1.13774
 Alpha  occ. eigenvalues --   -1.13770  -1.13755  -1.13663  -1.13657  -1.13640
 Alpha  occ. eigenvalues --   -0.15440  -0.14099  -0.13303  -0.11160
 Alpha virt. eigenvalues --   -0.07447  -0.04814  -0.04495  -0.03563  -0.03506
 Alpha virt. eigenvalues --   -0.02479  -0.02327  -0.01919  -0.01358  -0.00891
 Alpha virt. eigenvalues --   -0.00642  -0.00323  -0.00011   0.00445   0.00602

  Beta  occ. eigenvalues --  -38.44911 -38.44808 -38.44769 -38.44612 -38.44279
  Beta  occ. eigenvalues --  -38.44275 -38.44150  -2.20659  -2.20590  -2.20547
  Beta  occ. eigenvalues --   -2.20365  -2.20075  -2.20003  -2.19892  -1.14347
  Beta  occ. eigenvalues --   -1.14342  -1.14281  -1.14275  -1.14271  -1.14245
  Beta  occ. eigenvalues --   -1.14225  -1.14197  -1.14191  -1.14050  -1.14035
  Beta  occ. eigenvalues --   -1.14010  -1.13746  -1.13743  -1.13710  -1.13695
  Beta  occ. eigenvalues --   -1.13682  -1.13679  -1.13581  -1.13576  -1.13559
  Beta  occ. eigenvalues --   -0.14897  -0.13298  -0.12470
  Beta virt. eigenvalues --   -0.08094  -0.07643  -0.04354  -0.04009  -0.03339
  Beta virt. eigenvalues --   -0.03262  -0.02246  -0.02123  -0.01654  -0.01127
  Beta virt. eigenvalues --   -0.00603  -0.00354  -0.00102   0.00151   0.00449

 Mulliken charges and spin densities:
               1          2
     1  Na  -0.029186   0.134079
     2  Na  -0.209430   0.006783
     3  Na  -0.384920   0.082820
     4  Na   0.352091   0.081478
     5  Na   0.454604   0.301232
     6  Na  -0.291487   0.064796
     7  Na   0.108328   0.328811
 Sum of Mulliken charges =  -0.00000   1.00000

 Dipole moment (field-independent basis, Debye):
    X=              0.4756    Y=              0.0307    Z=              0.0665  Tot=              0.4812
 Quadrupole moment (field-independent basis, Debye-Ang):
   XX=            -58.7743   YY=            -69.1471   ZZ=            -72.5225
   XY=              0.4681   XZ=              0.0448   YZ=             -0.8585

 Normal termination of Gaussian 16 at Sun Dec  3 11:53:36 2023.
