 Gaussian 16, Revision B.01,
 Gaussian 16:  ES64L-G16RevB.01 20-Dec-2017

 -------------------------
 #P B3LYP/6-311+g(d) force
 -------------------------

 -----
 DPGEN
 -----
 Symbolic Z-matrix:
 Charge =  0 Multiplicity = 2

                         Standard orientation:
 ---------------------------------------------------------------------
 Center     Atomic      Atomic             Coordinates (Angstroms)
 Number     Number       Type             X           Y           Z
 ---------------------------------------------------------------------
      1         11           0       -0.884334   -0.278600   -1.770933
      2         11           0        0.568643    0.515108    2.231300
      3         11           0        0.604923   -2.354871   -0.452749
      4         11           0        3.567078   -0.517157    0.173892
      5         11           0       -2.535104    2.113465    0.204392
      6         11           0       -2.702764   -1.803622    0.521510
      7         11           0        1.381558    2.325677   -0.907412
 ---------------------------------------------------------------------

 SCF Done:  E(UB3LYP) =  -1136.12780216     A.U. after   20 cycles

 The electronic state is 2-A.
 Alpha  occ. eigenvalues --  -38.44461 -38.44429 -38.44160 -38.43960 -38.43860
 Alpha  occ. eigenvalues --  -38.43561 -38.43091  -2.20240  -2.20234  -2.19978
 Alpha  occ. eigenvalues --   -2.19734  -2.19661  -2.19528  -2.18991  -1.13911
 Alpha  occ. eigenvalues --   -1.13904  -1.13899  -1.13883  -1.13875  -1.13842
 Alpha  occ. eigenvalues --   -1.13656  -1.13642  -1.13609  -1.13416  -1.13395
 Alpha  occ. eigenvalues --   -1.13375  -1.13350  -1.13322  -1.13310  -1.13276
 Alpha  occ. eigenvalues --   -1.13151  -1.13130  -1.12694  -1.12639  -1.12569
 Alpha  occ. eigenvalues --   -0.18031  -0.13018  -0.11894  -0.11010
 Alpha virt. eigenvalues --   -0.06098  -0.05507  -0.04139  -0.03517  -0.02988
 Alpha virt. eigenvalues --   -0.02798  -0.01843  -0.01208  -0.00480  -0.00126
 Alpha virt. eigenvalues --   -0.00000   0.00333   0.00571   0.00653   0.00778

  Beta  occ. eigenvalues --  -38.44464 -38.44349 -38.44152 -38.43961 -38.43834
  Beta  occ. eigenvalues --  -38.43501 -38.43079  -2.20247  -2.20084  -2.19963
  Beta  occ. eigenvalues --   -2.19738  -2.19615  -2.19420  -2.18972  -1.13911
  Beta  occ. eigenvalues --   -1.13900  -1.13888  -1.13797  -1.13772  -1.13736
  Beta  occ. eigenvalues --   -1.13643  -1.13628  -1.13596  -1.13412  -1.13392
  Beta  occ. eigenvalues --   -1.13376  -1.13310  -1.13281  -1.13248  -1.13240
  Beta  occ. eigenvalues --   -1.13075  -1.13047  -1.12668  -1.12607  -1.12562
  Beta  occ. eigenvalues --   -0.17308  -0.12875  -0.11677
  Beta virt. eigenvalues --   -0.07174  -0.05917  -0.05413  -0.03955  -0.02972
  Beta virt. eigenvalues --   -0.02302  -0.01855  -0.01720  -0.01113  -0.00413
  Beta virt. eigenvalues --   -0.00049   0.00052   0.00365   0.00732   0.00760

 Mulliken charges and spin densities:
               1          2
     1  Na   0.642114   0.295989
     2  Na  -0.472773   0.695099
     3  Na  -0.109422   0.003573
     4  Na   0.213302   0.001036
     5  Na  -0.108998  -0.062147
     6  Na  -0.048183   0.089457
     7  Na  -0.116039  -0.023007
 Sum of Mulliken charges =  -0.00000   1.00000

 Dipole moment (field-independent basis, Debye):
    X=              0.0650    Y=              0.1456    Z=              0.4523  Tot=              0.4796
 Quadrupole moment (field-independent basis, Debye-Ang):
   XX=            -53.2399   YY=            -69.3482   ZZ=            -71.5363
   XY=              0.4117   XZ=             -2.4540   YZ=             -1.8884

 Normal termination of Gaussian 16 at Thu Dec  7 20:35:03 2023.
