 Gaussian 16, Revision B.01,
 Gaussian 16:  ES64L-G16RevB.01 20-Dec-2017

 -------------------------
 #P B3LYP/6-311+g(d) force
 -------------------------

 -----
 DPGEN
 -----
 Symbolic Z-matrix:
 Charge =  0 Multiplicity = 2

                         Standard orientation:
 ---------------------------------------------------------------------
 Center     Atomic      Atomic             Coordinates (Angstroms)
 Number     Number       Type             X           Y           Z
 ---------------------------------------------------------------------
      1         11           0        1.795749   -2.190285    0.865004
      2         11           0       -0.159919    3.746832    0.613030
      3         11           0        4.963966   -0.835623   -0.502085
      4         11           0        2.977799    1.222936   -0.232540
      5         11           0       -1.656608   -2.702577   -0.180760
      6         11           0       -2.636855    1.726596   -0.582890
      7         11           0       -5.284132   -0.967881    0.020240
 ---------------------------------------------------------------------

 SCF Done:  E(UB3LYP) =  -1136.11281037     A.U. after   20 cycles

 The electronic state is 2-A.
 Alpha  occ. eigenvalues --  -38.45146 -38.44850 -38.44806 -38.44591 -38.44442
 Alpha  occ. eigenvalues --  -38.44404 -38.42958  -2.20982  -2.20717  -2.20601
 Alpha  occ. eigenvalues --   -2.20341  -2.20186  -2.20174  -2.18736  -1.14760
 Alpha  occ. eigenvalues --   -1.14651  -1.14638  -1.14345  -1.14341  -1.14299
 Alpha  occ. eigenvalues --   -1.14284  -1.14274  -1.14192  -1.14044  -1.14029
 Alpha  occ. eigenvalues --   -1.13947  -1.13879  -1.13868  -1.13832  -1.13820
 Alpha  occ. eigenvalues --   -1.13800  -1.13782  -1.12403  -1.12391  -1.12383
 Alpha  occ. eigenvalues --   -0.16154  -0.14081  -0.12360  -0.11129
 Alpha virt. eigenvalues --   -0.06388  -0.05570  -0.04868  -0.03624  -0.02923
 Alpha virt. eigenvalues --   -0.02734  -0.01843  -0.01776  -0.01296  -0.00945
 Alpha virt. eigenvalues --   -0.00678  -0.00057   0.00152   0.00449   0.00635

  Beta  occ. eigenvalues --  -38.45132 -38.44809 -38.44751 -38.44589 -38.44424
  Beta  occ. eigenvalues --  -38.44333 -38.42946  -2.20961  -2.20641  -2.20501
  Beta  occ. eigenvalues --   -2.20339  -2.20158  -2.20043  -2.18715  -1.14715
  Beta  occ. eigenvalues --   -1.14640  -1.14623  -1.14292  -1.14282  -1.14257
  Beta  occ. eigenvalues --   -1.14219  -1.14208  -1.14104  -1.14046  -1.14029
  Beta  occ. eigenvalues --   -1.13929  -1.13865  -1.13851  -1.13748  -1.13742
  Beta  occ. eigenvalues --   -1.13727  -1.13700  -1.12388  -1.12378  -1.12367
  Beta  occ. eigenvalues --   -0.15645  -0.13522  -0.11730
  Beta virt. eigenvalues --   -0.07779  -0.06424  -0.04996  -0.04676  -0.03369
  Beta virt. eigenvalues --   -0.02557  -0.02340  -0.01743  -0.01558  -0.01005
  Beta virt. eigenvalues --   -0.00641  -0.00286   0.00099   0.00308   0.00488

 Mulliken charges and spin densities:
               1          2
     1  Na  -0.267953   0.230901
     2  Na   0.125011   0.083397
     3  Na   1.261146   0.004521
     4  Na  -0.993490   0.239431
     5  Na  -0.040076   0.034074
     6  Na  -0.379413   0.062623
     7  Na   0.294774   0.345053
 Sum of Mulliken charges =  -0.00000   1.00000

 Dipole moment (field-independent basis, Debye):
    X=              1.5789    Y=             -1.0767    Z=             -0.0872  Tot=              1.9131
 Quadrupole moment (field-independent basis, Debye-Ang):
   XX=            -52.0199   YY=            -70.9824   ZZ=            -71.9483
   XY=             -2.0874   XZ=             -0.5987   YZ=              0.6681

 Normal termination of Gaussian 16 at Sun Dec  3 20:16:19 2023.
