 Gaussian 16, Revision B.01,
 Gaussian 16:  ES64L-G16RevB.01 20-Dec-2017

 -------------------------
 #P B3LYP/6-311+g(d) force
 -------------------------

 -----
 DPGEN
 -----
 Symbolic Z-matrix:
 Charge =  0 Multiplicity = 2

                         Standard orientation:
 ---------------------------------------------------------------------
 Center     Atomic      Atomic             Coordinates (Angstroms)
 Number     Number       Type             X           Y           Z
 ---------------------------------------------------------------------
      1         11           0       -2.603597   -1.165376   -1.232666
      2         11           0        0.293944   -2.280003   -0.257866
      3         11           0       -0.321163    0.841900    0.316845
      4         11           0        2.287239   -0.374353   -1.661070
      5         11           0       -3.432856    1.218429    0.898887
      6         11           0        1.807426    3.211653   -0.256630
      7         11           0        1.969006   -1.452250    2.192500
 ---------------------------------------------------------------------

 SCF Done:  E(UB3LYP) =  -1136.12084339     A.U. after   20 cycles

 The electronic state is 2-A.
 Alpha  occ. eigenvalues --  -38.44681 -38.44475 -38.44265 -38.44114 -38.43324
 Alpha  occ. eigenvalues --  -38.42901 -38.42748  -2.20530  -2.20302  -2.20124
 Alpha  occ. eigenvalues --   -2.19981  -2.19107  -2.18893  -2.18754  -1.14230
 Alpha  occ. eigenvalues --   -1.14174  -1.14139  -1.13983  -1.13950  -1.13938
 Alpha  occ. eigenvalues --   -1.13791  -1.13752  -1.13730  -1.13667  -1.13642
 Alpha  occ. eigenvalues --   -1.13593  -1.12798  -1.12771  -1.12745  -1.12610
 Alpha  occ. eigenvalues --   -1.12560  -1.12534  -1.12459  -1.12413  -1.12371
 Alpha  occ. eigenvalues --   -0.18256  -0.13523  -0.11890  -0.11040
 Alpha virt. eigenvalues --   -0.06213  -0.05388  -0.04206  -0.03400  -0.02624
 Alpha virt. eigenvalues --   -0.02555  -0.01693  -0.01155  -0.00774  -0.00238
 Alpha virt. eigenvalues --    0.00223   0.00278   0.00356   0.00597   0.00769

  Beta  occ. eigenvalues --  -38.44640 -38.44459 -38.44171 -38.44091 -38.43337
  Beta  occ. eigenvalues --  -38.42881 -38.42734  -2.20455  -2.20274  -2.19949
  Beta  occ. eigenvalues --   -2.19940  -2.19131  -2.18866  -2.18732  -1.14179
  Beta  occ. eigenvalues --   -1.14117  -1.14085  -1.13959  -1.13931  -1.13920
  Beta  occ. eigenvalues --   -1.13674  -1.13638  -1.13630  -1.13615  -1.13613
  Beta  occ. eigenvalues --   -1.13554  -1.12815  -1.12787  -1.12757  -1.12600
  Beta  occ. eigenvalues --   -1.12534  -1.12459  -1.12413  -1.12396  -1.12363
  Beta  occ. eigenvalues --   -0.17583  -0.13251  -0.11675
  Beta virt. eigenvalues --   -0.07306  -0.05861  -0.05083  -0.03952  -0.03100
  Beta virt. eigenvalues --   -0.02174  -0.01931  -0.01484  -0.00962  -0.00366
  Beta virt. eigenvalues --   -0.00091   0.00268   0.00345   0.00507   0.00694

 Mulliken charges and spin densities:
               1          2
     1  Na   0.261356  -0.033178
     2  Na   0.784079   0.360189
     3  Na  -2.207814   0.249380
     4  Na   0.149077   0.215190
     5  Na   0.393908  -0.148700
     6  Na   0.376966   0.031985
     7  Na   0.242428   0.325134
 Sum of Mulliken charges =  -0.00000   1.00000

 Dipole moment (field-independent basis, Debye):
    X=             -0.3326    Y=             -0.0882    Z=             -0.0806  Tot=              0.3534
 Quadrupole moment (field-independent basis, Debye-Ang):
   XX=            -55.1519   YY=            -69.5549   ZZ=            -67.3002
   XY=             -1.0638   XZ=             -1.0591   YZ=              2.7007

 Normal termination of Gaussian 16 at Wed Nov 29 04:07:38 2023.
