 Gaussian 16, Revision B.01,
 Gaussian 16:  ES64L-G16RevB.01 20-Dec-2017

 -------------------------
 #P B3LYP/6-311+g(d) force
 -------------------------

 -----
 DPGEN
 -----
 Symbolic Z-matrix:
 Charge =  0 Multiplicity = 2

                         Standard orientation:
 ---------------------------------------------------------------------
 Center     Atomic      Atomic             Coordinates (Angstroms)
 Number     Number       Type             X           Y           Z
 ---------------------------------------------------------------------
      1         11           0       -0.470401   -0.242655   -0.001966
      2         11           0        0.596923   -3.110666    0.400638
      3         11           0       -3.301480   -2.001507   -0.262166
      4         11           0       -3.407714    1.918805    0.376950
      5         11           0        0.511597    3.393472   -0.731473
      6         11           0        2.970664    1.499266    0.946412
      7         11           0        3.100411   -1.456715   -0.728395
 ---------------------------------------------------------------------

 SCF Done:  E(UB3LYP) =  -1136.11948665     A.U. after   26 cycles

 The electronic state is 2-A.
 Alpha  occ. eigenvalues --  -38.44604 -38.44502 -38.44405 -38.44293 -38.43819
 Alpha  occ. eigenvalues --  -38.43569 -38.43208  -2.20408  -2.20266  -2.20197
 Alpha  occ. eigenvalues --   -2.20150  -2.19721  -2.19434  -2.19015  -1.14092
 Alpha  occ. eigenvalues --   -1.14063  -1.14040  -1.13952  -1.13920  -1.13892
 Alpha  occ. eigenvalues --   -1.13890  -1.13873  -1.13851  -1.13824  -1.13822
 Alpha  occ. eigenvalues --   -1.13761  -1.13452  -1.13369  -1.13334  -1.13094
 Alpha  occ. eigenvalues --   -1.13078  -1.13063  -1.12671  -1.12647  -1.12632
 Alpha  occ. eigenvalues --   -0.17102  -0.13602  -0.13060  -0.09377
 Alpha virt. eigenvalues --   -0.06778  -0.05539  -0.05134  -0.02690  -0.02448
 Alpha virt. eigenvalues --   -0.02362  -0.02207  -0.01956  -0.01443  -0.00335
 Alpha virt. eigenvalues --    0.00142   0.00245   0.00381   0.00391   0.00619

  Beta  occ. eigenvalues --  -38.44586 -38.44493 -38.44373 -38.44287 -38.43827
  Beta  occ. eigenvalues --  -38.43525 -38.43119  -2.20377  -2.20254  -2.20145
  Beta  occ. eigenvalues --   -2.20140  -2.19735  -2.19353  -2.18848  -1.14072
  Beta  occ. eigenvalues --   -1.14043  -1.14003  -1.13947  -1.13915  -1.13893
  Beta  occ. eigenvalues --   -1.13862  -1.13837  -1.13823  -1.13817  -1.13763
  Beta  occ. eigenvalues --   -1.13715  -1.13461  -1.13381  -1.13344  -1.13040
  Beta  occ. eigenvalues --   -1.13019  -1.13011  -1.12556  -1.12534  -1.12523
  Beta  occ. eigenvalues --   -0.16881  -0.12966  -0.12406
  Beta virt. eigenvalues --   -0.06841  -0.06132  -0.05292  -0.04886  -0.02373
  Beta virt. eigenvalues --   -0.02188  -0.02065  -0.01847  -0.01439  -0.01301
  Beta virt. eigenvalues --   -0.00263   0.00288   0.00382   0.00541   0.00586

 Mulliken charges and spin densities:
               1          2
     1  Na  -3.797004  -0.197019
     2  Na   0.890530   0.076564
     3  Na   0.068644   0.117965
     4  Na   0.379662   0.525858
     5  Na   0.783691   0.070773
     6  Na   0.866575   0.132554
     7  Na   0.807902   0.273305
 Sum of Mulliken charges =  -0.00000   1.00000

 Dipole moment (field-independent basis, Debye):
    X=              0.7186    Y=             -0.5084    Z=             -0.0606  Tot=              0.8824
 Quadrupole moment (field-independent basis, Debye-Ang):
   XX=            -64.0537   YY=            -66.7149   ZZ=            -68.3463
   XY=              5.9097   XZ=              2.3746   YZ=             -2.6127

 Normal termination of Gaussian 16 at Fri Dec  8 17:51:34 2023.
