 Gaussian 16, Revision B.01,
 Gaussian 16:  ES64L-G16RevB.01 20-Dec-2017

 -------------------------
 #P B3LYP/6-311+g(d) force
 -------------------------

 -----
 DPGEN
 -----
 Symbolic Z-matrix:
 Charge =  0 Multiplicity = 2

                         Standard orientation:
 ---------------------------------------------------------------------
 Center     Atomic      Atomic             Coordinates (Angstroms)
 Number     Number       Type             X           Y           Z
 ---------------------------------------------------------------------
      1         11           0        2.286276    1.890405   -0.101059
      2         11           0       -3.098753   -0.532765    0.204395
      3         11           0        0.208983   -0.242416    1.848623
      4         11           0       -0.559070   -2.599881   -0.284351
      5         11           0        2.724504   -1.234940    0.088827
      6         11           0       -1.479041    2.711541    0.049063
      7         11           0       -0.082898    0.008056   -1.805498
 ---------------------------------------------------------------------

 SCF Done:  E(UB3LYP) =  -1136.13725402     A.U. after   19 cycles

 The electronic state is 2-A.
 Alpha  occ. eigenvalues --  -38.44144 -38.43709 -38.43703 -38.43475 -38.43446
 Alpha  occ. eigenvalues --  -38.43307 -38.42997  -2.19979  -2.19605  -2.19572
 Alpha  occ. eigenvalues --   -2.19400  -2.19282  -2.19277  -2.18936  -1.13648
 Alpha  occ. eigenvalues --   -1.13645  -1.13620  -1.13353  -1.13292  -1.13253
 Alpha  occ. eigenvalues --   -1.13235  -1.13224  -1.13167  -1.13083  -1.13027
 Alpha  occ. eigenvalues --   -1.13012  -1.12996  -1.12963  -1.12945  -1.12919
 Alpha  occ. eigenvalues --   -1.12912  -1.12881  -1.12614  -1.12590  -1.12545
 Alpha  occ. eigenvalues --   -0.19000  -0.13284  -0.12340  -0.10841
 Alpha virt. eigenvalues --   -0.05678  -0.05184  -0.04460  -0.03321  -0.02810
 Alpha virt. eigenvalues --   -0.02530  -0.01561  -0.01024  -0.00319  -0.00173
 Alpha virt. eigenvalues --    0.00007   0.00364   0.00802   0.00897   0.00930

  Beta  occ. eigenvalues --  -38.44140 -38.43704 -38.43696 -38.43475 -38.43366
  Beta  occ. eigenvalues --  -38.43225 -38.42984  -2.19975  -2.19597  -2.19566
  Beta  occ. eigenvalues --   -2.19281  -2.19253  -2.19130  -2.18916  -1.13645
  Beta  occ. eigenvalues --   -1.13624  -1.13620  -1.13350  -1.13273  -1.13228
  Beta  occ. eigenvalues --   -1.13220  -1.13203  -1.13166  -1.12992  -1.12952
  Beta  occ. eigenvalues --   -1.12942  -1.12921  -1.12920  -1.12905  -1.12897
  Beta  occ. eigenvalues --   -1.12811  -1.12777  -1.12595  -1.12538  -1.12534
  Beta  occ. eigenvalues --   -0.18246  -0.13036  -0.12090
  Beta virt. eigenvalues --   -0.06900  -0.05646  -0.05174  -0.04444  -0.02497
  Beta virt. eigenvalues --   -0.02040  -0.01474  -0.01463  -0.00965  -0.00366
  Beta virt. eigenvalues --   -0.00215   0.00131   0.00388   0.00861   0.00890

 Mulliken charges and spin densities:
               1          2
     1  Na  -0.025259  -0.123537
     2  Na  -0.015120  -0.074872
     3  Na  -0.407294   0.712808
     4  Na   0.409131  -0.023062
     5  Na   0.447489   0.004919
     6  Na  -0.124954  -0.140314
     7  Na  -0.283993   0.644058
 Sum of Mulliken charges =  -0.00000   1.00000

 Dipole moment (field-independent basis, Debye):
    X=             -0.1030    Y=              0.1034    Z=              0.0985  Tot=              0.1760
 Quadrupole moment (field-independent basis, Debye-Ang):
   XX=            -55.5574   YY=            -64.1031   ZZ=            -73.9700
   XY=              0.0727   XZ=             -0.8311   YZ=              0.4126

 Normal termination of Gaussian 16 at Thu Dec  7 07:59:59 2023.
