 Gaussian 16, Revision B.01,
 Gaussian 16:  ES64L-G16RevB.01 20-Dec-2017

 -------------------------
 #P B3LYP/6-311+g(d) force
 -------------------------

 -----
 DPGEN
 -----
 Symbolic Z-matrix:
 Charge =  0 Multiplicity = 2

                         Standard orientation:
 ---------------------------------------------------------------------
 Center     Atomic      Atomic             Coordinates (Angstroms)
 Number     Number       Type             X           Y           Z
 ---------------------------------------------------------------------
      1         11           0       -0.430712    2.991563    1.107454
      2         11           0        4.074044   -0.597608    0.624450
      3         11           0       -4.680487   -0.986045    0.606761
      4         11           0       -1.173532   -2.056689   -0.366066
      5         11           0       -3.010640    1.463513   -1.051421
      6         11           0        2.020131   -3.140097   -0.107293
      7         11           0        3.201196    2.325363   -0.813883
 ---------------------------------------------------------------------

 SCF Done:  E(UB3LYP) =  -1136.11167425     A.U. after   21 cycles

 The electronic state is 2-A.
 Alpha  occ. eigenvalues --  -38.45172 -38.44741 -38.44458 -38.44448 -38.44363
 Alpha  occ. eigenvalues --  -38.44229 -38.43367  -2.20951  -2.20515  -2.20260
 Alpha  occ. eigenvalues --   -2.20214  -2.20165  -2.19987  -2.19178  -1.14647
 Alpha  occ. eigenvalues --   -1.14617  -1.14578  -1.14215  -1.14198  -1.14117
 Alpha  occ. eigenvalues --   -1.13912  -1.13907  -1.13900  -1.13889  -1.13867
 Alpha  occ. eigenvalues --   -1.13852  -1.13833  -1.13818  -1.13782  -1.13652
 Alpha  occ. eigenvalues --   -1.13632  -1.13612  -1.12840  -1.12836  -1.12830
 Alpha  occ. eigenvalues --   -0.15914  -0.14073  -0.12496  -0.10624
 Alpha virt. eigenvalues --   -0.06825  -0.05855  -0.04555  -0.03101  -0.02879
 Alpha virt. eigenvalues --   -0.02633  -0.02316  -0.01924  -0.00982  -0.00693
 Alpha virt. eigenvalues --   -0.00485  -0.00211   0.00271   0.00408   0.00442

  Beta  occ. eigenvalues --  -38.45162 -38.44714 -38.44445 -38.44376 -38.44336
  Beta  occ. eigenvalues --  -38.44175 -38.43354  -2.20938  -2.20468  -2.20193
  Beta  occ. eigenvalues --   -2.20126  -2.20117  -2.19887  -2.19156  -1.14640
  Beta  occ. eigenvalues --   -1.14613  -1.14533  -1.14186  -1.14167  -1.14061
  Beta  occ. eigenvalues --   -1.13879  -1.13875  -1.13828  -1.13818  -1.13814
  Beta  occ. eigenvalues --   -1.13803  -1.13787  -1.13782  -1.13745  -1.13584
  Beta  occ. eigenvalues --   -1.13564  -1.13543  -1.12829  -1.12823  -1.12802
  Beta  occ. eigenvalues --   -0.15389  -0.13555  -0.11780
  Beta virt. eigenvalues --   -0.07386  -0.06896  -0.05402  -0.04256  -0.02907
  Beta virt. eigenvalues --   -0.02490  -0.02360  -0.02046  -0.01644  -0.00801
  Beta virt. eigenvalues --   -0.00441  -0.00269   0.00068   0.00322   0.00445

 Mulliken charges and spin densities:
               1          2
     1  Na  -0.063646   0.226847
     2  Na  -0.250572   0.205311
     3  Na   0.752512   0.424987
     4  Na  -0.523910   0.241908
     5  Na   0.096627   0.052450
     6  Na  -0.032035  -0.178972
     7  Na   0.021024   0.027468
 Sum of Mulliken charges =  -0.00000   1.00000

 Dipole moment (field-independent basis, Debye):
    X=             -0.9543    Y=              0.2003    Z=             -0.0188  Tot=              0.9753
 Quadrupole moment (field-independent basis, Debye-Ang):
   XX=            -62.8774   YY=            -71.7628   ZZ=            -66.1988
   XY=             -2.3586   XZ=              0.1955   YZ=             -3.1913

 Normal termination of Gaussian 16 at Sun Dec  3 16:57:44 2023.
