 Gaussian 16, Revision B.01,
 Gaussian 16:  ES64L-G16RevB.01 20-Dec-2017

 -------------------------
 #P B3LYP/6-311+g(d) force
 -------------------------

 -----
 DPGEN
 -----
 Symbolic Z-matrix:
 Charge =  0 Multiplicity = 2

                         Standard orientation:
 ---------------------------------------------------------------------
 Center     Atomic      Atomic             Coordinates (Angstroms)
 Number     Number       Type             X           Y           Z
 ---------------------------------------------------------------------
      1         11           0        0.064557    0.087076    1.942344
      2         11           0       -0.536028    2.971357    0.079609
      3         11           0       -1.141875   -2.525367    0.188443
      4         11           0       -3.744407    0.345031   -0.232132
      5         11           0       -0.056604   -0.366336   -1.710340
      6         11           0        2.339629   -2.106083    0.013268
      7         11           0        3.074728    1.594323   -0.281193
 ---------------------------------------------------------------------

 SCF Done:  E(UB3LYP) =  -1136.13045909     A.U. after   21 cycles

 The electronic state is 2-A.
 Alpha  occ. eigenvalues --  -38.44846 -38.44305 -38.43836 -38.43794 -38.43667
 Alpha  occ. eigenvalues --  -38.43418 -38.43357  -2.20580  -2.20068  -2.19668
 Alpha  occ. eigenvalues --   -2.19582  -2.19575  -2.19308  -2.19250  -1.14258
 Alpha  occ. eigenvalues --   -1.14238  -1.14212  -1.13747  -1.13722  -1.13708
 Alpha  occ. eigenvalues --   -1.13361  -1.13337  -1.13312  -1.13298  -1.13267
 Alpha  occ. eigenvalues --   -1.13258  -1.13229  -1.13194  -1.13177  -1.13005
 Alpha  occ. eigenvalues --   -1.12981  -1.12915  -1.12901  -1.12867  -1.12862
 Alpha  occ. eigenvalues --   -0.18106  -0.12631  -0.12354  -0.10402
 Alpha virt. eigenvalues --   -0.06355  -0.05339  -0.04698  -0.02913  -0.02860
 Alpha virt. eigenvalues --   -0.02340  -0.02108  -0.01363  -0.00660  -0.00462
 Alpha virt. eigenvalues --   -0.00077   0.00263   0.00693   0.00773   0.00812

  Beta  occ. eigenvalues --  -38.44844 -38.44301 -38.43832 -38.43790 -38.43608
  Beta  occ. eigenvalues --  -38.43406 -38.43263  -2.20578  -2.20061  -2.19663
  Beta  occ. eigenvalues --   -2.19572  -2.19472  -2.19292  -2.19077  -1.14250
  Beta  occ. eigenvalues --   -1.14237  -1.14212  -1.13733  -1.13717  -1.13704
  Beta  occ. eigenvalues --   -1.13348  -1.13319  -1.13296  -1.13258  -1.13244
  Beta  occ. eigenvalues --   -1.13239  -1.13195  -1.13155  -1.13099  -1.12981
  Beta  occ. eigenvalues --   -1.12933  -1.12893  -1.12804  -1.12749  -1.12737
  Beta  occ. eigenvalues --   -0.17383  -0.12422  -0.12132
  Beta virt. eigenvalues --   -0.06624  -0.06205  -0.05333  -0.04619  -0.02293
  Beta virt. eigenvalues --   -0.02086  -0.01982  -0.01356  -0.01304  -0.00674
  Beta virt. eigenvalues --   -0.00494   0.00074   0.00302   0.00753   0.00779

 Mulliken charges and spin densities:
               1          2
     1  Na  -0.103842   0.627871
     2  Na  -0.109501  -0.152172
     3  Na   0.340097  -0.025891
     4  Na  -0.050000  -0.075967
     5  Na  -0.231649   0.733578
     6  Na   0.233634  -0.042167
     7  Na  -0.078740  -0.065253
 Sum of Mulliken charges =  -0.00000   1.00000

 Dipole moment (field-independent basis, Debye):
    X=             -0.1021    Y=              0.0881    Z=              0.0022  Tot=              0.1349
 Quadrupole moment (field-independent basis, Debye-Ang):
   XX=            -52.2517   YY=            -63.5921   ZZ=            -76.1556
   XY=             -0.8120   XZ=             -0.1202   YZ=             -1.2440

 Normal termination of Gaussian 16 at Thu Dec  7 05:52:05 2023.
