 Gaussian 16, Revision B.01,
 Gaussian 16:  ES64L-G16RevB.01 20-Dec-2017

 -------------------------
 #P B3LYP/6-311+g(d) force
 -------------------------

 -----
 DPGEN
 -----
 Symbolic Z-matrix:
 Charge =  0 Multiplicity = 2

                         Standard orientation:
 ---------------------------------------------------------------------
 Center     Atomic      Atomic             Coordinates (Angstroms)
 Number     Number       Type             X           Y           Z
 ---------------------------------------------------------------------
      1         11           0       -0.508008    1.099879    1.811181
      2         11           0        0.113370   -0.943400   -0.585713
      3         11           0       -3.884876    0.002169   -1.326928
      4         11           0        3.445498   -2.255665   -0.520014
      5         11           0       -2.657282   -1.773567    1.073098
      6         11           0        3.172847    0.876038    0.216717
      7         11           0        0.318450    2.994546   -0.668342
 ---------------------------------------------------------------------

 SCF Done:  E(UB3LYP) =  -1136.12378351     A.U. after   20 cycles

 The electronic state is 2-A.
 Alpha  occ. eigenvalues --  -38.44576 -38.44436 -38.44052 -38.43917 -38.43802
 Alpha  occ. eigenvalues --  -38.43365 -38.43356  -2.20409  -2.20320  -2.19875
 Alpha  occ. eigenvalues --   -2.19776  -2.19699  -2.19197  -2.19172  -1.14105
 Alpha  occ. eigenvalues --   -1.14086  -1.14053  -1.14020  -1.14001  -1.13918
 Alpha  occ. eigenvalues --   -1.13552  -1.13515  -1.13501  -1.13449  -1.13424
 Alpha  occ. eigenvalues --   -1.13392  -1.13391  -1.13363  -1.13292  -1.12862
 Alpha  occ. eigenvalues --   -1.12856  -1.12840  -1.12827  -1.12822  -1.12815
 Alpha  occ. eigenvalues --   -0.17749  -0.13991  -0.11913  -0.10424
 Alpha virt. eigenvalues --   -0.06398  -0.05456  -0.04872  -0.03454  -0.02619
 Alpha virt. eigenvalues --   -0.02435  -0.02031  -0.01213  -0.00960  -0.00408
 Alpha virt. eigenvalues --   -0.00301   0.00111   0.00477   0.00532   0.00667

  Beta  occ. eigenvalues --  -38.44570 -38.44425 -38.43963 -38.43903 -38.43752
  Beta  occ. eigenvalues --  -38.43356 -38.43351  -2.20399  -2.20304  -2.19758
  Beta  occ. eigenvalues --   -2.19708  -2.19608  -2.19172  -2.19168  -1.14092
  Beta  occ. eigenvalues --   -1.14079  -1.14021  -1.14012  -1.13979  -1.13919
  Beta  occ. eigenvalues --   -1.13473  -1.13444  -1.13403  -1.13398  -1.13377
  Beta  occ. eigenvalues --   -1.13333  -1.13324  -1.13299  -1.13218  -1.12839
  Beta  occ. eigenvalues --   -1.12839  -1.12837  -1.12824  -1.12815  -1.12802
  Beta  occ. eigenvalues --   -0.17224  -0.13550  -0.11837
  Beta virt. eigenvalues --   -0.06705  -0.06211  -0.05241  -0.04440  -0.03133
  Beta virt. eigenvalues --   -0.02464  -0.02045  -0.01563  -0.01035  -0.00730
  Beta virt. eigenvalues --   -0.00137  -0.00043   0.00257   0.00582   0.00654

 Mulliken charges and spin densities:
               1          2
     1  Na   0.271170   0.023764
     2  Na  -1.786935   0.308815
     3  Na  -0.001351   0.441290
     4  Na   0.745735  -0.052034
     5  Na   0.777060   0.009136
     6  Na  -0.006241   0.095588
     7  Na   0.000561   0.173442
 Sum of Mulliken charges =  -0.00000   1.00000

 Dipole moment (field-independent basis, Debye):
    X=              0.5140    Y=              0.1944    Z=              0.7466  Tot=              0.9270
 Quadrupole moment (field-independent basis, Debye-Ang):
   XX=            -64.1273   YY=            -66.6406   ZZ=            -69.0699
   XY=              1.4290   XZ=             -1.8614   YZ=             -1.3074

 Normal termination of Gaussian 16 at Tue Dec  5 23:41:11 2023.
