 Gaussian 16, Revision B.01,
 Gaussian 16:  ES64L-G16RevB.01 20-Dec-2017

 -------------------------
 #P B3LYP/6-311+g(d) force
 -------------------------

 -----
 DPGEN
 -----
 Symbolic Z-matrix:
 Charge =  0 Multiplicity = 2

                         Standard orientation:
 ---------------------------------------------------------------------
 Center     Atomic      Atomic             Coordinates (Angstroms)
 Number     Number       Type             X           Y           Z
 ---------------------------------------------------------------------
      1         11           0        1.555090   -2.898293   -0.381523
      2         11           0        3.901536   -0.236912   -0.024272
      3         11           0       -4.352658    0.048903   -0.247610
      4         11           0       -1.317233    2.471669    0.080956
      5         11           0       -1.782228   -1.909586   -0.651946
      6         11           0        1.983112    2.773326   -0.740942
      7         11           0        0.012380   -0.249106    1.965338
 ---------------------------------------------------------------------

 SCF Done:  E(UB3LYP) =  -1136.12158011     A.U. after   21 cycles

 The electronic state is 2-A.
 Alpha  occ. eigenvalues --  -38.44967 -38.44223 -38.44158 -38.44144 -38.44057
 Alpha  occ. eigenvalues --  -38.44020 -38.43990  -2.20779  -2.20011  -2.19972
 Alpha  occ. eigenvalues --   -2.19929  -2.19847  -2.19817  -2.19808  -1.14443
 Alpha  occ. eigenvalues --   -1.14420  -1.14389  -1.13682  -1.13667  -1.13658
 Alpha  occ. eigenvalues --   -1.13647  -1.13645  -1.13634  -1.13616  -1.13589
 Alpha  occ. eigenvalues --   -1.13575  -1.13530  -1.13502  -1.13496  -1.13490
 Alpha  occ. eigenvalues --   -1.13490  -1.13455  -1.13448  -1.13432  -1.13414
 Alpha  occ. eigenvalues --   -0.17041  -0.13592  -0.12541  -0.10481
 Alpha virt. eigenvalues --   -0.06931  -0.06054  -0.04187  -0.03350  -0.02991
 Alpha virt. eigenvalues --   -0.02586  -0.01963  -0.01721  -0.01136  -0.00668
 Alpha virt. eigenvalues --   -0.00275   0.00010   0.00490   0.00544   0.00690

  Beta  occ. eigenvalues --  -38.44887 -38.44173 -38.44158 -38.44137 -38.44058
  Beta  occ. eigenvalues --  -38.44012 -38.43925  -2.20631  -2.19965  -2.19931
  Beta  occ. eigenvalues --   -2.19918  -2.19852  -2.19805  -2.19688  -1.14346
  Beta  occ. eigenvalues --   -1.14325  -1.14278  -1.13667  -1.13643  -1.13621
  Beta  occ. eigenvalues --   -1.13615  -1.13606  -1.13595  -1.13588  -1.13582
  Beta  occ. eigenvalues --   -1.13557  -1.13534  -1.13499  -1.13492  -1.13475
  Beta  occ. eigenvalues --   -1.13471  -1.13424  -1.13372  -1.13364  -1.13344
  Beta  occ. eigenvalues --   -0.16489  -0.12833  -0.12460
  Beta virt. eigenvalues --   -0.07114  -0.06637  -0.05858  -0.03934  -0.02813
  Beta virt. eigenvalues --   -0.02625  -0.02292  -0.01657  -0.01263  -0.01052
  Beta virt. eigenvalues --   -0.00645   0.00029   0.00155   0.00626   0.00644

 Mulliken charges and spin densities:
               1          2
     1  Na   0.227246  -0.038004
     2  Na  -0.156788   0.387392
     3  Na   0.636252   0.264905
     4  Na  -0.298420   0.020194
     5  Na  -0.520390   0.106117
     6  Na   0.124761  -0.043344
     7  Na  -0.012661   0.302741
 Sum of Mulliken charges =  -0.00000   1.00000

 Dipole moment (field-independent basis, Debye):
    X=             -0.0026    Y=             -0.1058    Z=              0.4724  Tot=              0.4841
 Quadrupole moment (field-independent basis, Debye-Ang):
   XX=            -67.6625   YY=            -66.1855   ZZ=            -68.8306
   XY=             -3.7317   XZ=             -0.4904   YZ=             -0.0698

 Normal termination of Gaussian 16 at Sun Dec  3 17:45:04 2023.
