 Gaussian 16, Revision B.01,
 Gaussian 16:  ES64L-G16RevB.01 20-Dec-2017

 -------------------------
 #P B3LYP/6-311+g(d) force
 -------------------------

 -----
 DPGEN
 -----
 Symbolic Z-matrix:
 Charge =  0 Multiplicity = 2

                         Standard orientation:
 ---------------------------------------------------------------------
 Center     Atomic      Atomic             Coordinates (Angstroms)
 Number     Number       Type             X           Y           Z
 ---------------------------------------------------------------------
      1         11           0       -2.133283    0.929145   -0.870420
      2         11           0        0.284004    3.260898    0.603983
      3         11           0        0.110358   -1.460689   -1.159017
      4         11           0        3.358196   -1.701362    0.320126
      5         11           0       -0.010251   -0.193523    2.085523
      6         11           0        1.444806    0.973721   -1.322066
      7         11           0       -3.053830   -1.808190    0.341872
 ---------------------------------------------------------------------

 SCF Done:  E(UB3LYP) =  -1136.12834870     A.U. after   19 cycles

 The electronic state is 2-A.
 Alpha  occ. eigenvalues --  -38.44344 -38.44075 -38.43754 -38.43670 -38.43511
 Alpha  occ. eigenvalues --  -38.43498 -38.43097  -2.20190  -2.19852  -2.19598
 Alpha  occ. eigenvalues --   -2.19586  -2.19525  -2.19463  -2.18930  -1.13871
 Alpha  occ. eigenvalues --   -1.13811  -1.13803  -1.13533  -1.13527  -1.13515
 Alpha  occ. eigenvalues --   -1.13480  -1.13347  -1.13306  -1.13251  -1.13247
 Alpha  occ. eigenvalues --   -1.13225  -1.13173  -1.13145  -1.13096  -1.13088
 Alpha  occ. eigenvalues --   -1.13061  -1.12974  -1.12604  -1.12580  -1.12565
 Alpha  occ. eigenvalues --   -0.18682  -0.12969  -0.12125  -0.11258
 Alpha virt. eigenvalues --   -0.05928  -0.04977  -0.04079  -0.03246  -0.02994
 Alpha virt. eigenvalues --   -0.02941  -0.01767  -0.01258  -0.00399  -0.00005
 Alpha virt. eigenvalues --    0.00271   0.00384   0.00725   0.00816   0.00892

  Beta  occ. eigenvalues --  -38.44253 -38.44077 -38.43754 -38.43649 -38.43468
  Beta  occ. eigenvalues --  -38.43457 -38.43092  -2.20021  -2.19855  -2.19597
  Beta  occ. eigenvalues --   -2.19552  -2.19453  -2.19393  -2.18922  -1.13759
  Beta  occ. eigenvalues --   -1.13688  -1.13683  -1.13531  -1.13508  -1.13489
  Beta  occ. eigenvalues --   -1.13463  -1.13341  -1.13278  -1.13239  -1.13229
  Beta  occ. eigenvalues --   -1.13196  -1.13132  -1.13109  -1.13047  -1.13029
  Beta  occ. eigenvalues --   -1.12991  -1.12931  -1.12600  -1.12563  -1.12558
  Beta  occ. eigenvalues --   -0.17861  -0.12827  -0.11972
  Beta virt. eigenvalues --   -0.07204  -0.05757  -0.04899  -0.03987  -0.02666
  Beta virt. eigenvalues --   -0.02393  -0.01901  -0.01628  -0.01135  -0.00145
  Beta virt. eigenvalues --   -0.00045   0.00295   0.00475   0.00801   0.00814

 Mulliken charges and spin densities:
               1          2
     1  Na  -0.103529   0.119838
     2  Na   0.058450  -0.177318
     3  Na  -0.102720   0.213889
     4  Na  -0.083526  -0.161619
     5  Na  -0.605230   0.861087
     6  Na   0.249102   0.217174
     7  Na   0.587453  -0.073052
 Sum of Mulliken charges =  -0.00000   1.00000

 Dipole moment (field-independent basis, Debye):
    X=              0.0008    Y=             -0.3341    Z=              0.5471  Tot=              0.6410
 Quadrupole moment (field-independent basis, Debye-Ang):
   XX=            -56.9139   YY=            -65.1561   ZZ=            -70.6945
   XY=              0.2338   XZ=              0.9362   YZ=             -0.9453

 Normal termination of Gaussian 16 at Tue Dec  5 21:41:33 2023.
