 Gaussian 16, Revision B.01,
 Gaussian 16:  ES64L-G16RevB.01 20-Dec-2017

 -------------------------
 #P B3LYP/6-311+g(d) force
 -------------------------

 -----
 DPGEN
 -----
 Symbolic Z-matrix:
 Charge =  0 Multiplicity = 2

                         Standard orientation:
 ---------------------------------------------------------------------
 Center     Atomic      Atomic             Coordinates (Angstroms)
 Number     Number       Type             X           Y           Z
 ---------------------------------------------------------------------
      1         11           0       -0.832998    3.469715   -0.731247
      2         11           0       -4.026335    0.975797   -0.293102
      3         11           0        2.688140   -2.802593   -0.690530
      4         11           0        2.183087    3.085072    0.802775
      5         11           0       -0.430240   -1.919362   -0.562194
      6         11           0       -3.507104   -2.397195    1.037962
      7         11           0        3.925450   -0.411435    0.436337
 ---------------------------------------------------------------------

 SCF Done:  E(UB3LYP) =  -1136.10712850     A.U. after   29 cycles

 The electronic state is 2-A.
 Alpha  occ. eigenvalues --  -38.45744 -38.45730 -38.45504 -38.43892 -38.43860
 Alpha  occ. eigenvalues --  -38.43824 -38.43539  -2.21522  -2.21467  -2.21313
 Alpha  occ. eigenvalues --   -2.19778  -2.19634  -2.19621  -2.19318  -1.15218
 Alpha  occ. eigenvalues --   -1.15205  -1.15158  -1.15136  -1.15127  -1.15082
 Alpha  occ. eigenvalues --   -1.15017  -1.14979  -1.14950  -1.13463  -1.13416
 Alpha  occ. eigenvalues --   -1.13399  -1.13308  -1.13299  -1.13292  -1.13286
 Alpha  occ. eigenvalues --   -1.13251  -1.13250  -1.12993  -1.12982  -1.12942
 Alpha  occ. eigenvalues --   -0.16102  -0.14062  -0.12928  -0.10300
 Alpha virt. eigenvalues --   -0.07743  -0.05270  -0.04381  -0.03798  -0.03308
 Alpha virt. eigenvalues --   -0.02608  -0.02140  -0.01485  -0.01351  -0.00781
 Alpha virt. eigenvalues --   -0.00531  -0.00149  -0.00083   0.00501   0.00600

  Beta  occ. eigenvalues --  -38.45724 -38.45699 -38.45490 -38.43867 -38.43853
  Beta  occ. eigenvalues --  -38.43769 -38.43516  -2.21489  -2.21413  -2.21290
  Beta  occ. eigenvalues --   -2.19732  -2.19609  -2.19531  -2.19275  -1.15196
  Beta  occ. eigenvalues --   -1.15184  -1.15124  -1.15093  -1.15089  -1.15019
  Beta  occ. eigenvalues --   -1.14987  -1.14966  -1.14925  -1.13435  -1.13381
  Beta  occ. eigenvalues --   -1.13367  -1.13300  -1.13293  -1.13232  -1.13219
  Beta  occ. eigenvalues --   -1.13215  -1.13188  -1.12963  -1.12955  -1.12910
  Beta  occ. eigenvalues --   -0.15673  -0.13549  -0.12624
  Beta virt. eigenvalues --   -0.07640  -0.06903  -0.04862  -0.03896  -0.03648
  Beta virt. eigenvalues --   -0.02979  -0.02373  -0.01857  -0.01327  -0.01192
  Beta virt. eigenvalues --   -0.00477  -0.00313   0.00047   0.00225   0.00578

 Mulliken charges and spin densities:
               1          2
     1  Na  -0.201893   0.004343
     2  Na   0.179779   0.250787
     3  Na   0.496400  -0.034770
     4  Na   0.083123   0.130744
     5  Na  -1.134682   0.263587
     6  Na   0.696679   0.277650
     7  Na  -0.119406   0.107660
 Sum of Mulliken charges =  -0.00000   1.00000

 Dipole moment (field-independent basis, Debye):
    X=             -0.3121    Y=             -1.3595    Z=             -0.0390  Tot=              1.3954
 Quadrupole moment (field-independent basis, Debye-Ang):
   XX=            -55.9117   YY=            -71.9758   ZZ=            -72.0216
   XY=             -4.1376   XZ=             -0.1894   YZ=             -0.2429

 Normal termination of Gaussian 16 at Sun Dec  3 15:47:43 2023.
