 Gaussian 16, Revision B.01,
 Gaussian 16:  ES64L-G16RevB.01 20-Dec-2017

 -------------------------
 #P B3LYP/6-311+g(d) force
 -------------------------

 -----
 DPGEN
 -----
 Symbolic Z-matrix:
 Charge =  0 Multiplicity = 2

                         Standard orientation:
 ---------------------------------------------------------------------
 Center     Atomic      Atomic             Coordinates (Angstroms)
 Number     Number       Type             X           Y           Z
 ---------------------------------------------------------------------
      1         11           0       -2.348972    2.555647   -0.134629
      2         11           0       -3.943565   -0.537396    0.315951
      3         11           0        3.281067   -1.161610   -1.110156
      4         11           0        2.800123    2.143958    0.203161
      5         11           0        1.599367   -0.864000    2.146397
      6         11           0       -1.308774   -2.362205   -0.372412
      7         11           0       -0.079248    0.225606   -1.048313
 ---------------------------------------------------------------------

 SCF Done:  E(UB3LYP) =  -1136.11192099     A.U. after   27 cycles

 The electronic state is 2-A.
 Alpha  occ. eigenvalues --  -38.45657 -38.45084 -38.44946 -38.44006 -38.43713
 Alpha  occ. eigenvalues --  -38.43524 -38.43273  -2.21445  -2.20884  -2.20723
 Alpha  occ. eigenvalues --   -2.19944  -2.19543  -2.19308  -2.19135  -1.15124
 Alpha  occ. eigenvalues --   -1.15102  -1.15076  -1.14550  -1.14530  -1.14520
 Alpha  occ. eigenvalues --   -1.14388  -1.14383  -1.14359  -1.13687  -1.13634
 Alpha  occ. eigenvalues --   -1.13550  -1.13207  -1.13171  -1.13153  -1.12991
 Alpha  occ. eigenvalues --   -1.12977  -1.12947  -1.12855  -1.12773  -1.12746
 Alpha  occ. eigenvalues --   -0.17653  -0.14188  -0.11214  -0.10185
 Alpha virt. eigenvalues --   -0.07193  -0.06474  -0.03809  -0.03545  -0.02776
 Alpha virt. eigenvalues --   -0.02445  -0.02003  -0.01765  -0.01083  -0.00394
 Alpha virt. eigenvalues --   -0.00233   0.00032   0.00427   0.00488   0.00602

  Beta  occ. eigenvalues --  -38.45661 -38.45047 -38.44929 -38.43976 -38.43613
  Beta  occ. eigenvalues --  -38.43537 -38.43273  -2.21451  -2.20817  -2.20694
  Beta  occ. eigenvalues --   -2.19893  -2.19357  -2.19333  -2.19137  -1.15125
  Beta  occ. eigenvalues --   -1.15111  -1.15082  -1.14486  -1.14481  -1.14477
  Beta  occ. eigenvalues --   -1.14370  -1.14344  -1.14336  -1.13651  -1.13582
  Beta  occ. eigenvalues --   -1.13512  -1.13080  -1.13047  -1.13017  -1.13007
  Beta  occ. eigenvalues --   -1.12992  -1.12964  -1.12851  -1.12762  -1.12749
  Beta  occ. eigenvalues --   -0.17084  -0.13963  -0.11135
  Beta virt. eigenvalues --   -0.07048  -0.06344  -0.06206  -0.03786  -0.03094
  Beta virt. eigenvalues --   -0.02615  -0.01956  -0.01450  -0.01379  -0.00796
  Beta virt. eigenvalues --   -0.00265  -0.00034   0.00131   0.00562   0.00594

 Mulliken charges and spin densities:
               1          2
     1  Na   0.068946  -0.124424
     2  Na  -0.022654   0.000929
     3  Na   0.456025   0.124208
     4  Na  -0.005262   0.141030
     5  Na  -0.602709   0.565796
     6  Na   0.159792  -0.149370
     7  Na  -0.054136   0.441831
 Sum of Mulliken charges =  -0.00000   1.00000

 Dipole moment (field-independent basis, Debye):
    X=             -0.0689    Y=             -0.1396    Z=              0.0831  Tot=              0.1764
 Quadrupole moment (field-independent basis, Debye-Ang):
   XX=            -45.3434   YY=            -69.5749   ZZ=            -77.6952
   XY=              2.6664   XZ=             -4.2005   YZ=              1.3388

 Normal termination of Gaussian 16 at Thu Dec  7 03:34:41 2023.
