 Gaussian 16, Revision B.01,
 Gaussian 16:  ES64L-G16RevB.01 20-Dec-2017

 -------------------------
 #P B3LYP/6-311+g(d) force
 -------------------------

 -----
 DPGEN
 -----
 Symbolic Z-matrix:
 Charge =  0 Multiplicity = 2

                         Standard orientation:
 ---------------------------------------------------------------------
 Center     Atomic      Atomic             Coordinates (Angstroms)
 Number     Number       Type             X           Y           Z
 ---------------------------------------------------------------------
      1         11           0        3.314789    0.088157   -0.186744
      2         11           0        0.889342    2.809913   -0.084912
      3         11           0        0.138694   -0.223561    2.053923
      4         11           0       -2.723742    1.566658    0.003650
      5         11           0       -3.075652   -1.906460   -0.145214
      6         11           0       -0.294212    0.131572   -1.391442
      7         11           0        1.750781   -2.466279   -0.249261
 ---------------------------------------------------------------------

 SCF Done:  E(UB3LYP) =  -1136.12896450     A.U. after   22 cycles

 The electronic state is 2-A.
 Alpha  occ. eigenvalues --  -38.44603 -38.44464 -38.44387 -38.43611 -38.43377
 Alpha  occ. eigenvalues --  -38.43368 -38.42913  -2.20457  -2.20303  -2.20161
 Alpha  occ. eigenvalues --   -2.19478  -2.19355  -2.19242  -2.18759  -1.14166
 Alpha  occ. eigenvalues --   -1.14110  -1.14088  -1.14017  -1.13966  -1.13917
 Alpha  occ. eigenvalues --   -1.13833  -1.13814  -1.13799  -1.13158  -1.13134
 Alpha  occ. eigenvalues --   -1.13120  -1.13066  -1.13006  -1.12976  -1.12908
 Alpha  occ. eigenvalues --   -1.12856  -1.12854  -1.12446  -1.12413  -1.12391
 Alpha  occ. eigenvalues --   -0.18402  -0.13651  -0.11874  -0.10305
 Alpha virt. eigenvalues --   -0.06246  -0.05768  -0.04289  -0.03306  -0.02447
 Alpha virt. eigenvalues --   -0.02244  -0.02057  -0.01471  -0.00682  -0.00389
 Alpha virt. eigenvalues --   -0.00038   0.00267   0.00644   0.00764   0.00843

  Beta  occ. eigenvalues --  -38.44595 -38.44460 -38.44388 -38.43604 -38.43336
  Beta  occ. eigenvalues --  -38.43259 -38.42909  -2.20446  -2.20298  -2.20164
  Beta  occ. eigenvalues --   -2.19468  -2.19282  -2.19041  -2.18754  -1.14161
  Beta  occ. eigenvalues --   -1.14084  -1.14079  -1.14010  -1.13947  -1.13917
  Beta  occ. eigenvalues --   -1.13829  -1.13812  -1.13803  -1.13152  -1.13129
  Beta  occ. eigenvalues --   -1.13086  -1.13002  -1.12955  -1.12921  -1.12775
  Beta  occ. eigenvalues --   -1.12715  -1.12713  -1.12441  -1.12396  -1.12385
  Beta  occ. eigenvalues --   -0.17705  -0.13426  -0.11678
  Beta virt. eigenvalues --   -0.06414  -0.06143  -0.05749  -0.04283  -0.02567
  Beta virt. eigenvalues --   -0.01982  -0.01714  -0.01437  -0.01181  -0.00708
  Beta virt. eigenvalues --   -0.00401   0.00141   0.00323   0.00718   0.00773

 Mulliken charges and spin densities:
               1          2
     1  Na   0.209090   0.079698
     2  Na   0.108939   0.022116
     3  Na  -0.517177   0.715046
     4  Na   0.283635   0.024061
     5  Na   0.078243  -0.040125
     6  Na  -0.396429   0.177703
     7  Na   0.233698   0.021500
 Sum of Mulliken charges =  -0.00000   1.00000

 Dipole moment (field-independent basis, Debye):
    X=             -0.3348    Y=             -0.0666    Z=              0.1531  Tot=              0.3741
 Quadrupole moment (field-independent basis, Debye-Ang):
   XX=            -51.8276   YY=            -63.8801   ZZ=            -76.9928
   XY=              1.0802   XZ=             -0.7703   YZ=              1.1268

 Normal termination of Gaussian 16 at Thu Dec  7 04:43:11 2023.
