 Gaussian 16, Revision B.01,
 Gaussian 16:  ES64L-G16RevB.01 20-Dec-2017

 -------------------------
 #P B3LYP/6-311+g(d) force
 -------------------------

 -----
 DPGEN
 -----
 Symbolic Z-matrix:
 Charge =  0 Multiplicity = 2

                         Standard orientation:
 ---------------------------------------------------------------------
 Center     Atomic      Atomic             Coordinates (Angstroms)
 Number     Number       Type             X           Y           Z
 ---------------------------------------------------------------------
      1         11           0       -1.398199   -1.881790   -1.099389
      2         11           0       -4.782140   -1.410537   -0.471451
      3         11           0       -5.147362    2.262663   -0.340143
      4         11           0       -2.086040    1.434051    0.903404
      5         11           0        0.925545   -1.217738    1.524230
      6         11           0        5.238397   -0.244693    0.657818
      7         11           0        7.249799    1.058043   -1.174470
 ---------------------------------------------------------------------

 SCF Done:  E(UB3LYP) =  -1136.11208780     A.U. after   20 cycles

 The electronic state is 2-A.
 Alpha  occ. eigenvalues --  -38.45169 -38.44839 -38.44639 -38.44160 -38.44004
 Alpha  occ. eigenvalues --  -38.43969 -38.43826  -2.20960  -2.20645  -2.20442
 Alpha  occ. eigenvalues --   -2.19953  -2.19771  -2.19768  -2.19618  -1.14657
 Alpha  occ. eigenvalues --   -1.14620  -1.14552  -1.14313  -1.14309  -1.14247
 Alpha  occ. eigenvalues --   -1.14122  -1.14107  -1.14052  -1.13619  -1.13614
 Alpha  occ. eigenvalues --   -1.13582  -1.13507  -1.13439  -1.13437  -1.13416
 Alpha  occ. eigenvalues --   -1.13416  -1.13396  -1.13275  -1.13271  -1.13217
 Alpha  occ. eigenvalues --   -0.16377  -0.13340  -0.12174  -0.11488
 Alpha virt. eigenvalues --   -0.06753  -0.05472  -0.04696  -0.03494  -0.03072
 Alpha virt. eigenvalues --   -0.02513  -0.02204  -0.01828  -0.01470  -0.01219
 Alpha virt. eigenvalues --   -0.00662  -0.00172   0.00200   0.00322   0.00364

  Beta  occ. eigenvalues --  -38.45114 -38.44770 -38.44600 -38.44141 -38.43987
  Beta  occ. eigenvalues --  -38.43963 -38.43828  -2.20859  -2.20518  -2.20374
  Beta  occ. eigenvalues --   -2.19920  -2.19757  -2.19738  -2.19622  -1.14591
  Beta  occ. eigenvalues --   -1.14552  -1.14471  -1.14229  -1.14216  -1.14152
  Beta  occ. eigenvalues --   -1.14079  -1.14062  -1.13979  -1.13598  -1.13575
  Beta  occ. eigenvalues --   -1.13566  -1.13501  -1.13417  -1.13411  -1.13409
  Beta  occ. eigenvalues --   -1.13408  -1.13378  -1.13279  -1.13274  -1.13214
  Beta  occ. eigenvalues --   -0.15577  -0.13216  -0.11984
  Beta virt. eigenvalues --   -0.07675  -0.06470  -0.05043  -0.04534  -0.03117
  Beta virt. eigenvalues --   -0.02441  -0.02413  -0.02058  -0.01655  -0.01304
  Beta virt. eigenvalues --   -0.00767  -0.00435  -0.00037   0.00355   0.00395

 Mulliken charges and spin densities:
               1          2
     1  Na  -0.031932   0.266957
     2  Na   0.059171   0.262594
     3  Na   0.378656  -0.055977
     4  Na  -0.191628   0.426792
     5  Na  -0.243580   0.088675
     6  Na  -0.446683  -0.009806
     7  Na   0.475996   0.020766
 Sum of Mulliken charges =  -0.00000   1.00000

 Dipole moment (field-independent basis, Debye):
    X=             -1.5197    Y=              0.2099    Z=             -0.3597  Tot=              1.5757
 Quadrupole moment (field-independent basis, Debye-Ang):
   XX=            -62.1297   YY=            -68.7443   ZZ=            -67.2638
   XY=              1.2284   XZ=             -2.4761   YZ=             -2.9340

 Normal termination of Gaussian 16 at Tue Nov 28 19:56:18 2023.
