 Gaussian 16, Revision B.01,
 Gaussian 16:  ES64L-G16RevB.01 20-Dec-2017

 -------------------------
 #P B3LYP/6-311+g(d) force
 -------------------------

 -----
 DPGEN
 -----
 Symbolic Z-matrix:
 Charge =  0 Multiplicity = 2

                         Standard orientation:
 ---------------------------------------------------------------------
 Center     Atomic      Atomic             Coordinates (Angstroms)
 Number     Number       Type             X           Y           Z
 ---------------------------------------------------------------------
      1         11           0        1.899516   -0.671624    1.709993
      2         11           0       -4.166633   -0.635012   -0.539789
      3         11           0       -1.415885    2.162617    0.207583
      4         11           0       -1.619788   -1.279416    1.191199
      5         11           0       -0.089521   -0.496719   -1.626430
      6         11           0        3.616423   -1.118711   -0.948412
      7         11           0        1.775888    2.038867    0.005856
 ---------------------------------------------------------------------

 SCF Done:  E(UB3LYP) =  -1136.12083765     A.U. after   25 cycles

 The electronic state is 2-A.
 Alpha  occ. eigenvalues --  -38.45235 -38.45128 -38.43955 -38.43849 -38.43750
 Alpha  occ. eigenvalues --  -38.43215 -38.42775  -2.21088  -2.20921  -2.19782
 Alpha  occ. eigenvalues --   -2.19755  -2.19658  -2.19119  -2.18645  -1.14812
 Alpha  occ. eigenvalues --   -1.14730  -1.14691  -1.14606  -1.14581  -1.14554
 Alpha  occ. eigenvalues --   -1.13477  -1.13459  -1.13440  -1.13426  -1.13396
 Alpha  occ. eigenvalues --   -1.13376  -1.13334  -1.13310  -1.13253  -1.12805
 Alpha  occ. eigenvalues --   -1.12785  -1.12741  -1.12320  -1.12314  -1.12269
 Alpha  occ. eigenvalues --   -0.18524  -0.14225  -0.11155  -0.10897
 Alpha virt. eigenvalues --   -0.07278  -0.05145  -0.04598  -0.03165  -0.03009
 Alpha virt. eigenvalues --   -0.02321  -0.02128  -0.01328  -0.00909  -0.00203
 Alpha virt. eigenvalues --   -0.00004   0.00262   0.00344   0.00605   0.00740

  Beta  occ. eigenvalues --  -38.45190 -38.45132 -38.43940 -38.43804 -38.43694
  Beta  occ. eigenvalues --  -38.43203 -38.42772  -2.21007  -2.20930  -2.19756
  Beta  occ. eigenvalues --   -2.19675  -2.19558  -2.19099  -2.18641  -1.14743
  Beta  occ. eigenvalues --   -1.14674  -1.14627  -1.14612  -1.14586  -1.14557
  Beta  occ. eigenvalues --   -1.13457  -1.13420  -1.13408  -1.13397  -1.13344
  Beta  occ. eigenvalues --   -1.13292  -1.13265  -1.13240  -1.13177  -1.12784
  Beta  occ. eigenvalues --   -1.12766  -1.12725  -1.12322  -1.12296  -1.12266
  Beta  occ. eigenvalues --   -0.17806  -0.14168  -0.10927
  Beta virt. eigenvalues --   -0.07054  -0.06988  -0.05041  -0.04082  -0.02961
  Beta virt. eigenvalues --   -0.02800  -0.01641  -0.01481  -0.01093  -0.00579
  Beta virt. eigenvalues --   -0.00204   0.00032   0.00366   0.00435   0.00678

 Mulliken charges and spin densities:
               1          2
     1  Na  -0.124441   0.104735
     2  Na   0.865751   0.038187
     3  Na  -0.219178  -0.005954
     4  Na  -0.321758   0.112725
     5  Na  -0.575079   0.429852
     6  Na   0.384294   0.079010
     7  Na  -0.009589   0.241445
 Sum of Mulliken charges =  -0.00000   1.00000

 Dipole moment (field-independent basis, Debye):
    X=             -0.8857    Y=              0.0979    Z=             -0.5133  Tot=              1.0284
 Quadrupole moment (field-independent basis, Debye-Ang):
   XX=            -48.1353   YY=            -76.6913   ZZ=            -70.3341
   XY=             -0.0318   XZ=              1.4093   YZ=              1.8606

 Normal termination of Gaussian 16 at Wed Dec  6 01:18:57 2023.
