 Gaussian 16, Revision B.01,
 Gaussian 16:  ES64L-G16RevB.01 20-Dec-2017

 -------------------------
 #P B3LYP/6-311+g(d) force
 -------------------------

 -----
 DPGEN
 -----
 Symbolic Z-matrix:
 Charge =  0 Multiplicity = 2

                         Standard orientation:
 ---------------------------------------------------------------------
 Center     Atomic      Atomic             Coordinates (Angstroms)
 Number     Number       Type             X           Y           Z
 ---------------------------------------------------------------------
      1         11           0       -4.149205    0.411571    0.256365
      2         11           0       -2.883215   -2.465138   -0.034892
      3         11           0        4.460220   -0.995721   -0.074893
      4         11           0       -0.818992    0.554896   -0.252666
      5         11           0        1.094117   -2.536678   -0.111666
      6         11           0        2.476488    1.195009    0.471200
      7         11           0       -0.179413    3.836062   -0.253448
 ---------------------------------------------------------------------

 SCF Done:  E(UB3LYP) =  -1136.12694998     A.U. after   21 cycles

 The electronic state is 2-A.
 Alpha  occ. eigenvalues --  -38.44407 -38.44114 -38.44013 -38.43916 -38.43723
 Alpha  occ. eigenvalues --  -38.43698 -38.43399  -2.20224  -2.19983  -2.19872
 Alpha  occ. eigenvalues --   -2.19724  -2.19557  -2.19510  -2.19309  -1.13911
 Alpha  occ. eigenvalues --   -1.13903  -1.13868  -1.13695  -1.13665  -1.13631
 Alpha  occ. eigenvalues --   -1.13517  -1.13509  -1.13490  -1.13406  -1.13402
 Alpha  occ. eigenvalues --   -1.13318  -1.13214  -1.13190  -1.13185  -1.13176
 Alpha  occ. eigenvalues --   -1.13153  -1.13145  -1.13020  -1.13010  -1.12886
 Alpha  occ. eigenvalues --   -0.17057  -0.14278  -0.12480  -0.10547
 Alpha virt. eigenvalues --   -0.05903  -0.05627  -0.04366  -0.03762  -0.02552
 Alpha virt. eigenvalues --   -0.02256  -0.01849  -0.01547  -0.01223  -0.00676
 Alpha virt. eigenvalues --    0.00017   0.00145   0.00607   0.00662   0.00707

  Beta  occ. eigenvalues --  -38.44403 -38.44096 -38.43945 -38.43865 -38.43726
  Beta  occ. eigenvalues --  -38.43640 -38.43383  -2.20223  -2.19954  -2.19745
  Beta  occ. eigenvalues --   -2.19632  -2.19515  -2.19450  -2.19281  -1.13910
  Beta  occ. eigenvalues --   -1.13904  -1.13826  -1.13663  -1.13644  -1.13594
  Beta  occ. eigenvalues --   -1.13433  -1.13422  -1.13407  -1.13345  -1.13336
  Beta  occ. eigenvalues --   -1.13244  -1.13188  -1.13180  -1.13148  -1.13135
  Beta  occ. eigenvalues --   -1.13117  -1.13087  -1.13003  -1.12971  -1.12870
  Beta  occ. eigenvalues --   -0.16518  -0.13614  -0.12184
  Beta virt. eigenvalues --   -0.07000  -0.05767  -0.05494  -0.04087  -0.03144
  Beta virt. eigenvalues --   -0.02227  -0.01805  -0.01721  -0.01386  -0.01197
  Beta virt. eigenvalues --   -0.00269   0.00246   0.00435   0.00650   0.00710

 Mulliken charges and spin densities:
               1          2
     1  Na   0.570482   0.362182
     2  Na   1.052156  -0.133082
     3  Na   0.671878   0.384756
     4  Na  -3.202708   0.166287
     5  Na   0.298478   0.063582
     6  Na  -0.435928   0.202700
     7  Na   1.045643  -0.046425
 Sum of Mulliken charges =  -0.00000   1.00000

 Dipole moment (field-independent basis, Debye):
    X=             -0.4607    Y=             -0.1426    Z=             -0.0456  Tot=              0.4844
 Quadrupole moment (field-independent basis, Debye-Ang):
   XX=            -65.4565   YY=            -56.7138   ZZ=            -72.5494
   XY=             -1.3570   XZ=             -0.7701   YZ=              0.5031

 Normal termination of Gaussian 16 at Tue Dec  5 12:20:41 2023.
