 Gaussian 16, Revision B.01,
 Gaussian 16:  ES64L-G16RevB.01 20-Dec-2017

 -------------------------
 #P B3LYP/6-311+g(d) force
 -------------------------

 -----
 DPGEN
 -----
 Symbolic Z-matrix:
 Charge =  0 Multiplicity = 2

                         Standard orientation:
 ---------------------------------------------------------------------
 Center     Atomic      Atomic             Coordinates (Angstroms)
 Number     Number       Type             X           Y           Z
 ---------------------------------------------------------------------
      1         11           0        2.690234   -1.958711   -0.251729
      2         11           0       -3.677809    0.220703   -0.097607
      3         11           0       -1.382995   -2.180587    0.324783
      4         11           0        2.901728    1.651041   -0.063560
      5         11           0       -0.090914   -0.325415   -1.705504
      6         11           0       -0.747323    2.419712   -0.233310
      7         11           0        0.307079    0.173258    2.026926
 ---------------------------------------------------------------------

 SCF Done:  E(UB3LYP) =  -1136.12911538     A.U. after   19 cycles

 The electronic state is 2-A.
 Alpha  occ. eigenvalues --  -38.45168 -38.44392 -38.43966 -38.43683 -38.43560
 Alpha  occ. eigenvalues --  -38.43215 -38.42853  -2.20952  -2.20185  -2.19758
 Alpha  occ. eigenvalues --   -2.19636  -2.19463  -2.19115  -2.18728  -1.14622
 Alpha  occ. eigenvalues --   -1.14616  -1.14586  -1.13864  -1.13840  -1.13824
 Alpha  occ. eigenvalues --   -1.13437  -1.13415  -1.13400  -1.13360  -1.13310
 Alpha  occ. eigenvalues --   -1.13223  -1.13144  -1.13090  -1.13075  -1.12811
 Alpha  occ. eigenvalues --   -1.12779  -1.12711  -1.12441  -1.12405  -1.12321
 Alpha  occ. eigenvalues --   -0.18522  -0.13356  -0.11740  -0.10718
 Alpha virt. eigenvalues --   -0.06665  -0.05376  -0.03728  -0.03318  -0.02647
 Alpha virt. eigenvalues --   -0.02522  -0.02360  -0.01370  -0.00358  -0.00135
 Alpha virt. eigenvalues --   -0.00009   0.00235   0.00649   0.00733   0.00821

  Beta  occ. eigenvalues --  -38.45171 -38.44391 -38.43962 -38.43620 -38.43463
  Beta  occ. eigenvalues --  -38.43201 -38.42842  -2.20958  -2.20186  -2.19753
  Beta  occ. eigenvalues --   -2.19521  -2.19285  -2.19092  -2.18712  -1.14626
  Beta  occ. eigenvalues --   -1.14611  -1.14590  -1.13852  -1.13839  -1.13826
  Beta  occ. eigenvalues --   -1.13419  -1.13412  -1.13396  -1.13283  -1.13229
  Beta  occ. eigenvalues --   -1.13139  -1.13026  -1.12962  -1.12949  -1.12794
  Beta  occ. eigenvalues --   -1.12726  -1.12702  -1.12430  -1.12365  -1.12313
  Beta  occ. eigenvalues --   -0.17777  -0.13178  -0.11482
  Beta virt. eigenvalues --   -0.06790  -0.06575  -0.05387  -0.03695  -0.02622
  Beta virt. eigenvalues --   -0.02301  -0.01837  -0.01455  -0.01326  -0.00382
  Beta virt. eigenvalues --   -0.00042   0.00037   0.00256   0.00721   0.00806

 Mulliken charges and spin densities:
               1          2
     1  Na   0.151955  -0.061951
     2  Na   0.061091  -0.065948
     3  Na   0.368224  -0.002046
     4  Na   0.107084  -0.078393
     5  Na  -0.421862   0.639846
     6  Na   0.130721  -0.091608
     7  Na  -0.397213   0.660099
 Sum of Mulliken charges =  -0.00000   1.00000

 Dipole moment (field-independent basis, Debye):
    X=             -0.1585    Y=              0.1073    Z=              0.0632  Tot=              0.2016
 Quadrupole moment (field-independent basis, Debye-Ang):
   XX=            -46.6793   YY=            -70.2275   ZZ=            -74.5217
   XY=             -0.1264   XZ=             -0.3960   YZ=             -0.8063

 Normal termination of Gaussian 16 at Thu Dec  7 09:28:17 2023.
