 Gaussian 16, Revision B.01,
 Gaussian 16:  ES64L-G16RevB.01 20-Dec-2017

 -------------------------
 #P B3LYP/6-311+g(d) force
 -------------------------

 -----
 DPGEN
 -----
 Symbolic Z-matrix:
 Charge =  0 Multiplicity = 2

                         Standard orientation:
 ---------------------------------------------------------------------
 Center     Atomic      Atomic             Coordinates (Angstroms)
 Number     Number       Type             X           Y           Z
 ---------------------------------------------------------------------
      1         11           0       -1.101011   -2.672413   -0.312106
      2         11           0       -0.293925    2.969806   -0.108134
      3         11           0       -0.284726   -0.331606    1.851337
      4         11           0        2.286813   -1.805508   -0.062788
      5         11           0       -0.290155    0.192559   -1.799590
      6         11           0       -3.089209    0.434267    0.242683
      7         11           0        2.772213    1.212895    0.188598
 ---------------------------------------------------------------------

 SCF Done:  E(UB3LYP) =  -1136.13882302     A.U. after   19 cycles

 The electronic state is 2-A.
 Alpha  occ. eigenvalues --  -38.44117 -38.43655 -38.43501 -38.43477 -38.43455
 Alpha  occ. eigenvalues --  -38.43404 -38.43238  -2.19956  -2.19512  -2.19360
 Alpha  occ. eigenvalues --   -2.19345  -2.19338  -2.19333  -2.19196  -1.13643
 Alpha  occ. eigenvalues --   -1.13621  -1.13582  -1.13258  -1.13171  -1.13155
 Alpha  occ. eigenvalues --   -1.13078  -1.13052  -1.13026  -1.13019  -1.13010
 Alpha  occ. eigenvalues --   -1.13007  -1.12992  -1.12988  -1.12963  -1.12956
 Alpha  occ. eigenvalues --   -1.12943  -1.12938  -1.12860  -1.12813  -1.12811
 Alpha  occ. eigenvalues --   -0.18843  -0.13067  -0.12598  -0.10778
 Alpha virt. eigenvalues --   -0.05655  -0.04944  -0.04818  -0.03190  -0.02968
 Alpha virt. eigenvalues --   -0.02502  -0.01461  -0.01104  -0.00324  -0.00238
 Alpha virt. eigenvalues --   -0.00000   0.00369   0.00846   0.00913   0.00919

  Beta  occ. eigenvalues --  -38.44108 -38.43652 -38.43497 -38.43474 -38.43443
  Beta  occ. eigenvalues --  -38.43326 -38.43159  -2.19944  -2.19510  -2.19356
  Beta  occ. eigenvalues --   -2.19335  -2.19317  -2.19200  -2.19052  -1.13626
  Beta  occ. eigenvalues --   -1.13595  -1.13577  -1.13260  -1.13161  -1.13143
  Beta  occ. eigenvalues --   -1.13051  -1.13034  -1.13006  -1.12998  -1.12984
  Beta  occ. eigenvalues --   -1.12982  -1.12972  -1.12964  -1.12935  -1.12909
  Beta  occ. eigenvalues --   -1.12858  -1.12852  -1.12767  -1.12715  -1.12708
  Beta  occ. eigenvalues --   -0.18113  -0.12820  -0.12349
  Beta virt. eigenvalues --   -0.06867  -0.05629  -0.04932  -0.04767  -0.02401
  Beta virt. eigenvalues --   -0.02189  -0.01458  -0.01370  -0.01024  -0.00369
  Beta virt. eigenvalues --   -0.00297   0.00130   0.00396   0.00863   0.00906

 Mulliken charges and spin densities:
               1          2
     1  Na   0.295339  -0.057431
     2  Na   0.069673  -0.104641
     3  Na  -0.348188   0.718315
     4  Na   0.097076  -0.034817
     5  Na  -0.261515   0.645176
     6  Na   0.189080  -0.105774
     7  Na  -0.041465  -0.060828
 Sum of Mulliken charges =  -0.00000   1.00000

 Dipole moment (field-independent basis, Debye):
    X=             -0.3651    Y=              0.0628    Z=              0.0588  Tot=              0.3751
 Quadrupole moment (field-independent basis, Debye-Ang):
   XX=            -57.8416   YY=            -61.8114   ZZ=            -74.1946
   XY=             -0.0153   XZ=              0.0278   YZ=              1.2720

 Normal termination of Gaussian 16 at Thu Dec  7 09:28:55 2023.
