 Gaussian 16, Revision B.01,
 Gaussian 16:  ES64L-G16RevB.01 20-Dec-2017

 -------------------------
 #P B3LYP/6-311+g(d) force
 -------------------------

 -----
 DPGEN
 -----
 Symbolic Z-matrix:
 Charge =  0 Multiplicity = 2

                         Standard orientation:
 ---------------------------------------------------------------------
 Center     Atomic      Atomic             Coordinates (Angstroms)
 Number     Number       Type             X           Y           Z
 ---------------------------------------------------------------------
      1         11           0        0.756680   -1.207960    1.640806
      2         11           0       -1.535209    1.617829    0.519827
      3         11           0       -4.334572    0.075987   -1.002617
      4         11           0        3.098599   -2.679469   -0.570576
      5         11           0        2.518459    0.591029   -1.126932
      6         11           0       -2.076856   -2.197554    0.282727
      7         11           0        1.572899    3.800137    0.256764
 ---------------------------------------------------------------------

 SCF Done:  E(UB3LYP) =  -1136.12567718     A.U. after   20 cycles

 The electronic state is 2-A.
 Alpha  occ. eigenvalues --  -38.44609 -38.44549 -38.44229 -38.43809 -38.43783
 Alpha  occ. eigenvalues --  -38.43782 -38.43716  -2.20427  -2.20332  -2.20040
 Alpha  occ. eigenvalues --   -2.19650  -2.19622  -2.19608  -2.19480  -1.14111
 Alpha  occ. eigenvalues --   -1.14104  -1.14052  -1.14042  -1.14032  -1.13920
 Alpha  occ. eigenvalues --   -1.13735  -1.13719  -1.13645  -1.13327  -1.13303
 Alpha  occ. eigenvalues --   -1.13289  -1.13278  -1.13271  -1.13260  -1.13254
 Alpha  occ. eigenvalues --   -1.13230  -1.13222  -1.13153  -1.13147  -1.13112
 Alpha  occ. eigenvalues --   -0.16956  -0.13810  -0.12290  -0.10637
 Alpha virt. eigenvalues --   -0.06299  -0.05384  -0.04758  -0.03725  -0.02858
 Alpha virt. eigenvalues --   -0.02032  -0.01770  -0.01613  -0.01240  -0.00777
 Alpha virt. eigenvalues --   -0.00276   0.00136   0.00374   0.00527   0.00637

  Beta  occ. eigenvalues --  -38.44591 -38.44541 -38.44202 -38.43779 -38.43726
  Beta  occ. eigenvalues --  -38.43720 -38.43713  -2.20399  -2.20321  -2.19992
  Beta  occ. eigenvalues --   -2.19567  -2.19547  -2.19488  -2.19478  -1.14093
  Beta  occ. eigenvalues --   -1.14070  -1.14035  -1.14014  -1.14003  -1.13913
  Beta  occ. eigenvalues --   -1.13704  -1.13689  -1.13596  -1.13258  -1.13249
  Beta  occ. eigenvalues --   -1.13237  -1.13226  -1.13217  -1.13169  -1.13166
  Beta  occ. eigenvalues --   -1.13164  -1.13158  -1.13152  -1.13141  -1.13116
  Beta  occ. eigenvalues --   -0.16340  -0.13198  -0.12122
  Beta virt. eigenvalues --   -0.07099  -0.06162  -0.05243  -0.04327  -0.03327
  Beta virt. eigenvalues --   -0.02392  -0.01897  -0.01653  -0.01140  -0.00981
  Beta virt. eigenvalues --   -0.00627   0.00060   0.00308   0.00425   0.00638

 Mulliken charges and spin densities:
               1          2
     1  Na   0.025542   0.339497
     2  Na  -0.639438   0.001465
     3  Na   0.406689   0.384871
     4  Na   0.398905   0.111538
     5  Na  -0.378033   0.190441
     6  Na  -0.070414   0.004959
     7  Na   0.256749  -0.032771
 Sum of Mulliken charges =  -0.00000   1.00000

 Dipole moment (field-independent basis, Debye):
    X=             -0.0813    Y=             -0.5454    Z=              0.0563  Tot=              0.5543
 Quadrupole moment (field-independent basis, Debye-Ang):
   XX=            -67.0285   YY=            -60.2527   ZZ=            -70.4942
   XY=              1.2957   XZ=              1.1150   YZ=              2.1136

 Normal termination of Gaussian 16 at Sun Dec  3 17:20:26 2023.
