 Gaussian 16, Revision B.01,
 Gaussian 16:  ES64L-G16RevB.01 20-Dec-2017

 -------------------------
 #P B3LYP/6-311+g(d) force
 -------------------------

 -----
 DPGEN
 -----
 Symbolic Z-matrix:
 Charge =  0 Multiplicity = 2

                         Standard orientation:
 ---------------------------------------------------------------------
 Center     Atomic      Atomic             Coordinates (Angstroms)
 Number     Number       Type             X           Y           Z
 ---------------------------------------------------------------------
      1         11           0       -1.333395   -0.677643    1.904500
      2         11           0       -2.734004    2.100218   -0.583487
      3         11           0        0.780706    1.686745   -0.024701
      4         11           0       -3.166293   -1.208632   -0.612157
      5         11           0        2.901999   -0.313695   -1.560735
      6         11           0        0.475628   -2.110071   -0.330288
      7         11           0        3.075360    0.523078    1.206868
 ---------------------------------------------------------------------

 SCF Done:  E(UB3LYP) =  -1136.11410456     A.U. after   23 cycles

 The electronic state is 2-A.
 Alpha  occ. eigenvalues --  -38.45444 -38.44873 -38.44306 -38.43979 -38.43566
 Alpha  occ. eigenvalues --  -38.43190 -38.42967  -2.21382  -2.20718  -2.20259
 Alpha  occ. eigenvalues --   -2.19879  -2.19501  -2.19005  -2.18849  -1.15128
 Alpha  occ. eigenvalues --   -1.15072  -1.14972  -1.14419  -1.14378  -1.14334
 Alpha  occ. eigenvalues --   -1.13921  -1.13909  -1.13865  -1.13567  -1.13522
 Alpha  occ. eigenvalues --   -1.13487  -1.13201  -1.13162  -1.13129  -1.12677
 Alpha  occ. eigenvalues --   -1.12661  -1.12650  -1.12543  -1.12529  -1.12461
 Alpha  occ. eigenvalues --   -0.18620  -0.14792  -0.11294  -0.10784
 Alpha virt. eigenvalues --   -0.06804  -0.05333  -0.05056  -0.03281  -0.02554
 Alpha virt. eigenvalues --   -0.02402  -0.02063  -0.00986  -0.00648  -0.00163
 Alpha virt. eigenvalues --    0.00035   0.00214   0.00267   0.00479   0.00744

  Beta  occ. eigenvalues --  -38.45418 -38.44862 -38.44251 -38.43926 -38.43554
  Beta  occ. eigenvalues --  -38.43181 -38.42943  -2.21340  -2.20698  -2.20156
  Beta  occ. eigenvalues --   -2.19783  -2.19484  -2.18989  -2.18811  -1.15104
  Beta  occ. eigenvalues --   -1.15012  -1.14937  -1.14404  -1.14365  -1.14310
  Beta  occ. eigenvalues --   -1.13853  -1.13843  -1.13784  -1.13499  -1.13446
  Beta  occ. eigenvalues --   -1.13425  -1.13167  -1.13153  -1.13108  -1.12663
  Beta  occ. eigenvalues --   -1.12649  -1.12640  -1.12523  -1.12471  -1.12434
  Beta  occ. eigenvalues --   -0.17955  -0.14475  -0.11098
  Beta virt. eigenvalues --   -0.07088  -0.06588  -0.05147  -0.04395  -0.03219
  Beta virt. eigenvalues --   -0.02309  -0.01813  -0.01469  -0.00855  -0.00306
  Beta virt. eigenvalues --   -0.00042   0.00124   0.00278   0.00448   0.00652

 Mulliken charges and spin densities:
               1          2
     1  Na   0.187651   0.229871
     2  Na  -0.373747   0.093842
     3  Na  -0.994266   0.187763
     4  Na   0.258126   0.124166
     5  Na   0.416298   0.117599
     6  Na  -0.613179   0.112342
     7  Na   1.119117   0.134417
 Sum of Mulliken charges =  -0.00000   1.00000

 Dipole moment (field-independent basis, Debye):
    X=              0.4717    Y=             -0.5098    Z=              0.3741  Tot=              0.7889
 Quadrupole moment (field-independent basis, Debye-Ang):
   XX=            -51.6712   YY=            -77.7895   ZZ=            -67.2924
   XY=              3.0386   XZ=              2.2754   YZ=              0.7814

 Normal termination of Gaussian 16 at Wed Dec  6 00:44:47 2023.
