 Gaussian 16, Revision B.01,
 Gaussian 16:  ES64L-G16RevB.01 20-Dec-2017

 -------------------------
 #P B3LYP/6-311+g(d) force
 -------------------------

 -----
 DPGEN
 -----
 Symbolic Z-matrix:
 Charge =  0 Multiplicity = 2

                         Standard orientation:
 ---------------------------------------------------------------------
 Center     Atomic      Atomic             Coordinates (Angstroms)
 Number     Number       Type             X           Y           Z
 ---------------------------------------------------------------------
      1         11           0        2.575410   -1.660057    0.023478
      2         11           0       -0.942180   -2.853904   -0.201188
      3         11           0        2.525989    1.795477    0.092754
      4         11           0       -0.859422    2.869983   -0.341958
      5         11           0       -3.142474    0.131325   -0.233338
      6         11           0        0.329050   -0.254181   -1.459775
      7         11           0       -0.486373   -0.028642    2.120028
 ---------------------------------------------------------------------

 SCF Done:  E(UB3LYP) =  -1136.13761822     A.U. after   18 cycles

 The electronic state is 2-A.
 Alpha  occ. eigenvalues --  -38.44031 -38.43874 -38.43726 -38.43639 -38.43526
 Alpha  occ. eigenvalues --  -38.43505 -38.42977  -2.19850  -2.19736  -2.19559
 Alpha  occ. eigenvalues --   -2.19488  -2.19374  -2.19352  -2.19000  -1.13524
 Alpha  occ. eigenvalues --   -1.13513  -1.13491  -1.13470  -1.13387  -1.13359
 Alpha  occ. eigenvalues --   -1.13239  -1.13220  -1.13202  -1.13196  -1.13148
 Alpha  occ. eigenvalues --   -1.13106  -1.13038  -1.13032  -1.13015  -1.12993
 Alpha  occ. eigenvalues --   -1.12990  -1.12985  -1.12681  -1.12632  -1.12624
 Alpha  occ. eigenvalues --   -0.18554  -0.12970  -0.12588  -0.10514
 Alpha virt. eigenvalues --   -0.05584  -0.05280  -0.04901  -0.03117  -0.02826
 Alpha virt. eigenvalues --   -0.02402  -0.01458  -0.01225  -0.00509  -0.00480
 Alpha virt. eigenvalues --   -0.00002   0.00351   0.00805   0.00853   0.00879

  Beta  occ. eigenvalues --  -38.44026 -38.43871 -38.43724 -38.43631 -38.43519
  Beta  occ. eigenvalues --  -38.43405 -38.42925  -2.19844  -2.19733  -2.19558
  Beta  occ. eigenvalues --   -2.19479  -2.19342  -2.19188  -2.18907  -1.13512
  Beta  occ. eigenvalues --   -1.13496  -1.13490  -1.13464  -1.13367  -1.13361
  Beta  occ. eigenvalues --   -1.13235  -1.13204  -1.13199  -1.13190  -1.13120
  Beta  occ. eigenvalues --   -1.13104  -1.13020  -1.12994  -1.12982  -1.12910
  Beta  occ. eigenvalues --   -1.12863  -1.12861  -1.12612  -1.12566  -1.12556
  Beta  occ. eigenvalues --   -0.17854  -0.12759  -0.12356
  Beta virt. eigenvalues --   -0.06600  -0.05560  -0.05274  -0.04825  -0.02340
  Beta virt. eigenvalues --   -0.02084  -0.01376  -0.01337  -0.01156  -0.00562
  Beta virt. eigenvalues --   -0.00520   0.00160   0.00391   0.00839   0.00860

 Mulliken charges and spin densities:
               1          2
     1  Na   0.310637   0.003075
     2  Na   0.258273  -0.050681
     3  Na   0.095362   0.004069
     4  Na   0.068848  -0.017871
     5  Na   0.198627  -0.025775
     6  Na  -0.331180   0.292770
     7  Na  -0.600567   0.794413
 Sum of Mulliken charges =  -0.00000   1.00000

 Dipole moment (field-independent basis, Debye):
    X=             -0.0526    Y=             -0.0892    Z=              0.1585  Tot=              0.1893
 Quadrupole moment (field-independent basis, Debye-Ang):
   XX=            -56.6417   YY=            -60.5492   ZZ=            -75.6421
   XY=              0.2038   XZ=              1.8597   YZ=             -0.4141

 Normal termination of Gaussian 16 at Fri Dec  8 04:01:58 2023.
