 Gaussian 16, Revision B.01,
 Gaussian 16:  ES64L-G16RevB.01 20-Dec-2017

 -------------------------
 #P B3LYP/6-311+g(d) force
 -------------------------

 -----
 DPGEN
 -----
 Symbolic Z-matrix:
 Charge =  0 Multiplicity = 2

                         Standard orientation:
 ---------------------------------------------------------------------
 Center     Atomic      Atomic             Coordinates (Angstroms)
 Number     Number       Type             X           Y           Z
 ---------------------------------------------------------------------
      1         11           0        3.120789   -1.983013   -0.886137
      2         11           0       -3.033641    0.872583    0.159887
      3         11           0        2.653455    1.834466    1.163972
      4         11           0        0.214123   -0.787177   -1.655077
      5         11           0       -0.633474    3.132816   -1.186199
      6         11           0       -2.416939   -2.553040    0.185100
      7         11           0        0.095688   -0.516635    2.218453
 ---------------------------------------------------------------------

 SCF Done:  E(UB3LYP) =  -1136.12156264     A.U. after   21 cycles

 The electronic state is 2-A.
 Alpha  occ. eigenvalues --  -38.44949 -38.44772 -38.44234 -38.44202 -38.44083
 Alpha  occ. eigenvalues --  -38.43958 -38.43223  -2.20748  -2.20521  -2.20015
 Alpha  occ. eigenvalues --   -2.19996  -2.19927  -2.19754  -2.18994  -1.14416
 Alpha  occ. eigenvalues --   -1.14399  -1.14352  -1.14191  -1.14163  -1.14156
 Alpha  occ. eigenvalues --   -1.13720  -1.13689  -1.13668  -1.13667  -1.13644
 Alpha  occ. eigenvalues --   -1.13623  -1.13600  -1.13570  -1.13536  -1.13425
 Alpha  occ. eigenvalues --   -1.13409  -1.13394  -1.12668  -1.12646  -1.12635
 Alpha  occ. eigenvalues --   -0.17183  -0.12845  -0.11845  -0.11327
 Alpha virt. eigenvalues --   -0.05993  -0.05762  -0.04664  -0.03442  -0.03046
 Alpha virt. eigenvalues --   -0.02734  -0.01814  -0.01601  -0.00740  -0.00367
 Alpha virt. eigenvalues --   -0.00095   0.00174   0.00440   0.00566   0.00654

  Beta  occ. eigenvalues --  -38.44868 -38.44738 -38.44209 -38.44202 -38.44035
  Beta  occ. eigenvalues --  -38.43959 -38.43206  -2.20599  -2.20459  -2.19999
  Beta  occ. eigenvalues --   -2.19970  -2.19839  -2.19758  -2.18963  -1.14318
  Beta  occ. eigenvalues --   -1.14301  -1.14234  -1.14134  -1.14122  -1.14117
  Beta  occ. eigenvalues --   -1.13687  -1.13675  -1.13669  -1.13638  -1.13618
  Beta  occ. eigenvalues --   -1.13612  -1.13542  -1.13514  -1.13470  -1.13420
  Beta  occ. eigenvalues --   -1.13414  -1.13394  -1.12644  -1.12626  -1.12613
  Beta  occ. eigenvalues --   -0.16553  -0.12512  -0.11473
  Beta virt. eigenvalues --   -0.07706  -0.05826  -0.05532  -0.04417  -0.02908
  Beta virt. eigenvalues --   -0.02542  -0.02041  -0.01676  -0.01373  -0.00657
  Beta virt. eigenvalues --   -0.00314   0.00011   0.00289   0.00523   0.00684

 Mulliken charges and spin densities:
               1          2
     1  Na  -0.103478   0.054048
     2  Na  -0.050876   0.048322
     3  Na  -0.138507   0.148431
     4  Na   0.119451   0.309583
     5  Na  -0.033279   0.026568
     6  Na   0.113907   0.027248
     7  Na   0.092782   0.385800
 Sum of Mulliken charges =  -0.00000   1.00000

 Dipole moment (field-independent basis, Debye):
    X=              0.2281    Y=             -0.6445    Z=              0.5297  Tot=              0.8649
 Quadrupole moment (field-independent basis, Debye-Ang):
   XX=            -57.9020   YY=            -66.8774   ZZ=            -71.4471
   XY=              2.8904   XZ=              0.0353   YZ=             -0.0727

 Normal termination of Gaussian 16 at Sun Dec  3 13:15:29 2023.
