 Gaussian 16, Revision B.01,
 Gaussian 16:  ES64L-G16RevB.01 20-Dec-2017

 -------------------------
 #P B3LYP/6-311+g(d) force
 -------------------------

 -----
 DPGEN
 -----
 Symbolic Z-matrix:
 Charge =  0 Multiplicity = 2

                         Standard orientation:
 ---------------------------------------------------------------------
 Center     Atomic      Atomic             Coordinates (Angstroms)
 Number     Number       Type             X           Y           Z
 ---------------------------------------------------------------------
      1         11           0        0.105557    0.167534    1.576247
      2         11           0        2.160979    2.546090    0.098981
      3         11           0       -0.047990   -2.745282   -0.548750
      4         11           0        3.240303   -1.120403    0.198220
      5         11           0       -2.529681    1.902306   -0.491563
      6         11           0        0.123948    0.157570   -1.522180
      7         11           0       -3.053116   -0.907815    0.689045
 ---------------------------------------------------------------------

 SCF Done:  E(UB3LYP) =  -1136.12846422     A.U. after   22 cycles

 The electronic state is 2-A.
 Alpha  occ. eigenvalues --  -38.45063 -38.44086 -38.44019 -38.43749 -38.43526
 Alpha  occ. eigenvalues --  -38.42915 -38.42848  -2.20844  -2.19940  -2.19886
 Alpha  occ. eigenvalues --   -2.19549  -2.19476  -2.18930  -2.18719  -1.14532
 Alpha  occ. eigenvalues --   -1.14491  -1.14474  -1.13690  -1.13608  -1.13581
 Alpha  occ. eigenvalues --   -1.13544  -1.13512  -1.13484  -1.13243  -1.13229
 Alpha  occ. eigenvalues --   -1.13209  -1.13186  -1.13094  -1.13075  -1.12660
 Alpha  occ. eigenvalues --   -1.12598  -1.12529  -1.12381  -1.12365  -1.12331
 Alpha  occ. eigenvalues --   -0.18592  -0.13557  -0.11912  -0.10275
 Alpha virt. eigenvalues --   -0.06387  -0.05522  -0.04138  -0.03297  -0.02517
 Alpha virt. eigenvalues --   -0.02189  -0.01969  -0.01358  -0.00607  -0.00221
 Alpha virt. eigenvalues --    0.00013   0.00284   0.00685   0.00739   0.00764

  Beta  occ. eigenvalues --  -38.45060 -38.44073 -38.43996 -38.43751 -38.43472
  Beta  occ. eigenvalues --  -38.42839 -38.42832  -2.20839  -2.19920  -2.19845
  Beta  occ. eigenvalues --   -2.19554  -2.19379  -2.18793  -2.18695  -1.14518
  Beta  occ. eigenvalues --   -1.14489  -1.14468  -1.13675  -1.13576  -1.13561
  Beta  occ. eigenvalues --   -1.13505  -1.13479  -1.13461  -1.13228  -1.13219
  Beta  occ. eigenvalues --   -1.13184  -1.13155  -1.13030  -1.12999  -1.12575
  Beta  occ. eigenvalues --   -1.12503  -1.12433  -1.12345  -1.12327  -1.12311
  Beta  occ. eigenvalues --   -0.17921  -0.13294  -0.11647
  Beta virt. eigenvalues --   -0.06517  -0.06297  -0.05420  -0.04088  -0.02614
  Beta virt. eigenvalues --   -0.02106  -0.01796  -0.01330  -0.00983  -0.00612
  Beta virt. eigenvalues --   -0.00190   0.00132   0.00336   0.00738   0.00776

 Mulliken charges and spin densities:
               1          2
     1  Na  -0.137301   0.452423
     2  Na  -0.163003  -0.045534
     3  Na  -0.036707   0.076155
     4  Na   0.028073  -0.031881
     5  Na   0.095716   0.057046
     6  Na   0.081372   0.299641
     7  Na   0.131851   0.192151
 Sum of Mulliken charges =  -0.00000   1.00000

 Dipole moment (field-independent basis, Debye):
    X=              0.5622    Y=              0.0713    Z=              0.1140  Tot=              0.5780
 Quadrupole moment (field-independent basis, Debye-Ang):
   XX=            -49.9139   YY=            -64.2036   ZZ=            -76.5550
   XY=             -0.9695   XZ=              0.2044   YZ=             -0.9162

 Normal termination of Gaussian 16 at Sat Dec  9 06:04:51 2023.
