 Gaussian 16, Revision B.01,
 Gaussian 16:  ES64L-G16RevB.01 20-Dec-2017

 -------------------------
 #P B3LYP/6-311+g(d) force
 -------------------------

 -----
 DPGEN
 -----
 Symbolic Z-matrix:
 Charge =  0 Multiplicity = 2

                         Standard orientation:
 ---------------------------------------------------------------------
 Center     Atomic      Atomic             Coordinates (Angstroms)
 Number     Number       Type             X           Y           Z
 ---------------------------------------------------------------------
      1         11           0        2.817653    1.617026    0.156256
      2         11           0       -1.080139    2.581625   -0.216161
      3         11           0       -0.012417   -0.081622   -1.658038
      4         11           0        2.868393   -1.575375   -0.438851
      5         11           0       -0.261371    0.257944    2.035529
      6         11           0       -0.579606   -2.423025    0.488992
      7         11           0       -3.752513   -0.376573   -0.367726
 ---------------------------------------------------------------------

 SCF Done:  E(UB3LYP) =  -1136.12780438     A.U. after   20 cycles

 The electronic state is 2-A.
 Alpha  occ. eigenvalues --  -38.45456 -38.44224 -38.43836 -38.43789 -38.43572
 Alpha  occ. eigenvalues --  -38.43141 -38.42874  -2.21198  -2.20030  -2.19774
 Alpha  occ. eigenvalues --   -2.19627  -2.19491  -2.18987  -2.18767  -1.14875
 Alpha  occ. eigenvalues --   -1.14852  -1.14822  -1.13716  -1.13703  -1.13663
 Alpha  occ. eigenvalues --   -1.13481  -1.13445  -1.13383  -1.13292  -1.13285
 Alpha  occ. eigenvalues --   -1.13258  -1.13180  -1.13127  -1.13096  -1.12689
 Alpha  occ. eigenvalues --   -1.12663  -1.12586  -1.12477  -1.12438  -1.12354
 Alpha  occ. eigenvalues --   -0.18405  -0.13211  -0.11816  -0.10822
 Alpha virt. eigenvalues --   -0.06778  -0.05012  -0.03895  -0.03277  -0.02797
 Alpha virt. eigenvalues --   -0.02588  -0.02444  -0.01143  -0.00328  -0.00237
 Alpha virt. eigenvalues --   -0.00030   0.00208   0.00652   0.00722   0.00808

  Beta  occ. eigenvalues --  -38.45444 -38.44224 -38.43787 -38.43783 -38.43469
  Beta  occ. eigenvalues --  -38.43135 -38.42855  -2.21177  -2.20033  -2.19684
  Beta  occ. eigenvalues --   -2.19617  -2.19303  -2.18981  -2.18737  -1.14852
  Beta  occ. eigenvalues --   -1.14836  -1.14810  -1.13721  -1.13689  -1.13663
  Beta  occ. eigenvalues --   -1.13417  -1.13383  -1.13322  -1.13283  -1.13262
  Beta  occ. eigenvalues --   -1.13249  -1.13053  -1.12992  -1.12966  -1.12683
  Beta  occ. eigenvalues --   -1.12639  -1.12579  -1.12456  -1.12382  -1.12341
  Beta  occ. eigenvalues --   -0.17698  -0.12956  -0.11570
  Beta virt. eigenvalues --   -0.07009  -0.06600  -0.04993  -0.03861  -0.02651
  Beta virt. eigenvalues --   -0.02357  -0.01963  -0.01549  -0.01097  -0.00363
  Beta virt. eigenvalues --   -0.00119   0.00024   0.00261   0.00770   0.00787

 Mulliken charges and spin densities:
               1          2
     1  Na   0.065248  -0.047606
     2  Na  -0.034085  -0.081983
     3  Na  -0.214635   0.575207
     4  Na   0.147590   0.012516
     5  Na  -0.112260   0.528846
     6  Na   0.135168   0.021902
     7  Na   0.012975  -0.008881
 Sum of Mulliken charges =  -0.00000   1.00000

 Dipole moment (field-independent basis, Debye):
    X=             -0.5095    Y=              0.1052    Z=             -0.0177  Tot=              0.5205
 Quadrupole moment (field-independent basis, Debye-Ang):
   XX=            -48.9896   YY=            -69.4291   ZZ=            -73.6826
   XY=              0.5676   XZ=              0.8234   YZ=              0.2474

 Normal termination of Gaussian 16 at Thu Dec  7 22:34:59 2023.
