 Gaussian 16, Revision B.01,
 Gaussian 16:  ES64L-G16RevB.01 20-Dec-2017

 -------------------------
 #P B3LYP/6-311+g(d) force
 -------------------------

 -----
 DPGEN
 -----
 Symbolic Z-matrix:
 Charge =  0 Multiplicity = 2

                         Standard orientation:
 ---------------------------------------------------------------------
 Center     Atomic      Atomic             Coordinates (Angstroms)
 Number     Number       Type             X           Y           Z
 ---------------------------------------------------------------------
      1         11           0        3.424755    0.783143   -0.167366
      2         11           0       -4.890549   -0.863638   -0.426050
      3         11           0       -2.206931    0.950273    0.703747
      4         11           0        0.345260   -0.379958   -1.809514
      5         11           0        0.503651   -0.946983    1.841031
      6         11           0        2.300441   -2.498316   -0.104418
      7         11           0        0.523373    2.955479   -0.037428
 ---------------------------------------------------------------------

 SCF Done:  E(UB3LYP) =  -1136.11652288     A.U. after   26 cycles

 The electronic state is 2-A.
 Alpha  occ. eigenvalues --  -38.45922 -38.45100 -38.44552 -38.43870 -38.43474
 Alpha  occ. eigenvalues --  -38.43121 -38.43019  -2.21745  -2.20900  -2.20332
 Alpha  occ. eigenvalues --   -2.19773  -2.19369  -2.18974  -2.18832  -1.15431
 Alpha  occ. eigenvalues --   -1.15389  -1.15375  -1.14591  -1.14560  -1.14530
 Alpha  occ. eigenvalues --   -1.13979  -1.13975  -1.13949  -1.13453  -1.13419
 Alpha  occ. eigenvalues --   -1.13395  -1.13031  -1.13029  -1.13002  -1.12664
 Alpha  occ. eigenvalues --   -1.12657  -1.12616  -1.12507  -1.12488  -1.12477
 Alpha  occ. eigenvalues --   -0.18083  -0.13614  -0.11731  -0.10791
 Alpha virt. eigenvalues --   -0.07592  -0.04985  -0.04475  -0.03260  -0.03037
 Alpha virt. eigenvalues --   -0.02492  -0.02282  -0.01470  -0.00752  -0.00687
 Alpha virt. eigenvalues --   -0.00361   0.00040   0.00222   0.00571   0.00639

  Beta  occ. eigenvalues --  -38.45896 -38.45107 -38.44473 -38.43782 -38.43471
  Beta  occ. eigenvalues --  -38.43110 -38.43021  -2.21697  -2.20915  -2.20184
  Beta  occ. eigenvalues --   -2.19610  -2.19367  -2.18961  -2.18836  -1.15393
  Beta  occ. eigenvalues --   -1.15356  -1.15339  -1.14591  -1.14566  -1.14548
  Beta  occ. eigenvalues --   -1.13877  -1.13873  -1.13853  -1.13349  -1.13313
  Beta  occ. eigenvalues --   -1.13278  -1.13036  -1.13015  -1.12974  -1.12661
  Beta  occ. eigenvalues --   -1.12642  -1.12571  -1.12510  -1.12490  -1.12469
  Beta  occ. eigenvalues --   -0.17582  -0.13014  -0.11532
  Beta virt. eigenvalues --   -0.07411  -0.07140  -0.04868  -0.04098  -0.03019
  Beta virt. eigenvalues --   -0.02726  -0.01988  -0.01756  -0.01216  -0.00679
  Beta virt. eigenvalues --   -0.00393  -0.00183   0.00094   0.00430   0.00655

 Mulliken charges and spin densities:
               1          2
     1  Na  -0.075141   0.035320
     2  Na   0.060967   0.404750
     3  Na  -0.077575   0.108925
     4  Na  -0.230354   0.189675
     5  Na  -0.180897   0.252735
     6  Na   0.567377   0.133174
     7  Na  -0.064377  -0.124578
 Sum of Mulliken charges =  -0.00000   1.00000

 Dipole moment (field-independent basis, Debye):
    X=              1.1703    Y=             -0.4099    Z=             -0.4295  Tot=              1.3123
 Quadrupole moment (field-independent basis, Debye-Ang):
   XX=            -59.2138   YY=            -70.1603   ZZ=            -69.8560
   XY=              0.2385   XZ=              2.7584   YZ=              3.4437

 Normal termination of Gaussian 16 at Thu Dec  7 08:28:02 2023.
