 Gaussian 16, Revision B.01,
 Gaussian 16:  ES64L-G16RevB.01 20-Dec-2017

 -------------------------
 #P B3LYP/6-311+g(d) force
 -------------------------

 -----
 DPGEN
 -----
 Symbolic Z-matrix:
 Charge =  0 Multiplicity = 2

                         Standard orientation:
 ---------------------------------------------------------------------
 Center     Atomic      Atomic             Coordinates (Angstroms)
 Number     Number       Type             X           Y           Z
 ---------------------------------------------------------------------
      1         11           0        0.003266   -0.242829    2.261123
      2         11           0       -1.164579   -2.939818   -0.324388
      3         11           0       -0.697070    3.166605   -0.005412
      4         11           0        3.319395    1.211029   -0.214969
      5         11           0        2.172746   -1.822236   -0.162346
      6         11           0       -3.324586    0.358893   -0.065302
      7         11           0       -0.309172    0.268355   -1.488706
 ---------------------------------------------------------------------

 SCF Done:  E(UB3LYP) =  -1136.13187057     A.U. after   19 cycles

 The electronic state is 2-A.
 Alpha  occ. eigenvalues --  -38.44772 -38.44234 -38.44060 -38.43731 -38.43465
 Alpha  occ. eigenvalues --  -38.43444 -38.43293  -2.20557  -2.20016  -2.19846
 Alpha  occ. eigenvalues --   -2.19566  -2.19314  -2.19278  -2.19232  -1.14244
 Alpha  occ. eigenvalues --   -1.14218  -1.14181  -1.13695  -1.13680  -1.13652
 Alpha  occ. eigenvalues --   -1.13541  -1.13507  -1.13471  -1.13221  -1.13191
 Alpha  occ. eigenvalues --   -1.13182  -1.13008  -1.12981  -1.12969  -1.12949
 Alpha  occ. eigenvalues --   -1.12934  -1.12920  -1.12909  -1.12865  -1.12856
 Alpha  occ. eigenvalues --   -0.17989  -0.12960  -0.12167  -0.10505
 Alpha virt. eigenvalues --   -0.06220  -0.05079  -0.04999  -0.03092  -0.02685
 Alpha virt. eigenvalues --   -0.02564  -0.01857  -0.01321  -0.00860  -0.00481
 Alpha virt. eigenvalues --   -0.00051   0.00300   0.00707   0.00778   0.00821

  Beta  occ. eigenvalues --  -38.44769 -38.44233 -38.44059 -38.43617 -38.43460
  Beta  occ. eigenvalues --  -38.43437 -38.43249  -2.20554  -2.20016  -2.19846
  Beta  occ. eigenvalues --   -2.19356  -2.19305  -2.19271  -2.19153  -1.14233
  Beta  occ. eigenvalues --   -1.14210  -1.14183  -1.13697  -1.13669  -1.13653
  Beta  occ. eigenvalues --   -1.13537  -1.13497  -1.13474  -1.13081  -1.13045
  Beta  occ. eigenvalues --   -1.13036  -1.12998  -1.12966  -1.12946  -1.12934
  Beta  occ. eigenvalues --   -1.12918  -1.12906  -1.12864  -1.12810  -1.12799
  Beta  occ. eigenvalues --   -0.17298  -0.12778  -0.11990
  Beta virt. eigenvalues --   -0.06536  -0.06200  -0.05030  -0.04938  -0.02361
  Beta virt. eigenvalues --   -0.02011  -0.01777  -0.01464  -0.01242  -0.00900
  Beta virt. eigenvalues --   -0.00515   0.00129   0.00351   0.00721   0.00839

 Mulliken charges and spin densities:
               1          2
     1  Na  -0.541693   0.775802
     2  Na   0.162788   0.010207
     3  Na   0.004052  -0.053099
     4  Na   0.013337  -0.034619
     5  Na   0.251299   0.067104
     6  Na   0.156883  -0.031307
     7  Na  -0.046665   0.265912
 Sum of Mulliken charges =  -0.00000   1.00000

 Dipole moment (field-independent basis, Debye):
    X=             -0.4755    Y=              0.4024    Z=              0.0900  Tot=              0.6293
 Quadrupole moment (field-independent basis, Debye-Ang):
   XX=            -55.3439   YY=            -61.2179   ZZ=            -76.3872
   XY=              1.4670   XZ=             -0.6633   YZ=              1.1074

 Normal termination of Gaussian 16 at Fri Dec  8 03:45:00 2023.
