 Gaussian 16, Revision B.01,
 Gaussian 16:  ES64L-G16RevB.01 20-Dec-2017

 -------------------------
 #P B3LYP/6-311+g(d) force
 -------------------------

 -----
 DPGEN
 -----
 Symbolic Z-matrix:
 Charge =  0 Multiplicity = 2

                         Standard orientation:
 ---------------------------------------------------------------------
 Center     Atomic      Atomic             Coordinates (Angstroms)
 Number     Number       Type             X           Y           Z
 ---------------------------------------------------------------------
      1         11           0       -0.957395    2.840176    0.266136
      2         11           0       -3.123737    0.124059   -0.333965
      3         11           0       -1.051097   -2.722861    0.017650
      4         11           0        0.427151   -0.422355    1.938953
      5         11           0        2.373494   -1.594782   -0.382057
      6         11           0        0.028338   -0.052884   -1.221611
      7         11           0        2.303246    1.828645   -0.285107
 ---------------------------------------------------------------------

 SCF Done:  E(UB3LYP) =  -1136.13313574     A.U. after   19 cycles

 The electronic state is 2-A.
 Alpha  occ. eigenvalues --  -38.43769 -38.43655 -38.43592 -38.43591 -38.43583
 Alpha  occ. eigenvalues --  -38.43201 -38.42678  -2.19605  -2.19598  -2.19485
 Alpha  occ. eigenvalues --   -2.19481  -2.19423  -2.19162  -2.18846  -1.13372
 Alpha  occ. eigenvalues --   -1.13298  -1.13262  -1.13260  -1.13248  -1.13227
 Alpha  occ. eigenvalues --   -1.13193  -1.13181  -1.13153  -1.13136  -1.13116
 Alpha  occ. eigenvalues --   -1.13090  -1.13089  -1.13084  -1.13047  -1.12859
 Alpha  occ. eigenvalues --   -1.12776  -1.12758  -1.12519  -1.12472  -1.12465
 Alpha  occ. eigenvalues --   -0.19210  -0.13058  -0.12889  -0.10486
 Alpha virt. eigenvalues --   -0.05331  -0.05183  -0.04958  -0.02841  -0.02833
 Alpha virt. eigenvalues --   -0.02146  -0.01364  -0.01249  -0.00379  -0.00236
 Alpha virt. eigenvalues --    0.00039   0.00349   0.00871   0.00885   0.00901

  Beta  occ. eigenvalues --  -38.43764 -38.43638 -38.43583 -38.43583 -38.43580
  Beta  occ. eigenvalues --  -38.43105 -38.42628  -2.19598  -2.19572  -2.19474
  Beta  occ. eigenvalues --   -2.19471  -2.19419  -2.18986  -2.18758  -1.13352
  Beta  occ. eigenvalues --   -1.13288  -1.13249  -1.13245  -1.13223  -1.13203
  Beta  occ. eigenvalues --   -1.13183  -1.13171  -1.13117  -1.13111  -1.13105
  Beta  occ. eigenvalues --   -1.13085  -1.13083  -1.13067  -1.13043  -1.12747
  Beta  occ. eigenvalues --   -1.12656  -1.12630  -1.12447  -1.12404  -1.12396
  Beta  occ. eigenvalues --   -0.18493  -0.12771  -0.12654
  Beta virt. eigenvalues --   -0.06549  -0.05298  -0.05146  -0.04898  -0.02126
  Beta virt. eigenvalues --   -0.02070  -0.01307  -0.01209  -0.01047  -0.00385
  Beta virt. eigenvalues --   -0.00286   0.00189   0.00399   0.00880   0.00901

 Mulliken charges and spin densities:
               1          2
     1  Na   0.058088   0.041177
     2  Na   0.085696   0.010902
     3  Na   0.381138   0.033422
     4  Na  -0.433868   0.738467
     5  Na   0.581934   0.060043
     6  Na  -0.942671   0.064422
     7  Na   0.269683   0.051567
 Sum of Mulliken charges =  -0.00000   1.00000

 Dipole moment (field-independent basis, Debye):
    X=             -0.0888    Y=              0.0028    Z=              0.2832  Tot=              0.2968
 Quadrupole moment (field-independent basis, Debye-Ang):
   XX=            -57.3118   YY=            -58.7200   ZZ=            -75.7266
   XY=              0.2119   XZ=             -0.7229   YZ=              0.8957

 Normal termination of Gaussian 16 at Wed Nov 29 00:26:32 2023.
