 Gaussian 16, Revision B.01,
 Gaussian 16:  ES64L-G16RevB.01 20-Dec-2017

 -------------------------
 #P B3LYP/6-311+g(d) force
 -------------------------

 -----
 DPGEN
 -----
 Symbolic Z-matrix:
 Charge =  0 Multiplicity = 2

                         Standard orientation:
 ---------------------------------------------------------------------
 Center     Atomic      Atomic             Coordinates (Angstroms)
 Number     Number       Type             X           Y           Z
 ---------------------------------------------------------------------
      1         11           0        0.145519   -0.113926    2.067122
      2         11           0       -0.911401    0.160367   -1.669453
      3         11           0       -0.553984   -2.760740   -1.082379
      4         11           0        2.473125   -1.448239    0.868359
      5         11           0       -3.346755   -0.101920    0.739760
      6         11           0        2.458551    1.103031   -0.858600
      7         11           0       -0.265055    3.161428   -0.064810
 ---------------------------------------------------------------------

 SCF Done:  E(UB3LYP) =  -1136.12615811     A.U. after   20 cycles

 The electronic state is 2-A.
 Alpha  occ. eigenvalues --  -38.44593 -38.44361 -38.43996 -38.43856 -38.43453
 Alpha  occ. eigenvalues --  -38.43404 -38.43364  -2.20371  -2.20260  -2.19833
 Alpha  occ. eigenvalues --   -2.19722  -2.19353  -2.19273  -2.19256  -1.14045
 Alpha  occ. eigenvalues --   -1.14023  -1.14004  -1.13974  -1.13890  -1.13870
 Alpha  occ. eigenvalues --   -1.13590  -1.13456  -1.13437  -1.13418  -1.13392
 Alpha  occ. eigenvalues --   -1.13354  -1.13027  -1.13007  -1.12974  -1.12972
 Alpha  occ. eigenvalues --   -1.12929  -1.12917  -1.12906  -1.12893  -1.12867
 Alpha  occ. eigenvalues --   -0.18330  -0.12856  -0.12147  -0.11589
 Alpha virt. eigenvalues --   -0.05896  -0.04773  -0.04347  -0.03664  -0.03134
 Alpha virt. eigenvalues --   -0.03004  -0.01561  -0.01112  -0.00377   0.00025
 Alpha virt. eigenvalues --    0.00127   0.00347   0.00600   0.00787   0.00899

  Beta  occ. eigenvalues --  -38.44573 -38.44278 -38.43957 -38.43843 -38.43458
  Beta  occ. eigenvalues --  -38.43354 -38.43353  -2.20335  -2.20108  -2.19762
  Beta  occ. eigenvalues --   -2.19700  -2.19266  -2.19264  -2.19254  -1.14011
  Beta  occ. eigenvalues --   -1.13998  -1.13979  -1.13865  -1.13782  -1.13768
  Beta  occ. eigenvalues --   -1.13527  -1.13407  -1.13403  -1.13393  -1.13360
  Beta  occ. eigenvalues --   -1.13343  -1.12973  -1.12954  -1.12942  -1.12929
  Beta  occ. eigenvalues --   -1.12914  -1.12905  -1.12894  -1.12883  -1.12851
  Beta  occ. eigenvalues --   -0.17611  -0.12608  -0.11879
  Beta virt. eigenvalues --   -0.07709  -0.05732  -0.04634  -0.04196  -0.03052
  Beta virt. eigenvalues --   -0.02531  -0.02072  -0.01392  -0.01004  -0.00216
  Beta virt. eigenvalues --    0.00034   0.00184   0.00399   0.00689   0.00805

 Mulliken charges and spin densities:
               1          2
     1  Na  -0.392133   0.410256
     2  Na   0.402588   0.256978
     3  Na  -0.346459   0.062819
     4  Na   0.635845   0.149955
     5  Na  -0.002778   0.107411
     6  Na  -0.425728   0.006493
     7  Na   0.128665   0.006088
 Sum of Mulliken charges =  -0.00000   1.00000

 Dipole moment (field-independent basis, Debye):
    X=             -0.5123    Y=             -0.0341    Z=              0.2389  Tot=              0.5663
 Quadrupole moment (field-independent basis, Debye-Ang):
   XX=            -60.1151   YY=            -65.2007   ZZ=            -70.0875
   XY=             -0.8369   XZ=             -3.3040   YZ=              1.3574

 Normal termination of Gaussian 16 at Mon Dec  4 02:33:29 2023.
