 Gaussian 16, Revision B.01,
 Gaussian 16:  ES64L-G16RevB.01 20-Dec-2017

 -------------------------
 #P B3LYP/6-311+g(d) force
 -------------------------

 -----
 DPGEN
 -----
 Symbolic Z-matrix:
 Charge =  0 Multiplicity = 2

                         Standard orientation:
 ---------------------------------------------------------------------
 Center     Atomic      Atomic             Coordinates (Angstroms)
 Number     Number       Type             X           Y           Z
 ---------------------------------------------------------------------
      1         11           0        6.603567    0.795386    0.418606
      2         11           0        1.313964   -0.377698   -0.205559
      3         11           0        4.434027   -1.094011   -1.014147
      4         11           0       -4.328269    1.943529   -0.812595
      5         11           0       -1.279849    1.984778    0.726911
      6         11           0       -4.674238   -1.657595   -0.480109
      7         11           0       -2.069202   -1.594389    1.366894
 ---------------------------------------------------------------------

 SCF Done:  E(UB3LYP) =  -1136.10992920     A.U. after   23 cycles

 The electronic state is 2-A.
 Alpha  occ. eigenvalues --  -38.44889 -38.44783 -38.44431 -38.44411 -38.44130
 Alpha  occ. eigenvalues --  -38.43746 -38.43439  -2.20716  -2.20551  -2.20250
 Alpha  occ. eigenvalues --   -2.20215  -2.19946  -2.19563  -2.19240  -1.14401
 Alpha  occ. eigenvalues --   -1.14373  -1.14317  -1.14210  -1.14209  -1.14201
 Alpha  occ. eigenvalues --   -1.13938  -1.13930  -1.13880  -1.13876  -1.13836
 Alpha  occ. eigenvalues --   -1.13823  -1.13622  -1.13607  -1.13586  -1.13244
 Alpha  occ. eigenvalues --   -1.13222  -1.13181  -1.12919  -1.12915  -1.12864
 Alpha  occ. eigenvalues --   -0.16381  -0.14137  -0.11906  -0.11209
 Alpha virt. eigenvalues --   -0.07269  -0.04832  -0.04371  -0.03545  -0.03194
 Alpha virt. eigenvalues --   -0.02711  -0.02107  -0.01878  -0.01099  -0.00742
 Alpha virt. eigenvalues --   -0.00304  -0.00058   0.00294   0.00356   0.00494

  Beta  occ. eigenvalues --  -38.44824 -38.44771 -38.44384 -38.44352 -38.44133
  Beta  occ. eigenvalues --  -38.43717 -38.43431  -2.20598  -2.20529  -2.20165
  Beta  occ. eigenvalues --   -2.20106  -2.19953  -2.19512  -2.19224  -1.14316
  Beta  occ. eigenvalues --   -1.14299  -1.14221  -1.14195  -1.14194  -1.14188
  Beta  occ. eigenvalues --   -1.13877  -1.13870  -1.13807  -1.13803  -1.13763
  Beta  occ. eigenvalues --   -1.13741  -1.13624  -1.13613  -1.13586  -1.13197
  Beta  occ. eigenvalues --   -1.13188  -1.13145  -1.12906  -1.12900  -1.12859
  Beta  occ. eigenvalues --   -0.15620  -0.13927  -0.11192
  Beta virt. eigenvalues --   -0.07764  -0.07109  -0.04588  -0.03820  -0.03372
  Beta virt. eigenvalues --   -0.02609  -0.02429  -0.01926  -0.01695  -0.00865
  Beta virt. eigenvalues --   -0.00521  -0.00049   0.00082   0.00341   0.00423

 Mulliken charges and spin densities:
               1          2
     1  Na  -0.004220   0.059383
     2  Na  -0.307098  -0.019515
     3  Na  -0.542330  -0.006128
     4  Na   0.122508   0.160327
     5  Na   0.496212   0.370361
     6  Na   0.378138   0.099159
     7  Na  -0.143210   0.336413
 Sum of Mulliken charges =  -0.00000   1.00000

 Dipole moment (field-independent basis, Debye):
    X=              0.5383    Y=              0.4022    Z=              0.2582  Tot=              0.7199
 Quadrupole moment (field-independent basis, Debye-Ang):
   XX=            -64.5199   YY=            -65.4528   ZZ=            -67.6284
   XY=              3.0896   XZ=              4.0057   YZ=              2.6297

 Normal termination of Gaussian 16 at Sun Dec  3 13:07:22 2023.
