 Gaussian 16, Revision B.01,
 Gaussian 16:  ES64L-G16RevB.01 20-Dec-2017

 -------------------------
 #P B3LYP/6-311+g(d) force
 -------------------------

 -----
 DPGEN
 -----
 Symbolic Z-matrix:
 Charge =  0 Multiplicity = 2

                         Standard orientation:
 ---------------------------------------------------------------------
 Center     Atomic      Atomic             Coordinates (Angstroms)
 Number     Number       Type             X           Y           Z
 ---------------------------------------------------------------------
      1         11           0        3.325838    2.053421    0.078502
      2         11           0        1.469100   -3.631468   -0.575721
      3         11           0       -2.268989   -3.241026   -0.648359
      4         11           0       -4.269944   -0.139925    0.786881
      5         11           0        0.975385    4.121753   -0.737182
      6         11           0       -3.004763    2.452772    0.139064
      7         11           0        3.773372   -1.615527    0.956815
 ---------------------------------------------------------------------

 SCF Done:  E(UB3LYP) =  -1136.10481949     A.U. after   21 cycles

 The electronic state is 2-A.
 Alpha  occ. eigenvalues --  -38.45028 -38.44919 -38.44850 -38.44756 -38.44463
 Alpha  occ. eigenvalues --  -38.44209 -38.44192  -2.20835  -2.20688  -2.20592
 Alpha  occ. eigenvalues --   -2.20521  -2.20277  -2.20004  -2.19982  -1.14553
 Alpha  occ. eigenvalues --   -1.14481  -1.14465  -1.14344  -1.14330  -1.14302
 Alpha  occ. eigenvalues --   -1.14284  -1.14273  -1.14236  -1.14203  -1.14197
 Alpha  occ. eigenvalues --   -1.14172  -1.13944  -1.13927  -1.13908  -1.13656
 Alpha  occ. eigenvalues --   -1.13645  -1.13635  -1.13632  -1.13626  -1.13621
 Alpha  occ. eigenvalues --   -0.15247  -0.13942  -0.13420  -0.11171
 Alpha virt. eigenvalues --   -0.07605  -0.04803  -0.04719  -0.03561  -0.03491
 Alpha virt. eigenvalues --   -0.02266  -0.02036  -0.01869  -0.01694  -0.01249
 Alpha virt. eigenvalues --   -0.00912  -0.00206  -0.00076   0.00345   0.00650

  Beta  occ. eigenvalues --  -38.44991 -38.44866 -38.44831 -38.44756 -38.44453
  Beta  occ. eigenvalues --  -38.44151 -38.44145  -2.20769  -2.20627  -2.20527
  Beta  occ. eigenvalues --   -2.20524  -2.20265  -2.19907  -2.19884  -1.14502
  Beta  occ. eigenvalues --   -1.14438  -1.14417  -1.14312  -1.14302  -1.14234
  Beta  occ. eigenvalues --   -1.14231  -1.14217  -1.14210  -1.14203  -1.14184
  Beta  occ. eigenvalues --   -1.14144  -1.13927  -1.13922  -1.13885  -1.13584
  Beta  occ. eigenvalues --   -1.13577  -1.13574  -1.13567  -1.13565  -1.13557
  Beta  occ. eigenvalues --   -0.14684  -0.13318  -0.12655
  Beta virt. eigenvalues --   -0.08044  -0.07645  -0.04365  -0.04188  -0.03388
  Beta virt. eigenvalues --   -0.03197  -0.02083  -0.01841  -0.01756  -0.01488
  Beta virt. eigenvalues --   -0.00854  -0.00625   0.00054   0.00147   0.00329

 Mulliken charges and spin densities:
               1          2
     1  Na  -0.217041   0.026221
     2  Na  -0.050390  -0.066614
     3  Na   0.033682   0.422385
     4  Na   0.199584  -0.072610
     5  Na   0.318477   0.183381
     6  Na  -0.231026   0.218847
     7  Na  -0.053286   0.288391
 Sum of Mulliken charges =  -0.00000   1.00000

 Dipole moment (field-independent basis, Debye):
    X=             -0.5316    Y=              0.1092    Z=              0.0141  Tot=              0.5429
 Quadrupole moment (field-independent basis, Debye-Ang):
   XX=            -63.5344   YY=            -65.1266   ZZ=            -72.3918
   XY=             -0.4342   XZ=              0.9171   YZ=             -0.9442

 Normal termination of Gaussian 16 at Sun Dec  3 14:42:56 2023.
