 Gaussian 16, Revision B.01,
 Gaussian 16:  ES64L-G16RevB.01 20-Dec-2017

 -------------------------
 #P B3LYP/6-311+g(d) force
 -------------------------

 -----
 DPGEN
 -----
 Symbolic Z-matrix:
 Charge =  0 Multiplicity = 2

                         Standard orientation:
 ---------------------------------------------------------------------
 Center     Atomic      Atomic             Coordinates (Angstroms)
 Number     Number       Type             X           Y           Z
 ---------------------------------------------------------------------
      1         11           0       -2.738154   -1.242933   -0.201335
      2         11           0        8.516546   -1.433404    0.514777
      3         11           0        6.676446    0.732845    0.703867
      4         11           0        2.713551    2.052271   -0.516143
      5         11           0       -0.340502   -0.257934   -1.391392
      6         11           0       -6.359229   -0.228549   -0.554139
      7         11           0       -8.468658    0.377705    1.444365
 ---------------------------------------------------------------------

 SCF Done:  E(UB3LYP) =  -1136.09913313     A.U. after   18 cycles

 The electronic state is 2-A.
 Alpha  occ. eigenvalues --  -38.45671 -38.44658 -38.44539 -38.44490 -38.44344
 Alpha  occ. eigenvalues --  -38.44168 -38.44103  -2.21443  -2.20468  -2.20393
 Alpha  occ. eigenvalues --   -2.20325  -2.20160  -2.19981  -2.19917  -1.15082
 Alpha  occ. eigenvalues --   -1.15074  -1.15046  -1.14211  -1.14181  -1.14108
 Alpha  occ. eigenvalues --   -1.14107  -1.14105  -1.14021  -1.14018  -1.13950
 Alpha  occ. eigenvalues --   -1.13949  -1.13809  -1.13803  -1.13759  -1.13638
 Alpha  occ. eigenvalues --   -1.13635  -1.13625  -1.13565  -1.13562  -1.13545
 Alpha  occ. eigenvalues --   -0.15181  -0.14212  -0.13205  -0.11838
 Alpha virt. eigenvalues --   -0.06780  -0.05275  -0.04089  -0.03364  -0.03171
 Alpha virt. eigenvalues --   -0.02813  -0.02548  -0.02255  -0.01742  -0.01238
 Alpha virt. eigenvalues --   -0.00977  -0.00733  -0.00254   0.00349   0.00537

  Beta  occ. eigenvalues --  -38.45542 -38.44630 -38.44490 -38.44454 -38.44355
  Beta  occ. eigenvalues --  -38.44173 -38.44109  -2.21204  -2.20417  -2.20303
  Beta  occ. eigenvalues --   -2.20259  -2.20185  -2.19993  -2.19933  -1.14920
  Beta  occ. eigenvalues --   -1.14912  -1.14886  -1.14166  -1.14149  -1.14072
  Beta  occ. eigenvalues --   -1.14070  -1.14069  -1.13959  -1.13958  -1.13905
  Beta  occ. eigenvalues --   -1.13904  -1.13831  -1.13823  -1.13727  -1.13648
  Beta  occ. eigenvalues --   -1.13646  -1.13613  -1.13579  -1.13575  -1.13524
  Beta  occ. eigenvalues --   -0.14614  -0.13551  -0.12782
  Beta virt. eigenvalues --   -0.08470  -0.06353  -0.04880  -0.03839  -0.03206
  Beta virt. eigenvalues --   -0.02849  -0.02588  -0.02240  -0.02140  -0.01634
  Beta virt. eigenvalues --   -0.00778  -0.00576  -0.00329  -0.00133   0.00468

 Mulliken charges and spin densities:
               1          2
     1  Na   0.102934   0.187857
     2  Na   0.426255   0.120184
     3  Na  -0.366852  -0.006888
     4  Na   0.195715   0.668680
     5  Na  -0.536339  -0.085053
     6  Na   0.055024   0.011161
     7  Na   0.123264   0.104060
 Sum of Mulliken charges =  -0.00000   1.00000

 Dipole moment (field-independent basis, Debye):
    X=             -0.3680    Y=             -0.0268    Z=              0.3657  Tot=              0.5195
 Quadrupole moment (field-independent basis, Debye-Ang):
   XX=            -53.9612   YY=            -67.3994   ZZ=            -69.8623
   XY=             -6.3454   XZ=             -7.2506   YZ=              0.8210

 Normal termination of Gaussian 16 at Mon Dec  4 00:58:40 2023.
