 Gaussian 16, Revision B.01,
 Gaussian 16:  ES64L-G16RevB.01 20-Dec-2017

 -------------------------
 #P B3LYP/6-311+g(d) force
 -------------------------

 -----
 DPGEN
 -----
 Symbolic Z-matrix:
 Charge =  0 Multiplicity = 2

                         Standard orientation:
 ---------------------------------------------------------------------
 Center     Atomic      Atomic             Coordinates (Angstroms)
 Number     Number       Type             X           Y           Z
 ---------------------------------------------------------------------
      1         11           0        5.119833   -2.329043    0.492460
      2         11           0        2.367036    3.273268   -0.425867
      3         11           0       -4.159202   -2.095790   -0.964780
      4         11           0       -3.863839    0.466710    1.278907
      5         11           0        2.722145   -0.054355   -0.264621
      6         11           0       -0.691388   -1.848073   -0.046913
      7         11           0       -1.494586    2.587284   -0.069185
 ---------------------------------------------------------------------

 SCF Done:  E(UB3LYP) =  -1136.10851315     A.U. after   23 cycles

 The electronic state is 2-A.
 Alpha  occ. eigenvalues --  -38.45953 -38.45455 -38.44493 -38.44296 -38.44203
 Alpha  occ. eigenvalues --  -38.44023 -38.43356  -2.21691  -2.21240  -2.20321
 Alpha  occ. eigenvalues --   -2.20075  -2.19962  -2.19814  -2.19172  -1.15388
 Alpha  occ. eigenvalues --   -1.15370  -1.15282  -1.14910  -1.14899  -1.14866
 Alpha  occ. eigenvalues --   -1.13995  -1.13976  -1.13937  -1.13748  -1.13737
 Alpha  occ. eigenvalues --   -1.13691  -1.13655  -1.13652  -1.13569  -1.13459
 Alpha  occ. eigenvalues --   -1.13456  -1.13432  -1.12870  -1.12864  -1.12795
 Alpha  occ. eigenvalues --   -0.16362  -0.14083  -0.12171  -0.10718
 Alpha virt. eigenvalues --   -0.07568  -0.05677  -0.04556  -0.03337  -0.03089
 Alpha virt. eigenvalues --   -0.02667  -0.02246  -0.01631  -0.01175  -0.00763
 Alpha virt. eigenvalues --   -0.00610  -0.00506   0.00184   0.00259   0.00352

  Beta  occ. eigenvalues --  -38.45931 -38.45437 -38.44439 -38.44270 -38.44189
  Beta  occ. eigenvalues --  -38.43937 -38.43360  -2.21652  -2.21206  -2.20223
  Beta  occ. eigenvalues --   -2.20028  -2.19941  -2.19655  -2.19184  -1.15360
  Beta  occ. eigenvalues --   -1.15339  -1.15261  -1.14887  -1.14870  -1.14839
  Beta  occ. eigenvalues --   -1.13931  -1.13906  -1.13859  -1.13714  -1.13704
  Beta  occ. eigenvalues --   -1.13664  -1.13643  -1.13642  -1.13527  -1.13350
  Beta  occ. eigenvalues --   -1.13347  -1.13328  -1.12884  -1.12876  -1.12771
  Beta  occ. eigenvalues --   -0.15926  -0.13632  -0.11418
  Beta virt. eigenvalues --   -0.07450  -0.07424  -0.05282  -0.04330  -0.03260
  Beta virt. eigenvalues --   -0.02894  -0.02193  -0.02025  -0.01314  -0.00920
  Beta virt. eigenvalues --   -0.00471  -0.00335  -0.00231   0.00303   0.00347

 Mulliken charges and spin densities:
               1          2
     1  Na   0.036489   0.326310
     2  Na   0.789710   0.112164
     3  Na   0.892568   0.002199
     4  Na   0.142597   0.163359
     5  Na  -0.861233   0.090054
     6  Na  -0.609631   0.220958
     7  Na  -0.390499   0.084955
 Sum of Mulliken charges =  -0.00000   1.00000

 Dipole moment (field-independent basis, Debye):
    X=             -2.0870    Y=             -0.6060    Z=             -0.2329  Tot=              2.1856
 Quadrupole moment (field-independent basis, Debye-Ang):
   XX=            -54.9394   YY=            -70.3227   ZZ=            -71.1514
   XY=              9.6078   XZ=              2.4335   YZ=             -1.2634

 Normal termination of Gaussian 16 at Mon Dec  4 01:09:46 2023.
