 Gaussian 16, Revision B.01,
 Gaussian 16:  ES64L-G16RevB.01 20-Dec-2017

 -------------------------
 #P B3LYP/6-311+g(d) force
 -------------------------

 -----
 DPGEN
 -----
 Symbolic Z-matrix:
 Charge =  0 Multiplicity = 2

                         Standard orientation:
 ---------------------------------------------------------------------
 Center     Atomic      Atomic             Coordinates (Angstroms)
 Number     Number       Type             X           Y           Z
 ---------------------------------------------------------------------
      1         11           0       -2.281123   -2.723456    0.416521
      2         11           0       -0.747774    0.250784    2.147669
      3         11           0        3.998538   -1.337205   -0.010596
      4         11           0        0.446220   -1.263941   -0.991000
      5         11           0       -2.218109   -0.269904   -1.258397
      6         11           0       -1.236377    3.544020   -0.265515
      7         11           0        2.038625    1.799702   -0.038682
 ---------------------------------------------------------------------

 SCF Done:  E(UB3LYP) =  -1136.12154660     A.U. after   20 cycles

 The electronic state is 2-A.
 Alpha  occ. eigenvalues --  -38.44470 -38.44243 -38.44031 -38.44019 -38.44009
 Alpha  occ. eigenvalues --  -38.43833 -38.43723  -2.20343  -2.20037  -2.19976
 Alpha  occ. eigenvalues --   -2.19853  -2.19791  -2.19772  -2.19482  -1.14086
 Alpha  occ. eigenvalues --   -1.14002  -1.13969  -1.13828  -1.13745  -1.13737
 Alpha  occ. eigenvalues --   -1.13622  -1.13593  -1.13545  -1.13525  -1.13496
 Alpha  occ. eigenvalues --   -1.13465  -1.13462  -1.13446  -1.13437  -1.13436
 Alpha  occ. eigenvalues --   -1.13416  -1.13318  -1.13156  -1.13148  -1.13112
 Alpha  occ. eigenvalues --   -0.18062  -0.13306  -0.12005  -0.10616
 Alpha virt. eigenvalues --   -0.06148  -0.05559  -0.04859  -0.03341  -0.02649
 Alpha virt. eigenvalues --   -0.02340  -0.01958  -0.01713  -0.00707  -0.00236
 Alpha virt. eigenvalues --   -0.00105   0.00171   0.00652   0.00722   0.00770

  Beta  occ. eigenvalues --  -38.44463 -38.44242 -38.44037 -38.43962 -38.43921
  Beta  occ. eigenvalues --  -38.43803 -38.43720  -2.20333  -2.20036  -2.19892
  Beta  occ. eigenvalues --   -2.19802  -2.19722  -2.19672  -2.19476  -1.14076
  Beta  occ. eigenvalues --   -1.13998  -1.13932  -1.13770  -1.13743  -1.13724
  Beta  occ. eigenvalues --   -1.13625  -1.13520  -1.13486  -1.13472  -1.13467
  Beta  occ. eigenvalues --   -1.13423  -1.13414  -1.13397  -1.13374  -1.13370
  Beta  occ. eigenvalues --   -1.13312  -1.13278  -1.13153  -1.13136  -1.13109
  Beta  occ. eigenvalues --   -0.17331  -0.13172  -0.11893
  Beta virt. eigenvalues --   -0.06613  -0.05962  -0.05465  -0.04765  -0.02661
  Beta virt. eigenvalues --   -0.02100  -0.01926  -0.01646  -0.01398  -0.00701
  Beta virt. eigenvalues --   -0.00065   0.00047   0.00241   0.00718   0.00745

 Mulliken charges and spin densities:
               1          2
     1  Na   0.242598   0.081076
     2  Na  -0.368927   0.579706
     3  Na   0.297160  -0.072574
     4  Na  -0.663154   0.261765
     5  Na   0.563702   0.127058
     6  Na   0.001183   0.032597
     7  Na  -0.072562  -0.009630
 Sum of Mulliken charges =  -0.00000   1.00000

 Dipole moment (field-independent basis, Debye):
    X=             -0.1281    Y=             -0.5334    Z=              0.3750  Tot=              0.6645
 Quadrupole moment (field-independent basis, Debye-Ang):
   XX=            -57.6240   YY=            -59.6517   ZZ=            -75.6484
   XY=              1.5737   XZ=              1.1046   YZ=             -2.2347

 Normal termination of Gaussian 16 at Sat Dec  9 05:24:44 2023.
