 Gaussian 16, Revision B.01,
 Gaussian 16:  ES64L-G16RevB.01 20-Dec-2017

 -------------------------
 #P B3LYP/6-311+g(d) force
 -------------------------

 -----
 DPGEN
 -----
 Symbolic Z-matrix:
 Charge =  0 Multiplicity = 2

                         Standard orientation:
 ---------------------------------------------------------------------
 Center     Atomic      Atomic             Coordinates (Angstroms)
 Number     Number       Type             X           Y           Z
 ---------------------------------------------------------------------
      1         11           0       -1.775701   -2.177071    0.306198
      2         11           0        2.583834   -2.046638   -0.123824
      3         11           0        0.261305    0.203798   -1.749758
      4         11           0       -0.895956    2.916038    0.681876
      5         11           0       -2.975344    0.072335   -0.735463
      6         11           0        0.082807   -0.528080    1.769165
      7         11           0        2.719055    1.559618   -0.148194
 ---------------------------------------------------------------------

 SCF Done:  E(UB3LYP) =  -1136.12549052     A.U. after   20 cycles

 The electronic state is 2-A.
 Alpha  occ. eigenvalues --  -38.44372 -38.44138 -38.44024 -38.43825 -38.43621
 Alpha  occ. eigenvalues --  -38.43496 -38.43420  -2.20193  -2.20057  -2.19831
 Alpha  occ. eigenvalues --   -2.19784  -2.19551  -2.19456  -2.19212  -1.13954
 Alpha  occ. eigenvalues --   -1.13900  -1.13855  -1.13806  -1.13701  -1.13664
 Alpha  occ. eigenvalues --   -1.13565  -1.13511  -1.13491  -1.13468  -1.13374
 Alpha  occ. eigenvalues --   -1.13338  -1.13237  -1.13194  -1.13163  -1.13106
 Alpha  occ. eigenvalues --   -1.13072  -1.13042  -1.12884  -1.12863  -1.12850
 Alpha  occ. eigenvalues --   -0.18677  -0.13518  -0.12046  -0.10870
 Alpha virt. eigenvalues --   -0.05752  -0.05513  -0.04324  -0.03518  -0.02929
 Alpha virt. eigenvalues --   -0.02388  -0.01687  -0.01256  -0.00404  -0.00079
 Alpha virt. eigenvalues --    0.00025   0.00361   0.00725   0.00810   0.00901

  Beta  occ. eigenvalues --  -38.44369 -38.44117 -38.44024 -38.43814 -38.43559
  Beta  occ. eigenvalues --  -38.43417 -38.43401  -2.20190  -2.20022  -2.19833
  Beta  occ. eigenvalues --   -2.19770  -2.19437  -2.19312  -2.19179  -1.13938
  Beta  occ. eigenvalues --   -1.13889  -1.13848  -1.13802  -1.13666  -1.13626
  Beta  occ. eigenvalues --   -1.13526  -1.13502  -1.13494  -1.13463  -1.13354
  Beta  occ. eigenvalues --   -1.13321  -1.13159  -1.13108  -1.13083  -1.13018
  Beta  occ. eigenvalues --   -1.12973  -1.12937  -1.12850  -1.12839  -1.12831
  Beta  occ. eigenvalues --   -0.17973  -0.13241  -0.11777
  Beta virt. eigenvalues --   -0.07043  -0.05699  -0.05442  -0.04201  -0.02765
  Beta virt. eigenvalues --   -0.02225  -0.01599  -0.01415  -0.01183  -0.00384
  Beta virt. eigenvalues --   -0.00093   0.00127   0.00395   0.00798   0.00828

 Mulliken charges and spin densities:
               1          2
     1  Na   0.212585  -0.026127
     2  Na  -0.157092  -0.110413
     3  Na   0.017255   0.406663
     4  Na  -0.213384   0.068153
     5  Na   0.123264   0.128647
     6  Na  -0.005601   0.586761
     7  Na   0.022973  -0.053684
 Sum of Mulliken charges =  -0.00000   1.00000

 Dipole moment (field-independent basis, Debye):
    X=              0.6360    Y=              0.0618    Z=             -0.1318  Tot=              0.6525
 Quadrupole moment (field-independent basis, Debye-Ang):
   XX=            -55.6425   YY=            -64.8340   ZZ=            -73.8011
   XY=             -0.7127   XZ=              0.6063   YZ=              1.5070

 Normal termination of Gaussian 16 at Tue Dec  5 11:50:09 2023.
