 Gaussian 16, Revision B.01,
 Gaussian 16:  ES64L-G16RevB.01 20-Dec-2017

 -------------------------
 #P B3LYP/6-311+g(d) force
 -------------------------

 -----
 DPGEN
 -----
 Symbolic Z-matrix:
 Charge =  0 Multiplicity = 2

                         Standard orientation:
 ---------------------------------------------------------------------
 Center     Atomic      Atomic             Coordinates (Angstroms)
 Number     Number       Type             X           Y           Z
 ---------------------------------------------------------------------
      1         11           0       -1.261203    0.819750    1.517785
      2         11           0        2.141853    0.709286    0.576315
      3         11           0        0.663665   -2.431895    0.917993
      4         11           0       -3.696839    0.620517   -0.940165
      5         11           0       -2.242745   -2.420551   -0.671663
      6         11           0        4.455445   -0.408235   -1.106305
      7         11           0       -0.060175    3.111130   -0.293961
 ---------------------------------------------------------------------

 SCF Done:  E(UB3LYP) =  -1136.12366700     A.U. after   19 cycles

 The electronic state is 2-A.
 Alpha  occ. eigenvalues --  -38.44280 -38.44231 -38.44196 -38.44135 -38.43959
 Alpha  occ. eigenvalues --  -38.43624 -38.43122  -2.20121  -2.20107  -2.20019
 Alpha  occ. eigenvalues --   -2.19959  -2.19770  -2.19452  -2.19031  -1.13832
 Alpha  occ. eigenvalues --   -1.13795  -1.13778  -1.13762  -1.13734  -1.13717
 Alpha  occ. eigenvalues --   -1.13680  -1.13664  -1.13636  -1.13626  -1.13602
 Alpha  occ. eigenvalues --   -1.13584  -1.13449  -1.13437  -1.13415  -1.13119
 Alpha  occ. eigenvalues --   -1.13116  -1.13071  -1.12729  -1.12708  -1.12666
 Alpha  occ. eigenvalues --   -0.17387  -0.13809  -0.12395  -0.10994
 Alpha virt. eigenvalues --   -0.06195  -0.04973  -0.04807  -0.03874  -0.02713
 Alpha virt. eigenvalues --   -0.02012  -0.01808  -0.01278  -0.00861  -0.00629
 Alpha virt. eigenvalues --   -0.00440   0.00171   0.00408   0.00600   0.00654

  Beta  occ. eigenvalues --  -38.44209 -38.44189 -38.44136 -38.44132 -38.43956
  Beta  occ. eigenvalues --  -38.43590 -38.43115  -2.20084  -2.19962  -2.19939
  Beta  occ. eigenvalues --   -2.19901  -2.19769  -2.19390  -2.19027  -1.13812
  Beta  occ. eigenvalues --   -1.13743  -1.13739  -1.13666  -1.13630  -1.13619
  Beta  occ. eigenvalues --   -1.13604  -1.13600  -1.13597  -1.13591  -1.13583
  Beta  occ. eigenvalues --   -1.13553  -1.13453  -1.13428  -1.13394  -1.13077
  Beta  occ. eigenvalues --   -1.13070  -1.13031  -1.12719  -1.12690  -1.12638
  Beta  occ. eigenvalues --   -0.16867  -0.12929  -0.12188
  Beta virt. eigenvalues --   -0.07579  -0.06084  -0.04740  -0.04227  -0.03659
  Beta virt. eigenvalues --   -0.02428  -0.01582  -0.01317  -0.00967  -0.00786
  Beta virt. eigenvalues --   -0.00501  -0.00226   0.00348   0.00452   0.00708

 Mulliken charges and spin densities:
               1          2
     1  Na   0.862613   0.140748
     2  Na  -1.132558   0.110622
     3  Na  -0.066311   0.076540
     4  Na  -0.166423   0.376670
     5  Na  -0.024499   0.022246
     6  Na   0.500059   0.347618
     7  Na   0.027118  -0.074444
 Sum of Mulliken charges =  -0.00000   1.00000

 Dipole moment (field-independent basis, Debye):
    X=             -0.4714    Y=              0.3165    Z=             -0.4922  Tot=              0.7514
 Quadrupole moment (field-independent basis, Debye-Ang):
   XX=            -67.1384   YY=            -64.9082   ZZ=            -66.6069
   XY=             -2.1087   XZ=             -1.3823   YZ=             -1.0744

 Normal termination of Gaussian 16 at Tue Nov 28 21:43:08 2023.
