 Gaussian 16, Revision B.01,
 Gaussian 16:  ES64L-G16RevB.01 20-Dec-2017

 -------------------------
 #P B3LYP/6-311+g(d) force
 -------------------------

 -----
 DPGEN
 -----
 Symbolic Z-matrix:
 Charge =  0 Multiplicity = 2

                         Standard orientation:
 ---------------------------------------------------------------------
 Center     Atomic      Atomic             Coordinates (Angstroms)
 Number     Number       Type             X           Y           Z
 ---------------------------------------------------------------------
      1         11           0        4.536501   -1.469060    0.021151
      2         11           0        1.615328   -2.976780    0.495672
      3         11           0       -1.931195   -2.063793   -0.295298
      4         11           0       -5.395619   -0.530914   -0.229960
      5         11           0       -2.759107    1.527557    0.064052
      6         11           0        0.256540    3.343148    0.680039
      7         11           0        3.677553    2.169842   -0.735656
 ---------------------------------------------------------------------

 SCF Done:  E(UB3LYP) =  -1136.11266514     A.U. after   22 cycles

 The electronic state is 2-A.
 Alpha  occ. eigenvalues --  -38.45248 -38.45109 -38.44757 -38.44608 -38.44427
 Alpha  occ. eigenvalues --  -38.43894 -38.43622  -2.21020  -2.20832  -2.20568
 Alpha  occ. eigenvalues --   -2.20426  -2.20202  -2.19675  -2.19392  -1.14713
 Alpha  occ. eigenvalues --   -1.14709  -1.14608  -1.14523  -1.14501  -1.14455
 Alpha  occ. eigenvalues --   -1.14261  -1.14258  -1.14192  -1.14077  -1.14073
 Alpha  occ. eigenvalues --   -1.14021  -1.13878  -1.13870  -1.13835  -1.13353
 Alpha  occ. eigenvalues --   -1.13344  -1.13306  -1.13063  -1.13055  -1.13019
 Alpha  occ. eigenvalues --   -0.15958  -0.13960  -0.12609  -0.11112
 Alpha virt. eigenvalues --   -0.07305  -0.05584  -0.04160  -0.03717  -0.03124
 Alpha virt. eigenvalues --   -0.02634  -0.02250  -0.01645  -0.01032  -0.00930
 Alpha virt. eigenvalues --   -0.00683  -0.00290  -0.00003   0.00427   0.00529

  Beta  occ. eigenvalues --  -38.45207 -38.45105 -38.44730 -38.44539 -38.44418
  Beta  occ. eigenvalues --  -38.43883 -38.43590  -2.20948  -2.20825  -2.20524
  Beta  occ. eigenvalues --   -2.20296  -2.20184  -2.19654  -2.19335  -1.14668
  Beta  occ. eigenvalues --   -1.14663  -1.14529  -1.14520  -1.14498  -1.14444
  Beta  occ. eigenvalues --   -1.14236  -1.14228  -1.14121  -1.13985  -1.13983
  Beta  occ. eigenvalues --   -1.13941  -1.13866  -1.13864  -1.13818  -1.13341
  Beta  occ. eigenvalues --   -1.13332  -1.13280  -1.13025  -1.13014  -1.12976
  Beta  occ. eigenvalues --   -0.15286  -0.13695  -0.12127
  Beta virt. eigenvalues --   -0.07665  -0.07139  -0.05042  -0.03781  -0.03502
  Beta virt. eigenvalues --   -0.02799  -0.02491  -0.02018  -0.01446  -0.00759
  Beta virt. eigenvalues --   -0.00578  -0.00492   0.00012   0.00168   0.00508

 Mulliken charges and spin densities:
               1          2
     1  Na   0.193507   0.163567
     2  Na  -0.205589  -0.161858
     3  Na  -0.261760   0.315564
     4  Na   1.465800   0.436629
     5  Na  -0.822172   0.472331
     6  Na  -0.265772  -0.202451
     7  Na  -0.104013  -0.023782
 Sum of Mulliken charges =  -0.00000   1.00000

 Dipole moment (field-independent basis, Debye):
    X=             -1.0111    Y=             -0.3863    Z=             -0.2516  Tot=              1.1113
 Quadrupole moment (field-independent basis, Debye-Ang):
   XX=            -53.1062   YY=            -69.8026   ZZ=            -72.6675
   XY=              2.0340   XZ=             -0.3708   YZ=             -0.3935

 Normal termination of Gaussian 16 at Sun Dec  3 19:51:27 2023.
