 Gaussian 16, Revision B.01,
 Gaussian 16:  ES64L-G16RevB.01 20-Dec-2017

 -------------------------
 #P B3LYP/6-311+g(d) force
 -------------------------

 -----
 DPGEN
 -----
 Symbolic Z-matrix:
 Charge =  0 Multiplicity = 2

                         Standard orientation:
 ---------------------------------------------------------------------
 Center     Atomic      Atomic             Coordinates (Angstroms)
 Number     Number       Type             X           Y           Z
 ---------------------------------------------------------------------
      1         11           0       -0.126837    0.280639   -1.718057
      2         11           0       -0.725973   -2.775197   -0.355325
      3         11           0        0.298434   -0.267675    2.107705
      4         11           0        2.316250    1.747170   -0.204144
      5         11           0        2.503729   -1.383812   -0.064023
      6         11           0       -2.995280   -0.328073    0.101265
      7         11           0       -1.270322    2.726949    0.132579
 ---------------------------------------------------------------------

 SCF Done:  E(UB3LYP) =  -1136.13961942     A.U. after   19 cycles

 The electronic state is 2-A.
 Alpha  occ. eigenvalues --  -38.43804 -38.43786 -38.43565 -38.43477 -38.43459
 Alpha  occ. eigenvalues --  -38.43237 -38.43222  -2.19679  -2.19651  -2.19455
 Alpha  occ. eigenvalues --   -2.19383  -2.19298  -2.19228  -2.19089  -1.13353
 Alpha  occ. eigenvalues --   -1.13332  -1.13324  -1.13305  -1.13296  -1.13293
 Alpha  occ. eigenvalues --   -1.13197  -1.13130  -1.13100  -1.13042  -1.13040
 Alpha  occ. eigenvalues --   -1.13005  -1.12986  -1.12960  -1.12929  -1.12899
 Alpha  occ. eigenvalues --   -1.12860  -1.12841  -1.12755  -1.12745  -1.12724
 Alpha  occ. eigenvalues --   -0.18922  -0.13087  -0.12516  -0.11027
 Alpha virt. eigenvalues --   -0.05345  -0.05041  -0.04709  -0.03313  -0.03034
 Alpha virt. eigenvalues --   -0.02730  -0.01260  -0.01039  -0.00208  -0.00167
 Alpha virt. eigenvalues --   -0.00023   0.00382   0.00856   0.00926   0.00937

  Beta  occ. eigenvalues --  -38.43802 -38.43691 -38.43557 -38.43470 -38.43456
  Beta  occ. eigenvalues --  -38.43214 -38.43170  -2.19649  -2.19503  -2.19445
  Beta  occ. eigenvalues --   -2.19375  -2.19296  -2.19106  -2.19077  -1.13328
  Beta  occ. eigenvalues --   -1.13301  -1.13293  -1.13246  -1.13192  -1.13184
  Beta  occ. eigenvalues --   -1.13170  -1.13114  -1.13074  -1.13035  -1.12998
  Beta  occ. eigenvalues --   -1.12991  -1.12985  -1.12943  -1.12930  -1.12826
  Beta  occ. eigenvalues --   -1.12786  -1.12758  -1.12732  -1.12722  -1.12709
  Beta  occ. eigenvalues --   -0.18168  -0.12847  -0.12282
  Beta virt. eigenvalues --   -0.07077  -0.05331  -0.05017  -0.04654  -0.02490
  Beta virt. eigenvalues --   -0.02246  -0.01666  -0.01177  -0.00971  -0.00260
  Beta virt. eigenvalues --   -0.00216   0.00118   0.00401   0.00901   0.00927

 Mulliken charges and spin densities:
               1          2
     1  Na  -0.248973   0.444601
     2  Na   0.152681  -0.040170
     3  Na  -0.642244   0.725736
     4  Na   0.248709  -0.056780
     5  Na   0.379280   0.027378
     6  Na   0.052506  -0.041258
     7  Na   0.058042  -0.059506
 Sum of Mulliken charges =  -0.00000   1.00000

 Dipole moment (field-independent basis, Debye):
    X=             -0.1132    Y=              0.0830    Z=              0.2023  Tot=              0.2463
 Quadrupole moment (field-independent basis, Debye-Ang):
   XX=            -59.3689   YY=            -62.6512   ZZ=            -72.5995
   XY=              0.0089   XZ=             -1.0184   YZ=              1.2182

 Normal termination of Gaussian 16 at Tue Dec  5 14:42:05 2023.
