 Gaussian 16, Revision B.01,
 Gaussian 16:  ES64L-G16RevB.01 20-Dec-2017

 -------------------------
 #P B3LYP/6-311+g(d) force
 -------------------------

 -----
 DPGEN
 -----
 Symbolic Z-matrix:
 Charge =  0 Multiplicity = 2

                         Standard orientation:
 ---------------------------------------------------------------------
 Center     Atomic      Atomic             Coordinates (Angstroms)
 Number     Number       Type             X           Y           Z
 ---------------------------------------------------------------------
      1         11           0        1.634988    1.526979   -0.263676
      2         11           0       -0.959546    0.179517    1.411060
      3         11           0       -2.015405   -2.669646   -0.477842
      4         11           0        2.423532   -1.757297    0.607364
      5         11           0        5.049806   -0.045009   -0.649765
      6         11           0       -4.613198   -0.318581   -0.542479
      7         11           0       -1.520177    3.084037   -0.084662
 ---------------------------------------------------------------------

 SCF Done:  E(UB3LYP) =  -1136.12510710     A.U. after   20 cycles

 The electronic state is 2-A.
 Alpha  occ. eigenvalues --  -38.44308 -38.44256 -38.44105 -38.44038 -38.43995
 Alpha  occ. eigenvalues --  -38.43967 -38.43441  -2.20119  -2.20040  -2.19946
 Alpha  occ. eigenvalues --   -2.19870  -2.19853  -2.19737  -2.19252  -1.13808
 Alpha  occ. eigenvalues --   -1.13806  -1.13743  -1.13701  -1.13679  -1.13675
 Alpha  occ. eigenvalues --   -1.13657  -1.13652  -1.13566  -1.13536  -1.13525
 Alpha  occ. eigenvalues --   -1.13503  -1.13502  -1.13482  -1.13458  -1.13422
 Alpha  occ. eigenvalues --   -1.13403  -1.13367  -1.12926  -1.12911  -1.12878
 Alpha  occ. eigenvalues --   -0.16946  -0.13959  -0.11934  -0.10745
 Alpha virt. eigenvalues --   -0.05932  -0.05375  -0.05203  -0.03690  -0.02646
 Alpha virt. eigenvalues --   -0.02262  -0.01928  -0.01670  -0.00901  -0.00692
 Alpha virt. eigenvalues --   -0.00438   0.00065   0.00366   0.00503   0.00587

  Beta  occ. eigenvalues --  -38.44294 -38.44188 -38.44102 -38.43978 -38.43974
  Beta  occ. eigenvalues --  -38.43963 -38.43435  -2.20097  -2.19943  -2.19912
  Beta  occ. eigenvalues --   -2.19816  -2.19752  -2.19738  -2.19241  -1.13797
  Beta  occ. eigenvalues --   -1.13794  -1.13691  -1.13652  -1.13649  -1.13614
  Beta  occ. eigenvalues --   -1.13589  -1.13578  -1.13542  -1.13515  -1.13473
  Beta  occ. eigenvalues --   -1.13451  -1.13436  -1.13425  -1.13424  -1.13409
  Beta  occ. eigenvalues --   -1.13388  -1.13354  -1.12919  -1.12904  -1.12867
  Beta  occ. eigenvalues --   -0.16354  -0.13454  -0.11767
  Beta virt. eigenvalues --   -0.07342  -0.05760  -0.05008  -0.04509  -0.03575
  Beta virt. eigenvalues --   -0.02322  -0.01903  -0.01630  -0.01443  -0.00580
  Beta virt. eigenvalues --   -0.00465  -0.00304   0.00217   0.00528   0.00599

 Mulliken charges and spin densities:
               1          2
     1  Na  -1.262950  -0.124084
     2  Na   0.030910   0.156107
     3  Na   0.002742  -0.001378
     4  Na  -0.115580   0.058917
     5  Na   0.967010   0.327979
     6  Na  -0.001993   0.384833
     7  Na   0.379862   0.197626
 Sum of Mulliken charges =  -0.00000   1.00000

 Dipole moment (field-independent basis, Debye):
    X=              0.3812    Y=              0.0631    Z=             -0.1837  Tot=              0.4278
 Quadrupole moment (field-independent basis, Debye-Ang):
   XX=            -61.8783   YY=            -66.7126   ZZ=            -69.4933
   XY=             -4.5091   XZ=             -0.6262   YZ=             -1.3602

 Normal termination of Gaussian 16 at Tue Nov 28 23:48:59 2023.
