 Gaussian 16, Revision B.01,
 Gaussian 16:  ES64L-G16RevB.01 20-Dec-2017

 -------------------------
 #P B3LYP/6-311+g(d) force
 -------------------------

 -----
 DPGEN
 -----
 Symbolic Z-matrix:
 Charge =  0 Multiplicity = 2

                         Standard orientation:
 ---------------------------------------------------------------------
 Center     Atomic      Atomic             Coordinates (Angstroms)
 Number     Number       Type             X           Y           Z
 ---------------------------------------------------------------------
      1         11           0       -0.294080    1.461845    0.307542
      2         11           0        2.077098    3.984433   -0.151220
      3         11           0        3.131109    0.543511    0.006439
      4         11           0        0.448745   -2.065169    0.611324
      5         11           0       -2.712961   -1.001124    1.197884
      6         11           0        3.250933   -3.123800   -0.904352
      7         11           0       -5.900844    0.200304   -1.067618
 ---------------------------------------------------------------------

 SCF Done:  E(UB3LYP) =  -1136.12497248     A.U. after   19 cycles

 The electronic state is 2-A.
 Alpha  occ. eigenvalues --  -38.44966 -38.44607 -38.44205 -38.44164 -38.43755
 Alpha  occ. eigenvalues --  -38.43614 -38.43393  -2.20747  -2.20407  -2.20038
 Alpha  occ. eigenvalues --   -2.19953  -2.19552  -2.19478  -2.19198  -1.14376
 Alpha  occ. eigenvalues --   -1.14375  -1.14346  -1.14127  -1.14114  -1.13973
 Alpha  occ. eigenvalues --   -1.13753  -1.13741  -1.13640  -1.13620  -1.13607
 Alpha  occ. eigenvalues --   -1.13560  -1.13230  -1.13214  -1.13184  -1.13178
 Alpha  occ. eigenvalues --   -1.13168  -1.13066  -1.12881  -1.12863  -1.12837
 Alpha  occ. eigenvalues --   -0.16683  -0.13463  -0.12691  -0.11265
 Alpha virt. eigenvalues --   -0.06011  -0.05408  -0.04849  -0.03886  -0.02411
 Alpha virt. eigenvalues --   -0.02172  -0.02043  -0.01710  -0.01661  -0.00946
 Alpha virt. eigenvalues --   -0.00371  -0.00107   0.00110   0.00318   0.00608

  Beta  occ. eigenvalues --  -38.44817 -38.44601 -38.44192 -38.44162 -38.43740
  Beta  occ. eigenvalues --  -38.43595 -38.43395  -2.20470  -2.20395  -2.20017
  Beta  occ. eigenvalues --   -2.19949  -2.19523  -2.19446  -2.19207  -1.14188
  Beta  occ. eigenvalues --   -1.14187  -1.14160  -1.14116  -1.14107  -1.13963
  Beta  occ. eigenvalues --   -1.13739  -1.13726  -1.13631  -1.13617  -1.13598
  Beta  occ. eigenvalues --   -1.13553  -1.13210  -1.13194  -1.13164  -1.13157
  Beta  occ. eigenvalues --   -1.13149  -1.13028  -1.12892  -1.12875  -1.12804
  Beta  occ. eigenvalues --   -0.16389  -0.12787  -0.12403
  Beta virt. eigenvalues --   -0.07325  -0.05900  -0.05282  -0.04346  -0.03768
  Beta virt. eigenvalues --   -0.02229  -0.01933  -0.01584  -0.01438  -0.01183
  Beta virt. eigenvalues --   -0.00653   0.00032   0.00055   0.00283   0.00501

 Mulliken charges and spin densities:
               1          2
     1  Na  -1.487517  -0.032870
     2  Na   1.048616   0.026914
     3  Na  -0.340409   0.118242
     4  Na  -0.896560  -0.005232
     5  Na   0.598800  -0.046909
     6  Na   0.920280   0.137706
     7  Na   0.156789   0.802150
 Sum of Mulliken charges =  -0.00000   1.00000

 Dipole moment (field-independent basis, Debye):
    X=              1.2096    Y=              0.6920    Z=             -0.2358  Tot=              1.4134
 Quadrupole moment (field-independent basis, Debye-Ang):
   XX=            -67.8543   YY=            -58.1873   ZZ=            -71.3493
   XY=              1.1500   XZ=             -1.6116   YZ=             -0.2353

 Normal termination of Gaussian 16 at Tue Nov 28 23:25:09 2023.
