 Gaussian 16, Revision B.01,
 Gaussian 16:  ES64L-G16RevB.01 20-Dec-2017

 -------------------------
 #P B3LYP/6-311+g(d) force
 -------------------------

 -----
 DPGEN
 -----
 Symbolic Z-matrix:
 Charge =  0 Multiplicity = 2

                         Standard orientation:
 ---------------------------------------------------------------------
 Center     Atomic      Atomic             Coordinates (Angstroms)
 Number     Number       Type             X           Y           Z
 ---------------------------------------------------------------------
      1         11           0        1.296488   -2.641145    0.023899
      2         11           0        3.256711    0.146262   -0.156265
      3         11           0       -2.756415    1.014209   -0.443358
      4         11           0        0.273840    3.055824    0.263322
      5         11           0        0.587788    0.362826   -1.689744
      6         11           0       -0.182235   -0.045940    2.238337
      7         11           0       -2.476177   -1.892036   -0.236191
 ---------------------------------------------------------------------

 SCF Done:  E(UB3LYP) =  -1136.13302379     A.U. after   19 cycles

 The electronic state is 2-A.
 Alpha  occ. eigenvalues --  -38.44428 -38.44007 -38.43842 -38.43629 -38.43582
 Alpha  occ. eigenvalues --  -38.43566 -38.43366  -2.20266  -2.19851  -2.19719
 Alpha  occ. eigenvalues --   -2.19504  -2.19481  -2.19408  -2.19185  -1.13983
 Alpha  occ. eigenvalues --   -1.13915  -1.13888  -1.13511  -1.13502  -1.13480
 Alpha  occ. eigenvalues --   -1.13469  -1.13374  -1.13346  -1.13184  -1.13151
 Alpha  occ. eigenvalues --   -1.13140  -1.13125  -1.13115  -1.13104  -1.13081
 Alpha  occ. eigenvalues --   -1.13074  -1.13037  -1.12852  -1.12848  -1.12823
 Alpha  occ. eigenvalues --   -0.18335  -0.13252  -0.12189  -0.10970
 Alpha virt. eigenvalues --   -0.05823  -0.04951  -0.04793  -0.03377  -0.03002
 Alpha virt. eigenvalues --   -0.02802  -0.01587  -0.01048  -0.00376  -0.00362
 Alpha virt. eigenvalues --   -0.00060   0.00354   0.00792   0.00845   0.00883

  Beta  occ. eigenvalues --  -38.44424 -38.43901 -38.43830 -38.43625 -38.43578
  Beta  occ. eigenvalues --  -38.43515 -38.43361  -2.20260  -2.19700  -2.19656
  Beta  occ. eigenvalues --   -2.19475  -2.19412  -2.19404  -2.19178  -1.13969
  Beta  occ. eigenvalues --   -1.13902  -1.13886  -1.13498  -1.13376  -1.13350
  Beta  occ. eigenvalues --   -1.13349  -1.13327  -1.13322  -1.13126  -1.13115
  Beta  occ. eigenvalues --   -1.13112  -1.13096  -1.13089  -1.13078  -1.13064
  Beta  occ. eigenvalues --   -1.13053  -1.13031  -1.12846  -1.12825  -1.12820
  Beta  occ. eigenvalues --   -0.17631  -0.13000  -0.11996
  Beta virt. eigenvalues --   -0.07058  -0.05750  -0.04947  -0.04677  -0.02635
  Beta virt. eigenvalues --   -0.02232  -0.01774  -0.01489  -0.00970  -0.00419
  Beta virt. eigenvalues --   -0.00391   0.00107   0.00402   0.00830   0.00892

 Mulliken charges and spin densities:
               1          2
     1  Na  -0.024167  -0.019020
     2  Na   0.334912  -0.058596
     3  Na   0.206568   0.051557
     4  Na   0.064614  -0.034217
     5  Na  -0.024343   0.340846
     6  Na  -0.494697   0.744794
     7  Na  -0.062888  -0.025363
 Sum of Mulliken charges =  -0.00000   1.00000

 Dipole moment (field-independent basis, Debye):
    X=              0.5184    Y=              0.0410    Z=              0.1531  Tot=              0.5421
 Quadrupole moment (field-independent basis, Debye-Ang):
   XX=            -58.6675   YY=            -63.8569   ZZ=            -73.0217
   XY=              0.2594   XZ=              1.3297   YZ=              0.7764

 Normal termination of Gaussian 16 at Thu Dec  7 15:55:41 2023.
