 Gaussian 16, Revision B.01,
 Gaussian 16:  ES64L-G16RevB.01 20-Dec-2017

 -------------------------
 #P B3LYP/6-311+g(d) force
 -------------------------

 -----
 DPGEN
 -----
 Symbolic Z-matrix:
 Charge =  0 Multiplicity = 2

                         Standard orientation:
 ---------------------------------------------------------------------
 Center     Atomic      Atomic             Coordinates (Angstroms)
 Number     Number       Type             X           Y           Z
 ---------------------------------------------------------------------
      1         11           0        0.585026    2.725827    0.739268
      2         11           0        1.885679   -0.665162    2.611975
      3         11           0       -2.206047    1.833677   -0.852409
      4         11           0        2.022396    0.623003   -2.194972
      5         11           0        3.555080   -1.788527   -0.808414
      6         11           0       -2.338014   -0.650820    1.580302
      7         11           0       -3.504120   -2.077998   -1.075750
 ---------------------------------------------------------------------

 SCF Done:  E(UB3LYP) =  -1136.11333861     A.U. after   21 cycles

 The electronic state is 2-A.
 Alpha  occ. eigenvalues --  -38.45188 -38.44751 -38.44682 -38.44340 -38.44054
 Alpha  occ. eigenvalues --  -38.43667 -38.43280  -2.20958  -2.20553  -2.20486
 Alpha  occ. eigenvalues --   -2.20146  -2.19839  -2.19455  -2.19076  -1.14610
 Alpha  occ. eigenvalues --   -1.14593  -1.14564  -1.14223  -1.14209  -1.14167
 Alpha  occ. eigenvalues --   -1.14166  -1.14157  -1.14119  -1.13839  -1.13820
 Alpha  occ. eigenvalues --   -1.13748  -1.13503  -1.13500  -1.13471  -1.13135
 Alpha  occ. eigenvalues --   -1.13118  -1.13093  -1.12743  -1.12738  -1.12727
 Alpha  occ. eigenvalues --   -0.16490  -0.13605  -0.11832  -0.11295
 Alpha virt. eigenvalues --   -0.05936  -0.05798  -0.04875  -0.03675  -0.03194
 Alpha virt. eigenvalues --   -0.03052  -0.01497  -0.00996  -0.00803  -0.00632
 Alpha virt. eigenvalues --   -0.00333  -0.00160  -0.00110   0.00335   0.00585

  Beta  occ. eigenvalues --  -38.45083 -38.44694 -38.44675 -38.44331 -38.44047
  Beta  occ. eigenvalues --  -38.43666 -38.43276  -2.20761  -2.20475  -2.20446
  Beta  occ. eigenvalues --   -2.20129  -2.19827  -2.19457  -2.19071  -1.14476
  Beta  occ. eigenvalues --   -1.14458  -1.14431  -1.14161  -1.14150  -1.14149
  Beta  occ. eigenvalues --   -1.14142  -1.14098  -1.14086  -1.13827  -1.13809
  Beta  occ. eigenvalues --   -1.13736  -1.13495  -1.13491  -1.13463  -1.13126
  Beta  occ. eigenvalues --   -1.13122  -1.13089  -1.12739  -1.12738  -1.12708
  Beta  occ. eigenvalues --   -0.15896  -0.13266  -0.11232
  Beta virt. eigenvalues --   -0.07985  -0.05829  -0.05285  -0.04336  -0.03304
  Beta virt. eigenvalues --   -0.02920  -0.02496  -0.01432  -0.00894  -0.00533
  Beta virt. eigenvalues --   -0.00443  -0.00094   0.00035   0.00224   0.00373

 Mulliken charges and spin densities:
               1          2
     1  Na   0.133969   0.099032
     2  Na  -0.170835   0.534947
     3  Na   0.090654   0.068851
     4  Na  -0.287261   0.303793
     5  Na   0.242085  -0.055118
     6  Na  -0.125571   0.006416
     7  Na   0.116959   0.042078
 Sum of Mulliken charges =  -0.00000   1.00000

 Dipole moment (field-independent basis, Debye):
    X=             -0.4915    Y=             -0.2105    Z=             -0.3307  Tot=              0.6287
 Quadrupole moment (field-independent basis, Debye-Ang):
   XX=            -67.5584   YY=            -71.7647   ZZ=            -62.5460
   XY=             -0.4847   XZ=              4.9154   YZ=              0.7687

 Normal termination of Gaussian 16 at Mon Dec  4 00:46:05 2023.
