 Gaussian 16, Revision B.01,
 Gaussian 16:  ES64L-G16RevB.01 20-Dec-2017

 -------------------------
 #P B3LYP/6-311+g(d) force
 -------------------------

 -----
 DPGEN
 -----
 Symbolic Z-matrix:
 Charge =  0 Multiplicity = 2

                         Standard orientation:
 ---------------------------------------------------------------------
 Center     Atomic      Atomic             Coordinates (Angstroms)
 Number     Number       Type             X           Y           Z
 ---------------------------------------------------------------------
      1         11           0       -2.752236   -2.040011   -0.385152
      2         11           0       -0.205360   -0.390698    1.993075
      3         11           0       -2.660847    1.718838    0.175174
      4         11           0        0.850602    2.956847    0.118870
      5         11           0        1.963634   -2.666484    0.230086
      6         11           0       -0.276039   -0.089770   -1.736953
      7         11           0        3.080246    0.511277   -0.395100
 ---------------------------------------------------------------------

 SCF Done:  E(UB3LYP) =  -1136.13467383     A.U. after   20 cycles

 The electronic state is 2-A.
 Alpha  occ. eigenvalues --  -38.44320 -38.44295 -38.43857 -38.43852 -38.43704
 Alpha  occ. eigenvalues --  -38.43629 -38.43240  -2.20123  -2.20083  -2.19690
 Alpha  occ. eigenvalues --   -2.19647  -2.19555  -2.19516  -2.19057  -1.13804
 Alpha  occ. eigenvalues --   -1.13790  -1.13760  -1.13752  -1.13733  -1.13716
 Alpha  occ. eigenvalues --   -1.13367  -1.13360  -1.13354  -1.13317  -1.13298
 Alpha  occ. eigenvalues --   -1.13277  -1.13232  -1.13197  -1.13186  -1.13169
 Alpha  occ. eigenvalues --   -1.13153  -1.13136  -1.12731  -1.12722  -1.12701
 Alpha  occ. eigenvalues --   -0.17996  -0.13083  -0.12125  -0.10553
 Alpha virt. eigenvalues --   -0.05964  -0.05558  -0.04714  -0.03205  -0.02798
 Alpha virt. eigenvalues --   -0.02485  -0.01712  -0.01439  -0.00724  -0.00472
 Alpha virt. eigenvalues --   -0.00046   0.00332   0.00707   0.00745   0.00822

  Beta  occ. eigenvalues --  -38.44313 -38.44283 -38.43850 -38.43849 -38.43617
  Beta  occ. eigenvalues --  -38.43566 -38.43240  -2.20113  -2.20064  -2.19678
  Beta  occ. eigenvalues --   -2.19644  -2.19402  -2.19394  -2.19060  -1.13791
  Beta  occ. eigenvalues --   -1.13775  -1.13745  -1.13735  -1.13715  -1.13708
  Beta  occ. eigenvalues --   -1.13360  -1.13353  -1.13335  -1.13298  -1.13295
  Beta  occ. eigenvalues --   -1.13275  -1.13135  -1.13105  -1.13077  -1.13075
  Beta  occ. eigenvalues --   -1.13049  -1.13047  -1.12734  -1.12717  -1.12693
  Beta  occ. eigenvalues --   -0.17306  -0.12860  -0.11896
  Beta virt. eigenvalues --   -0.06764  -0.05921  -0.05423  -0.04646  -0.02509
  Beta virt. eigenvalues --   -0.02108  -0.01586  -0.01524  -0.01311  -0.00759
  Beta virt. eigenvalues --   -0.00507   0.00105   0.00378   0.00737   0.00818

 Mulliken charges and spin densities:
               1          2
     1  Na   0.074501  -0.075846
     2  Na  -0.232238   0.683036
     3  Na   0.092447  -0.013233
     4  Na  -0.116207  -0.036760
     5  Na   0.070162  -0.070669
     6  Na   0.029254   0.489118
     7  Na   0.082081   0.024352
 Sum of Mulliken charges =  -0.00000   1.00000

 Dipole moment (field-independent basis, Debye):
    X=             -0.4886    Y=             -0.2835    Z=              0.0193  Tot=              0.5652
 Quadrupole moment (field-independent basis, Debye-Ang):
   XX=            -56.2066   YY=            -61.9841   ZZ=            -75.3848
   XY=             -0.2508   XZ=             -0.6033   YZ=              0.6830

 Normal termination of Gaussian 16 at Thu Dec  7 21:24:48 2023.
