 Gaussian 16, Revision B.01,
 Gaussian 16:  ES64L-G16RevB.01 20-Dec-2017

 -------------------------
 #P B3LYP/6-311+g(d) force
 -------------------------

 -----
 DPGEN
 -----
 Symbolic Z-matrix:
 Charge =  0 Multiplicity = 2

                         Standard orientation:
 ---------------------------------------------------------------------
 Center     Atomic      Atomic             Coordinates (Angstroms)
 Number     Number       Type             X           Y           Z
 ---------------------------------------------------------------------
      1         11           0       -2.232446   -0.901287    0.249070
      2         11           0       -5.143306   -2.231552   -0.257951
      3         11           0       -3.907719    1.880215   -0.992946
      4         11           0       -1.412912    2.061278    0.682590
      5         11           0        1.453548   -0.204507    1.492899
      6         11           0        3.923161   -0.438555   -0.805067
      7         11           0        7.319674   -0.165593   -0.368595
 ---------------------------------------------------------------------

 SCF Done:  E(UB3LYP) =  -1136.11037769     A.U. after   22 cycles

 The electronic state is 2-A.
 Alpha  occ. eigenvalues --  -38.45276 -38.44394 -38.44318 -38.44287 -38.43960
 Alpha  occ. eigenvalues --  -38.43957 -38.43853  -2.21139  -2.20223  -2.20189
 Alpha  occ. eigenvalues --   -2.20159  -2.19763  -2.19734  -2.19661  -1.14849
 Alpha  occ. eigenvalues --   -1.14787  -1.14727  -1.14005  -1.13918  -1.13848
 Alpha  occ. eigenvalues --   -1.13842  -1.13823  -1.13814  -1.13812  -1.13782
 Alpha  occ. eigenvalues --   -1.13776  -1.13432  -1.13424  -1.13416  -1.13412
 Alpha  occ. eigenvalues --   -1.13377  -1.13376  -1.13330  -1.13315  -1.13262
 Alpha  occ. eigenvalues --   -0.17071  -0.13873  -0.12095  -0.11501
 Alpha virt. eigenvalues --   -0.06685  -0.05107  -0.04364  -0.03827  -0.03157
 Alpha virt. eigenvalues --   -0.02392  -0.02154  -0.01667  -0.01153  -0.00879
 Alpha virt. eigenvalues --   -0.00697  -0.00214   0.00120   0.00486   0.00545

  Beta  occ. eigenvalues --  -38.45205 -38.44349 -38.44297 -38.44263 -38.43971
  Beta  occ. eigenvalues --  -38.43913 -38.43820  -2.21013  -2.20186  -2.20152
  Beta  occ. eigenvalues --   -2.20074  -2.19762  -2.19678  -2.19599  -1.14751
  Beta  occ. eigenvalues --   -1.14704  -1.14634  -1.13976  -1.13893  -1.13821
  Beta  occ. eigenvalues --   -1.13818  -1.13781  -1.13756  -1.13755  -1.13727
  Beta  occ. eigenvalues --   -1.13724  -1.13447  -1.13437  -1.13374  -1.13357
  Beta  occ. eigenvalues --   -1.13353  -1.13326  -1.13284  -1.13279  -1.13232
  Beta  occ. eigenvalues --   -0.16449  -0.13529  -0.11240
  Beta virt. eigenvalues --   -0.08281  -0.06288  -0.04902  -0.04062  -0.03623
  Beta virt. eigenvalues --   -0.02616  -0.02169  -0.01834  -0.01495  -0.00857
  Beta virt. eigenvalues --   -0.00575  -0.00393  -0.00105   0.00295   0.00533

 Mulliken charges and spin densities:
               1          2
     1  Na  -1.657720   0.324475
     2  Na  -0.254831   0.191129
     3  Na   0.134047   0.209535
     4  Na   0.488898   0.069292
     5  Na   1.127070   0.075824
     6  Na  -0.425846  -0.022642
     7  Na   0.588383   0.152387
 Sum of Mulliken charges =  -0.00000   1.00000

 Dipole moment (field-independent basis, Debye):
    X=             -1.2547    Y=              0.8580    Z=             -0.1385  Tot=              1.5263
 Quadrupole moment (field-independent basis, Debye-Ang):
   XX=            -56.6907   YY=            -68.7841   ZZ=            -69.5944
   XY=             -1.5970   XZ=              4.8828   YZ=             -1.2551

 Normal termination of Gaussian 16 at Tue Nov 28 19:35:28 2023.
