 Gaussian 16, Revision B.01,
 Gaussian 16:  ES64L-G16RevB.01 20-Dec-2017

 -------------------------
 #P B3LYP/6-311+g(d) force
 -------------------------

 -----
 DPGEN
 -----
 Symbolic Z-matrix:
 Charge =  0 Multiplicity = 2

                         Standard orientation:
 ---------------------------------------------------------------------
 Center     Atomic      Atomic             Coordinates (Angstroms)
 Number     Number       Type             X           Y           Z
 ---------------------------------------------------------------------
      1         11           0        1.729882    3.007064    0.005560
      2         11           0       -1.796833   -2.833431   -0.866757
      3         11           0       -2.323482    2.629034   -0.054229
      4         11           0       -3.338615   -0.016324    0.841291
      5         11           0        3.782435    0.039410    0.027297
      6         11           0        1.566358   -2.793696    0.838590
      7         11           0        0.380254   -0.032056   -0.791752
 ---------------------------------------------------------------------

 SCF Done:  E(UB3LYP) =  -1136.12532071     A.U. after   21 cycles

 The electronic state is 2-A.
 Alpha  occ. eigenvalues --  -38.44295 -38.44233 -38.44107 -38.43886 -38.43776
 Alpha  occ. eigenvalues --  -38.43726 -38.43590  -2.20106  -2.20037  -2.19962
 Alpha  occ. eigenvalues --   -2.19776  -2.19618  -2.19541  -2.19414  -1.13791
 Alpha  occ. eigenvalues --   -1.13769  -1.13734  -1.13724  -1.13709  -1.13707
 Alpha  occ. eigenvalues --   -1.13644  -1.13617  -1.13577  -1.13502  -1.13426
 Alpha  occ. eigenvalues --   -1.13402  -1.13274  -1.13271  -1.13234  -1.13202
 Alpha  occ. eigenvalues --   -1.13185  -1.13167  -1.13078  -1.13057  -1.13036
 Alpha  occ. eigenvalues --   -0.17149  -0.13813  -0.12997  -0.09756
 Alpha virt. eigenvalues --   -0.06489  -0.05643  -0.04723  -0.03082  -0.02730
 Alpha virt. eigenvalues --   -0.02094  -0.01939  -0.01696  -0.01358  -0.00588
 Alpha virt. eigenvalues --    0.00101   0.00313   0.00481   0.00601   0.00681

  Beta  occ. eigenvalues --  -38.44270 -38.44206 -38.44070 -38.43879 -38.43750
  Beta  occ. eigenvalues --  -38.43687 -38.43543  -2.20063  -2.19991  -2.19898
  Beta  occ. eigenvalues --   -2.19763  -2.19575  -2.19468  -2.19326  -1.13765
  Beta  occ. eigenvalues --   -1.13743  -1.13700  -1.13685  -1.13670  -1.13656
  Beta  occ. eigenvalues --   -1.13585  -1.13578  -1.13515  -1.13490  -1.13425
  Beta  occ. eigenvalues --   -1.13389  -1.13248  -1.13243  -1.13174  -1.13151
  Beta  occ. eigenvalues --   -1.13135  -1.13124  -1.13016  -1.13001  -1.12981
  Beta  occ. eigenvalues --   -0.16814  -0.13121  -0.12446
  Beta virt. eigenvalues --   -0.06517  -0.06485  -0.05423  -0.04456  -0.02626
  Beta virt. eigenvalues --   -0.02283  -0.01887  -0.01696  -0.01346  -0.01211
  Beta virt. eigenvalues --   -0.00369   0.00326   0.00422   0.00550   0.00679

 Mulliken charges and spin densities:
               1          2
     1  Na   0.664168   0.123500
     2  Na   0.456284   0.231916
     3  Na   0.036566   0.169120
     4  Na   0.147112   0.123556
     5  Na   0.363473   0.186472
     6  Na   0.312144   0.111609
     7  Na  -1.979748   0.053826
 Sum of Mulliken charges =  -0.00000   1.00000

 Dipole moment (field-independent basis, Debye):
    X=              0.4633    Y=             -0.1761    Z=              0.2171  Tot=              0.5411
 Quadrupole moment (field-independent basis, Debye-Ang):
   XX=            -64.8754   YY=            -62.3108   ZZ=            -70.7852
   XY=              6.7551   XZ=              0.3548   YZ=             -1.6495

 Normal termination of Gaussian 16 at Tue Dec  5 15:08:11 2023.
