 Gaussian 16, Revision B.01,
 Gaussian 16:  ES64L-G16RevB.01 20-Dec-2017

 -------------------------
 #P B3LYP/6-311+g(d) force
 -------------------------

 -----
 DPGEN
 -----
 Symbolic Z-matrix:
 Charge =  0 Multiplicity = 2

                         Standard orientation:
 ---------------------------------------------------------------------
 Center     Atomic      Atomic             Coordinates (Angstroms)
 Number     Number       Type             X           Y           Z
 ---------------------------------------------------------------------
      1         11           0       -0.416064    1.206753   -0.288102
      2         11           0        1.931828    3.628062    0.129514
      3         11           0        3.184889    0.538590    0.105225
      4         11           0        3.928776   -2.321668   -0.233392
      5         11           0        0.707905   -2.178706   -0.042039
      6         11           0       -3.195384   -0.991167    0.767313
      7         11           0       -6.141950    0.118135   -0.438520
 ---------------------------------------------------------------------

 SCF Done:  E(UB3LYP) =  -1136.12530706     A.U. after   20 cycles

 The electronic state is 2-A.
 Alpha  occ. eigenvalues --  -38.44597 -38.44281 -38.44133 -38.43982 -38.43755
 Alpha  occ. eigenvalues --  -38.43743 -38.43436  -2.20394  -2.20126  -2.19970
 Alpha  occ. eigenvalues --   -2.19897  -2.19641  -2.19526  -2.19261  -1.14030
 Alpha  occ. eigenvalues --   -1.14029  -1.14012  -1.13820  -1.13809  -1.13738
 Alpha  occ. eigenvalues --   -1.13669  -1.13661  -1.13613  -1.13574  -1.13572
 Alpha  occ. eigenvalues --   -1.13549  -1.13278  -1.13269  -1.13249  -1.13218
 Alpha  occ. eigenvalues --   -1.13208  -1.13167  -1.12928  -1.12917  -1.12892
 Alpha  occ. eigenvalues --   -0.17092  -0.13943  -0.12611  -0.11317
 Alpha virt. eigenvalues --   -0.05474  -0.05268  -0.04988  -0.04039  -0.02772
 Alpha virt. eigenvalues --   -0.02105  -0.01832  -0.01548  -0.01326  -0.00704
 Alpha virt. eigenvalues --   -0.00520   0.00060   0.00280   0.00441   0.00720

  Beta  occ. eigenvalues --  -38.44496 -38.44245 -38.44105 -38.43955 -38.43751
  Beta  occ. eigenvalues --  -38.43734 -38.43429  -2.20206  -2.20062  -2.19921
  Beta  occ. eigenvalues --   -2.19849  -2.19602  -2.19548  -2.19248  -1.13902
  Beta  occ. eigenvalues --   -1.13900  -1.13890  -1.13777  -1.13768  -1.13679
  Beta  occ. eigenvalues --   -1.13637  -1.13625  -1.13573  -1.13543  -1.13530
  Beta  occ. eigenvalues --   -1.13509  -1.13244  -1.13241  -1.13241  -1.13231
  Beta  occ. eigenvalues --   -1.13227  -1.13125  -1.12914  -1.12908  -1.12886
  Beta  occ. eigenvalues --   -0.16551  -0.13132  -0.12465
  Beta virt. eigenvalues --   -0.07809  -0.05088  -0.04980  -0.04606  -0.03839
  Beta virt. eigenvalues --   -0.02438  -0.01873  -0.01501  -0.01371  -0.01097
  Beta virt. eigenvalues --   -0.00384  -0.00129   0.00203   0.00412   0.00564

 Mulliken charges and spin densities:
               1          2
     1  Na  -0.911203  -0.075506
     2  Na   1.079580   0.101733
     3  Na  -1.108078   0.390947
     4  Na   1.546737  -0.009674
     5  Na  -0.823799   0.112712
     6  Na  -0.083596   0.039912
     7  Na   0.300359   0.439875
 Sum of Mulliken charges =  -0.00000   1.00000

 Dipole moment (field-independent basis, Debye):
    X=              0.5229    Y=             -0.0243    Z=             -0.1980  Tot=              0.5596
 Quadrupole moment (field-independent basis, Debye-Ang):
   XX=            -61.8000   YY=            -61.9923   ZZ=            -71.6562
   XY=             -3.1023   XZ=              1.9500   YZ=             -0.4789

 Normal termination of Gaussian 16 at Tue Nov 28 22:38:14 2023.
