 Gaussian 16, Revision B.01,
 Gaussian 16:  ES64L-G16RevB.01 20-Dec-2017

 -------------------------
 #P B3LYP/6-311+g(d) force
 -------------------------

 -----
 DPGEN
 -----
 Symbolic Z-matrix:
 Charge =  0 Multiplicity = 2

                         Standard orientation:
 ---------------------------------------------------------------------
 Center     Atomic      Atomic             Coordinates (Angstroms)
 Number     Number       Type             X           Y           Z
 ---------------------------------------------------------------------
      1         11           0        1.139365   -2.312036   -0.763398
      2         11           0        3.444306   -0.776193    0.497616
      3         11           0        1.209016    1.036362   -1.151295
      4         11           0       -0.047931    0.290992    2.049315
      5         11           0       -3.246346   -2.167114    0.511939
      6         11           0       -1.824600    0.277907   -1.335587
      7         11           0       -0.673811    3.650082    0.191411
 ---------------------------------------------------------------------

 SCF Done:  E(UB3LYP) =  -1136.12749311     A.U. after   20 cycles

 The electronic state is 2-A.
 Alpha  occ. eigenvalues --  -38.44328 -38.44264 -38.44156 -38.43910 -38.43673
 Alpha  occ. eigenvalues --  -38.43368 -38.43254  -2.20191  -2.20090  -2.20019
 Alpha  occ. eigenvalues --   -2.19689  -2.19439  -2.19253  -2.19228  -1.13915
 Alpha  occ. eigenvalues --   -1.13873  -1.13830  -1.13771  -1.13714  -1.13705
 Alpha  occ. eigenvalues --   -1.13686  -1.13649  -1.13632  -1.13367  -1.13352
 Alpha  occ. eigenvalues --   -1.13323  -1.13121  -1.13101  -1.13079  -1.13051
 Alpha  occ. eigenvalues --   -1.12914  -1.12900  -1.12888  -1.12840  -1.12792
 Alpha  occ. eigenvalues --   -0.18219  -0.13094  -0.11972  -0.10833
 Alpha virt. eigenvalues --   -0.06020  -0.05443  -0.04447  -0.03235  -0.02854
 Alpha virt. eigenvalues --   -0.02686  -0.01689  -0.01568  -0.00629  -0.00171
 Alpha virt. eigenvalues --    0.00220   0.00260   0.00651   0.00719   0.00820

  Beta  occ. eigenvalues --  -38.44312 -38.44176 -38.44151 -38.43914 -38.43673
  Beta  occ. eigenvalues --  -38.43334 -38.43213  -2.20164  -2.20013  -2.19926
  Beta  occ. eigenvalues --   -2.19698  -2.19439  -2.19193  -2.19158  -1.13903
  Beta  occ. eigenvalues --   -1.13840  -1.13804  -1.13683  -1.13661  -1.13633
  Beta  occ. eigenvalues --   -1.13622  -1.13594  -1.13587  -1.13374  -1.13345
  Beta  occ. eigenvalues --   -1.13330  -1.13120  -1.13096  -1.13077  -1.12999
  Beta  occ. eigenvalues --   -1.12862  -1.12854  -1.12822  -1.12784  -1.12747
  Beta  occ. eigenvalues --   -0.17432  -0.12937  -0.11866
  Beta virt. eigenvalues --   -0.06884  -0.05793  -0.05387  -0.04305  -0.02677
  Beta virt. eigenvalues --   -0.02327  -0.01791  -0.01498  -0.01437  -0.00444
  Beta virt. eigenvalues --   -0.00084   0.00259   0.00317   0.00687   0.00787

 Mulliken charges and spin densities:
               1          2
     1  Na  -0.145372  -0.001197
     2  Na   0.655246  -0.018877
     3  Na   0.107754   0.419757
     4  Na  -0.623203   0.823852
     5  Na   0.055572  -0.117146
     6  Na  -0.139233   0.057314
     7  Na   0.089237  -0.163702
 Sum of Mulliken charges =  -0.00000   1.00000

 Dipole moment (field-independent basis, Debye):
    X=              0.6310    Y=              0.0542    Z=              0.3627  Tot=              0.7298
 Quadrupole moment (field-independent basis, Debye-Ang):
   XX=            -59.8570   YY=            -60.3602   ZZ=            -72.7532
   XY=             -1.8920   XZ=              0.2907   YZ=              0.1433

 Normal termination of Gaussian 16 at Fri Dec  8 06:14:43 2023.
