 Gaussian 16, Revision B.01,
 Gaussian 16:  ES64L-G16RevB.01 20-Dec-2017

 -------------------------
 #P B3LYP/6-311+g(d) force
 -------------------------

 -----
 DPGEN
 -----
 Symbolic Z-matrix:
 Charge =  0 Multiplicity = 2

                         Standard orientation:
 ---------------------------------------------------------------------
 Center     Atomic      Atomic             Coordinates (Angstroms)
 Number     Number       Type             X           Y           Z
 ---------------------------------------------------------------------
      1         11           0       -3.608621   -0.078943   -0.161962
      2         11           0       -0.145934   -0.723279    1.981547
      3         11           0        0.092216    0.449009   -1.734411
      4         11           0       -1.475746    2.147811    0.525922
      5         11           0       -0.651519   -2.361890   -0.667465
      6         11           0        3.029395   -1.362889    0.186960
      7         11           0        2.760209    1.930181   -0.130591
 ---------------------------------------------------------------------

 SCF Done:  E(UB3LYP) =  -1136.12621928     A.U. after   21 cycles

 The electronic state is 2-A.
 Alpha  occ. eigenvalues --  -38.45416 -38.44644 -38.43749 -38.43734 -38.43628
 Alpha  occ. eigenvalues --  -38.43279 -38.42701  -2.21214  -2.20445  -2.19624
 Alpha  occ. eigenvalues --   -2.19573  -2.19556  -2.19163  -2.18606  -1.14896
 Alpha  occ. eigenvalues --   -1.14875  -1.14845  -1.14126  -1.14109  -1.14076
 Alpha  occ. eigenvalues --   -1.13312  -1.13275  -1.13267  -1.13256  -1.13232
 Alpha  occ. eigenvalues --   -1.13226  -1.13219  -1.13202  -1.13156  -1.12845
 Alpha  occ. eigenvalues --   -1.12823  -1.12788  -1.12315  -1.12274  -1.12197
 Alpha  occ. eigenvalues --   -0.18505  -0.13551  -0.11614  -0.10883
 Alpha virt. eigenvalues --   -0.06796  -0.05234  -0.03623  -0.03462  -0.02877
 Alpha virt. eigenvalues --   -0.02532  -0.02374  -0.01207  -0.00285  -0.00180
 Alpha virt. eigenvalues --   -0.00007   0.00256   0.00583   0.00706   0.00838

  Beta  occ. eigenvalues --  -38.45417 -38.44641 -38.43750 -38.43658 -38.43557
  Beta  occ. eigenvalues --  -38.43262 -38.42678  -2.21219  -2.20442  -2.19559
  Beta  occ. eigenvalues --   -2.19482  -2.19443  -2.19135  -2.18568  -1.14900
  Beta  occ. eigenvalues --   -1.14864  -1.14848  -1.14117  -1.14098  -1.14077
  Beta  occ. eigenvalues --   -1.13232  -1.13221  -1.13216  -1.13205  -1.13181
  Beta  occ. eigenvalues --   -1.13172  -1.13143  -1.13122  -1.13070  -1.12828
  Beta  occ. eigenvalues --   -1.12786  -1.12762  -1.12288  -1.12221  -1.12170
  Beta  occ. eigenvalues --   -0.17759  -0.13381  -0.11381
  Beta virt. eigenvalues --   -0.06945  -0.06683  -0.05229  -0.03551  -0.02776
  Beta virt. eigenvalues --   -0.02403  -0.02042  -0.01474  -0.01149  -0.00305
  Beta virt. eigenvalues --   -0.00037   0.00028   0.00275   0.00752   0.00777

 Mulliken charges and spin densities:
               1          2
     1  Na   0.178158  -0.092908
     2  Na  -0.346496   0.587309
     3  Na  -0.121956   0.512224
     4  Na   0.027478   0.086579
     5  Na   0.076505   0.010005
     6  Na   0.141714  -0.021554
     7  Na   0.044597  -0.081654
 Sum of Mulliken charges =  -0.00000   1.00000

 Dipole moment (field-independent basis, Debye):
    X=             -0.3201    Y=             -0.2581    Z=              0.1413  Tot=              0.4348
 Quadrupole moment (field-independent basis, Debye-Ang):
   XX=            -47.6856   YY=            -71.3740   ZZ=            -73.5959
   XY=              0.1264   XZ=              1.2571   YZ=              1.6434

 Normal termination of Gaussian 16 at Tue Dec  5 10:11:54 2023.
