 Gaussian 16, Revision B.01,
 Gaussian 16:  ES64L-G16RevB.01 20-Dec-2017

 -------------------------
 #P B3LYP/6-311+g(d) force
 -------------------------

 -----
 DPGEN
 -----
 Symbolic Z-matrix:
 Charge =  0 Multiplicity = 2

                         Standard orientation:
 ---------------------------------------------------------------------
 Center     Atomic      Atomic             Coordinates (Angstroms)
 Number     Number       Type             X           Y           Z
 ---------------------------------------------------------------------
      1         11           0       -1.830830    1.815760    0.841475
      2         11           0        0.971771    3.079643   -0.184897
      3         11           0        3.360763    0.239891   -0.771387
      4         11           0       -4.871266   -0.531774    1.066794
      5         11           0        5.410115   -1.991276    1.285285
      6         11           0        0.145965   -0.184822   -1.372336
      7         11           0       -3.186517   -2.427422   -0.864935
 ---------------------------------------------------------------------

 SCF Done:  E(UB3LYP) =  -1136.11297392     A.U. after   21 cycles

 The electronic state is 2-A.
 Alpha  occ. eigenvalues --  -38.44737 -38.44709 -38.44615 -38.44612 -38.44271
 Alpha  occ. eigenvalues --  -38.44212 -38.43772  -2.20554  -2.20532  -2.20438
 Alpha  occ. eigenvalues --   -2.20405  -2.20035  -2.20034  -2.19563  -1.14234
 Alpha  occ. eigenvalues --   -1.14223  -1.14218  -1.14196  -1.14176  -1.14165
 Alpha  occ. eigenvalues --   -1.14113  -1.14101  -1.14072  -1.14066  -1.14051
 Alpha  occ. eigenvalues --   -1.14023  -1.13717  -1.13712  -1.13685  -1.13684
 Alpha  occ. eigenvalues --   -1.13643  -1.13636  -1.13272  -1.13249  -1.13189
 Alpha  occ. eigenvalues --   -0.16839  -0.14013  -0.12122  -0.10858
 Alpha virt. eigenvalues --   -0.07017  -0.06356  -0.04257  -0.03518  -0.03045
 Alpha virt. eigenvalues --   -0.02509  -0.02193  -0.01578  -0.01226  -0.01039
 Alpha virt. eigenvalues --   -0.00543  -0.00207   0.00088   0.00272   0.00528

  Beta  occ. eigenvalues --  -38.44723 -38.44647 -38.44609 -38.44595 -38.44197
  Beta  occ. eigenvalues --  -38.44186 -38.43793  -2.20506  -2.20441  -2.20431
  Beta  occ. eigenvalues --   -2.20369  -2.19986  -2.19895  -2.19607  -1.14206
  Beta  occ. eigenvalues --   -1.14179  -1.14158  -1.14152  -1.14151  -1.14110
  Beta  occ. eigenvalues --   -1.14104  -1.14084  -1.14048  -1.14040  -1.14021
  Beta  occ. eigenvalues --   -1.13996  -1.13684  -1.13674  -1.13603  -1.13590
  Beta  occ. eigenvalues --   -1.13589  -1.13553  -1.13298  -1.13282  -1.13195
  Beta  occ. eigenvalues --   -0.16435  -0.13876  -0.11524
  Beta virt. eigenvalues --   -0.07610  -0.06626  -0.05700  -0.04005  -0.03239
  Beta virt. eigenvalues --   -0.02790  -0.02417  -0.01878  -0.01352  -0.00857
  Beta virt. eigenvalues --   -0.00779  -0.00318   0.00055   0.00165   0.00457

 Mulliken charges and spin densities:
               1          2
     1  Na  -0.002285   0.175976
     2  Na   0.751147   0.086947
     3  Na  -0.111495  -0.045881
     4  Na  -0.140832   0.025156
     5  Na   0.256564   0.380077
     6  Na  -1.081770   0.358981
     7  Na   0.328670   0.018744
 Sum of Mulliken charges =  -0.00000   1.00000

 Dipole moment (field-independent basis, Debye):
    X=             -1.3042    Y=              0.5072    Z=              0.1674  Tot=              1.4093
 Quadrupole moment (field-independent basis, Debye-Ang):
   XX=            -65.0562   YY=            -63.9260   ZZ=            -70.3814
   XY=              6.2155   XZ=             -0.6705   YZ=             -2.3566

 Normal termination of Gaussian 16 at Tue Nov 28 20:07:34 2023.
