 Gaussian 16, Revision B.01,
 Gaussian 16:  ES64L-G16RevB.01 20-Dec-2017

 -------------------------
 #P B3LYP/6-311+g(d) force
 -------------------------

 -----
 DPGEN
 -----
 Symbolic Z-matrix:
 Charge =  0 Multiplicity = 2

                         Standard orientation:
 ---------------------------------------------------------------------
 Center     Atomic      Atomic             Coordinates (Angstroms)
 Number     Number       Type             X           Y           Z
 ---------------------------------------------------------------------
      1         11           0       -0.927574    1.392788   -0.358777
      2         11           0        2.061574   -0.901125    1.980221
      3         11           0        3.849731    0.072875   -1.102250
      4         11           0        1.757237    2.348864    0.338919
      5         11           0        0.835046   -2.254728   -0.934763
      6         11           0       -3.044776   -1.587811    0.242546
      7         11           0       -4.531237    0.929137   -0.165896
 ---------------------------------------------------------------------

 SCF Done:  E(UB3LYP) =  -1136.11117400     A.U. after   26 cycles

 The electronic state is 2-A.
 Alpha  occ. eigenvalues --  -38.46277 -38.44566 -38.44364 -38.44100 -38.43596
 Alpha  occ. eigenvalues --  -38.43507 -38.42629  -2.22050  -2.20400  -2.20220
 Alpha  occ. eigenvalues --   -2.19946  -2.19392  -2.19386  -2.18526  -1.15721
 Alpha  occ. eigenvalues --   -1.15702  -1.15693  -1.14165  -1.14070  -1.14046
 Alpha  occ. eigenvalues --   -1.13854  -1.13843  -1.13811  -1.13605  -1.13574
 Alpha  occ. eigenvalues --   -1.13555  -1.13085  -1.13077  -1.13063  -1.13050
 Alpha  occ. eigenvalues --   -1.13028  -1.13022  -1.12216  -1.12178  -1.12152
 Alpha  occ. eigenvalues --   -0.17451  -0.14632  -0.11372  -0.10382
 Alpha virt. eigenvalues --   -0.07397  -0.05704  -0.03977  -0.03336  -0.03299
 Alpha virt. eigenvalues --   -0.02196  -0.02073  -0.01768  -0.00995  -0.00604
 Alpha virt. eigenvalues --   -0.00230  -0.00082   0.00255   0.00548   0.00650

  Beta  occ. eigenvalues --  -38.46275 -38.44558 -38.44320 -38.44000 -38.43588
  Beta  occ. eigenvalues --  -38.43473 -38.42618  -2.22051  -2.20390  -2.20140
  Beta  occ. eigenvalues --   -2.19759  -2.19378  -2.19328  -2.18511  -1.15706
  Beta  occ. eigenvalues --   -1.15703  -1.15690  -1.14138  -1.14067  -1.14022
  Beta  occ. eigenvalues --   -1.13800  -1.13784  -1.13769  -1.13476  -1.13450
  Beta  occ. eigenvalues --   -1.13428  -1.13071  -1.13041  -1.13032  -1.13025
  Beta  occ. eigenvalues --   -1.13000  -1.12982  -1.12197  -1.12162  -1.12125
  Beta  occ. eigenvalues --   -0.16868  -0.14082  -0.11079
  Beta virt. eigenvalues --   -0.07188  -0.06817  -0.05619  -0.03507  -0.03161
  Beta virt. eigenvalues --   -0.02939  -0.02103  -0.01467  -0.01425  -0.00613
  Beta virt. eigenvalues --   -0.00363  -0.00055   0.00050   0.00347   0.00604

 Mulliken charges and spin densities:
               1          2
     1  Na  -1.252002   0.019632
     2  Na   0.294965   0.202384
     3  Na   0.151972   0.601216
     4  Na   0.320189  -0.105623
     5  Na  -0.281059  -0.105611
     6  Na  -0.103255   0.038936
     7  Na   0.869190   0.349066
 Sum of Mulliken charges =  -0.00000   1.00000

 Dipole moment (field-independent basis, Debye):
    X=             -0.6244    Y=             -0.5796    Z=              1.0891  Tot=              1.3827
 Quadrupole moment (field-independent basis, Debye-Ang):
   XX=            -65.0400   YY=            -76.5361   ZZ=            -60.8533
   XY=             -1.4339   XZ=              4.1010   YZ=             -1.2932

 Normal termination of Gaussian 16 at Fri Dec  8 17:27:31 2023.
