 Gaussian 16, Revision B.01,
 Gaussian 16:  ES64L-G16RevB.01 20-Dec-2017

 -------------------------
 #P B3LYP/6-311+g(d) force
 -------------------------

 -----
 DPGEN
 -----
 Symbolic Z-matrix:
 Charge =  0 Multiplicity = 2

                         Standard orientation:
 ---------------------------------------------------------------------
 Center     Atomic      Atomic             Coordinates (Angstroms)
 Number     Number       Type             X           Y           Z
 ---------------------------------------------------------------------
      1         11           0        0.626742    1.596016    0.651020
      2         11           0       -1.404891   -1.007985    2.068111
      3         11           0       -0.996817   -2.938317   -0.551674
      4         11           0        2.111084   -1.598898   -0.774716
      5         11           0        4.313565    0.866263    0.039677
      6         11           0       -2.732279   -0.251052   -0.816500
      7         11           0       -1.917405    3.333975   -0.615918
 ---------------------------------------------------------------------

 SCF Done:  E(UB3LYP) =  -1136.12413369     A.U. after   21 cycles

 The electronic state is 2-A.
 Alpha  occ. eigenvalues --  -38.44923 -38.44680 -38.44274 -38.43766 -38.43723
 Alpha  occ. eigenvalues --  -38.43557 -38.43530  -2.20689  -2.20535  -2.20083
 Alpha  occ. eigenvalues --   -2.19664  -2.19551  -2.19417  -2.19355  -1.14358
 Alpha  occ. eigenvalues --   -1.14356  -1.14323  -1.14232  -1.14216  -1.14146
 Alpha  occ. eigenvalues --   -1.13768  -1.13758  -1.13702  -1.13315  -1.13313
 Alpha  occ. eigenvalues --   -1.13291  -1.13253  -1.13240  -1.13162  -1.13086
 Alpha  occ. eigenvalues --   -1.13073  -1.13048  -1.13016  -1.13009  -1.12984
 Alpha  occ. eigenvalues --   -0.17705  -0.13418  -0.12655  -0.10373
 Alpha virt. eigenvalues --   -0.06947  -0.05260  -0.05000  -0.02987  -0.02903
 Alpha virt. eigenvalues --   -0.02430  -0.02005  -0.01285  -0.01151  -0.00553
 Alpha virt. eigenvalues --   -0.00242   0.00209   0.00279   0.00567   0.00786

  Beta  occ. eigenvalues --  -38.44929 -38.44658 -38.44254 -38.43707 -38.43672
  Beta  occ. eigenvalues --  -38.43541 -38.43510  -2.20700  -2.20497  -2.20048
  Beta  occ. eigenvalues --   -2.19525  -2.19491  -2.19384  -2.19325  -1.14366
  Beta  occ. eigenvalues --   -1.14361  -1.14330  -1.14193  -1.14181  -1.14121
  Beta  occ. eigenvalues --   -1.13746  -1.13732  -1.13670  -1.13245  -1.13210
  Beta  occ. eigenvalues --   -1.13198  -1.13191  -1.13166  -1.13146  -1.13061
  Beta  occ. eigenvalues --   -1.13050  -1.12999  -1.12997  -1.12983  -1.12965
  Beta  occ. eigenvalues --   -0.17085  -0.13332  -0.12350
  Beta virt. eigenvalues --   -0.06817  -0.06608  -0.04885  -0.04780  -0.02649
  Beta virt. eigenvalues --   -0.02424  -0.02329  -0.01344  -0.01167  -0.00902
  Beta virt. eigenvalues --   -0.00388   0.00069   0.00321   0.00430   0.00632

 Mulliken charges and spin densities:
               1          2
     1  Na  -1.305372   0.236216
     2  Na   0.285017   0.271384
     3  Na  -0.032127   0.336713
     4  Na  -0.210783   0.005747
     5  Na   0.754548  -0.021903
     6  Na  -0.066849   0.198773
     7  Na   0.575566  -0.026931
 Sum of Mulliken charges =  -0.00000   1.00000

 Dipole moment (field-independent basis, Debye):
    X=              0.8560    Y=              0.1027    Z=              0.0716  Tot=              0.8651
 Quadrupole moment (field-independent basis, Debye-Ang):
   XX=            -54.1367   YY=            -64.8230   ZZ=            -74.9968
   XY=              3.9384   XZ=              0.9682   YZ=             -0.1207

 Normal termination of Gaussian 16 at Tue Nov 28 22:03:43 2023.
