 Gaussian 16, Revision B.01,
 Gaussian 16:  ES64L-G16RevB.01 20-Dec-2017

 -------------------------
 #P B3LYP/6-311+g(d) force
 -------------------------

 -----
 DPGEN
 -----
 Symbolic Z-matrix:
 Charge =  0 Multiplicity = 2

                         Standard orientation:
 ---------------------------------------------------------------------
 Center     Atomic      Atomic             Coordinates (Angstroms)
 Number     Number       Type             X           Y           Z
 ---------------------------------------------------------------------
      1         11           0        1.214992   -2.434387   -1.174795
      2         11           0        3.552053   -1.255413    1.538232
      3         11           0        3.346492    2.208769    0.516137
      4         11           0       -2.365248    2.337082   -0.506831
      5         11           0       -4.476856   -0.297652    1.512252
      6         11           0       -2.308643   -1.434563   -0.526838
      7         11           0        1.037209    0.876164   -1.358156
 ---------------------------------------------------------------------

 SCF Done:  E(UB3LYP) =  -1136.11471239     A.U. after   24 cycles

 The electronic state is 2-A.
 Alpha  occ. eigenvalues --  -38.45559 -38.45100 -38.44714 -38.44147 -38.43976
 Alpha  occ. eigenvalues --  -38.43827 -38.42467  -2.21329  -2.20856  -2.20532
 Alpha  occ. eigenvalues --   -2.19967  -2.19837  -2.19610  -2.18287  -1.15000
 Alpha  occ. eigenvalues --   -1.14953  -1.14948  -1.14539  -1.14525  -1.14466
 Alpha  occ. eigenvalues --   -1.14209  -1.14175  -1.14136  -1.13667  -1.13644
 Alpha  occ. eigenvalues --   -1.13578  -1.13525  -1.13499  -1.13478  -1.13287
 Alpha  occ. eigenvalues --   -1.13277  -1.13253  -1.11981  -1.11946  -1.11922
 Alpha  occ. eigenvalues --   -0.16695  -0.14333  -0.11384  -0.11174
 Alpha virt. eigenvalues --   -0.06962  -0.05454  -0.04001  -0.03873  -0.03200
 Alpha virt. eigenvalues --   -0.02540  -0.02040  -0.01312  -0.00791  -0.00639
 Alpha virt. eigenvalues --   -0.00445  -0.00161   0.00237   0.00273   0.00593

  Beta  occ. eigenvalues --  -38.45494 -38.45069 -38.44649 -38.44132 -38.43935
  Beta  occ. eigenvalues --  -38.43848 -38.42464  -2.21207  -2.20801  -2.20411
  Beta  occ. eigenvalues --   -2.19945  -2.19763  -2.19650  -2.18283  -1.14917
  Beta  occ. eigenvalues --   -1.14874  -1.14863  -1.14502  -1.14484  -1.14416
  Beta  occ. eigenvalues --   -1.14122  -1.14092  -1.14059  -1.13652  -1.13620
  Beta  occ. eigenvalues --   -1.13543  -1.13479  -1.13456  -1.13417  -1.13314
  Beta  occ. eigenvalues --   -1.13301  -1.13263  -1.11974  -1.11946  -1.11909
  Beta  occ. eigenvalues --   -0.16048  -0.13786  -0.11052
  Beta virt. eigenvalues --   -0.07907  -0.06552  -0.04996  -0.03837  -0.03633
  Beta virt. eigenvalues --   -0.02660  -0.02008  -0.01844  -0.01056  -0.00746
  Beta virt. eigenvalues --   -0.00400  -0.00176  -0.00039   0.00358   0.00397

 Mulliken charges and spin densities:
               1          2
     1  Na   0.301995  -0.024819
     2  Na   0.004016   0.311531
     3  Na   0.310711   0.023396
     4  Na   0.187574   0.146493
     5  Na   0.591957   0.277416
     6  Na  -0.614017   0.189560
     7  Na  -0.782236   0.076424
 Sum of Mulliken charges =  -0.00000   1.00000

 Dipole moment (field-independent basis, Debye):
    X=             -0.6614    Y=              0.2627    Z=              1.2764  Tot=              1.4614
 Quadrupole moment (field-independent basis, Debye-Ang):
   XX=            -57.7154   YY=            -70.3318   ZZ=            -66.9262
   XY=             -4.3771   XZ=             -0.1151   YZ=             -2.7450

 Normal termination of Gaussian 16 at Sun Dec  3 21:02:33 2023.
