 Gaussian 16, Revision B.01,
 Gaussian 16:  ES64L-G16RevB.01 20-Dec-2017

 -------------------------
 #P B3LYP/6-311+g(d) force
 -------------------------

 -----
 DPGEN
 -----
 Symbolic Z-matrix:
 Charge =  0 Multiplicity = 2

                         Standard orientation:
 ---------------------------------------------------------------------
 Center     Atomic      Atomic             Coordinates (Angstroms)
 Number     Number       Type             X           Y           Z
 ---------------------------------------------------------------------
      1         11           0        0.875478   -1.133820   -0.942897
      2         11           0       -0.489840   -0.091205    1.977731
      3         11           0        4.769393   -0.739372    0.249946
      4         11           0       -1.437210    1.926173   -1.081300
      5         11           0        2.754916    1.577399   -0.103676
      6         11           0       -4.075086    0.472974    0.539850
      7         11           0       -2.397652   -2.012150   -0.639654
 ---------------------------------------------------------------------

 SCF Done:  E(UB3LYP) =  -1136.10882713     A.U. after   27 cycles

 The electronic state is 2-A.
 Alpha  occ. eigenvalues --  -38.47050 -38.44572 -38.43998 -38.43667 -38.43657
 Alpha  occ. eigenvalues --  -38.43226 -38.43198  -2.22836  -2.20406  -2.19843
 Alpha  occ. eigenvalues --   -2.19534  -2.19464  -2.19117  -2.19065  -1.16514
 Alpha  occ. eigenvalues --   -1.16482  -1.16454  -1.14077  -1.14042  -1.14019
 Alpha  occ. eigenvalues --   -1.13534  -1.13508  -1.13482  -1.13217  -1.13185
 Alpha  occ. eigenvalues --   -1.13164  -1.13155  -1.13120  -1.13078  -1.12809
 Alpha  occ. eigenvalues --   -1.12805  -1.12763  -1.12724  -1.12719  -1.12665
 Alpha  occ. eigenvalues --   -0.17993  -0.14668  -0.11089  -0.10395
 Alpha virt. eigenvalues --   -0.07794  -0.05405  -0.04485  -0.03484  -0.02887
 Alpha virt. eigenvalues --   -0.02197  -0.01878  -0.01706  -0.01401  -0.00717
 Alpha virt. eigenvalues --   -0.00390   0.00125   0.00219   0.00584   0.00659

  Beta  occ. eigenvalues --  -38.47030 -38.44489 -38.43996 -38.43646 -38.43608
  Beta  occ. eigenvalues --  -38.43208 -38.43176  -2.22803  -2.20252  -2.19847
  Beta  occ. eigenvalues --   -2.19448  -2.19424  -2.19085  -2.19027  -1.16474
  Beta  occ. eigenvalues --   -1.16467  -1.16430  -1.13976  -1.13937  -1.13915
  Beta  occ. eigenvalues --   -1.13543  -1.13518  -1.13429  -1.13151  -1.13143
  Beta  occ. eigenvalues --   -1.13119  -1.13110  -1.13083  -1.13036  -1.12788
  Beta  occ. eigenvalues --   -1.12763  -1.12737  -1.12708  -1.12692  -1.12626
  Beta  occ. eigenvalues --   -0.17388  -0.13895  -0.10280
  Beta virt. eigenvalues --   -0.07638  -0.07539  -0.04993  -0.03988  -0.03198
  Beta virt. eigenvalues --   -0.02771  -0.01899  -0.01623  -0.01414  -0.00933
  Beta virt. eigenvalues --   -0.00374  -0.00142   0.00161   0.00287   0.00636

 Mulliken charges and spin densities:
               1          2
     1  Na  -0.252418  -0.148910
     2  Na  -0.073096  -0.021002
     3  Na   0.331265   0.391863
     4  Na  -0.324039   0.094456
     5  Na   0.147867   0.174698
     6  Na   0.312310   0.330317
     7  Na  -0.141889   0.178578
 Sum of Mulliken charges =  -0.00000   1.00000

 Dipole moment (field-independent basis, Debye):
    X=              0.6472    Y=             -0.3727    Z=              1.4706  Tot=              1.6494
 Quadrupole moment (field-independent basis, Debye-Ang):
   XX=            -67.2290   YY=            -81.3396   ZZ=            -57.6036
   XY=              0.6508   XZ=             -0.1200   YZ=             -0.2869

 Normal termination of Gaussian 16 at Thu Dec  7 15:47:15 2023.
