 Gaussian 16, Revision B.01,
 Gaussian 16:  ES64L-G16RevB.01 20-Dec-2017

 -------------------------
 #P B3LYP/6-311+g(d) force
 -------------------------

 -----
 DPGEN
 -----
 Symbolic Z-matrix:
 Charge =  0 Multiplicity = 2

                         Standard orientation:
 ---------------------------------------------------------------------
 Center     Atomic      Atomic             Coordinates (Angstroms)
 Number     Number       Type             X           Y           Z
 ---------------------------------------------------------------------
      1         11           0        0.259402   -2.761588    0.226631
      2         11           0        2.998414   -1.021399   -0.270026
      3         11           0        0.134400    0.472168    1.982935
      4         11           0       -2.456535    2.454241   -0.077389
      5         11           0       -0.445154   -0.069289   -1.604073
      6         11           0       -2.733095   -1.534919   -0.031944
      7         11           0        2.242569    2.460786   -0.226134
 ---------------------------------------------------------------------

 SCF Done:  E(UB3LYP) =  -1136.13195679     A.U. after   21 cycles

 The electronic state is 2-A.
 Alpha  occ. eigenvalues --  -38.44386 -38.44359 -38.44198 -38.43979 -38.43383
 Alpha  occ. eigenvalues --  -38.43311 -38.43034  -2.20146  -2.20134  -2.20053
 Alpha  occ. eigenvalues --   -2.19804  -2.19254  -2.19245  -2.18938  -1.13825
 Alpha  occ. eigenvalues --   -1.13809  -1.13798  -1.13793  -1.13790  -1.13779
 Alpha  occ. eigenvalues --   -1.13763  -1.13711  -1.13675  -1.13481  -1.13469
 Alpha  occ. eigenvalues --   -1.13440  -1.12960  -1.12916  -1.12890  -1.12875
 Alpha  occ. eigenvalues --   -1.12870  -1.12863  -1.12612  -1.12593  -1.12582
 Alpha  occ. eigenvalues --   -0.18282  -0.13005  -0.12340  -0.10335
 Alpha virt. eigenvalues --   -0.06227  -0.05456  -0.04605  -0.03095  -0.02862
 Alpha virt. eigenvalues --   -0.02261  -0.01680  -0.01521  -0.00763  -0.00380
 Alpha virt. eigenvalues --   -0.00007   0.00330   0.00696   0.00797   0.00854

  Beta  occ. eigenvalues --  -38.44386 -38.44356 -38.44193 -38.43972 -38.43291
  Beta  occ. eigenvalues --  -38.43254 -38.43025  -2.20149  -2.20131  -2.20047
  Beta  occ. eigenvalues --   -2.19794  -2.19150  -2.19076  -2.18925  -1.13814
  Beta  occ. eigenvalues --   -1.13800  -1.13795  -1.13793  -1.13789  -1.13777
  Beta  occ. eigenvalues --   -1.13756  -1.13688  -1.13674  -1.13476  -1.13443
  Beta  occ. eigenvalues --   -1.13437  -1.12883  -1.12820  -1.12801  -1.12798
  Beta  occ. eigenvalues --   -1.12749  -1.12743  -1.12604  -1.12587  -1.12542
  Beta  occ. eigenvalues --   -0.17574  -0.12782  -0.12137
  Beta virt. eigenvalues --   -0.06482  -0.06248  -0.05326  -0.04585  -0.02358
  Beta virt. eigenvalues --   -0.02114  -0.01614  -0.01487  -0.01211  -0.00804
  Beta virt. eigenvalues --   -0.00409   0.00144   0.00369   0.00707   0.00864

 Mulliken charges and spin densities:
               1          2
     1  Na   0.159409   0.101329
     2  Na   0.052598   0.045125
     3  Na  -0.413102   0.674729
     4  Na  -0.023796  -0.157316
     5  Na  -0.195290   0.429206
     6  Na   0.382016   0.002411
     7  Na   0.038166  -0.095485
 Sum of Mulliken charges =  -0.00000   1.00000

 Dipole moment (field-independent basis, Debye):
    X=             -0.2037    Y=              0.4973    Z=              0.0144  Tot=              0.5376
 Quadrupole moment (field-independent basis, Debye-Ang):
   XX=            -55.3558   YY=            -60.5390   ZZ=            -76.5324
   XY=              0.1357   XZ=             -1.3063   YZ=             -1.1570

 Normal termination of Gaussian 16 at Thu Dec  7 19:34:30 2023.
