 Gaussian 16, Revision B.01,
 Gaussian 16:  ES64L-G16RevB.01 20-Dec-2017

 -------------------------
 #P B3LYP/6-311+g(d) force
 -------------------------

 -----
 DPGEN
 -----
 Symbolic Z-matrix:
 Charge =  0 Multiplicity = 2

                         Standard orientation:
 ---------------------------------------------------------------------
 Center     Atomic      Atomic             Coordinates (Angstroms)
 Number     Number       Type             X           Y           Z
 ---------------------------------------------------------------------
      1         11           0        0.807080    2.285447   -0.294723
      2         11           0        4.407172    0.736752   -0.799839
      3         11           0       -3.178128    1.920025    0.113799
      4         11           0        2.492744   -1.209406    0.803462
      5         11           0       -0.818067   -0.539626    2.228182
      6         11           0       -0.148463   -2.282269   -0.984627
      7         11           0       -3.562337   -0.910922   -1.066254
 ---------------------------------------------------------------------

 SCF Done:  E(UB3LYP) =  -1136.11717384     A.U. after   23 cycles

 The electronic state is 2-A.
 Alpha  occ. eigenvalues --  -38.45030 -38.44738 -38.44315 -38.44197 -38.43908
 Alpha  occ. eigenvalues --  -38.43883 -38.43753  -2.20756  -2.20546  -2.20153
 Alpha  occ. eigenvalues --   -2.20008  -2.19774  -2.19691  -2.19555  -1.14464
 Alpha  occ. eigenvalues --   -1.14439  -1.14355  -1.14215  -1.14188  -1.14155
 Alpha  occ. eigenvalues --   -1.13835  -1.13806  -1.13772  -1.13709  -1.13656
 Alpha  occ. eigenvalues --   -1.13621  -1.13469  -1.13447  -1.13389  -1.13366
 Alpha  occ. eigenvalues --   -1.13352  -1.13326  -1.13239  -1.13205  -1.13190
 Alpha  occ. eigenvalues --   -0.17237  -0.14081  -0.11515  -0.11050
 Alpha virt. eigenvalues --   -0.06981  -0.05647  -0.04588  -0.03327  -0.02915
 Alpha virt. eigenvalues --   -0.02518  -0.02290  -0.01668  -0.00947  -0.00552
 Alpha virt. eigenvalues --   -0.00092   0.00115   0.00314   0.00366   0.00644

  Beta  occ. eigenvalues --  -38.45027 -38.44663 -38.44253 -38.44156 -38.43900
  Beta  occ. eigenvalues --  -38.43880 -38.43747  -2.20750  -2.20410  -2.20037
  Beta  occ. eigenvalues --   -2.19932  -2.19764  -2.19689  -2.19544  -1.14462
  Beta  occ. eigenvalues --   -1.14429  -1.14348  -1.14114  -1.14098  -1.14058
  Beta  occ. eigenvalues --   -1.13761  -1.13726  -1.13693  -1.13657  -1.13604
  Beta  occ. eigenvalues --   -1.13574  -1.13466  -1.13429  -1.13362  -1.13356
  Beta  occ. eigenvalues --   -1.13355  -1.13307  -1.13234  -1.13199  -1.13171
  Beta  occ. eigenvalues --   -0.16638  -0.13555  -0.11342
  Beta virt. eigenvalues --   -0.07585  -0.06611  -0.05440  -0.03993  -0.03208
  Beta virt. eigenvalues --   -0.02569  -0.02198  -0.01717  -0.01474  -0.00519
  Beta virt. eigenvalues --   -0.00443  -0.00062   0.00194   0.00421   0.00514

 Mulliken charges and spin densities:
               1          2
     1  Na  -0.215457  -0.063830
     2  Na   0.567557   0.208805
     3  Na  -0.133715   0.022800
     4  Na  -0.342826   0.143904
     5  Na   0.040019   0.420381
     6  Na  -0.091280   0.044010
     7  Na   0.175703   0.223929
 Sum of Mulliken charges =  -0.00000   1.00000

 Dipole moment (field-independent basis, Debye):
    X=              0.1502    Y=             -0.0099    Z=              0.2843  Tot=              0.3217
 Quadrupole moment (field-independent basis, Debye-Ang):
   XX=            -60.4760   YY=            -73.7503   ZZ=            -66.7880
   XY=             -0.7315   XZ=             -2.5081   YZ=             -0.4763

 Normal termination of Gaussian 16 at Sun Dec  3 11:41:03 2023.
