 Gaussian 16, Revision B.01,
 Gaussian 16:  ES64L-G16RevB.01 20-Dec-2017

 -------------------------
 #P B3LYP/6-311+g(d) force
 -------------------------

 -----
 DPGEN
 -----
 Symbolic Z-matrix:
 Charge =  0 Multiplicity = 2

                         Standard orientation:
 ---------------------------------------------------------------------
 Center     Atomic      Atomic             Coordinates (Angstroms)
 Number     Number       Type             X           Y           Z
 ---------------------------------------------------------------------
      1         11           0       -0.610686    1.086252   -0.180745
      2         11           0        1.126158    3.976569    0.145686
      3         11           0        2.782878    0.859939   -0.157924
      4         11           0        4.608169   -2.358135   -0.077763
      5         11           0        0.964324   -1.939482   -0.052115
      6         11           0       -2.845023   -1.026108    0.791985
      7         11           0       -6.025820   -0.599035   -0.469124
 ---------------------------------------------------------------------

 SCF Done:  E(UB3LYP) =  -1136.12582175     A.U. after   20 cycles

 The electronic state is 2-A.
 Alpha  occ. eigenvalues --  -38.44583 -38.44297 -38.44222 -38.44206 -38.43676
 Alpha  occ. eigenvalues --  -38.43638 -38.43433  -2.20378  -2.20077  -2.20069
 Alpha  occ. eigenvalues --   -2.20062  -2.19590  -2.19449  -2.19254  -1.14014
 Alpha  occ. eigenvalues --   -1.14013  -1.13989  -1.13838  -1.13771  -1.13761
 Alpha  occ. eigenvalues --   -1.13752  -1.13741  -1.13741  -1.13697  -1.13637
 Alpha  occ. eigenvalues --   -1.13609  -1.13295  -1.13274  -1.13217  -1.13111
 Alpha  occ. eigenvalues --   -1.13108  -1.13064  -1.12950  -1.12927  -1.12886
 Alpha  occ. eigenvalues --   -0.17102  -0.13736  -0.12580  -0.11158
 Alpha virt. eigenvalues --   -0.06064  -0.05016  -0.04770  -0.03913  -0.02599
 Alpha virt. eigenvalues --   -0.02306  -0.01836  -0.01572  -0.01471  -0.00813
 Alpha virt. eigenvalues --   -0.00394   0.00032   0.00137   0.00400   0.00683

  Beta  occ. eigenvalues --  -38.44476 -38.44268 -38.44198 -38.44190 -38.43654
  Beta  occ. eigenvalues --  -38.43623 -38.43438  -2.20177  -2.20049  -2.20024
  Beta  occ. eigenvalues --   -2.20014  -2.19555  -2.19420  -2.19271  -1.13876
  Beta  occ. eigenvalues --   -1.13875  -1.13858  -1.13815  -1.13761  -1.13730
  Beta  occ. eigenvalues --   -1.13721  -1.13705  -1.13702  -1.13663  -1.13605
  Beta  occ. eigenvalues --   -1.13567  -1.13277  -1.13247  -1.13179  -1.13088
  Beta  occ. eigenvalues --   -1.13087  -1.13045  -1.12967  -1.12946  -1.12837
  Beta  occ. eigenvalues --   -0.16586  -0.13012  -0.12271
  Beta virt. eigenvalues --   -0.07724  -0.05709  -0.04706  -0.04508  -0.03672
  Beta virt. eigenvalues --   -0.02293  -0.02119  -0.01523  -0.01214  -0.01186
  Beta virt. eigenvalues --   -0.00490  -0.00116   0.00182   0.00292   0.00495

 Mulliken charges and spin densities:
               1          2
     1  Na  -1.401859  -0.135275
     2  Na   0.949766   0.131097
     3  Na  -0.380757   0.257795
     4  Na   1.288702   0.097321
     5  Na  -0.735447   0.113410
     6  Na  -0.027312   0.022880
     7  Na   0.306907   0.512772
 Sum of Mulliken charges =  -0.00000   1.00000

 Dipole moment (field-independent basis, Debye):
    X=              0.9648    Y=             -0.0466    Z=             -0.0667  Tot=              0.9682
 Quadrupole moment (field-independent basis, Debye-Ang):
   XX=            -59.8477   YY=            -61.3514   ZZ=            -71.9794
   XY=             -4.5228   XZ=              2.0173   YZ=              0.1032

 Normal termination of Gaussian 16 at Tue Nov 28 21:18:30 2023.
