 Gaussian 16, Revision B.01,
 Gaussian 16:  ES64L-G16RevB.01 20-Dec-2017

 -------------------------
 #P B3LYP/6-311+g(d) force
 -------------------------

 -----
 DPGEN
 -----
 Symbolic Z-matrix:
 Charge =  0 Multiplicity = 2

                         Standard orientation:
 ---------------------------------------------------------------------
 Center     Atomic      Atomic             Coordinates (Angstroms)
 Number     Number       Type             X           Y           Z
 ---------------------------------------------------------------------
      1         11           0       -1.654995    2.220522    0.861628
      2         11           0       -0.051606   -0.141076   -1.542105
      3         11           0       -3.850938   -0.490512   -1.310401
      4         11           0       -1.829329   -1.217382    1.374287
      5         11           0        2.772764   -1.933761   -0.360165
      6         11           0        1.516969   -0.047617    2.032909
      7         11           0        3.097134    1.609826   -1.056154
 ---------------------------------------------------------------------

 SCF Done:  E(UB3LYP) =  -1136.12064063     A.U. after   26 cycles

 The electronic state is 2-A.
 Alpha  occ. eigenvalues --  -38.44718 -38.44657 -38.44629 -38.44081 -38.43948
 Alpha  occ. eigenvalues --  -38.43871 -38.42771  -2.20555  -2.20462  -2.20429
 Alpha  occ. eigenvalues --   -2.19913  -2.19803  -2.19662  -2.18616  -1.14228
 Alpha  occ. eigenvalues --   -1.14216  -1.14166  -1.14135  -1.14099  -1.14089
 Alpha  occ. eigenvalues --   -1.14083  -1.14071  -1.14042  -1.13642  -1.13607
 Alpha  occ. eigenvalues --   -1.13514  -1.13493  -1.13468  -1.13421  -1.13333
 Alpha  occ. eigenvalues --   -1.13320  -1.13284  -1.12309  -1.12287  -1.12246
 Alpha  occ. eigenvalues --   -0.17904  -0.14094  -0.11092  -0.10589
 Alpha virt. eigenvalues --   -0.06524  -0.06002  -0.04954  -0.03053  -0.02617
 Alpha virt. eigenvalues --   -0.02396  -0.02170  -0.01313  -0.01110  -0.00383
 Alpha virt. eigenvalues --    0.00026   0.00177   0.00267   0.00353   0.00496

  Beta  occ. eigenvalues --  -38.44680 -38.44595 -38.44583 -38.44072 -38.43939
  Beta  occ. eigenvalues --  -38.43864 -38.42767  -2.20485  -2.20346  -2.20342
  Beta  occ. eigenvalues --   -2.19902  -2.19787  -2.19649  -2.18613  -1.14180
  Beta  occ. eigenvalues --   -1.14169  -1.14111  -1.14050  -1.14027  -1.14021
  Beta  occ. eigenvalues --   -1.14019  -1.13994  -1.13985  -1.13608  -1.13592
  Beta  occ. eigenvalues --   -1.13509  -1.13482  -1.13450  -1.13406  -1.13319
  Beta  occ. eigenvalues --   -1.13311  -1.13278  -1.12302  -1.12267  -1.12243
  Beta  occ. eigenvalues --   -0.17285  -0.13819  -0.10429
  Beta virt. eigenvalues --   -0.07513  -0.06256  -0.05180  -0.04893  -0.02760
  Beta virt. eigenvalues --   -0.02422  -0.01912  -0.01735  -0.01001  -0.00693
  Beta virt. eigenvalues --   -0.00235   0.00181   0.00263   0.00354   0.00411

 Mulliken charges and spin densities:
               1          2
     1  Na  -0.274849   0.241728
     2  Na  -0.318421   0.244893
     3  Na   0.158929  -0.067545
     4  Na   0.077950   0.029154
     5  Na   0.261853  -0.058998
     6  Na   0.153258   0.334472
     7  Na  -0.058720   0.276296
 Sum of Mulliken charges =  -0.00000   1.00000

 Dipole moment (field-independent basis, Debye):
    X=              0.2436    Y=              0.1953    Z=              0.1072  Tot=              0.3301
 Quadrupole moment (field-independent basis, Debye-Ang):
   XX=            -52.4336   YY=            -63.3207   ZZ=            -79.8450
   XY=             -1.4641   XZ=             -0.7004   YZ=             -0.5116

 Normal termination of Gaussian 16 at Fri Dec  8 04:46:26 2023.
