 Gaussian 16, Revision B.01,
 Gaussian 16:  ES64L-G16RevB.01 20-Dec-2017

 -------------------------
 #P B3LYP/6-311+g(d) force
 -------------------------

 -----
 DPGEN
 -----
 Symbolic Z-matrix:
 Charge =  0 Multiplicity = 2

                         Standard orientation:
 ---------------------------------------------------------------------
 Center     Atomic      Atomic             Coordinates (Angstroms)
 Number     Number       Type             X           Y           Z
 ---------------------------------------------------------------------
      1         11           0       -2.678880   -0.341775   -0.196084
      2         11           0       -2.764557    3.475263    0.422439
      3         11           0        2.450057   -0.039675   -1.071255
      4         11           0       -2.248022   -3.292052    1.022706
      5         11           0        4.848263    0.570091    1.226358
      6         11           0       -0.088440    2.098679   -0.520653
      7         11           0        0.481579   -2.470530   -0.883512
 ---------------------------------------------------------------------

 SCF Done:  E(UB3LYP) =  -1136.12202486     A.U. after   19 cycles

 The electronic state is 2-A.
 Alpha  occ. eigenvalues --  -38.44621 -38.44562 -38.44384 -38.44310 -38.44010
 Alpha  occ. eigenvalues --  -38.43815 -38.42791  -2.20443  -2.20365  -2.20229
 Alpha  occ. eigenvalues --   -2.20160  -2.19822  -2.19649  -2.18677  -1.14151
 Alpha  occ. eigenvalues --   -1.14142  -1.14062  -1.14042  -1.14023  -1.13995
 Alpha  occ. eigenvalues --   -1.13905  -1.13899  -1.13856  -1.13839  -1.13836
 Alpha  occ. eigenvalues --   -1.13759  -1.13452  -1.13450  -1.13437  -1.13313
 Alpha  occ. eigenvalues --   -1.13300  -1.13277  -1.12368  -1.12348  -1.12323
 Alpha  occ. eigenvalues --   -0.16949  -0.13606  -0.13250  -0.10582
 Alpha virt. eigenvalues --   -0.06365  -0.05668  -0.04353  -0.04025  -0.02581
 Alpha virt. eigenvalues --   -0.01975  -0.01798  -0.01623  -0.01546  -0.00913
 Alpha virt. eigenvalues --   -0.00159   0.00053   0.00240   0.00461   0.00602

  Beta  occ. eigenvalues --  -38.44610 -38.44562 -38.44351 -38.44302 -38.43887
  Beta  occ. eigenvalues --  -38.43794 -38.42779  -2.20426  -2.20364  -2.20171
  Beta  occ. eigenvalues --   -2.20145  -2.19610  -2.19592  -2.18665  -1.14136
  Beta  occ. eigenvalues --   -1.14120  -1.14060  -1.14031  -1.14023  -1.13993
  Beta  occ. eigenvalues --   -1.13869  -1.13847  -1.13829  -1.13821  -1.13813
  Beta  occ. eigenvalues --   -1.13752  -1.13296  -1.13294  -1.13286  -1.13281
  Beta  occ. eigenvalues --   -1.13273  -1.13256  -1.12365  -1.12341  -1.12257
  Beta  occ. eigenvalues --   -0.16548  -0.13210  -0.12751
  Beta virt. eigenvalues --   -0.06905  -0.06206  -0.05484  -0.03990  -0.03709
  Beta virt. eigenvalues --   -0.02498  -0.01872  -0.01458  -0.01261  -0.01050
  Beta virt. eigenvalues --   -0.00645   0.00134   0.00302   0.00398   0.00625

 Mulliken charges and spin densities:
               1          2
     1  Na  -0.557396   0.100709
     2  Na   0.838326   0.020093
     3  Na   0.218810  -0.439847
     4  Na   0.639785   0.160820
     5  Na   0.174661   0.681504
     6  Na  -0.797027   0.148069
     7  Na  -0.517157   0.328652
 Sum of Mulliken charges =  -0.00000   1.00000

 Dipole moment (field-independent basis, Debye):
    X=             -1.9312    Y=              0.1682    Z=              0.3592  Tot=              1.9715
 Quadrupole moment (field-independent basis, Debye-Ang):
   XX=            -71.2336   YY=            -57.0702   ZZ=            -70.3578
   XY=             -5.9045   XZ=             -1.7271   YZ=              0.0809

 Normal termination of Gaussian 16 at Tue Nov 28 20:22:31 2023.
