 Gaussian 16, Revision B.01,
 Gaussian 16:  ES64L-G16RevB.01 20-Dec-2017

 -------------------------
 #P B3LYP/6-311+g(d) force
 -------------------------

 -----
 DPGEN
 -----
 Symbolic Z-matrix:
 Charge =  0 Multiplicity = 2

                         Standard orientation:
 ---------------------------------------------------------------------
 Center     Atomic      Atomic             Coordinates (Angstroms)
 Number     Number       Type             X           Y           Z
 ---------------------------------------------------------------------
      1         11           0       -0.002188    0.130738   -1.919382
      2         11           0       -2.710017    1.028201    0.261424
      3         11           0        0.397108    2.752314   -0.236207
      4         11           0        2.640986    0.562318    0.303622
      5         11           0       -0.032247   -0.183375    1.974612
      6         11           0        1.589353   -2.268104   -0.191030
      7         11           0       -1.882996   -2.022092   -0.193039
 ---------------------------------------------------------------------

 SCF Done:  E(UB3LYP) =  -1136.13719091     A.U. after   17 cycles

 The electronic state is 2-A.
 Alpha  occ. eigenvalues --  -38.43747 -38.43619 -38.43576 -38.43395 -38.43311
 Alpha  occ. eigenvalues --  -38.43167 -38.43083  -2.19714  -2.19609  -2.19457
 Alpha  occ. eigenvalues --   -2.19352  -2.19221  -2.19091  -2.18988  -1.13396
 Alpha  occ. eigenvalues --   -1.13365  -1.13337  -1.13289  -1.13266  -1.13237
 Alpha  occ. eigenvalues --   -1.13142  -1.13123  -1.13092  -1.13061  -1.13025
 Alpha  occ. eigenvalues --   -1.12995  -1.12894  -1.12883  -1.12847  -1.12753
 Alpha  occ. eigenvalues --   -1.12739  -1.12713  -1.12672  -1.12635  -1.12610
 Alpha  occ. eigenvalues --   -0.19493  -0.13168  -0.12607  -0.11494
 Alpha virt. eigenvalues --   -0.05076  -0.04821  -0.04483  -0.03474  -0.03158
 Alpha virt. eigenvalues --   -0.02999  -0.01101  -0.00891  -0.00097   0.00149
 Alpha virt. eigenvalues --    0.00215   0.00390   0.00921   0.00982   0.01004

  Beta  occ. eigenvalues --  -38.43660 -38.43571 -38.43533 -38.43385 -38.43304
  Beta  occ. eigenvalues --  -38.43160 -38.43077  -2.19555  -2.19454  -2.19449
  Beta  occ. eigenvalues --   -2.19338  -2.19213  -2.19083  -2.18980  -1.13297
  Beta  occ. eigenvalues --   -1.13253  -1.13227  -1.13191  -1.13155  -1.13146
  Beta  occ. eigenvalues --   -1.13119  -1.13100  -1.13076  -1.13054  -1.13014
  Beta  occ. eigenvalues --   -1.12950  -1.12887  -1.12855  -1.12837  -1.12748
  Beta  occ. eigenvalues --   -1.12715  -1.12698  -1.12659  -1.12616  -1.12603
  Beta  occ. eigenvalues --   -0.18704  -0.12892  -0.12332
  Beta virt. eigenvalues --   -0.07500  -0.05055  -0.04817  -0.04467  -0.02604
  Beta virt. eigenvalues --   -0.02328  -0.01914  -0.01023  -0.00826   0.00025
  Beta virt. eigenvalues --    0.00109   0.00170   0.00398   0.00961   0.00985

 Mulliken charges and spin densities:
               1          2
     1  Na  -0.578104   0.589577
     2  Na   0.141362  -0.047897
     3  Na   0.233049  -0.045511
     4  Na   0.331163   0.044464
     5  Na  -0.586666   0.566730
     6  Na   0.237203  -0.047089
     7  Na   0.221994  -0.060273
 Sum of Mulliken charges =  -0.00000   1.00000

 Dipole moment (field-independent basis, Debye):
    X=             -0.2163    Y=             -0.0083    Z=              0.0731  Tot=              0.2285
 Quadrupole moment (field-independent basis, Debye-Ang):
   XX=            -61.2839   YY=            -64.1699   ZZ=            -70.2957
   XY=             -0.4270   XZ=              0.0270   YZ=              0.8659

 Normal termination of Gaussian 16 at Wed Dec  6 00:45:49 2023.
