 Gaussian 16, Revision B.01,
 Gaussian 16:  ES64L-G16RevB.01 20-Dec-2017

 -------------------------
 #P B3LYP/6-311+g(d) force
 -------------------------

 -----
 DPGEN
 -----
 Symbolic Z-matrix:
 Charge =  0 Multiplicity = 2

                         Standard orientation:
 ---------------------------------------------------------------------
 Center     Atomic      Atomic             Coordinates (Angstroms)
 Number     Number       Type             X           Y           Z
 ---------------------------------------------------------------------
      1         11           0       -1.615863    1.769113    0.817568
      2         11           0        1.526856    0.595808    1.798444
      3         11           0        0.360760   -1.127814   -0.616719
      4         11           0        4.232333   -1.251699   -0.493146
      5         11           0        1.622584    1.892884   -1.156449
      6         11           0       -2.354404   -1.765599    1.017056
      7         11           0       -3.772265   -0.112693   -1.366753
 ---------------------------------------------------------------------

 SCF Done:  E(UB3LYP) =  -1136.11802049     A.U. after   26 cycles

 The electronic state is 2-A.
 Alpha  occ. eigenvalues --  -38.44353 -38.44311 -38.44269 -38.44204 -38.43995
 Alpha  occ. eigenvalues --  -38.43860 -38.43230  -2.20264  -2.20142  -2.20127
 Alpha  occ. eigenvalues --   -2.20108  -2.19742  -2.19736  -2.19088  -1.14007
 Alpha  occ. eigenvalues --   -1.13987  -1.13864  -1.13840  -1.13818  -1.13801
 Alpha  occ. eigenvalues --   -1.13787  -1.13782  -1.13777  -1.13720  -1.13706
 Alpha  occ. eigenvalues --   -1.13684  -1.13427  -1.13419  -1.13415  -1.13380
 Alpha  occ. eigenvalues --   -1.13367  -1.13357  -1.12777  -1.12767  -1.12699
 Alpha  occ. eigenvalues --   -0.18290  -0.14161  -0.10940  -0.10658
 Alpha virt. eigenvalues --   -0.06935  -0.05252  -0.05134  -0.03045  -0.02717
 Alpha virt. eigenvalues --   -0.02239  -0.02082  -0.01358  -0.00983  -0.00412
 Alpha virt. eigenvalues --   -0.00002   0.00107   0.00331   0.00449   0.00677

  Beta  occ. eigenvalues --  -38.44323 -38.44260 -38.44239 -38.44171 -38.44005
  Beta  occ. eigenvalues --  -38.43833 -38.43213  -2.20217  -2.20070  -2.20049
  Beta  occ. eigenvalues --   -2.20046  -2.19762  -2.19690  -2.19061  -1.13965
  Beta  occ. eigenvalues --   -1.13916  -1.13841  -1.13799  -1.13779  -1.13739
  Beta  occ. eigenvalues --   -1.13732  -1.13717  -1.13715  -1.13672  -1.13664
  Beta  occ. eigenvalues --   -1.13646  -1.13441  -1.13425  -1.13384  -1.13380
  Beta  occ. eigenvalues --   -1.13351  -1.13302  -1.12755  -1.12726  -1.12682
  Beta  occ. eigenvalues --   -0.17589  -0.13879  -0.10767
  Beta virt. eigenvalues --   -0.07079  -0.06629  -0.05123  -0.04490  -0.02882
  Beta virt. eigenvalues --   -0.02532  -0.01786  -0.01519  -0.01201  -0.00517
  Beta virt. eigenvalues --   -0.00297   0.00074   0.00230   0.00406   0.00552

 Mulliken charges and spin densities:
               1          2
     1  Na   0.097430   0.355393
     2  Na   0.160609   0.134043
     3  Na  -0.577338   0.161020
     4  Na   0.121405  -0.039646
     5  Na  -0.243737   0.096601
     6  Na   0.393911   0.068560
     7  Na   0.047721   0.224029
 Sum of Mulliken charges =  -0.00000   1.00000

 Dipole moment (field-independent basis, Debye):
    X=              0.0026    Y=              0.5139    Z=              0.3323  Tot=              0.6120
 Quadrupole moment (field-independent basis, Debye-Ang):
   XX=            -57.3121   YY=            -75.0175   ZZ=            -65.2536
   XY=              1.7595   XZ=              1.4923   YZ=             -2.3652

 Normal termination of Gaussian 16 at Tue Dec  5 14:10:25 2023.
