 Gaussian 16, Revision B.01,
 Gaussian 16:  ES64L-G16RevB.01 20-Dec-2017

 -------------------------
 #P B3LYP/6-311+g(d) force
 -------------------------

 -----
 DPGEN
 -----
 Symbolic Z-matrix:
 Charge =  0 Multiplicity = 2

                         Standard orientation:
 ---------------------------------------------------------------------
 Center     Atomic      Atomic             Coordinates (Angstroms)
 Number     Number       Type             X           Y           Z
 ---------------------------------------------------------------------
      1         11           0       -0.365386   -0.003395   -1.481500
      2         11           0       -0.781506   -1.522489    0.866600
      3         11           0       -3.085788   -0.148358   -0.353900
      4         11           0       -0.997964    1.599813    0.780100
      5         11           0        1.785336    1.636976   -0.656100
      6         11           0        1.529314   -0.049021    1.616000
      7         11           0        1.915994   -1.513526   -0.771200
 ---------------------------------------------------------------------

 SCF Done:  E(UB3LYP) =  -1136.08517550     A.U. after   22 cycles

 The electronic state is 2-A.
 Alpha  occ. eigenvalues --  -38.44507 -38.44290 -38.44099 -38.43550 -38.43283
 Alpha  occ. eigenvalues --  -38.43089 -38.42986  -2.20508  -2.20472  -2.20434
 Alpha  occ. eigenvalues --   -2.19641  -2.19375  -2.19274  -2.19130  -1.14378
 Alpha  occ. eigenvalues --   -1.14287  -1.14207  -1.14190  -1.14150  -1.14142
 Alpha  occ. eigenvalues --   -1.14093  -1.14079  -1.14034  -1.13318  -1.13276
 Alpha  occ. eigenvalues --   -1.13225  -1.13065  -1.13027  -1.13001  -1.12953
 Alpha  occ. eigenvalues --   -1.12918  -1.12865  -1.12802  -1.12759  -1.12685
 Alpha  occ. eigenvalues --   -0.21397  -0.14411  -0.12460  -0.11909
 Alpha virt. eigenvalues --   -0.05841  -0.04145  -0.04059  -0.03488  -0.02747
 Alpha virt. eigenvalues --   -0.02661  -0.01503  -0.00405  -0.00308   0.00297
 Alpha virt. eigenvalues --    0.00641   0.00871   0.00940   0.01039   0.01066

  Beta  occ. eigenvalues --  -38.44503 -38.44220 -38.44024 -38.43524 -38.43263
  Beta  occ. eigenvalues --  -38.43055 -38.42958  -2.20500  -2.20348  -2.20303
  Beta  occ. eigenvalues --   -2.19598  -2.19344  -2.19218  -2.19085  -1.14334
  Beta  occ. eigenvalues --   -1.14217  -1.14156  -1.14138  -1.14092  -1.14079
  Beta  occ. eigenvalues --   -1.14006  -1.13991  -1.13958  -1.13286  -1.13228
  Beta  occ. eigenvalues --   -1.13180  -1.13045  -1.12979  -1.12965  -1.12920
  Beta  occ. eigenvalues --   -1.12840  -1.12831  -1.12764  -1.12692  -1.12650
  Beta  occ. eigenvalues --   -0.20550  -0.14161  -0.11651
  Beta virt. eigenvalues --   -0.08042  -0.05751  -0.04093  -0.03397  -0.03175
  Beta virt. eigenvalues --   -0.01985  -0.01675  -0.01418  -0.00368  -0.00054
  Beta virt. eigenvalues --    0.00335   0.00695   0.00860   0.01038   0.01070

 Mulliken charges and spin densities:
               1          2
     1  Na  -0.103500   0.364416
     2  Na  -0.639426   0.236973
     3  Na   0.978237  -0.007078
     4  Na  -0.682643   0.172829
     5  Na  -0.065623  -0.033440
     6  Na   0.716802   0.321157
     7  Na  -0.203846  -0.054857
 Sum of Mulliken charges =  -0.00000   1.00000

 Dipole moment (field-independent basis, Debye):
    X=             -0.3583    Y=              0.0257    Z=              0.0407  Tot=              0.3615
 Quadrupole moment (field-independent basis, Debye-Ang):
   XX=            -54.0460   YY=            -74.8277   ZZ=            -66.5575
   XY=              0.0688   XZ=             -0.1098   YZ=              0.7091

 Normal termination of Gaussian 16 at Fri Dec  8 17:25:36 2023.
