 Gaussian 16, Revision B.01,
 Gaussian 16:  ES64L-G16RevB.01 20-Dec-2017

 -------------------------
 #P B3LYP/6-311+g(d) force
 -------------------------

 -----
 DPGEN
 -----
 Symbolic Z-matrix:
 Charge =  0 Multiplicity = 2

                         Standard orientation:
 ---------------------------------------------------------------------
 Center     Atomic      Atomic             Coordinates (Angstroms)
 Number     Number       Type             X           Y           Z
 ---------------------------------------------------------------------
      1         11           0        2.989630   -1.369385   -0.653072
      2         11           0        6.108648   -0.452332   -0.353995
      3         11           0        3.002893    1.762934   -0.493537
      4         11           0       -0.421952    1.555873    0.623506
      5         11           0       -0.331205   -1.372569    1.631618
      6         11           0       -4.634518    0.446912    0.642117
      7         11           0       -6.713495   -0.571433   -1.396636
 ---------------------------------------------------------------------

 SCF Done:  E(UB3LYP) =  -1136.11187374     A.U. after   20 cycles

 The electronic state is 2-A.
 Alpha  occ. eigenvalues --  -38.45053 -38.45040 -38.44339 -38.44085 -38.44030
 Alpha  occ. eigenvalues --  -38.43753 -38.43694  -2.20885  -2.20843  -2.20202
 Alpha  occ. eigenvalues --   -2.19911  -2.19852  -2.19539  -2.19483  -1.14603
 Alpha  occ. eigenvalues --   -1.14571  -1.14535  -1.14506  -1.14490  -1.14421
 Alpha  occ. eigenvalues --   -1.13893  -1.13858  -1.13775  -1.13657  -1.13584
 Alpha  occ. eigenvalues --   -1.13550  -1.13500  -1.13478  -1.13447  -1.13276
 Alpha  occ. eigenvalues --   -1.13197  -1.13196  -1.13150  -1.13137  -1.13059
 Alpha  occ. eigenvalues --   -0.16751  -0.13812  -0.12139  -0.10773
 Alpha virt. eigenvalues --   -0.07077  -0.05284  -0.04661  -0.03700  -0.02798
 Alpha virt. eigenvalues --   -0.02649  -0.02058  -0.01980  -0.01050  -0.00864
 Alpha virt. eigenvalues --   -0.00286  -0.00156   0.00069   0.00302   0.00381

  Beta  occ. eigenvalues --  -38.45041 -38.45016 -38.44258 -38.44070 -38.43979
  Beta  occ. eigenvalues --  -38.43759 -38.43692  -2.20843  -2.20822  -2.20053
  Beta  occ. eigenvalues --   -2.19889  -2.19756  -2.19549  -2.19479  -1.14560
  Beta  occ. eigenvalues --   -1.14543  -1.14507  -1.14491  -1.14469  -1.14398
  Beta  occ. eigenvalues --   -1.13796  -1.13760  -1.13655  -1.13624  -1.13572
  Beta  occ. eigenvalues --   -1.13512  -1.13433  -1.13410  -1.13393  -1.13281
  Beta  occ. eigenvalues --   -1.13204  -1.13203  -1.13147  -1.13134  -1.13062
  Beta  occ. eigenvalues --   -0.16065  -0.13742  -0.11976
  Beta virt. eigenvalues --   -0.07020  -0.06808  -0.05005  -0.04171  -0.03501
  Beta virt. eigenvalues --   -0.02580  -0.02070  -0.01904  -0.01802  -0.00871
  Beta virt. eigenvalues --   -0.00545  -0.00170   0.00059   0.00347   0.00435

 Mulliken charges and spin densities:
               1          2
     1  Na  -0.527705   0.266522
     2  Na   0.558648   0.009844
     3  Na   0.058905   0.230655
     4  Na  -0.135720   0.190589
     5  Na   0.089836   0.283178
     6  Na  -0.481267   0.034169
     7  Na   0.437302  -0.014957
 Sum of Mulliken charges =  -0.00000   1.00000

 Dipole moment (field-independent basis, Debye):
    X=              2.6401    Y=             -0.4135    Z=             -0.1901  Tot=              2.6791
 Quadrupole moment (field-independent basis, Debye-Ang):
   XX=            -53.7993   YY=            -71.1704   ZZ=            -68.8578
   XY=              1.9401   XZ=              2.9527   YZ=              2.6053

 Normal termination of Gaussian 16 at Wed Nov 29 04:12:36 2023.
