 Gaussian 16, Revision B.01,
 Gaussian 16:  ES64L-G16RevB.01 20-Dec-2017

 -------------------------
 #P B3LYP/6-311+g(d) force
 -------------------------

 -----
 DPGEN
 -----
 Symbolic Z-matrix:
 Charge =  0 Multiplicity = 2

                         Standard orientation:
 ---------------------------------------------------------------------
 Center     Atomic      Atomic             Coordinates (Angstroms)
 Number     Number       Type             X           Y           Z
 ---------------------------------------------------------------------
      1         11           0       -1.230768   -1.322896    2.141832
      2         11           0       -1.359380    2.198381    0.190317
      3         11           0        1.276263    1.609328    1.785430
      4         11           0       -0.236447   -1.888865   -0.973030
      5         11           0       -2.836145   -0.582019   -1.033291
      6         11           0        3.187519   -1.395117   -0.006634
      7         11           0        1.198958    1.381188   -2.104624
 ---------------------------------------------------------------------

 SCF Done:  E(UB3LYP) =  -1136.12590127     A.U. after   21 cycles

 The electronic state is 2-A.
 Alpha  occ. eigenvalues --  -38.45015 -38.44950 -38.43956 -38.43908 -38.43680
 Alpha  occ. eigenvalues --  -38.43000 -38.42760  -2.20840  -2.20747  -2.19799
 Alpha  occ. eigenvalues --   -2.19789  -2.19442  -2.18921  -2.18640  -1.14511
 Alpha  occ. eigenvalues --   -1.14473  -1.14455  -1.14423  -1.14381  -1.14363
 Alpha  occ. eigenvalues --   -1.13553  -1.13482  -1.13438  -1.13434  -1.13414
 Alpha  occ. eigenvalues --   -1.13410  -1.13114  -1.13105  -1.13087  -1.12608
 Alpha  occ. eigenvalues --   -1.12595  -1.12529  -1.12327  -1.12309  -1.12271
 Alpha  occ. eigenvalues --   -0.18216  -0.12654  -0.12093  -0.11729
 Alpha virt. eigenvalues --   -0.05750  -0.04948  -0.04450  -0.03553  -0.03426
 Alpha virt. eigenvalues --   -0.03238  -0.01278  -0.00894  -0.00598   0.00094
 Alpha virt. eigenvalues --    0.00262   0.00387   0.00446   0.00536   0.00831

  Beta  occ. eigenvalues --  -38.44946 -38.44893 -38.43920 -38.43891 -38.43686
  Beta  occ. eigenvalues --  -38.42986 -38.42755  -2.20713  -2.20642  -2.19771
  Beta  occ. eigenvalues --   -2.19725  -2.19455  -2.18898  -2.18634  -1.14426
  Beta  occ. eigenvalues --   -1.14383  -1.14362  -1.14346  -1.14311  -1.14288
  Beta  occ. eigenvalues --   -1.13531  -1.13440  -1.13421  -1.13382  -1.13378
  Beta  occ. eigenvalues --   -1.13365  -1.13117  -1.13113  -1.13096  -1.12587
  Beta  occ. eigenvalues --   -1.12560  -1.12515  -1.12321  -1.12288  -1.12264
  Beta  occ. eigenvalues --   -0.17393  -0.12511  -0.11583
  Beta virt. eigenvalues --   -0.08184  -0.05331  -0.04483  -0.04305  -0.03392
  Beta virt. eigenvalues --   -0.02609  -0.02540  -0.01218  -0.00625  -0.00371
  Beta virt. eigenvalues --    0.00179   0.00335   0.00455   0.00498   0.00726

 Mulliken charges and spin densities:
               1          2
     1  Na  -0.613261   0.397483
     2  Na   0.242875  -0.040428
     3  Na   0.040021   0.231157
     4  Na   0.314216  -0.039810
     5  Na   0.483060   0.147856
     6  Na   0.034540  -0.035403
     7  Na  -0.501452   0.339145
 Sum of Mulliken charges =  -0.00000   1.00000

 Dipole moment (field-independent basis, Debye):
    X=              0.0231    Y=              0.0654    Z=              0.1858  Tot=              0.1983
 Quadrupole moment (field-independent basis, Debye-Ang):
   XX=            -61.6247   YY=            -74.1947   ZZ=            -61.0068
   XY=              0.9492   XZ=              0.9949   YZ=             -4.1455

 Normal termination of Gaussian 16 at Mon Dec  4 02:44:23 2023.
