 Gaussian 16, Revision B.01,
 Gaussian 16:  ES64L-G16RevB.01 20-Dec-2017

 -------------------------
 #P B3LYP/6-311+g(d) force
 -------------------------

 -----
 DPGEN
 -----
 Symbolic Z-matrix:
 Charge =  0 Multiplicity = 2

                         Standard orientation:
 ---------------------------------------------------------------------
 Center     Atomic      Atomic             Coordinates (Angstroms)
 Number     Number       Type             X           Y           Z
 ---------------------------------------------------------------------
      1         11           0       -2.766477   -1.780737    0.322998
      2         11           0        0.185368    0.004209    2.040300
      3         11           0       -0.263594   -0.240515   -1.619393
      4         11           0        1.257626   -2.521596   -0.511899
      5         11           0        2.920567   -0.073351    0.219590
      6         11           0       -2.324247    1.862579   -0.162405
      7         11           0        0.990757    2.749411   -0.289191
 ---------------------------------------------------------------------

 SCF Done:  E(UB3LYP) =  -1136.13490074     A.U. after   19 cycles

 The electronic state is 2-A.
 Alpha  occ. eigenvalues --  -38.44005 -38.43819 -38.43772 -38.43655 -38.43535
 Alpha  occ. eigenvalues --  -38.43221 -38.43198  -2.19797  -2.19671  -2.19664
 Alpha  occ. eigenvalues --   -2.19568  -2.19452  -2.19228  -2.19054  -1.13470
 Alpha  occ. eigenvalues --   -1.13452  -1.13444  -1.13370  -1.13367  -1.13335
 Alpha  occ. eigenvalues --   -1.13311  -1.13303  -1.13286  -1.13283  -1.13235
 Alpha  occ. eigenvalues --   -1.13209  -1.13202  -1.13069  -1.13037  -1.12890
 Alpha  occ. eigenvalues --   -1.12849  -1.12830  -1.12724  -1.12711  -1.12694
 Alpha  occ. eigenvalues --   -0.18850  -0.13142  -0.12421  -0.10941
 Alpha virt. eigenvalues --   -0.05474  -0.05260  -0.04549  -0.03306  -0.02945
 Alpha virt. eigenvalues --   -0.02607  -0.01456  -0.01147  -0.00262  -0.00170
 Alpha virt. eigenvalues --    0.00012   0.00358   0.00806   0.00868   0.00918

  Beta  occ. eigenvalues --  -38.44001 -38.43814 -38.43680 -38.43647 -38.43518
  Beta  occ. eigenvalues --  -38.43193 -38.43157  -2.19790  -2.19660  -2.19559
  Beta  occ. eigenvalues --   -2.19500  -2.19426  -2.19112  -2.19047  -1.13453
  Beta  occ. eigenvalues --   -1.13446  -1.13441  -1.13355  -1.13326  -1.13318
  Beta  occ. eigenvalues --   -1.13279  -1.13255  -1.13210  -1.13203  -1.13181
  Beta  occ. eigenvalues --   -1.13169  -1.13137  -1.13034  -1.13025  -1.12814
  Beta  occ. eigenvalues --   -1.12771  -1.12752  -1.12709  -1.12703  -1.12677
  Beta  occ. eigenvalues --   -0.18119  -0.12891  -0.12164
  Beta virt. eigenvalues --   -0.07025  -0.05438  -0.05209  -0.04504  -0.02521
  Beta virt. eigenvalues --   -0.02194  -0.01568  -0.01342  -0.01071  -0.00281
  Beta virt. eigenvalues --   -0.00208   0.00131   0.00386   0.00861   0.00885

 Mulliken charges and spin densities:
               1          2
     1  Na  -0.054563  -0.013964
     2  Na  -0.500890   0.689704
     3  Na  -0.178306   0.321123
     4  Na   0.331086  -0.009283
     5  Na   0.321860   0.102057
     6  Na   0.053546  -0.062161
     7  Na   0.027267  -0.027477
 Sum of Mulliken charges =  -0.00000   1.00000

 Dipole moment (field-independent basis, Debye):
    X=             -0.3394    Y=             -0.0470    Z=              0.2593  Tot=              0.4296
 Quadrupole moment (field-independent basis, Debye-Ang):
   XX=            -57.5834   YY=            -62.8761   ZZ=            -73.5447
   XY=              0.6010   XZ=             -0.9264   YZ=             -0.6613

 Normal termination of Gaussian 16 at Fri Dec  8 01:25:55 2023.
