 Gaussian 16, Revision B.01,
 Gaussian 16:  ES64L-G16RevB.01 20-Dec-2017

 -------------------------
 #P B3LYP/6-311+g(d) force
 -------------------------

 -----
 DPGEN
 -----
 Symbolic Z-matrix:
 Charge =  0 Multiplicity = 2

                         Standard orientation:
 ---------------------------------------------------------------------
 Center     Atomic      Atomic             Coordinates (Angstroms)
 Number     Number       Type             X           Y           Z
 ---------------------------------------------------------------------
      1         11           0        3.432159   -0.269329   -0.131778
      2         11           0        0.551947   -2.648200   -0.215299
      3         11           0       -0.165576   -0.584436    2.118626
      4         11           0       -1.896096    2.241057    0.119658
      5         11           0       -0.140504   -0.005988   -1.514024
      6         11           0       -2.858285   -1.315003   -0.341086
      7         11           0        1.076356    2.581899   -0.036098
 ---------------------------------------------------------------------

 SCF Done:  E(UB3LYP) =  -1136.13246040     A.U. after   20 cycles

 The electronic state is 2-A.
 Alpha  occ. eigenvalues --  -38.44228 -38.43963 -38.43655 -38.43618 -38.43467
 Alpha  occ. eigenvalues --  -38.43366 -38.43120  -2.20001  -2.19806  -2.19544
 Alpha  occ. eigenvalues --   -2.19522  -2.19363  -2.19257  -2.19163  -1.13676
 Alpha  occ. eigenvalues --   -1.13660  -1.13641  -1.13499  -1.13460  -1.13440
 Alpha  occ. eigenvalues --   -1.13300  -1.13260  -1.13186  -1.13154  -1.13150
 Alpha  occ. eigenvalues --   -1.13131  -1.13100  -1.13028  -1.12999  -1.12954
 Alpha  occ. eigenvalues --   -1.12897  -1.12841  -1.12828  -1.12792  -1.12759
 Alpha  occ. eigenvalues --   -0.18806  -0.12857  -0.12718  -0.10759
 Alpha virt. eigenvalues --   -0.05838  -0.04950  -0.04705  -0.03098  -0.02881
 Alpha virt. eigenvalues --   -0.02560  -0.01751  -0.01062  -0.00309  -0.00181
 Alpha virt. eigenvalues --   -0.00029   0.00317   0.00811   0.00852   0.00915

  Beta  occ. eigenvalues --  -38.44230 -38.43953 -38.43606 -38.43553 -38.43462
  Beta  occ. eigenvalues --  -38.43362 -38.43061  -2.20006  -2.19791  -2.19507
  Beta  occ. eigenvalues --   -2.19360  -2.19354  -2.19254  -2.19057  -1.13670
  Beta  occ. eigenvalues --   -1.13663  -1.13646  -1.13481  -1.13437  -1.13429
  Beta  occ. eigenvalues --   -1.13276  -1.13189  -1.13155  -1.13097  -1.13065
  Beta  occ. eigenvalues --   -1.13026  -1.13019  -1.13014  -1.12980  -1.12940
  Beta  occ. eigenvalues --   -1.12880  -1.12842  -1.12758  -1.12720  -1.12681
  Beta  occ. eigenvalues --   -0.18081  -0.12606  -0.12513
  Beta virt. eigenvalues --   -0.06790  -0.05802  -0.04947  -0.04649  -0.02267
  Beta virt. eigenvalues --   -0.02192  -0.01690  -0.01442  -0.01000  -0.00355
  Beta virt. eigenvalues --   -0.00217   0.00130   0.00352   0.00852   0.00861

 Mulliken charges and spin densities:
               1          2
     1  Na   0.018853  -0.052972
     2  Na   0.390796  -0.038033
     3  Na  -0.637336   0.722077
     4  Na   0.188334   0.043967
     5  Na  -0.436696   0.341389
     6  Na   0.404799   0.015258
     7  Na   0.071250  -0.031686
 Sum of Mulliken charges =  -0.00000   1.00000

 Dipole moment (field-independent basis, Debye):
    X=              0.0183    Y=             -0.2354    Z=              0.2160  Tot=              0.3200
 Quadrupole moment (field-independent basis, Debye-Ang):
   XX=            -54.7842   YY=            -63.9772   ZZ=            -74.5439
   XY=              0.3114   XZ=              0.0918   YZ=              1.2027

 Normal termination of Gaussian 16 at Thu Dec  7 04:08:39 2023.
