 Gaussian 16, Revision B.01,
 Gaussian 16:  ES64L-G16RevB.01 20-Dec-2017

 -------------------------
 #P B3LYP/6-311+g(d) force
 -------------------------

 -----
 DPGEN
 -----
 Symbolic Z-matrix:
 Charge =  0 Multiplicity = 2

                         Standard orientation:
 ---------------------------------------------------------------------
 Center     Atomic      Atomic             Coordinates (Angstroms)
 Number     Number       Type             X           Y           Z
 ---------------------------------------------------------------------
      1         11           0       -3.606331    0.025220   -1.500976
      2         11           0        2.751379   -2.260117   -1.094653
      3         11           0       -0.693312    0.463347   -1.613590
      4         11           0        2.615414    1.184061   -0.785989
      5         11           0        0.558077    2.960130    1.248235
      6         11           0        0.814995   -1.200512    2.145045
      7         11           0       -2.440222   -1.172129    1.601927
 ---------------------------------------------------------------------

 SCF Done:  E(UB3LYP) =  -1136.11975535     A.U. after   23 cycles

 The electronic state is 2-A.
 Alpha  occ. eigenvalues --  -38.44400 -38.44291 -38.44121 -38.44097 -38.44071
 Alpha  occ. eigenvalues --  -38.43792 -38.43787  -2.20187  -2.20090  -2.19990
 Alpha  occ. eigenvalues --   -2.19948  -2.19880  -2.19637  -2.19586  -1.13850
 Alpha  occ. eigenvalues --   -1.13840  -1.13819  -1.13808  -1.13745  -1.13737
 Alpha  occ. eigenvalues --   -1.13708  -1.13654  -1.13636  -1.13578  -1.13575
 Alpha  occ. eigenvalues --   -1.13565  -1.13548  -1.13512  -1.13489  -1.13331
 Alpha  occ. eigenvalues --   -1.13306  -1.13266  -1.13254  -1.13243  -1.13208
 Alpha  occ. eigenvalues --   -0.17306  -0.13573  -0.11933  -0.11614
 Alpha virt. eigenvalues --   -0.05770  -0.05402  -0.04755  -0.03471  -0.03339
 Alpha virt. eigenvalues --   -0.02667  -0.01785  -0.01146  -0.00826  -0.00289
 Alpha virt. eigenvalues --   -0.00114   0.00180   0.00400   0.00642   0.00697

  Beta  occ. eigenvalues --  -38.44353 -38.44230 -38.44100 -38.44072 -38.44047
  Beta  occ. eigenvalues --  -38.43789 -38.43756  -2.20100  -2.19976  -2.19951
  Beta  occ. eigenvalues --   -2.19902  -2.19838  -2.19634  -2.19533  -1.13791
  Beta  occ. eigenvalues --   -1.13783  -1.13772  -1.13755  -1.13666  -1.13655
  Beta  occ. eigenvalues --   -1.13638  -1.13623  -1.13606  -1.13546  -1.13541
  Beta  occ. eigenvalues --   -1.13534  -1.13522  -1.13481  -1.13454  -1.13327
  Beta  occ. eigenvalues --   -1.13306  -1.13230  -1.13228  -1.13204  -1.13159
  Beta  occ. eigenvalues --   -0.16688  -0.13167  -0.11170
  Beta virt. eigenvalues --   -0.08368  -0.05502  -0.05071  -0.04321  -0.03171
  Beta virt. eigenvalues --   -0.02954  -0.02101  -0.01651  -0.00849  -0.00623
  Beta virt. eigenvalues --   -0.00105   0.00086   0.00283   0.00398   0.00692

 Mulliken charges and spin densities:
               1          2
     1  Na   0.381163  -0.000858
     2  Na   0.091793   0.256720
     3  Na  -0.957920   0.130572
     4  Na   0.895599   0.056918
     5  Na  -0.052397   0.382061
     6  Na  -0.260499   0.022902
     7  Na  -0.097738   0.151684
 Sum of Mulliken charges =  -0.00000   1.00000

 Dipole moment (field-independent basis, Debye):
    X=             -0.3468    Y=              0.1149    Z=             -0.1037  Tot=              0.3798
 Quadrupole moment (field-independent basis, Debye-Ang):
   XX=            -58.0887   YY=            -71.3309   ZZ=            -67.5701
   XY=             -1.3120   XZ=             -1.5142   YZ=              6.1104

 Normal termination of Gaussian 16 at Sun Dec  3 19:36:12 2023.
