 Gaussian 16, Revision B.01,
 Gaussian 16:  ES64L-G16RevB.01 20-Dec-2017

 -------------------------
 #P B3LYP/6-311+g(d) force
 -------------------------

 -----
 DPGEN
 -----
 Symbolic Z-matrix:
 Charge =  0 Multiplicity = 2

                         Standard orientation:
 ---------------------------------------------------------------------
 Center     Atomic      Atomic             Coordinates (Angstroms)
 Number     Number       Type             X           Y           Z
 ---------------------------------------------------------------------
      1         11           0       -1.554421   -1.675531   -0.716959
      2         11           0       -4.841191   -1.244982   -0.435081
      3         11           0       -4.608849    1.809115   -0.805706
      4         11           0       -1.750578    1.543583    0.983732
      5         11           0        0.399483   -0.685426    1.633057
      6         11           0        4.886544   -0.306207    0.364775
      7         11           0        7.469012    0.559449   -1.023818
 ---------------------------------------------------------------------

 SCF Done:  E(UB3LYP) =  -1136.11383981     A.U. after   18 cycles

 The electronic state is 2-A.
 Alpha  occ. eigenvalues --  -38.44771 -38.44586 -38.44315 -38.44098 -38.43949
 Alpha  occ. eigenvalues --  -38.43902 -38.43710  -2.20643  -2.20463  -2.20173
 Alpha  occ. eigenvalues --   -2.19951  -2.19740  -2.19688  -2.19566  -1.14315
 Alpha  occ. eigenvalues --   -1.14298  -1.14269  -1.14139  -1.14108  -1.14092
 Alpha  occ. eigenvalues --   -1.13864  -1.13828  -1.13821  -1.13604  -1.13598
 Alpha  occ. eigenvalues --   -1.13567  -1.13488  -1.13395  -1.13395  -1.13344
 Alpha  occ. eigenvalues --   -1.13342  -1.13261  -1.13236  -1.13219  -1.13209
 Alpha  occ. eigenvalues --   -0.17343  -0.13374  -0.12367  -0.11665
 Alpha virt. eigenvalues --   -0.06393  -0.05578  -0.04471  -0.03756  -0.03187
 Alpha virt. eigenvalues --   -0.02536  -0.02085  -0.01601  -0.01344  -0.01211
 Alpha virt. eigenvalues --   -0.00310  -0.00054   0.00266   0.00379   0.00414

  Beta  occ. eigenvalues --  -38.44706 -38.44516 -38.44279 -38.44069 -38.43949
  Beta  occ. eigenvalues --  -38.43902 -38.43707  -2.20524  -2.20335  -2.20109
  Beta  occ. eigenvalues --   -2.19899  -2.19740  -2.19688  -2.19562  -1.14233
  Beta  occ. eigenvalues --   -1.14221  -1.14170  -1.14053  -1.14025  -1.13988
  Beta  occ. eigenvalues --   -1.13825  -1.13782  -1.13763  -1.13567  -1.13553
  Beta  occ. eigenvalues --   -1.13526  -1.13488  -1.13395  -1.13395  -1.13344
  Beta  occ. eigenvalues --   -1.13342  -1.13261  -1.13222  -1.13215  -1.13206
  Beta  occ. eigenvalues --   -0.16536  -0.13294  -0.12312
  Beta virt. eigenvalues --   -0.07525  -0.06319  -0.05154  -0.04143  -0.03335
  Beta virt. eigenvalues --   -0.02492  -0.02334  -0.02028  -0.01557  -0.01233
  Beta virt. eigenvalues --   -0.00673   0.00013   0.00055   0.00368   0.00440

 Mulliken charges and spin densities:
               1          2
     1  Na  -0.106017   0.388607
     2  Na   0.123801   0.110053
     3  Na   0.220117  -0.002648
     4  Na  -0.028812   0.359673
     5  Na  -0.374117   0.177860
     6  Na  -0.586158  -0.039557
     7  Na   0.751185   0.006012
 Sum of Mulliken charges =  -0.00000   1.00000

 Dipole moment (field-independent basis, Debye):
    X=             -1.1518    Y=              0.0054    Z=             -0.1533  Tot=              1.1619
 Quadrupole moment (field-independent basis, Debye-Ang):
   XX=            -62.8051   YY=            -69.7095   ZZ=            -68.1373
   XY=              1.9884   XZ=             -2.9496   YZ=             -2.4239

 Normal termination of Gaussian 16 at Wed Nov 29 00:00:48 2023.
