 Gaussian 16, Revision B.01,
 Gaussian 16:  ES64L-G16RevB.01 20-Dec-2017

 -------------------------
 #P B3LYP/6-311+g(d) force
 -------------------------

 -----
 DPGEN
 -----
 Symbolic Z-matrix:
 Charge =  0 Multiplicity = 2

                         Standard orientation:
 ---------------------------------------------------------------------
 Center     Atomic      Atomic             Coordinates (Angstroms)
 Number     Number       Type             X           Y           Z
 ---------------------------------------------------------------------
      1         11           0        3.141752   -0.794032    0.291617
      2         11           0        0.598933   -2.604356   -0.408694
      3         11           0       -2.749781   -1.647361   -0.335925
      4         11           0        1.687887    2.653894   -0.523537
      5         11           0        0.103187    0.045447    2.138099
      6         11           0       -0.086158    0.523416   -1.557075
      7         11           0       -2.695820    1.822993    0.395514
 ---------------------------------------------------------------------

 SCF Done:  E(UB3LYP) =  -1136.13249960     A.U. after   19 cycles

 The electronic state is 2-A.
 Alpha  occ. eigenvalues --  -38.44311 -38.44280 -38.44116 -38.43908 -38.43615
 Alpha  occ. eigenvalues --  -38.43234 -38.42936  -2.20110  -2.20107  -2.19963
 Alpha  occ. eigenvalues --   -2.19724  -2.19454  -2.19206  -2.18819  -1.13791
 Alpha  occ. eigenvalues --   -1.13781  -1.13774  -1.13769  -1.13748  -1.13738
 Alpha  occ. eigenvalues --   -1.13629  -1.13597  -1.13573  -1.13398  -1.13385
 Alpha  occ. eigenvalues --   -1.13364  -1.13241  -1.13088  -1.13068  -1.12876
 Alpha  occ. eigenvalues --   -1.12835  -1.12812  -1.12504  -1.12476  -1.12457
 Alpha  occ. eigenvalues --   -0.18350  -0.13110  -0.12197  -0.10876
 Alpha virt. eigenvalues --   -0.05953  -0.05437  -0.04317  -0.03311  -0.02822
 Alpha virt. eigenvalues --   -0.02653  -0.01764  -0.01297  -0.00535  -0.00167
 Alpha virt. eigenvalues --   -0.00042   0.00321   0.00725   0.00780   0.00827

  Beta  occ. eigenvalues --  -38.44302 -38.44276 -38.44023 -38.43903 -38.43601
  Beta  occ. eigenvalues --  -38.43178 -38.42927  -2.20102  -2.20095  -2.19791
  Beta  occ. eigenvalues --   -2.19717  -2.19430  -2.19105  -2.18806  -1.13790
  Beta  occ. eigenvalues --   -1.13764  -1.13753  -1.13750  -1.13742  -1.13733
  Beta  occ. eigenvalues --   -1.13514  -1.13482  -1.13444  -1.13384  -1.13380
  Beta  occ. eigenvalues --   -1.13354  -1.13208  -1.13062  -1.13055  -1.12807
  Beta  occ. eigenvalues --   -1.12764  -1.12741  -1.12495  -1.12464  -1.12431
  Beta  occ. eigenvalues --   -0.17657  -0.12907  -0.11894
  Beta virt. eigenvalues --   -0.07036  -0.05822  -0.05394  -0.04237  -0.02624
  Beta virt. eigenvalues --   -0.02136  -0.01628  -0.01618  -0.01197  -0.00553
  Beta virt. eigenvalues --   -0.00187   0.00104   0.00362   0.00777   0.00820

 Mulliken charges and spin densities:
               1          2
     1  Na   0.225116   0.081764
     2  Na  -0.010693   0.029625
     3  Na   0.060732  -0.023369
     4  Na   0.119160  -0.012850
     5  Na  -0.399308   0.631376
     6  Na  -0.098469   0.238593
     7  Na   0.103461   0.054861
 Sum of Mulliken charges =  -0.00000   1.00000

 Dipole moment (field-independent basis, Debye):
    X=             -0.1382    Y=              0.2359    Z=              0.3784  Tot=              0.4668
 Quadrupole moment (field-independent basis, Debye-Ang):
   XX=            -53.9847   YY=            -65.7212   ZZ=            -74.0352
   XY=             -0.3397   XZ=              0.2434   YZ=              1.3310

 Normal termination of Gaussian 16 at Thu Dec  7 18:39:06 2023.
