 Gaussian 16, Revision B.01,
 Gaussian 16:  ES64L-G16RevB.01 20-Dec-2017

 -------------------------
 #P B3LYP/6-311+g(d) force
 -------------------------

 -----
 DPGEN
 -----
 Symbolic Z-matrix:
 Charge =  0 Multiplicity = 2

                         Standard orientation:
 ---------------------------------------------------------------------
 Center     Atomic      Atomic             Coordinates (Angstroms)
 Number     Number       Type             X           Y           Z
 ---------------------------------------------------------------------
      1         11           0        0.057927   -1.690130    0.167590
      2         11           0       -3.111978    0.333439    0.335465
      3         11           0        1.047718    1.441735   -0.977171
      4         11           0        2.904452   -0.247314    1.847535
      5         11           0        3.617397   -0.656219   -1.148778
      6         11           0       -1.506132    3.446058    0.114104
      7         11           0       -3.009385   -2.627569   -0.338745
 ---------------------------------------------------------------------

 SCF Done:  E(UB3LYP) =  -1136.12128002     A.U. after   23 cycles

 The electronic state is 2-A.
 Alpha  occ. eigenvalues --  -38.44938 -38.44775 -38.44736 -38.43927 -38.43808
 Alpha  occ. eigenvalues --  -38.43705 -38.42994  -2.20779  -2.20619  -2.20609
 Alpha  occ. eigenvalues --   -2.19794  -2.19679  -2.19592  -2.18798  -1.14498
 Alpha  occ. eigenvalues --   -1.14476  -1.14378  -1.14312  -1.14292  -1.14290
 Alpha  occ. eigenvalues --   -1.14263  -1.14258  -1.14239  -1.13469  -1.13434
 Alpha  occ. eigenvalues --   -1.13427  -1.13391  -1.13355  -1.13274  -1.13251
 Alpha  occ. eigenvalues --   -1.13223  -1.13203  -1.12465  -1.12458  -1.12441
 Alpha  occ. eigenvalues --   -0.17742  -0.14614  -0.12260  -0.09998
 Alpha virt. eigenvalues --   -0.06956  -0.05514  -0.05012  -0.03567  -0.02813
 Alpha virt. eigenvalues --   -0.02237  -0.01833  -0.01488  -0.01058  -0.00549
 Alpha virt. eigenvalues --   -0.00183   0.00113   0.00360   0.00530   0.00583

  Beta  occ. eigenvalues --  -38.44927 -38.44772 -38.44700 -38.43925 -38.43773
  Beta  occ. eigenvalues --  -38.43620 -38.42992  -2.20764  -2.20615  -2.20549
  Beta  occ. eigenvalues --   -2.19791  -2.19617  -2.19435  -2.18796  -1.14492
  Beta  occ. eigenvalues --   -1.14435  -1.14370  -1.14306  -1.14287  -1.14256
  Beta  occ. eigenvalues --   -1.14249  -1.14204  -1.14184  -1.13467  -1.13431
  Beta  occ. eigenvalues --   -1.13424  -1.13353  -1.13304  -1.13214  -1.13140
  Beta  occ. eigenvalues --   -1.13111  -1.13100  -1.12462  -1.12455  -1.12440
  Beta  occ. eigenvalues --   -0.17239  -0.14321  -0.12159
  Beta virt. eigenvalues --   -0.06801  -0.06068  -0.05238  -0.04940  -0.03220
  Beta virt. eigenvalues --   -0.02692  -0.01809  -0.01390  -0.01139  -0.00989
  Beta virt. eigenvalues --   -0.00145   0.00033   0.00252   0.00620   0.00681

 Mulliken charges and spin densities:
               1          2
     1  Na  -1.134087   0.301869
     2  Na  -0.533435  -0.009898
     3  Na  -0.746707   0.214680
     4  Na   0.333704   0.337850
     5  Na   1.128968   0.068830
     6  Na   0.384355   0.085060
     7  Na   0.567203   0.001610
 Sum of Mulliken charges =  -0.00000   1.00000

 Dipole moment (field-independent basis, Debye):
    X=             -0.2934    Y=             -0.8569    Z=             -0.3128  Tot=              0.9583
 Quadrupole moment (field-independent basis, Debye-Ang):
   XX=            -52.3223   YY=            -66.3958   ZZ=            -77.5396
   XY=              1.0797   XZ=             -2.4753   YZ=              4.1424

 Normal termination of Gaussian 16 at Tue Nov 28 19:39:07 2023.
