 Gaussian 16, Revision B.01,
 Gaussian 16:  ES64L-G16RevB.01 20-Dec-2017

 -------------------------
 #P B3LYP/6-311+g(d) force
 -------------------------

 -----
 DPGEN
 -----
 Symbolic Z-matrix:
 Charge =  0 Multiplicity = 2

                         Standard orientation:
 ---------------------------------------------------------------------
 Center     Atomic      Atomic             Coordinates (Angstroms)
 Number     Number       Type             X           Y           Z
 ---------------------------------------------------------------------
      1         11           0        3.423284    2.088961   -0.424682
      2         11           0        3.897161   -1.890295   -0.608616
      3         11           0        1.348193   -3.075444    0.798003
      4         11           0       -4.415845   -0.233197   -0.388103
      5         11           0       -2.417595   -2.946311    0.039556
      6         11           0        0.893505    3.515820    0.752241
      7         11           0       -2.728703    2.540467   -0.168399
 ---------------------------------------------------------------------

 SCF Done:  E(UB3LYP) =  -1136.10769291     A.U. after   23 cycles

 The electronic state is 2-A.
 Alpha  occ. eigenvalues --  -38.45044 -38.44875 -38.44655 -38.44548 -38.44283
 Alpha  occ. eigenvalues --  -38.44179 -38.44093  -2.20833  -2.20650  -2.20451
 Alpha  occ. eigenvalues --   -2.20346  -2.20076  -2.19991  -2.19891  -1.14510
 Alpha  occ. eigenvalues --   -1.14492  -1.14465  -1.14335  -1.14322  -1.14306
 Alpha  occ. eigenvalues --   -1.14149  -1.14124  -1.14113  -1.14000  -1.13987
 Alpha  occ. eigenvalues --   -1.13956  -1.13742  -1.13738  -1.13721  -1.13641
 Alpha  occ. eigenvalues --   -1.13636  -1.13623  -1.13542  -1.13531  -1.13516
 Alpha  occ. eigenvalues --   -0.15537  -0.14047  -0.13519  -0.10845
 Alpha virt. eigenvalues --   -0.07782  -0.04681  -0.04517  -0.03648  -0.03492
 Alpha virt. eigenvalues --   -0.02393  -0.02162  -0.02032  -0.01265  -0.00921
 Alpha virt. eigenvalues --   -0.00651  -0.00005   0.00154   0.00273   0.00559

  Beta  occ. eigenvalues --  -38.45013 -38.44873 -38.44657 -38.44483 -38.44274
  Beta  occ. eigenvalues --  -38.44133 -38.44015  -2.20778  -2.20653  -2.20462
  Beta  occ. eigenvalues --   -2.20226  -2.20064  -2.19905  -2.19745  -1.14467
  Beta  occ. eigenvalues --   -1.14458  -1.14418  -1.14336  -1.14328  -1.14274
  Beta  occ. eigenvalues --   -1.14142  -1.14137  -1.14088  -1.13920  -1.13909
  Beta  occ. eigenvalues --   -1.13878  -1.13734  -1.13731  -1.13695  -1.13584
  Beta  occ. eigenvalues --   -1.13577  -1.13565  -1.13443  -1.13433  -1.13422
  Beta  occ. eigenvalues --   -0.14996  -0.13353  -0.12805
  Beta virt. eigenvalues --   -0.07882  -0.07674  -0.04152  -0.04123  -0.03454
  Beta virt. eigenvalues --   -0.03182  -0.02158  -0.01938  -0.01856  -0.01134
  Beta virt. eigenvalues --   -0.00606  -0.00381   0.00127   0.00229   0.00347

 Mulliken charges and spin densities:
               1          2
     1  Na  -0.104179   0.163275
     2  Na   0.425681   0.190178
     3  Na  -0.453559  -0.016104
     4  Na   0.488180  -0.003029
     5  Na  -0.165697   0.368814
     6  Na   0.023145   0.000888
     7  Na  -0.213571   0.295977
 Sum of Mulliken charges =  -0.00000   1.00000

 Dipole moment (field-independent basis, Debye):
    X=              0.4424    Y=              0.2859    Z=             -0.1009  Tot=              0.5363
 Quadrupole moment (field-independent basis, Debye-Ang):
   XX=            -59.3592   YY=            -70.8468   ZZ=            -71.1494
   XY=              0.9564   XZ=             -2.4375   YZ=              0.0190

 Normal termination of Gaussian 16 at Sun Dec  3 15:53:55 2023.
