 Gaussian 16, Revision B.01,
 Gaussian 16:  ES64L-G16RevB.01 20-Dec-2017

 -------------------------
 #P B3LYP/6-311+g(d) force
 -------------------------

 -----
 DPGEN
 -----
 Symbolic Z-matrix:
 Charge =  0 Multiplicity = 2

                         Standard orientation:
 ---------------------------------------------------------------------
 Center     Atomic      Atomic             Coordinates (Angstroms)
 Number     Number       Type             X           Y           Z
 ---------------------------------------------------------------------
      1         11           0        4.719654   -0.618638    0.098743
      2         11           0       -2.748407    2.716389    0.009366
      3         11           0        0.236551    2.598938   -1.325312
      4         11           0        2.684412    1.036707    1.487948
      5         11           0        1.248168   -1.965031   -0.899080
      6         11           0       -2.153312   -3.045263   -0.269195
      7         11           0       -3.987067   -0.723103    0.897530
 ---------------------------------------------------------------------

 SCF Done:  E(UB3LYP) =  -1136.11171547     A.U. after   20 cycles

 The electronic state is 2-A.
 Alpha  occ. eigenvalues --  -38.45708 -38.44954 -38.44615 -38.44177 -38.43755
 Alpha  occ. eigenvalues --  -38.43713 -38.43543  -2.21524  -2.20793  -2.20397
 Alpha  occ. eigenvalues --   -2.19947  -2.19546  -2.19526  -2.19333  -1.15232
 Alpha  occ. eigenvalues --   -1.15177  -1.15156  -1.14460  -1.14432  -1.14408
 Alpha  occ. eigenvalues --   -1.14070  -1.14061  -1.13992  -1.13629  -1.13617
 Alpha  occ. eigenvalues --   -1.13596  -1.13206  -1.13205  -1.13196  -1.13181
 Alpha  occ. eigenvalues --   -1.13176  -1.13158  -1.13007  -1.12995  -1.12974
 Alpha  occ. eigenvalues --   -0.16287  -0.14049  -0.12350  -0.10721
 Alpha virt. eigenvalues --   -0.06903  -0.05455  -0.05065  -0.03250  -0.03028
 Alpha virt. eigenvalues --   -0.02625  -0.02041  -0.01613  -0.00763  -0.00651
 Alpha virt. eigenvalues --   -0.00406  -0.00270  -0.00056   0.00321   0.00570

  Beta  occ. eigenvalues --  -38.45687 -38.44920 -38.44543 -38.44182 -38.43722
  Beta  occ. eigenvalues --  -38.43657 -38.43554  -2.21489  -2.20732  -2.20264
  Beta  occ. eigenvalues --   -2.19958  -2.19484  -2.19420  -2.19358  -1.15201
  Beta  occ. eigenvalues --   -1.15157  -1.15115  -1.14409  -1.14391  -1.14367
  Beta  occ. eigenvalues --   -1.13981  -1.13969  -1.13898  -1.13639  -1.13627
  Beta  occ. eigenvalues --   -1.13584  -1.13163  -1.13155  -1.13154  -1.13138
  Beta  occ. eigenvalues --   -1.13109  -1.13086  -1.13027  -1.13008  -1.12952
  Beta  occ. eigenvalues --   -0.15729  -0.13497  -0.12054
  Beta virt. eigenvalues --   -0.07405  -0.06764  -0.05124  -0.04457  -0.02901
  Beta virt. eigenvalues --   -0.02741  -0.02406  -0.01771  -0.01464  -0.00586
  Beta virt. eigenvalues --   -0.00429  -0.00182  -0.00042   0.00131   0.00467

 Mulliken charges and spin densities:
               1          2
     1  Na   0.427703   0.151242
     2  Na   0.021504   0.015993
     3  Na  -0.058854   0.099738
     4  Na   0.106116   0.169041
     5  Na  -0.634572   0.461139
     6  Na   0.565238  -0.243353
     7  Na  -0.427135   0.346201
 Sum of Mulliken charges =  -0.00000   1.00000

 Dipole moment (field-independent basis, Debye):
    X=              2.2190    Y=              0.2342    Z=              0.2812  Tot=              2.2490
 Quadrupole moment (field-independent basis, Debye-Ang):
   XX=            -60.6715   YY=            -71.6759   ZZ=            -68.6147
   XY=             -3.8141   XZ=             -3.6196   YZ=              3.1622

 Normal termination of Gaussian 16 at Sun Dec  3 13:01:47 2023.
