 Gaussian 16, Revision B.01,
 Gaussian 16:  ES64L-G16RevB.01 20-Dec-2017

 -------------------------
 #P B3LYP/6-311+g(d) force
 -------------------------

 -----
 DPGEN
 -----
 Symbolic Z-matrix:
 Charge =  0 Multiplicity = 2

                         Standard orientation:
 ---------------------------------------------------------------------
 Center     Atomic      Atomic             Coordinates (Angstroms)
 Number     Number       Type             X           Y           Z
 ---------------------------------------------------------------------
      1         11           0        3.127206   -0.313468   -0.155866
      2         11           0       -0.067424    0.020020    2.117759
      3         11           0       -2.295349    1.916287   -0.214795
      4         11           0       -3.084874   -1.376801   -0.079951
      5         11           0        1.451875    2.706764   -0.112727
      6         11           0        0.991373   -2.835795   -0.122673
      7         11           0       -0.122807   -0.117007   -1.431747
 ---------------------------------------------------------------------

 SCF Done:  E(UB3LYP) =  -1136.13618583     A.U. after   19 cycles

 The electronic state is 2-A.
 Alpha  occ. eigenvalues --  -38.44382 -38.44136 -38.43891 -38.43481 -38.43366
 Alpha  occ. eigenvalues --  -38.43248 -38.43042  -2.20185  -2.19985  -2.19745
 Alpha  occ. eigenvalues --   -2.19350  -2.19217  -2.19075  -2.19046  -1.13856
 Alpha  occ. eigenvalues --   -1.13844  -1.13830  -1.13659  -1.13646  -1.13631
 Alpha  occ. eigenvalues --   -1.13451  -1.13405  -1.13361  -1.13021  -1.12971
 Alpha  occ. eigenvalues --   -1.12963  -1.12931  -1.12869  -1.12849  -1.12763
 Alpha  occ. eigenvalues --   -1.12739  -1.12730  -1.12718  -1.12682  -1.12654
 Alpha  occ. eigenvalues --   -0.18518  -0.13318  -0.12169  -0.10478
 Alpha virt. eigenvalues --   -0.05922  -0.05377  -0.04598  -0.03167  -0.02580
 Alpha virt. eigenvalues --   -0.02438  -0.01794  -0.01232  -0.00542  -0.00454
 Alpha virt. eigenvalues --   -0.00012   0.00326   0.00734   0.00820   0.00862

  Beta  occ. eigenvalues --  -38.44381 -38.44132 -38.43883 -38.43373 -38.43362
  Beta  occ. eigenvalues --  -38.43245 -38.42993  -2.20184  -2.19979  -2.19735
  Beta  occ. eigenvalues --   -2.19213  -2.19152  -2.19073  -2.18959  -1.13848
  Beta  occ. eigenvalues --   -1.13842  -1.13826  -1.13652  -1.13633  -1.13624
  Beta  occ. eigenvalues --   -1.13439  -1.13379  -1.13357  -1.12924  -1.12887
  Beta  occ. eigenvalues --   -1.12858  -1.12843  -1.12827  -1.12821  -1.12752
  Beta  occ. eigenvalues --   -1.12724  -1.12714  -1.12666  -1.12621  -1.12593
  Beta  occ. eigenvalues --   -0.17809  -0.13095  -0.11959
  Beta virt. eigenvalues --   -0.06531  -0.05883  -0.05367  -0.04580  -0.02399
  Beta virt. eigenvalues --   -0.01858  -0.01704  -0.01329  -0.01166  -0.00585
  Beta virt. eigenvalues --   -0.00499   0.00151   0.00366   0.00797   0.00826

 Mulliken charges and spin densities:
               1          2
     1  Na   0.225652   0.026026
     2  Na  -0.587080   0.791154
     3  Na   0.274872   0.018341
     4  Na   0.199461  -0.025159
     5  Na   0.130831  -0.004866
     6  Na   0.240861  -0.021516
     7  Na  -0.484596   0.216020
 Sum of Mulliken charges =  -0.00000   1.00000

 Dipole moment (field-independent basis, Debye):
    X=             -0.2994    Y=             -0.1474    Z=              0.1429  Tot=              0.3631
 Quadrupole moment (field-independent basis, Debye-Ang):
   XX=            -53.7428   YY=            -62.4019   ZZ=            -76.2753
   XY=              0.8918   XZ=             -0.0933   YZ=             -0.3371

 Normal termination of Gaussian 16 at Thu Dec  7 16:06:59 2023.
