 Gaussian 16, Revision B.01,
 Gaussian 16:  ES64L-G16RevB.01 20-Dec-2017

 -------------------------
 #P B3LYP/6-311+g(d) force
 -------------------------

 -----
 DPGEN
 -----
 Symbolic Z-matrix:
 Charge =  0 Multiplicity = 2

                         Standard orientation:
 ---------------------------------------------------------------------
 Center     Atomic      Atomic             Coordinates (Angstroms)
 Number     Number       Type             X           Y           Z
 ---------------------------------------------------------------------
      1         11           0       -3.238646   -0.740013    0.346116
      2         11           0        0.451858   -3.069217   -0.276681
      3         11           0       -1.737145    2.321786   -0.435109
      4         11           0        0.006735   -0.191244    2.062938
      5         11           0       -0.553825   -0.597856   -1.556036
      6         11           0        1.534318    2.675705   -0.056903
      7         11           0        3.536707   -0.399161   -0.084326
 ---------------------------------------------------------------------

 SCF Done:  E(UB3LYP) =  -1136.12906440     A.U. after   21 cycles

 The electronic state is 2-A.
 Alpha  occ. eigenvalues --  -38.44950 -38.44598 -38.43823 -38.43770 -38.43482
 Alpha  occ. eigenvalues --  -38.43379 -38.43275  -2.20688  -2.20419  -2.19661
 Alpha  occ. eigenvalues --   -2.19619  -2.19289  -2.19244  -2.19243  -1.14371
 Alpha  occ. eigenvalues --   -1.14341  -1.14327  -1.14094  -1.14075  -1.14059
 Alpha  occ. eigenvalues --   -1.13436  -1.13310  -1.13286  -1.13267  -1.13248
 Alpha  occ. eigenvalues --   -1.13230  -1.12994  -1.12962  -1.12950  -1.12937
 Alpha  occ. eigenvalues --   -1.12906  -1.12891  -1.12863  -1.12861  -1.12846
 Alpha  occ. eigenvalues --   -0.18139  -0.12839  -0.12483  -0.10503
 Alpha virt. eigenvalues --   -0.06453  -0.05013  -0.04875  -0.03093  -0.02834
 Alpha virt. eigenvalues --   -0.02434  -0.02007  -0.01121  -0.00788  -0.00456
 Alpha virt. eigenvalues --   -0.00050   0.00303   0.00664   0.00730   0.00811

  Beta  occ. eigenvalues --  -38.44954 -38.44588 -38.43811 -38.43675 -38.43481
  Beta  occ. eigenvalues --  -38.43367 -38.43220  -2.20697  -2.20403  -2.19643
  Beta  occ. eigenvalues --   -2.19444  -2.19289  -2.19226  -2.19142  -1.14370
  Beta  occ. eigenvalues --   -1.14347  -1.14334  -1.14080  -1.14056  -1.14039
  Beta  occ. eigenvalues --   -1.13412  -1.13277  -1.13258  -1.13171  -1.13131
  Beta  occ. eigenvalues --   -1.13101  -1.12990  -1.12952  -1.12935  -1.12924
  Beta  occ. eigenvalues --   -1.12867  -1.12851  -1.12831  -1.12794  -1.12785
  Beta  occ. eigenvalues --   -0.17444  -0.12689  -0.12216
  Beta virt. eigenvalues --   -0.06647  -0.06370  -0.05015  -0.04741  -0.02417
  Beta virt. eigenvalues --   -0.02116  -0.01905  -0.01396  -0.01036  -0.00833
  Beta virt. eigenvalues --   -0.00479   0.00119   0.00353   0.00721   0.00818

 Mulliken charges and spin densities:
               1          2
     1  Na   0.226502   0.031972
     2  Na   0.064171  -0.093007
     3  Na   0.094869   0.053177
     4  Na  -0.324419   0.754329
     5  Na   0.160704   0.382397
     6  Na  -0.139585  -0.054455
     7  Na  -0.082242  -0.074412
 Sum of Mulliken charges =  -0.00000   1.00000

 Dipole moment (field-independent basis, Debye):
    X=              0.0698    Y=             -0.4172    Z=              0.1959  Tot=              0.4662
 Quadrupole moment (field-independent basis, Debye-Ang):
   XX=            -52.8450   YY=            -64.2515   ZZ=            -76.0897
   XY=             -0.2101   XZ=             -1.0927   YZ=             -0.9655

 Normal termination of Gaussian 16 at Thu Dec  7 19:06:05 2023.
