 Gaussian 16, Revision B.01,
 Gaussian 16:  ES64L-G16RevB.01 20-Dec-2017

 -------------------------
 #P B3LYP/6-311+g(d) force
 -------------------------

 -----
 DPGEN
 -----
 Symbolic Z-matrix:
 Charge =  0 Multiplicity = 2

                         Standard orientation:
 ---------------------------------------------------------------------
 Center     Atomic      Atomic             Coordinates (Angstroms)
 Number     Number       Type             X           Y           Z
 ---------------------------------------------------------------------
      1         11           0        4.292508   -0.629817    0.302617
      2         11           0        1.965385   -3.255474   -0.035247
      3         11           0       -1.744306   -3.044188    0.139660
      4         11           0       -0.365708    3.646668   -0.237722
      5         11           0        3.341774    2.366401   -0.275857
      6         11           0       -3.542848    2.065281    0.666768
      7         11           0       -3.946804   -1.148872   -0.560218
 ---------------------------------------------------------------------

 SCF Done:  E(UB3LYP) =  -1136.10551839     A.U. after   24 cycles

 The electronic state is 2-A.
 Alpha  occ. eigenvalues --  -38.45246 -38.44982 -38.44982 -38.44956 -38.44289
 Alpha  occ. eigenvalues --  -38.44163 -38.43831  -2.21009  -2.20787  -2.20748
 Alpha  occ. eigenvalues --   -2.20718  -2.20090  -2.20014  -2.19625  -1.14687
 Alpha  occ. eigenvalues --   -1.14670  -1.14641  -1.14500  -1.14448  -1.14435
 Alpha  occ. eigenvalues --   -1.14431  -1.14420  -1.14400  -1.14398  -1.14390
 Alpha  occ. eigenvalues --   -1.14341  -1.13745  -1.13743  -1.13718  -1.13684
 Alpha  occ. eigenvalues --   -1.13649  -1.13637  -1.13277  -1.13268  -1.13254
 Alpha  occ. eigenvalues --   -0.15654  -0.14299  -0.13340  -0.10807
 Alpha virt. eigenvalues --   -0.07983  -0.04765  -0.04395  -0.03604  -0.03558
 Alpha virt. eigenvalues --   -0.02660  -0.02243  -0.01989  -0.01329  -0.00526
 Alpha virt. eigenvalues --   -0.00421  -0.00199   0.00190   0.00195   0.00416

  Beta  occ. eigenvalues --  -38.45223 -38.44967 -38.44964 -38.44945 -38.44238
  Beta  occ. eigenvalues --  -38.44120 -38.43758  -2.20971  -2.20762  -2.20736
  Beta  occ. eigenvalues --   -2.20694  -2.19999  -2.19938  -2.19491  -1.14663
  Beta  occ. eigenvalues --   -1.14647  -1.14596  -1.14464  -1.14438  -1.14419
  Beta  occ. eigenvalues --   -1.14418  -1.14394  -1.14386  -1.14376  -1.14353
  Beta  occ. eigenvalues --   -1.14309  -1.13683  -1.13683  -1.13653  -1.13627
  Beta  occ. eigenvalues --   -1.13599  -1.13585  -1.13186  -1.13179  -1.13165
  Beta  occ. eigenvalues --   -0.15113  -0.13592  -0.12526
  Beta virt. eigenvalues --   -0.08230  -0.07674  -0.04273  -0.03889  -0.03408
  Beta virt. eigenvalues --   -0.03235  -0.02439  -0.02040  -0.01807  -0.01190
  Beta virt. eigenvalues --   -0.00272  -0.00153   0.00020   0.00251   0.00338

 Mulliken charges and spin densities:
               1          2
     1  Na   0.158649   0.037134
     2  Na   0.064107   0.341790
     3  Na  -0.159462   0.088065
     4  Na   0.004503   0.091350
     5  Na   0.117718   0.236649
     6  Na  -0.032455   0.060328
     7  Na  -0.153061   0.144685
 Sum of Mulliken charges =  -0.00000   1.00000

 Dipole moment (field-independent basis, Debye):
    X=             -0.5392    Y=              0.4643    Z=              0.0822  Tot=              0.7163
 Quadrupole moment (field-independent basis, Debye-Ang):
   XX=            -59.4166   YY=            -68.7642   ZZ=            -72.5752
   XY=             -1.4961   XZ=             -0.3460   YZ=             -0.9251

 Normal termination of Gaussian 16 at Mon Dec  4 04:22:34 2023.
