 Gaussian 16, Revision B.01,
 Gaussian 16:  ES64L-G16RevB.01 20-Dec-2017

 -------------------------
 #P B3LYP/6-311+g(d) force
 -------------------------

 -----
 DPGEN
 -----
 Symbolic Z-matrix:
 Charge =  0 Multiplicity = 2

                         Standard orientation:
 ---------------------------------------------------------------------
 Center     Atomic      Atomic             Coordinates (Angstroms)
 Number     Number       Type             X           Y           Z
 ---------------------------------------------------------------------
      1         11           0        3.001651   -1.046339   -0.116379
      2         11           0        0.047763   -0.088036   -1.740445
      3         11           0        0.194755   -2.012185    0.823804
      4         11           0       -2.193195    1.923094   -0.135233
      5         11           0       -2.550094   -1.573989   -0.500281
      6         11           0        1.940411    2.088937   -0.236817
      7         11           0       -0.441291    0.708518    1.905351
 ---------------------------------------------------------------------

 SCF Done:  E(UB3LYP) =  -1136.12748267     A.U. after   19 cycles

 The electronic state is 2-A.
 Alpha  occ. eigenvalues --  -38.44048 -38.43734 -38.43732 -38.43727 -38.43626
 Alpha  occ. eigenvalues --  -38.43526 -38.42824  -2.19918  -2.19728  -2.19634
 Alpha  occ. eigenvalues --   -2.19615  -2.19542  -2.19490  -2.18847  -1.13610
 Alpha  occ. eigenvalues --   -1.13575  -1.13566  -1.13521  -1.13432  -1.13358
 Alpha  occ. eigenvalues --   -1.13325  -1.13310  -1.13285  -1.13257  -1.13245
 Alpha  occ. eigenvalues --   -1.13214  -1.13207  -1.13204  -1.13154  -1.13146
 Alpha  occ. eigenvalues --   -1.13113  -1.13102  -1.12533  -1.12483  -1.12466
 Alpha  occ. eigenvalues --   -0.19446  -0.13482  -0.12138  -0.11444
 Alpha virt. eigenvalues --   -0.05596  -0.05266  -0.03682  -0.03523  -0.03047
 Alpha virt. eigenvalues --   -0.02826  -0.01590  -0.01025  -0.00114   0.00100
 Alpha virt. eigenvalues --    0.00275   0.00374   0.00790   0.00861   0.01011

  Beta  occ. eigenvalues --  -38.44048 -38.43721 -38.43721 -38.43644 -38.43620
  Beta  occ. eigenvalues --  -38.43456 -38.42793  -2.19921  -2.19615  -2.19609
  Beta  occ. eigenvalues --   -2.19564  -2.19482  -2.19415  -2.18794  -1.13613
  Beta  occ. eigenvalues --   -1.13572  -1.13557  -1.13453  -1.13345  -1.13317
  Beta  occ. eigenvalues --   -1.13279  -1.13255  -1.13250  -1.13218  -1.13201
  Beta  occ. eigenvalues --   -1.13190  -1.13147  -1.13141  -1.13132  -1.13097
  Beta  occ. eigenvalues --   -1.13065  -1.13039  -1.12497  -1.12438  -1.12407
  Beta  occ. eigenvalues --   -0.18685  -0.13208  -0.11902
  Beta virt. eigenvalues --   -0.07402  -0.05533  -0.05247  -0.03661  -0.02742
  Beta virt. eigenvalues --   -0.02284  -0.01704  -0.01489  -0.00988   0.00050
  Beta virt. eigenvalues --    0.00068   0.00271   0.00388   0.00836   0.00893

 Mulliken charges and spin densities:
               1          2
     1  Na  -0.129574  -0.057848
     2  Na  -0.601870   0.464572
     3  Na   0.641205   0.296288
     4  Na   0.213476  -0.028718
     5  Na   0.042843   0.062590
     6  Na   0.184960  -0.039272
     7  Na  -0.351040   0.302388
 Sum of Mulliken charges =  -0.00000   1.00000

 Dipole moment (field-independent basis, Debye):
    X=              0.0903    Y=              0.2527    Z=             -0.2289  Tot=              0.3527
 Quadrupole moment (field-independent basis, Debye-Ang):
   XX=            -54.6125   YY=            -68.6506   ZZ=            -71.1027
   XY=              0.0740   XZ=              1.1107   YZ=             -0.4869

 Normal termination of Gaussian 16 at Thu Dec  7 10:05:35 2023.
