 Gaussian 16, Revision B.01,
 Gaussian 16:  ES64L-G16RevB.01 20-Dec-2017

 -------------------------
 #P B3LYP/6-311+g(d) force
 -------------------------

 -----
 DPGEN
 -----
 Symbolic Z-matrix:
 Charge =  0 Multiplicity = 2

                         Standard orientation:
 ---------------------------------------------------------------------
 Center     Atomic      Atomic             Coordinates (Angstroms)
 Number     Number       Type             X           Y           Z
 ---------------------------------------------------------------------
      1         11           0       -0.586843   -0.337394    2.103466
      2         11           0       -2.674954   -1.700583   -0.596720
      3         11           0        0.725495   -2.743912   -0.339262
      4         11           0        0.195901    0.371414   -1.434574
      5         11           0        1.428860    2.878581   -0.341020
      6         11           0        3.223219   -0.614445    0.371894
      7         11           0       -2.311677    2.146338    0.236217
 ---------------------------------------------------------------------

 SCF Done:  E(UB3LYP) =  -1136.13486240     A.U. after   19 cycles

 The electronic state is 2-A.
 Alpha  occ. eigenvalues --  -38.44126 -38.43987 -38.43866 -38.43834 -38.43713
 Alpha  occ. eigenvalues --  -38.43425 -38.43042  -2.19930  -2.19787  -2.19692
 Alpha  occ. eigenvalues --   -2.19649  -2.19571  -2.19292  -2.19030  -1.13609
 Alpha  occ. eigenvalues --   -1.13601  -1.13557  -1.13461  -1.13449  -1.13439
 Alpha  occ. eigenvalues --   -1.13427  -1.13339  -1.13321  -1.13307  -1.13299
 Alpha  occ. eigenvalues --   -1.13289  -1.13235  -1.13202  -1.13183  -1.12992
 Alpha  occ. eigenvalues --   -1.12954  -1.12913  -1.12712  -1.12677  -1.12643
 Alpha  occ. eigenvalues --   -0.18244  -0.12730  -0.12632  -0.10546
 Alpha virt. eigenvalues --   -0.05691  -0.05340  -0.04857  -0.03109  -0.02912
 Alpha virt. eigenvalues --   -0.02376  -0.01531  -0.01355  -0.00660  -0.00382
 Alpha virt. eigenvalues --   -0.00023   0.00328   0.00776   0.00800   0.00866

  Beta  occ. eigenvalues --  -38.44120 -38.43982 -38.43860 -38.43817 -38.43622
  Beta  occ. eigenvalues --  -38.43416 -38.42995  -2.19921  -2.19779  -2.19683
  Beta  occ. eigenvalues --   -2.19621  -2.19403  -2.19280  -2.18945  -1.13597
  Beta  occ. eigenvalues --   -1.13582  -1.13552  -1.13456  -1.13437  -1.13426
  Beta  occ. eigenvalues --   -1.13418  -1.13325  -1.13296  -1.13291  -1.13289
  Beta  occ. eigenvalues --   -1.13261  -1.13124  -1.13087  -1.13061  -1.12981
  Beta  occ. eigenvalues --   -1.12933  -1.12895  -1.12646  -1.12613  -1.12587
  Beta  occ. eigenvalues --   -0.17574  -0.12520  -0.12359
  Beta virt. eigenvalues --   -0.06738  -0.05589  -0.05258  -0.04790  -0.02409
  Beta virt. eigenvalues --   -0.02239  -0.01438  -0.01392  -0.01216  -0.00654
  Beta virt. eigenvalues --   -0.00427   0.00138   0.00377   0.00794   0.00861

 Mulliken charges and spin densities:
               1          2
     1  Na  -0.443833   0.700826
     2  Na   0.142176   0.014916
     3  Na   0.169289   0.035105
     4  Na  -0.008607   0.214848
     5  Na   0.129369  -0.022503
     6  Na  -0.053737   0.071762
     7  Na   0.065343  -0.014954
 Sum of Mulliken charges =  -0.00000   1.00000

 Dipole moment (field-independent basis, Debye):
    X=             -0.1158    Y=              0.2142    Z=              0.2339  Tot=              0.3376
 Quadrupole moment (field-independent basis, Debye-Ang):
   XX=            -56.6512   YY=            -60.9961   ZZ=            -75.1386
   XY=             -0.0002   XZ=              2.0942   YZ=              1.3788

 Normal termination of Gaussian 16 at Thu Dec  7 05:47:57 2023.
