 Gaussian 16, Revision B.01,
 Gaussian 16:  ES64L-G16RevB.01 20-Dec-2017

 -------------------------
 #P B3LYP/6-311+g(d) force
 -------------------------

 -----
 DPGEN
 -----
 Symbolic Z-matrix:
 Charge =  0 Multiplicity = 2

                         Standard orientation:
 ---------------------------------------------------------------------
 Center     Atomic      Atomic             Coordinates (Angstroms)
 Number     Number       Type             X           Y           Z
 ---------------------------------------------------------------------
      1         11           0       -0.295478   -2.845443   -0.497696
      2         11           0       -2.769729   -1.000087    0.021832
      3         11           0       -1.827915    2.582870    0.060354
      4         11           0        2.051281    2.259336   -0.102591
      5         11           0        3.013022   -1.127260   -0.086073
      6         11           0        0.062071   -0.328734    2.148297
      7         11           0       -0.233252    0.459317   -1.544123
 ---------------------------------------------------------------------

 SCF Done:  E(UB3LYP) =  -1136.13675178     A.U. after   19 cycles

 The electronic state is 2-A.
 Alpha  occ. eigenvalues --  -38.43945 -38.43907 -38.43765 -38.43685 -38.43678
 Alpha  occ. eigenvalues --  -38.43382 -38.43088  -2.19770  -2.19705  -2.19598
 Alpha  occ. eigenvalues --   -2.19572  -2.19541  -2.19255  -2.19084  -1.13475
 Alpha  occ. eigenvalues --   -1.13434  -1.13402  -1.13377  -1.13359  -1.13341
 Alpha  occ. eigenvalues --   -1.13317  -1.13285  -1.13252  -1.13235  -1.13233
 Alpha  occ. eigenvalues --   -1.13206  -1.13196  -1.13166  -1.13155  -1.12931
 Alpha  occ. eigenvalues --   -1.12905  -1.12886  -1.12761  -1.12717  -1.12709
 Alpha  occ. eigenvalues --   -0.18556  -0.12930  -0.12555  -0.10699
 Alpha virt. eigenvalues --   -0.05552  -0.05254  -0.04840  -0.03108  -0.02981
 Alpha virt. eigenvalues --   -0.02542  -0.01388  -0.01249  -0.00478  -0.00359
 Alpha virt. eigenvalues --   -0.00015   0.00355   0.00820   0.00840   0.00898

  Beta  occ. eigenvalues --  -38.43942 -38.43906 -38.43763 -38.43678 -38.43577
  Beta  occ. eigenvalues --  -38.43369 -38.43035  -2.19767  -2.19706  -2.19596
  Beta  occ. eigenvalues --   -2.19564  -2.19354  -2.19234  -2.18988  -1.13467
  Beta  occ. eigenvalues --   -1.13418  -1.13405  -1.13362  -1.13360  -1.13344
  Beta  occ. eigenvalues --   -1.13311  -1.13279  -1.13236  -1.13235  -1.13207
  Beta  occ. eigenvalues --   -1.13193  -1.13077  -1.13037  -1.13023  -1.12913
  Beta  occ. eigenvalues --   -1.12881  -1.12864  -1.12693  -1.12647  -1.12640
  Beta  occ. eigenvalues --   -0.17833  -0.12709  -0.12351
  Beta virt. eigenvalues --   -0.06755  -0.05562  -0.05201  -0.04771  -0.02326
  Beta virt. eigenvalues --   -0.02236  -0.01482  -0.01314  -0.01172  -0.00516
  Beta virt. eigenvalues --   -0.00400   0.00142   0.00387   0.00833   0.00884

 Mulliken charges and spin densities:
               1          2
     1  Na   0.094107   0.020468
     2  Na   0.336135   0.068906
     3  Na   0.172114  -0.032344
     4  Na   0.089885  -0.084654
     5  Na   0.038717  -0.042847
     6  Na  -0.587901   0.772303
     7  Na  -0.143057   0.298168
 Sum of Mulliken charges =  -0.00000   1.00000

 Dipole moment (field-independent basis, Debye):
    X=              0.1327    Y=              0.2076    Z=              0.1956  Tot=              0.3145
 Quadrupole moment (field-independent basis, Debye-Ang):
   XX=            -58.0705   YY=            -60.8645   ZZ=            -74.6884
   XY=             -0.6945   XZ=             -0.7613   YZ=              1.7464

 Normal termination of Gaussian 16 at Thu Dec  7 13:36:16 2023.
