 Gaussian 16, Revision B.01,
 Gaussian 16:  ES64L-G16RevB.01 20-Dec-2017

 -------------------------
 #P B3LYP/6-311+g(d) force
 -------------------------

 -----
 DPGEN
 -----
 Symbolic Z-matrix:
 Charge =  0 Multiplicity = 2

                         Standard orientation:
 ---------------------------------------------------------------------
 Center     Atomic      Atomic             Coordinates (Angstroms)
 Number     Number       Type             X           Y           Z
 ---------------------------------------------------------------------
      1         11           0       -3.788170   -0.538633    1.706915
      2         11           0       -1.136094    1.234838    0.684012
      3         11           0        2.735021   -0.036781    1.631002
      4         11           0       -3.934498   -0.596161   -1.713683
      5         11           0        2.020979    2.638965   -0.921631
      6         11           0        3.795261   -2.117375   -0.479144
      7         11           0        0.307501   -0.584854   -0.907471
 ---------------------------------------------------------------------

 SCF Done:  E(UB3LYP) =  -1136.10824084     A.U. after   26 cycles

 The electronic state is 2-A.
 Alpha  occ. eigenvalues --  -38.45218 -38.44727 -38.44594 -38.44453 -38.44119
 Alpha  occ. eigenvalues --  -38.43964 -38.43025  -2.21109  -2.20574  -2.20379
 Alpha  occ. eigenvalues --   -2.20228  -2.19947  -2.19879  -2.18842  -1.14924
 Alpha  occ. eigenvalues --   -1.14738  -1.14686  -1.14265  -1.14234  -1.14184
 Alpha  occ. eigenvalues --   -1.14047  -1.14030  -1.14000  -1.13909  -1.13902
 Alpha  occ. eigenvalues --   -1.13843  -1.13651  -1.13620  -1.13602  -1.13569
 Alpha  occ. eigenvalues --   -1.13528  -1.13408  -1.12512  -1.12501  -1.12487
 Alpha  occ. eigenvalues --   -0.17579  -0.14384  -0.11174  -0.10266
 Alpha virt. eigenvalues --   -0.07153  -0.06158  -0.04603  -0.03133  -0.02860
 Alpha virt. eigenvalues --   -0.02312  -0.02185  -0.01646  -0.01303  -0.00507
 Alpha virt. eigenvalues --   -0.00104  -0.00028   0.00178   0.00238   0.00508

  Beta  occ. eigenvalues --  -38.45185 -38.44710 -38.44545 -38.44459 -38.44072
  Beta  occ. eigenvalues --  -38.43933 -38.43026  -2.21050  -2.20542  -2.20287
  Beta  occ. eigenvalues --   -2.20241  -2.19862  -2.19827  -2.18846  -1.14879
  Beta  occ. eigenvalues --   -1.14691  -1.14638  -1.14242  -1.14212  -1.14161
  Beta  occ. eigenvalues --   -1.13985  -1.13957  -1.13941  -1.13913  -1.13910
  Beta  occ. eigenvalues --   -1.13851  -1.13614  -1.13554  -1.13544  -1.13506
  Beta  occ. eigenvalues --   -1.13463  -1.13369  -1.12512  -1.12501  -1.12491
  Beta  occ. eigenvalues --   -0.17091  -0.13989  -0.11127
  Beta virt. eigenvalues --   -0.06996  -0.06808  -0.05360  -0.04422  -0.02977
  Beta virt. eigenvalues --   -0.02652  -0.01997  -0.01592  -0.01483  -0.00881
  Beta virt. eigenvalues --   -0.00313  -0.00027   0.00085   0.00358   0.00400

 Mulliken charges and spin densities:
               1          2
     1  Na   0.513658   0.058057
     2  Na  -0.310445   0.535601
     3  Na   0.039659   0.021894
     4  Na   0.005793   0.195878
     5  Na   0.530591  -0.016298
     6  Na   0.366478  -0.024626
     7  Na  -1.145735   0.229494
 Sum of Mulliken charges =  -0.00000   1.00000

 Dipole moment (field-independent basis, Debye):
    X=              0.2157    Y=              0.8682    Z=             -0.2583  Tot=              0.9312
 Quadrupole moment (field-independent basis, Debye-Ang):
   XX=            -58.5327   YY=            -71.5723   ZZ=            -68.4670
   XY=              7.9760   XZ=             -1.1179   YZ=              0.1518

 Normal termination of Gaussian 16 at Tue Dec  5 16:41:39 2023.
