 Gaussian 16, Revision B.01,
 Gaussian 16:  ES64L-G16RevB.01 20-Dec-2017

 -------------------------
 #P B3LYP/6-311+g(d) force
 -------------------------

 -----
 DPGEN
 -----
 Symbolic Z-matrix:
 Charge =  0 Multiplicity = 2

                         Standard orientation:
 ---------------------------------------------------------------------
 Center     Atomic      Atomic             Coordinates (Angstroms)
 Number     Number       Type             X           Y           Z
 ---------------------------------------------------------------------
      1         11           0        2.231946   -2.261321   -0.153583
      2         11           0        2.788087    1.097072    0.291434
      3         11           0       -0.079079   -0.259431   -1.443458
      4         11           0       -0.320271    0.451521    2.005930
      5         11           0       -1.475177   -2.369550    0.003457
      6         11           0       -3.199751    0.480724   -0.031289
      7         11           0        0.054246    2.860985   -0.672492
 ---------------------------------------------------------------------

 SCF Done:  E(UB3LYP) =  -1136.13543477     A.U. after   20 cycles

 The electronic state is 2-A.
 Alpha  occ. eigenvalues --  -38.44219 -38.43847 -38.43620 -38.43503 -38.43499
 Alpha  occ. eigenvalues --  -38.43304 -38.42940  -2.20057  -2.19699  -2.19529
 Alpha  occ. eigenvalues --   -2.19401  -2.19329  -2.19168  -2.18998  -1.13726
 Alpha  occ. eigenvalues --   -1.13722  -1.13700  -1.13372  -1.13367  -1.13344
 Alpha  occ. eigenvalues --   -1.13320  -1.13181  -1.13123  -1.13075  -1.13029
 Alpha  occ. eigenvalues --   -1.13015  -1.13012  -1.12983  -1.12969  -1.12883
 Alpha  occ. eigenvalues --   -1.12810  -1.12794  -1.12672  -1.12628  -1.12590
 Alpha  occ. eigenvalues --   -0.18820  -0.13206  -0.12442  -0.10640
 Alpha virt. eigenvalues --   -0.05729  -0.05140  -0.04629  -0.03199  -0.02802
 Alpha virt. eigenvalues --   -0.02353  -0.01659  -0.01095  -0.00347  -0.00258
 Alpha virt. eigenvalues --    0.00016   0.00350   0.00795   0.00879   0.00900

  Beta  occ. eigenvalues --  -38.44216 -38.43842 -38.43613 -38.43499 -38.43414
  Beta  occ. eigenvalues --  -38.43283 -38.42881  -2.20054  -2.19691  -2.19519
  Beta  occ. eigenvalues --   -2.19332  -2.19235  -2.19134  -2.18892  -1.13726
  Beta  occ. eigenvalues --   -1.13705  -1.13691  -1.13367  -1.13345  -1.13338
  Beta  occ. eigenvalues --   -1.13304  -1.13151  -1.13118  -1.13011  -1.12978
  Beta  occ. eigenvalues --   -1.12971  -1.12967  -1.12915  -1.12892  -1.12847
  Beta  occ. eigenvalues --   -1.12774  -1.12771  -1.12595  -1.12555  -1.12514
  Beta  occ. eigenvalues --   -0.18109  -0.12980  -0.12189
  Beta virt. eigenvalues --   -0.06723  -0.05676  -0.05124  -0.04566  -0.02411
  Beta virt. eigenvalues --   -0.02099  -0.01575  -0.01319  -0.01019  -0.00351
  Beta virt. eigenvalues --   -0.00288   0.00155   0.00385   0.00832   0.00887

 Mulliken charges and spin densities:
               1          2
     1  Na   0.037734  -0.034341
     2  Na   0.190767   0.062297
     3  Na  -0.345059   0.286976
     4  Na  -0.469836   0.665435
     5  Na   0.207839   0.008495
     6  Na   0.283199  -0.016456
     7  Na   0.095356   0.027593
 Sum of Mulliken charges =  -0.00000   1.00000

 Dipole moment (field-independent basis, Debye):
    X=             -0.2570    Y=              0.0994    Z=              0.2548  Tot=              0.3753
 Quadrupole moment (field-independent basis, Debye-Ang):
   XX=            -54.6964   YY=            -62.8649   ZZ=            -75.0304
   XY=             -0.7139   XZ=              0.7621   YZ=             -1.3421

 Normal termination of Gaussian 16 at Tue Dec  5 09:57:11 2023.
