 Gaussian 16, Revision B.01,
 Gaussian 16:  ES64L-G16RevB.01 20-Dec-2017

 -------------------------
 #P B3LYP/6-311+g(d) force
 -------------------------

 -----
 DPGEN
 -----
 Symbolic Z-matrix:
 Charge =  0 Multiplicity = 2

                         Standard orientation:
 ---------------------------------------------------------------------
 Center     Atomic      Atomic             Coordinates (Angstroms)
 Number     Number       Type             X           Y           Z
 ---------------------------------------------------------------------
      1         11           0       -1.227223    3.133568    0.457631
      2         11           0       -3.965767    0.762072    0.741246
      3         11           0       -3.014674   -1.282805   -1.340363
      4         11           0        0.232210   -3.414989   -0.653855
      5         11           0        1.512731   -2.414903    1.765843
      6         11           0        2.280805    3.159641   -0.525807
      7         11           0        4.181919    0.057417   -0.444696
 ---------------------------------------------------------------------

 SCF Done:  E(UB3LYP) =  -1136.10412126     A.U. after   22 cycles

 The electronic state is 2-A.
 Alpha  occ. eigenvalues --  -38.44949 -38.44602 -38.44580 -38.44483 -38.44472
 Alpha  occ. eigenvalues --  -38.44265 -38.43850  -2.20768  -2.20407  -2.20400
 Alpha  occ. eigenvalues --   -2.20284  -2.20254  -2.20004  -2.19636  -1.14529
 Alpha  occ. eigenvalues --   -1.14406  -1.14389  -1.14152  -1.14071  -1.14052
 Alpha  occ. eigenvalues --   -1.14047  -1.14040  -1.14027  -1.13929  -1.13914
 Alpha  occ. eigenvalues --   -1.13913  -1.13890  -1.13888  -1.13873  -1.13699
 Alpha  occ. eigenvalues --   -1.13683  -1.13646  -1.13299  -1.13285  -1.13247
 Alpha  occ. eigenvalues --   -0.15658  -0.13718  -0.13148  -0.10440
 Alpha virt. eigenvalues --   -0.07443  -0.05263  -0.04396  -0.03688  -0.03247
 Alpha virt. eigenvalues --   -0.02532  -0.01936  -0.01529  -0.01247  -0.01069
 Alpha virt. eigenvalues --   -0.00645  -0.00048   0.00154   0.00323   0.00559

  Beta  occ. eigenvalues --  -38.44922 -38.44608 -38.44572 -38.44421 -38.44402
  Beta  occ. eigenvalues --  -38.44281 -38.43776  -2.20719  -2.20423  -2.20388
  Beta  occ. eigenvalues --   -2.20191  -2.20105  -2.20040  -2.19499  -1.14493
  Beta  occ. eigenvalues --   -1.14374  -1.14353  -1.14138  -1.14086  -1.14048
  Beta  occ. eigenvalues --   -1.14034  -1.14033  -1.14008  -1.13865  -1.13853
  Beta  occ. eigenvalues --   -1.13837  -1.13812  -1.13789  -1.13770  -1.13728
  Beta  occ. eigenvalues --   -1.13711  -1.13632  -1.13205  -1.13193  -1.13161
  Beta  occ. eigenvalues --   -0.15226  -0.13139  -0.12463
  Beta virt. eigenvalues --   -0.07436  -0.07209  -0.04846  -0.04219  -0.03440
  Beta virt. eigenvalues --   -0.02864  -0.02179  -0.01568  -0.01352  -0.01162
  Beta virt. eigenvalues --   -0.00980  -0.00287   0.00113   0.00245   0.00450

 Mulliken charges and spin densities:
               1          2
     1  Na  -0.231946   0.359720
     2  Na   0.393818  -0.037501
     3  Na  -0.396817   0.227192
     4  Na   0.307513   0.019859
     5  Na  -0.191772   0.135784
     6  Na   0.306022  -0.101384
     7  Na  -0.186819   0.396331
 Sum of Mulliken charges =  -0.00000   1.00000

 Dipole moment (field-independent basis, Debye):
    X=             -0.3213    Y=             -1.2425    Z=              0.2846  Tot=              1.3146
 Quadrupole moment (field-independent basis, Debye-Ang):
   XX=            -68.9604   YY=            -71.3527   ZZ=            -64.4136
   XY=             -3.2343   XZ=             -1.0195   YZ=              2.4424

 Normal termination of Gaussian 16 at Sun Dec  3 18:16:11 2023.
