 Gaussian 16, Revision B.01,
 Gaussian 16:  ES64L-G16RevB.01 20-Dec-2017

 -------------------------
 #P B3LYP/6-311+g(d) force
 -------------------------

 -----
 DPGEN
 -----
 Symbolic Z-matrix:
 Charge =  0 Multiplicity = 2

                         Standard orientation:
 ---------------------------------------------------------------------
 Center     Atomic      Atomic             Coordinates (Angstroms)
 Number     Number       Type             X           Y           Z
 ---------------------------------------------------------------------
      1         11           0       -0.254521    0.832450    0.938829
      2         11           0        6.585974    0.157053    0.900456
      3         11           0        4.060280    0.163204   -0.854234
      4         11           0        1.007884   -2.241234   -0.494439
      5         11           0       -2.869606   -1.017701   -0.648481
      6         11           0       -2.351203    2.839206   -0.681917
      7         11           0       -6.178808   -0.732978    0.839786
 ---------------------------------------------------------------------

 SCF Done:  E(UB3LYP) =  -1136.10652266     A.U. after   23 cycles

 The electronic state is 2-A.
 Alpha  occ. eigenvalues --  -38.45649 -38.45059 -38.44702 -38.44337 -38.44226
 Alpha  occ. eigenvalues --  -38.43518 -38.43471  -2.21456  -2.20876  -2.20492
 Alpha  occ. eigenvalues --   -2.20093  -2.20013  -2.19324  -2.19259  -1.15109
 Alpha  occ. eigenvalues --   -1.15098  -1.15059  -1.14565  -1.14546  -1.14498
 Alpha  occ. eigenvalues --   -1.14203  -1.14170  -1.14086  -1.13751  -1.13746
 Alpha  occ. eigenvalues --   -1.13710  -1.13683  -1.13659  -1.13637  -1.13064
 Alpha  occ. eigenvalues --   -1.13001  -1.12975  -1.12912  -1.12910  -1.12844
 Alpha  occ. eigenvalues --   -0.16565  -0.13459  -0.12051  -0.11388
 Alpha virt. eigenvalues --   -0.06452  -0.06028  -0.04633  -0.03368  -0.02971
 Alpha virt. eigenvalues --   -0.02704  -0.02138  -0.01744  -0.01231  -0.00865
 Alpha virt. eigenvalues --   -0.00768  -0.00521  -0.00047   0.00356   0.00460

  Beta  occ. eigenvalues --  -38.45555 -38.45047 -38.44686 -38.44285 -38.44188
  Beta  occ. eigenvalues --  -38.43516 -38.43475  -2.21282  -2.20859  -2.20464
  Beta  occ. eigenvalues --   -2.19998  -2.19943  -2.19321  -2.19267  -1.14985
  Beta  occ. eigenvalues --   -1.14977  -1.14945  -1.14552  -1.14540  -1.14452
  Beta  occ. eigenvalues --   -1.14186  -1.14144  -1.14059  -1.13687  -1.13680
  Beta  occ. eigenvalues --   -1.13646  -1.13636  -1.13610  -1.13590  -1.13065
  Beta  occ. eigenvalues --   -1.12998  -1.12974  -1.12918  -1.12916  -1.12848
  Beta  occ. eigenvalues --   -0.15892  -0.13220  -0.10917
  Beta virt. eigenvalues --   -0.08439  -0.06108  -0.05730  -0.04320  -0.03111
  Beta virt. eigenvalues --   -0.02598  -0.02412  -0.01751  -0.01373  -0.01140
  Beta virt. eigenvalues --   -0.00703  -0.00507  -0.00391   0.00155   0.00397

 Mulliken charges and spin densities:
               1          2
     1  Na  -0.409718   0.215085
     2  Na   0.177421  -0.023155
     3  Na  -0.348849  -0.030801
     4  Na   0.221216   0.195009
     5  Na  -0.219887   0.243422
     6  Na   0.349320   0.271899
     7  Na   0.230498   0.128541
 Sum of Mulliken charges =  -0.00000   1.00000

 Dipole moment (field-independent basis, Debye):
    X=             -1.2724    Y=              0.7446    Z=              0.1048  Tot=              1.4779
 Quadrupole moment (field-independent basis, Debye-Ang):
   XX=            -75.5642   YY=            -65.3620   ZZ=            -66.5134
   XY=             -5.3455   XZ=              2.8523   YZ=              0.0071

 Normal termination of Gaussian 16 at Wed Nov 29 00:55:47 2023.
