 Gaussian 16, Revision B.01,
 Gaussian 16:  ES64L-G16RevB.01 20-Dec-2017

 -------------------------
 #P B3LYP/6-311+g(d) force
 -------------------------

 -----
 DPGEN
 -----
 Symbolic Z-matrix:
 Charge =  0 Multiplicity = 2

                         Standard orientation:
 ---------------------------------------------------------------------
 Center     Atomic      Atomic             Coordinates (Angstroms)
 Number     Number       Type             X           Y           Z
 ---------------------------------------------------------------------
      1         11           0       -1.359532    3.047905    0.940709
      2         11           0        4.141406    0.695528   -0.635183
      3         11           0        0.233570   -2.950034   -0.375395
      4         11           0        1.712394    2.750353   -0.517912
      5         11           0        2.900699   -2.289302    1.061881
      6         11           0       -3.530115   -2.213731   -0.244994
      7         11           0       -4.098423    0.959282   -0.229106
 ---------------------------------------------------------------------

 SCF Done:  E(UB3LYP) =  -1136.11045530     A.U. after   22 cycles

 The electronic state is 2-A.
 Alpha  occ. eigenvalues --  -38.45124 -38.44657 -38.44637 -38.44387 -38.44269
 Alpha  occ. eigenvalues --  -38.44207 -38.43713  -2.20904  -2.20470  -2.20430
 Alpha  occ. eigenvalues --   -2.20187  -2.20097  -2.20010  -2.19518  -1.14580
 Alpha  occ. eigenvalues --   -1.14576  -1.14551  -1.14224  -1.14128  -1.14108
 Alpha  occ. eigenvalues --   -1.14085  -1.14079  -1.14015  -1.13898  -1.13863
 Alpha  occ. eigenvalues --   -1.13854  -1.13742  -1.13718  -1.13710  -1.13664
 Alpha  occ. eigenvalues --   -1.13662  -1.13646  -1.13167  -1.13163  -1.13149
 Alpha  occ. eigenvalues --   -0.15847  -0.14136  -0.13345  -0.10770
 Alpha virt. eigenvalues --   -0.07507  -0.04786  -0.04315  -0.03666  -0.03407
 Alpha virt. eigenvalues --   -0.02552  -0.02255  -0.01641  -0.01039  -0.00868
 Alpha virt. eigenvalues --   -0.00513  -0.00199   0.00177   0.00490   0.00688

  Beta  occ. eigenvalues --  -38.45115 -38.44633 -38.44614 -38.44378 -38.44203
  Beta  occ. eigenvalues --  -38.44164 -38.43649  -2.20893  -2.20431  -2.20391
  Beta  occ. eigenvalues --   -2.20178  -2.19976  -2.19932  -2.19399  -1.14578
  Beta  occ. eigenvalues --   -1.14569  -1.14509  -1.14180  -1.14104  -1.14079
  Beta  occ. eigenvalues --   -1.14060  -1.14055  -1.13971  -1.13868  -1.13864
  Beta  occ. eigenvalues --   -1.13818  -1.13661  -1.13644  -1.13626  -1.13612
  Beta  occ. eigenvalues --   -1.13609  -1.13590  -1.13086  -1.13084  -1.13071
  Beta  occ. eigenvalues --   -0.15322  -0.13393  -0.12564
  Beta virt. eigenvalues --   -0.07685  -0.07632  -0.04441  -0.03764  -0.03464
  Beta virt. eigenvalues --   -0.03017  -0.02285  -0.02115  -0.01422  -0.00878
  Beta virt. eigenvalues --   -0.00530  -0.00276  -0.00009   0.00311   0.00522

 Mulliken charges and spin densities:
               1          2
     1  Na   0.008358   0.279897
     2  Na   0.298116   0.261115
     3  Na  -0.550486   0.059653
     4  Na  -0.240652   0.053156
     5  Na   0.306950   0.075196
     6  Na   0.219785   0.210403
     7  Na  -0.042070   0.060581
 Sum of Mulliken charges =  -0.00000   1.00000

 Dipole moment (field-independent basis, Debye):
    X=              0.1022    Y=             -0.6010    Z=              0.0622  Tot=              0.6128
 Quadrupole moment (field-independent basis, Debye-Ang):
   XX=            -59.6037   YY=            -71.0063   ZZ=            -70.2936
   XY=             -3.9732   XZ=              2.0383   YZ=             -0.3137

 Normal termination of Gaussian 16 at Sun Dec  3 23:31:48 2023.
