 Gaussian 16, Revision B.01,
 Gaussian 16:  ES64L-G16RevB.01 20-Dec-2017

 -------------------------
 #P B3LYP/6-311+g(d) force
 -------------------------

 -----
 DPGEN
 -----
 Symbolic Z-matrix:
 Charge =  0 Multiplicity = 2

                         Standard orientation:
 ---------------------------------------------------------------------
 Center     Atomic      Atomic             Coordinates (Angstroms)
 Number     Number       Type             X           Y           Z
 ---------------------------------------------------------------------
      1         11           0       -1.416170    3.494054   -0.625165
      2         11           0       -3.962506    0.992049   -0.299138
      3         11           0        6.051775   -0.010023   -0.345031
      4         11           0       -3.520445   -2.802230    0.088328
      5         11           0        0.176278    0.970792    1.738908
      6         11           0        3.101877   -0.632870   -0.061865
      7         11           0       -0.430809   -2.011771   -0.496036
 ---------------------------------------------------------------------

 SCF Done:  E(UB3LYP) =  -1136.11560444     A.U. after   21 cycles

 The electronic state is 2-A.
 Alpha  occ. eigenvalues --  -38.45401 -38.45018 -38.44498 -38.44202 -38.43948
 Alpha  occ. eigenvalues --  -38.43567 -38.43455  -2.21170  -2.20782  -2.20333
 Alpha  occ. eigenvalues --   -2.20010  -2.19708  -2.19367  -2.19284  -1.14843
 Alpha  occ. eigenvalues --   -1.14831  -1.14772  -1.14471  -1.14435  -1.14381
 Alpha  occ. eigenvalues --   -1.14002  -1.13952  -1.13951  -1.13697  -1.13680
 Alpha  occ. eigenvalues --   -1.13635  -1.13386  -1.13367  -1.13348  -1.13029
 Alpha  occ. eigenvalues --   -1.13024  -1.13008  -1.12967  -1.12956  -1.12943
 Alpha  occ. eigenvalues --   -0.16325  -0.13889  -0.12030  -0.11505
 Alpha virt. eigenvalues --   -0.06269  -0.05834  -0.04441  -0.03653  -0.02808
 Alpha virt. eigenvalues --   -0.02274  -0.02064  -0.01751  -0.01346  -0.01212
 Alpha virt. eigenvalues --   -0.00375  -0.00077   0.00211   0.00403   0.00579

  Beta  occ. eigenvalues --  -38.45351 -38.44967 -38.44406 -38.44183 -38.43950
  Beta  occ. eigenvalues --  -38.43560 -38.43454  -2.21078  -2.20687  -2.20161
  Beta  occ. eigenvalues --   -2.19976  -2.19714  -2.19354  -2.19293  -1.14783
  Beta  occ. eigenvalues --   -1.14766  -1.14704  -1.14407  -1.14374  -1.14309
  Beta  occ. eigenvalues --   -1.13889  -1.13835  -1.13834  -1.13676  -1.13659
  Beta  occ. eigenvalues --   -1.13600  -1.13391  -1.13362  -1.13353  -1.13021
  Beta  occ. eigenvalues --   -1.13017  -1.12994  -1.12978  -1.12969  -1.12884
  Beta  occ. eigenvalues --   -0.15662  -0.12939  -0.12025
  Beta virt. eigenvalues --   -0.08187  -0.05896  -0.05401  -0.04059  -0.03451
  Beta virt. eigenvalues --   -0.02561  -0.02161  -0.01684  -0.01357  -0.01132
  Beta virt. eigenvalues --   -0.00861  -0.00226   0.00053   0.00352   0.00515

 Mulliken charges and spin densities:
               1          2
     1  Na   0.144839  -0.067059
     2  Na  -0.136176   0.374131
     3  Na  -0.294392   0.203855
     4  Na   0.931956   0.130307
     5  Na  -0.206858   0.144748
     6  Na  -0.270627   0.735659
     7  Na  -0.168742  -0.521642
 Sum of Mulliken charges =  -0.00000   1.00000

 Dipole moment (field-independent basis, Debye):
    X=             -0.1943    Y=              0.6278    Z=              0.3425  Tot=              0.7411
 Quadrupole moment (field-independent basis, Debye-Ang):
   XX=            -60.2493   YY=            -69.9062   ZZ=            -67.9861
   XY=              3.6408   XZ=             -1.3425   YZ=             -1.3266

 Normal termination of Gaussian 16 at Sun Dec  3 17:11:37 2023.
