 Gaussian 16, Revision B.01,
 Gaussian 16:  ES64L-G16RevB.01 20-Dec-2017

 -------------------------
 #P B3LYP/6-311+g(d) force
 -------------------------

 -----
 DPGEN
 -----
 Symbolic Z-matrix:
 Charge =  0 Multiplicity = 2

                         Standard orientation:
 ---------------------------------------------------------------------
 Center     Atomic      Atomic             Coordinates (Angstroms)
 Number     Number       Type             X           Y           Z
 ---------------------------------------------------------------------
      1         11           0       -2.728272   -2.621115    1.145956
      2         11           0       -0.085599   -0.926692   -0.366266
      3         11           0       -3.785626   -0.117540   -0.590337
      4         11           0       -1.812916    2.898359   -0.779914
      5         11           0        0.950212    1.927301    1.011269
      6         11           0        3.759349    0.782328    0.766632
      7         11           0        3.702851   -1.942640   -1.187340
 ---------------------------------------------------------------------

 SCF Done:  E(UB3LYP) =  -1136.11693989     A.U. after   22 cycles

 The electronic state is 2-A.
 Alpha  occ. eigenvalues --  -38.45631 -38.45083 -38.44979 -38.43733 -38.43675
 Alpha  occ. eigenvalues --  -38.43323 -38.43130  -2.21427  -2.20903  -2.20822
 Alpha  occ. eigenvalues --   -2.19568  -2.19493  -2.19226  -2.18941  -1.15160
 Alpha  occ. eigenvalues --   -1.15101  -1.15020  -1.14595  -1.14558  -1.14533
 Alpha  occ. eigenvalues --   -1.14531  -1.14485  -1.14448  -1.13232  -1.13218
 Alpha  occ. eigenvalues --   -1.13199  -1.13142  -1.13136  -1.13110  -1.12904
 Alpha  occ. eigenvalues --   -1.12886  -1.12848  -1.12613  -1.12593  -1.12578
 Alpha  occ. eigenvalues --   -0.17124  -0.14471  -0.12237  -0.10469
 Alpha virt. eigenvalues --   -0.07269  -0.05277  -0.04074  -0.03720  -0.03223
 Alpha virt. eigenvalues --   -0.02963  -0.01720  -0.01417  -0.00615  -0.00537
 Alpha virt. eigenvalues --   -0.00455  -0.00200   0.00108   0.00566   0.00650

  Beta  occ. eigenvalues --  -38.45627 -38.45067 -38.44964 -38.43707 -38.43595
  Beta  occ. eigenvalues --  -38.43284 -38.43109  -2.21421  -2.20876  -2.20802
  Beta  occ. eigenvalues --   -2.19518  -2.19344  -2.19155  -2.18903  -1.15142
  Beta  occ. eigenvalues --   -1.15100  -1.15018  -1.14578  -1.14544  -1.14492
  Beta  occ. eigenvalues --   -1.14489  -1.14474  -1.14416  -1.13200  -1.13182
  Beta  occ. eigenvalues --   -1.13166  -1.13041  -1.13034  -1.13014  -1.12859
  Beta  occ. eigenvalues --   -1.12838  -1.12798  -1.12587  -1.12564  -1.12549
  Beta  occ. eigenvalues --   -0.16783  -0.13917  -0.11762
  Beta virt. eigenvalues --   -0.07119  -0.07037  -0.04950  -0.03873  -0.03364
  Beta virt. eigenvalues --   -0.02884  -0.02628  -0.01475  -0.01114  -0.00455
  Beta virt. eigenvalues --   -0.00277  -0.00164  -0.00033   0.00321   0.00653

 Mulliken charges and spin densities:
               1          2
     1  Na   0.716465   0.085008
     2  Na  -2.055016   0.054676
     3  Na   0.556875   0.123172
     4  Na   0.246878   0.166168
     5  Na   0.191058   0.165597
     6  Na   0.099511  -0.028633
     7  Na   0.244229   0.434011
 Sum of Mulliken charges =  -0.00000   1.00000

 Dipole moment (field-independent basis, Debye):
    X=             -0.5381    Y=             -0.2181    Z=              0.4010  Tot=              0.7056
 Quadrupole moment (field-independent basis, Debye-Ang):
   XX=            -56.7482   YY=            -71.6667   ZZ=            -70.6107
   XY=              4.7606   XZ=              2.4310   YZ=             -0.8046

 Normal termination of Gaussian 16 at Fri Dec  8 18:44:07 2023.
