 Gaussian 16, Revision B.01,
 Gaussian 16:  ES64L-G16RevB.01 20-Dec-2017

 -------------------------
 #P B3LYP/6-311+g(d) force
 -------------------------

 -----
 DPGEN
 -----
 Symbolic Z-matrix:
 Charge =  0 Multiplicity = 2

                         Standard orientation:
 ---------------------------------------------------------------------
 Center     Atomic      Atomic             Coordinates (Angstroms)
 Number     Number       Type             X           Y           Z
 ---------------------------------------------------------------------
      1         11           0        2.623759   -0.261583   -0.382284
      2         11           0        3.170405    3.039179    0.193092
      3         11           0       -3.786308    0.638346    0.085369
      4         11           0        5.237999   -2.565385   -0.102681
      5         11           0       -6.252044   -1.024105   -0.264024
      6         11           0       -0.304790    1.619315   -0.194078
      7         11           0       -0.689021   -1.445767    0.664607
 ---------------------------------------------------------------------

 SCF Done:  E(UB3LYP) =  -1136.11030546     A.U. after   24 cycles

 The electronic state is 2-A.
 Alpha  occ. eigenvalues --  -38.45984 -38.45728 -38.44101 -38.43884 -38.43727
 Alpha  occ. eigenvalues --  -38.43619 -38.43243  -2.21813  -2.21535  -2.19966
 Alpha  occ. eigenvalues --   -2.19704  -2.19581  -2.19369  -2.19104  -1.15469
 Alpha  occ. eigenvalues --   -1.15458  -1.15421  -1.15175  -1.15169  -1.15142
 Alpha  occ. eigenvalues --   -1.13662  -1.13649  -1.13594  -1.13464  -1.13341
 Alpha  occ. eigenvalues --   -1.13340  -1.13252  -1.13238  -1.13163  -1.13035
 Alpha  occ. eigenvalues --   -1.13032  -1.13009  -1.12812  -1.12803  -1.12705
 Alpha  occ. eigenvalues --   -0.17237  -0.14199  -0.11999  -0.11296
 Alpha virt. eigenvalues --   -0.06865  -0.05700  -0.04252  -0.03991  -0.03018
 Alpha virt. eigenvalues --   -0.02641  -0.01799  -0.01474  -0.01436  -0.00980
 Alpha virt. eigenvalues --   -0.00567  -0.00337   0.00020   0.00361   0.00539

  Beta  occ. eigenvalues --  -38.45916 -38.45623 -38.44104 -38.43850 -38.43726
  Beta  occ. eigenvalues --  -38.43610 -38.43236  -2.21686  -2.21340  -2.19978
  Beta  occ. eigenvalues --   -2.19643  -2.19582  -2.19353  -2.19096  -1.15382
  Beta  occ. eigenvalues --   -1.15373  -1.15332  -1.15043  -1.15038  -1.15008
  Beta  occ. eigenvalues --   -1.13670  -1.13660  -1.13573  -1.13431  -1.13303
  Beta  occ. eigenvalues --   -1.13299  -1.13252  -1.13236  -1.13139  -1.13025
  Beta  occ. eigenvalues --   -1.13021  -1.12998  -1.12803  -1.12769  -1.12704
  Beta  occ. eigenvalues --   -0.16603  -0.13562  -0.10909
  Beta virt. eigenvalues --   -0.08651  -0.06551  -0.05142  -0.03995  -0.03690
  Beta virt. eigenvalues --   -0.02558  -0.02383  -0.01449  -0.01361  -0.01110
  Beta virt. eigenvalues --   -0.00788  -0.00252  -0.00184   0.00160   0.00438

 Mulliken charges and spin densities:
               1          2
     1  Na  -1.514315   0.136343
     2  Na   1.474081   0.295382
     3  Na  -0.772645   0.236443
     4  Na  -0.308916  -0.032531
     5  Na   0.895084  -0.032333
     6  Na  -0.022957   0.156470
     7  Na   0.249668   0.240226
 Sum of Mulliken charges =  -0.00000   1.00000

 Dipole moment (field-independent basis, Debye):
    X=             -0.1450    Y=              0.7624    Z=              0.6345  Tot=              1.0024
 Quadrupole moment (field-independent basis, Debye-Ang):
   XX=            -73.2574   YY=            -59.0810   ZZ=            -73.2959
   XY=              9.0182   XZ=              2.0435   YZ=             -1.4102

 Normal termination of Gaussian 16 at Wed Nov 29 03:47:58 2023.
