 Gaussian 16, Revision B.01,
 Gaussian 16:  ES64L-G16RevB.01 20-Dec-2017

 -------------------------
 #P B3LYP/6-311+g(d) force
 -------------------------

 -----
 DPGEN
 -----
 Symbolic Z-matrix:
 Charge =  0 Multiplicity = 2

                         Standard orientation:
 ---------------------------------------------------------------------
 Center     Atomic      Atomic             Coordinates (Angstroms)
 Number     Number       Type             X           Y           Z
 ---------------------------------------------------------------------
      1         11           0       -0.277961   -0.204326   -1.698793
      2         11           0        3.117348    0.935996   -0.202014
      3         11           0       -2.113322   -2.219671    0.226217
      4         11           0        0.155810   -0.318847    1.763245
      5         11           0        1.868087   -2.381820   -0.152773
      6         11           0       -2.902383    1.245517   -0.208363
      7         11           0        0.152420    2.943150    0.272480
 ---------------------------------------------------------------------

 SCF Done:  E(UB3LYP) =  -1136.13880569     A.U. after   19 cycles

 The electronic state is 2-A.
 Alpha  occ. eigenvalues --  -38.44153 -38.43942 -38.43800 -38.43744 -38.43290
 Alpha  occ. eigenvalues --  -38.43164 -38.43093  -2.19956  -2.19777  -2.19652
 Alpha  occ. eigenvalues --   -2.19594  -2.19120  -2.19115  -2.19041  -1.13630
 Alpha  occ. eigenvalues --   -1.13611  -1.13604  -1.13462  -1.13434  -1.13419
 Alpha  occ. eigenvalues --   -1.13335  -1.13327  -1.13283  -1.13274  -1.13269
 Alpha  occ. eigenvalues --   -1.13213  -1.12820  -1.12796  -1.12785  -1.12753
 Alpha  occ. eigenvalues --   -1.12742  -1.12738  -1.12714  -1.12667  -1.12654
 Alpha  occ. eigenvalues --   -0.18607  -0.13083  -0.12471  -0.10398
 Alpha virt. eigenvalues --   -0.05656  -0.05499  -0.04726  -0.03092  -0.02775
 Alpha virt. eigenvalues --   -0.02212  -0.01612  -0.01300  -0.00508  -0.00439
 Alpha virt. eigenvalues --    0.00018   0.00350   0.00785   0.00828   0.00874

  Beta  occ. eigenvalues --  -38.44151 -38.43937 -38.43791 -38.43736 -38.43285
  Beta  occ. eigenvalues --  -38.43095 -38.43013  -2.19954  -2.19770  -2.19640
  Beta  occ. eigenvalues --   -2.19584  -2.19109  -2.18991  -2.18895  -1.13618
  Beta  occ. eigenvalues --   -1.13611  -1.13599  -1.13450  -1.13421  -1.13414
  Beta  occ. eigenvalues --   -1.13328  -1.13291  -1.13277  -1.13266  -1.13239
  Beta  occ. eigenvalues --   -1.13206  -1.12790  -1.12766  -1.12750  -1.12725
  Beta  occ. eigenvalues --   -1.12655  -1.12643  -1.12616  -1.12565  -1.12545
  Beta  occ. eigenvalues --   -0.17900  -0.12840  -0.12224
  Beta virt. eigenvalues --   -0.06541  -0.05635  -0.05465  -0.04680  -0.02330
  Beta virt. eigenvalues --   -0.02026  -0.01517  -0.01241  -0.01193  -0.00572
  Beta virt. eigenvalues --   -0.00462   0.00153   0.00382   0.00821   0.00846

 Mulliken charges and spin densities:
               1          2
     1  Na  -0.207198   0.645071
     2  Na  -0.066251  -0.051365
     3  Na   0.231410  -0.111829
     4  Na  -0.193959   0.740026
     5  Na   0.190891  -0.099945
     6  Na   0.095258  -0.042557
     7  Na  -0.050151  -0.079401
 Sum of Mulliken charges =  -0.00000   1.00000

 Dipole moment (field-independent basis, Debye):
    X=              0.0311    Y=             -0.1634    Z=             -0.0287  Tot=              0.1688
 Quadrupole moment (field-independent basis, Debye-Ang):
   XX=            -54.4624   YY=            -61.4482   ZZ=            -76.2112
   XY=              0.2353   XZ=             -0.9589   YZ=              0.1510

 Normal termination of Gaussian 16 at Thu Dec  7 11:35:52 2023.
