 Gaussian 16, Revision B.01,
 Gaussian 16:  ES64L-G16RevB.01 20-Dec-2017

 -------------------------
 #P B3LYP/6-311+g(d) force
 -------------------------

 -----
 DPGEN
 -----
 Symbolic Z-matrix:
 Charge =  0 Multiplicity = 2

                         Standard orientation:
 ---------------------------------------------------------------------
 Center     Atomic      Atomic             Coordinates (Angstroms)
 Number     Number       Type             X           Y           Z
 ---------------------------------------------------------------------
      1         11           0       -4.006138    0.951461    0.670195
      2         11           0        0.214516   -0.029143    2.011387
      3         11           0       -2.166386   -1.863101   -0.359373
      4         11           0        1.246284   -2.010075   -1.035632
      5         11           0        1.887412    2.358921   -0.801955
      6         11           0       -0.986028    0.921713   -1.277167
      7         11           0        3.810340   -0.329776    0.792545
 ---------------------------------------------------------------------

 SCF Done:  E(UB3LYP) =  -1136.12051999     A.U. after   26 cycles

 The electronic state is 2-A.
 Alpha  occ. eigenvalues --  -38.46045 -38.45119 -38.44751 -38.43457 -38.43274
 Alpha  occ. eigenvalues --  -38.43063 -38.42834  -2.21823  -2.20908  -2.20539
 Alpha  occ. eigenvalues --   -2.19339  -2.19216  -2.18888  -2.18674  -1.15515
 Alpha  occ. eigenvalues --   -1.15466  -1.15437  -1.14581  -1.14550  -1.14536
 Alpha  occ. eigenvalues --   -1.14201  -1.14199  -1.14164  -1.13084  -1.13009
 Alpha  occ. eigenvalues --   -1.12945  -1.12913  -1.12847  -1.12839  -1.12563
 Alpha  occ. eigenvalues --   -1.12543  -1.12513  -1.12353  -1.12335  -1.12313
 Alpha  occ. eigenvalues --   -0.18084  -0.13926  -0.11156  -0.10940
 Alpha virt. eigenvalues --   -0.07375  -0.05092  -0.04570  -0.03226  -0.02936
 Alpha virt. eigenvalues --   -0.02438  -0.02257  -0.01289  -0.01055  -0.00299
 Alpha virt. eigenvalues --   -0.00027   0.00140   0.00239   0.00648   0.00702

  Beta  occ. eigenvalues --  -38.46006 -38.45093 -38.44723 -38.43448 -38.43220
  Beta  occ. eigenvalues --  -38.43035 -38.42820  -2.21748  -2.20858  -2.20486
  Beta  occ. eigenvalues --   -2.19326  -2.19121  -2.18841  -2.18652  -1.15457
  Beta  occ. eigenvalues --   -1.15420  -1.15378  -1.14543  -1.14516  -1.14505
  Beta  occ. eigenvalues --   -1.14165  -1.14160  -1.14130  -1.13064  -1.13000
  Beta  occ. eigenvalues --   -1.12920  -1.12855  -1.12778  -1.12755  -1.12520
  Beta  occ. eigenvalues --   -1.12512  -1.12476  -1.12335  -1.12316  -1.12286
  Beta  occ. eigenvalues --   -0.17444  -0.13621  -0.10727
  Beta virt. eigenvalues --   -0.07467  -0.07000  -0.05092  -0.04070  -0.02909
  Beta virt. eigenvalues --   -0.02640  -0.01905  -0.01582  -0.01170  -0.00778
  Beta virt. eigenvalues --   -0.00222   0.00035   0.00163   0.00391   0.00721

 Mulliken charges and spin densities:
               1          2
     1  Na   0.373921   0.175023
     2  Na  -0.380320   0.284835
     3  Na   0.514492   0.053867
     4  Na  -0.339764  -0.043636
     5  Na  -0.232709  -0.021859
     6  Na  -0.388091   0.295103
     7  Na   0.452472   0.256666
 Sum of Mulliken charges =  -0.00000   1.00000

 Dipole moment (field-independent basis, Debye):
    X=             -0.0022    Y=             -0.2638    Z=              0.8985  Tot=              0.9365
 Quadrupole moment (field-independent basis, Debye-Ang):
   XX=            -48.1066   YY=            -77.4169   ZZ=            -69.2480
   XY=             -0.7799   XZ=             -1.1651   YZ=              1.0212

 Normal termination of Gaussian 16 at Fri Dec  8 04:09:39 2023.
