 Gaussian 16, Revision B.01,
 Gaussian 16:  ES64L-G16RevB.01 20-Dec-2017

 -------------------------
 #P B3LYP/6-311+g(d) force
 -------------------------

 -----
 DPGEN
 -----
 Symbolic Z-matrix:
 Charge =  0 Multiplicity = 2

                         Standard orientation:
 ---------------------------------------------------------------------
 Center     Atomic      Atomic             Coordinates (Angstroms)
 Number     Number       Type             X           Y           Z
 ---------------------------------------------------------------------
      1         11           0        3.894334    0.029090   -0.972862
      2         11           0        0.254422   -0.405408   -1.606210
      3         11           0        1.799069   -1.890218    0.976896
      4         11           0       -1.633056    2.011021   -0.075407
      5         11           0        1.279273    1.835327    1.077452
      6         11           0       -1.827387   -0.837374    1.649479
      7         11           0       -3.766655   -0.742438   -1.049349
 ---------------------------------------------------------------------

 SCF Done:  E(UB3LYP) =  -1136.12351814     A.U. after   25 cycles

 The electronic state is 2-A.
 Alpha  occ. eigenvalues --  -38.45167 -38.45064 -38.44244 -38.44062 -38.43897
 Alpha  occ. eigenvalues --  -38.42696 -38.42419  -2.21017  -2.20864  -2.20110
 Alpha  occ. eigenvalues --   -2.19874  -2.19751  -2.18618  -2.18297  -1.14734
 Alpha  occ. eigenvalues --   -1.14677  -1.14622  -1.14535  -1.14512  -1.14486
 Alpha  occ. eigenvalues --   -1.13783  -1.13773  -1.13742  -1.13537  -1.13532
 Alpha  occ. eigenvalues --   -1.13504  -1.13444  -1.13407  -1.13358  -1.12319
 Alpha  occ. eigenvalues --   -1.12300  -1.12242  -1.11966  -1.11955  -1.11925
 Alpha  occ. eigenvalues --   -0.18388  -0.14166  -0.11209  -0.10793
 Alpha virt. eigenvalues --   -0.07049  -0.05160  -0.04736  -0.03092  -0.02922
 Alpha virt. eigenvalues --   -0.02341  -0.02217  -0.01322  -0.00803  -0.00231
 Alpha virt. eigenvalues --    0.00046   0.00235   0.00331   0.00638   0.00721

  Beta  occ. eigenvalues --  -38.45136 -38.45041 -38.44197 -38.44051 -38.43854
  Beta  occ. eigenvalues --  -38.42689 -38.42410  -2.20963  -2.20821  -2.20025
  Beta  occ. eigenvalues --   -2.19853  -2.19674  -2.18606  -2.18281  -1.14680
  Beta  occ. eigenvalues --   -1.14641  -1.14580  -1.14502  -1.14481  -1.14459
  Beta  occ. eigenvalues --   -1.13730  -1.13702  -1.13677  -1.13522  -1.13512
  Beta  occ. eigenvalues --   -1.13488  -1.13394  -1.13353  -1.13282  -1.12316
  Beta  occ. eigenvalues --   -1.12277  -1.12231  -1.11959  -1.11929  -1.11913
  Beta  occ. eigenvalues --   -0.17688  -0.13985  -0.10673
  Beta virt. eigenvalues --   -0.07360  -0.06796  -0.04674  -0.04516  -0.02870
  Beta virt. eigenvalues --   -0.02614  -0.01828  -0.01559  -0.00980  -0.00619
  Beta virt. eigenvalues --   -0.00146   0.00085   0.00340   0.00372   0.00757

 Mulliken charges and spin densities:
               1          2
     1  Na   0.715880   0.086838
     2  Na  -0.703499   0.241559
     3  Na  -0.014437   0.187198
     4  Na   0.266701   0.122314
     5  Na  -0.472473   0.132812
     6  Na  -0.280224   0.164495
     7  Na   0.488053   0.064784
 Sum of Mulliken charges =  -0.00000   1.00000

 Dipole moment (field-independent basis, Debye):
    X=              0.7046    Y=             -0.0736    Z=             -0.3519  Tot=              0.7911
 Quadrupole moment (field-independent basis, Debye-Ang):
   XX=            -49.5640   YY=            -78.3781   ZZ=            -67.3150
   XY=              0.8462   XZ=             -0.0276   YZ=             -2.3458

 Normal termination of Gaussian 16 at Tue Dec  5 10:56:35 2023.
