 Gaussian 16, Revision B.01,
 Gaussian 16:  ES64L-G16RevB.01 20-Dec-2017

 -------------------------
 #P B3LYP/6-311+g(d) force
 -------------------------

 -----
 DPGEN
 -----
 Symbolic Z-matrix:
 Charge =  0 Multiplicity = 2

                         Standard orientation:
 ---------------------------------------------------------------------
 Center     Atomic      Atomic             Coordinates (Angstroms)
 Number     Number       Type             X           Y           Z
 ---------------------------------------------------------------------
      1         11           0        0.592905    3.823007    0.319757
      2         11           0       -2.797689    2.552612    0.197517
      3         11           0       -4.363590   -0.780167   -0.754274
      4         11           0        4.130466   -1.715326    0.339158
      5         11           0       -2.163572   -2.851397    0.967109
      6         11           0        3.358495    1.732442   -0.429081
      7         11           0        1.242985   -2.761171   -0.640185
 ---------------------------------------------------------------------

 SCF Done:  E(UB3LYP) =  -1136.10819651     A.U. after   26 cycles

 The electronic state is 2-A.
 Alpha  occ. eigenvalues --  -38.45547 -38.45414 -38.45036 -38.44614 -38.43895
 Alpha  occ. eigenvalues --  -38.43786 -38.43681  -2.21308  -2.21187  -2.20788
 Alpha  occ. eigenvalues --   -2.20368  -2.19686  -2.19615  -2.19456  -1.14995
 Alpha  occ. eigenvalues --   -1.14976  -1.14920  -1.14876  -1.14861  -1.14813
 Alpha  occ. eigenvalues --   -1.14473  -1.14450  -1.14428  -1.14051  -1.14038
 Alpha  occ. eigenvalues --   -1.13977  -1.13347  -1.13333  -1.13317  -1.13278
 Alpha  occ. eigenvalues --   -1.13260  -1.13244  -1.13133  -1.13125  -1.13093
 Alpha  occ. eigenvalues --   -0.15564  -0.13851  -0.13227  -0.10430
 Alpha virt. eigenvalues --   -0.07755  -0.05121  -0.04539  -0.03362  -0.03159
 Alpha virt. eigenvalues --   -0.02718  -0.02300  -0.02056  -0.01254  -0.00544
 Alpha virt. eigenvalues --   -0.00350  -0.00059  -0.00030   0.00273   0.00528

  Beta  occ. eigenvalues --  -38.45509 -38.45392 -38.45034 -38.44581 -38.43843
  Beta  occ. eigenvalues --  -38.43743 -38.43671  -2.21243  -2.21151  -2.20788
  Beta  occ. eigenvalues --   -2.20307  -2.19591  -2.19534  -2.19440  -1.14955
  Beta  occ. eigenvalues --   -1.14936  -1.14856  -1.14844  -1.14842  -1.14749
  Beta  occ. eigenvalues --   -1.14475  -1.14453  -1.14404  -1.14009  -1.13997
  Beta  occ. eigenvalues --   -1.13934  -1.13283  -1.13269  -1.13249  -1.13221
  Beta  occ. eigenvalues --   -1.13204  -1.13193  -1.13123  -1.13116  -1.13069
  Beta  occ. eigenvalues --   -0.15013  -0.13319  -0.12647
  Beta virt. eigenvalues --   -0.07871  -0.07127  -0.04714  -0.04192  -0.03134
  Beta virt. eigenvalues --   -0.02634  -0.02482  -0.02096  -0.01898  -0.01160
  Beta virt. eigenvalues --   -0.00329  -0.00076   0.00046   0.00214   0.00296

 Mulliken charges and spin densities:
               1          2
     1  Na   0.133863   0.027309
     2  Na  -0.161322   0.200886
     3  Na   0.199747  -0.022708
     4  Na   0.305102   0.212245
     5  Na  -0.035888   0.215521
     6  Na  -0.095756   0.233243
     7  Na  -0.345746   0.133503
 Sum of Mulliken charges =  -0.00000   1.00000

 Dipole moment (field-independent basis, Debye):
    X=              0.3853    Y=             -0.4722    Z=             -0.2690  Tot=              0.6662
 Quadrupole moment (field-independent basis, Debye-Ang):
   XX=            -59.3951   YY=            -71.2013   ZZ=            -69.8413
   XY=              2.0405   XZ=              1.5618   YZ=              1.1959

 Normal termination of Gaussian 16 at Sun Dec  3 15:59:43 2023.
