 Gaussian 16, Revision B.01,
 Gaussian 16:  ES64L-G16RevB.01 20-Dec-2017

 -------------------------
 #P B3LYP/6-311+g(d) force
 -------------------------

 -----
 DPGEN
 -----
 Symbolic Z-matrix:
 Charge =  0 Multiplicity = 2

                         Standard orientation:
 ---------------------------------------------------------------------
 Center     Atomic      Atomic             Coordinates (Angstroms)
 Number     Number       Type             X           Y           Z
 ---------------------------------------------------------------------
      1         11           0        0.351038   -0.092074   -1.454116
      2         11           0        3.018909   -0.944831   -0.000475
      3         11           0       -0.153615   -0.121132    2.522956
      4         11           0       -2.779592   -0.925892    0.022479
      5         11           0       -1.858096    2.460160   -0.481713
      6         11           0        1.718388    2.357786   -0.056600
      7         11           0       -0.297033   -2.734015   -0.552532
 ---------------------------------------------------------------------

 SCF Done:  E(UB3LYP) =  -1136.13139729     A.U. after   18 cycles

 The electronic state is 2-A.
 Alpha  occ. eigenvalues --  -38.44503 -38.43873 -38.43661 -38.43608 -38.43466
 Alpha  occ. eigenvalues --  -38.43430 -38.43205  -2.20320  -2.19709  -2.19512
 Alpha  occ. eigenvalues --   -2.19479  -2.19354  -2.19281  -2.19270  -1.13955
 Alpha  occ. eigenvalues --   -1.13945  -1.13941  -1.13417  -1.13366  -1.13344
 Alpha  occ. eigenvalues --   -1.13285  -1.13223  -1.13173  -1.13172  -1.13137
 Alpha  occ. eigenvalues --   -1.13130  -1.13123  -1.12980  -1.12964  -1.12941
 Alpha  occ. eigenvalues --   -1.12934  -1.12919  -1.12911  -1.12860  -1.12831
 Alpha  occ. eigenvalues --   -0.18605  -0.12924  -0.12419  -0.11281
 Alpha virt. eigenvalues --   -0.05362  -0.05156  -0.04577  -0.03357  -0.03183
 Alpha virt. eigenvalues --   -0.02864  -0.01357  -0.01025  -0.00274  -0.00175
 Alpha virt. eigenvalues --   -0.00049   0.00345   0.00800   0.00886   0.00923

  Beta  occ. eigenvalues --  -38.44382 -38.43872 -38.43659 -38.43605 -38.43460
  Beta  occ. eigenvalues --  -38.43418 -38.43159  -2.20096  -2.19709  -2.19509
  Beta  occ. eigenvalues --   -2.19476  -2.19333  -2.19272  -2.19190  -1.13805
  Beta  occ. eigenvalues --   -1.13791  -1.13782  -1.13413  -1.13354  -1.13345
  Beta  occ. eigenvalues --   -1.13262  -1.13217  -1.13162  -1.13156  -1.13131
  Beta  occ. eigenvalues --   -1.13123  -1.13109  -1.12951  -1.12945  -1.12929
  Beta  occ. eigenvalues --   -1.12925  -1.12914  -1.12859  -1.12808  -1.12783
  Beta  occ. eigenvalues --   -0.17911  -0.12745  -0.12204
  Beta virt. eigenvalues --   -0.07181  -0.05355  -0.05085  -0.04529  -0.02508
  Beta virt. eigenvalues --   -0.02208  -0.02000  -0.01283  -0.00962  -0.00299
  Beta virt. eigenvalues --   -0.00203   0.00130   0.00387   0.00887   0.00906

 Mulliken charges and spin densities:
               1          2
     1  Na  -0.248631  -0.129017
     2  Na   0.144313   0.080960
     3  Na  -0.729184   0.727301
     4  Na   0.180973   0.111529
     5  Na   0.081935   0.036461
     6  Na   0.125356   0.075769
     7  Na   0.445237   0.096997
 Sum of Mulliken charges =  -0.00000   1.00000

 Dipole moment (field-independent basis, Debye):
    X=              0.2294    Y=              0.0505    Z=              0.4485  Tot=              0.5063
 Quadrupole moment (field-independent basis, Debye-Ang):
   XX=            -58.8752   YY=            -63.9035   ZZ=            -72.3064
   XY=             -0.4910   XZ=              1.0837   YZ=             -0.0211

 Normal termination of Gaussian 16 at Thu Dec  7 03:03:49 2023.
