 Gaussian 16, Revision B.01,
 Gaussian 16:  ES64L-G16RevB.01 20-Dec-2017

 -------------------------
 #P B3LYP/6-311+g(d) force
 -------------------------

 -----
 DPGEN
 -----
 Symbolic Z-matrix:
 Charge =  0 Multiplicity = 2

                         Standard orientation:
 ---------------------------------------------------------------------
 Center     Atomic      Atomic             Coordinates (Angstroms)
 Number     Number       Type             X           Y           Z
 ---------------------------------------------------------------------
      1         11           0        2.190183   -2.127839   -0.340360
      2         11           0       -0.024472   -0.237158   -1.791138
      3         11           0       -0.209294    2.883282   -0.452133
      4         11           0        2.780993    1.261982    0.504711
      5         11           0       -0.296360   -0.190041    1.980751
      6         11           0       -2.747088    0.951132    0.041112
      7         11           0       -1.693963   -2.541358    0.057057
 ---------------------------------------------------------------------

 SCF Done:  E(UB3LYP) =  -1136.13922543     A.U. after   19 cycles

 The electronic state is 2-A.
 Alpha  occ. eigenvalues --  -38.43787 -38.43689 -38.43666 -38.43662 -38.43573
 Alpha  occ. eigenvalues --  -38.43384 -38.43271  -2.19615  -2.19599  -2.19512
 Alpha  occ. eigenvalues --   -2.19479  -2.19460  -2.19341  -2.19138  -1.13324
 Alpha  occ. eigenvalues --   -1.13294  -1.13274  -1.13251  -1.13243  -1.13233
 Alpha  occ. eigenvalues --   -1.13195  -1.13162  -1.13148  -1.13145  -1.13139
 Alpha  occ. eigenvalues --   -1.13136  -1.13124  -1.13118  -1.13086  -1.13009
 Alpha  occ. eigenvalues --   -1.12972  -1.12963  -1.12808  -1.12789  -1.12773
 Alpha  occ. eigenvalues --   -0.18700  -0.12827  -0.12610  -0.11004
 Alpha virt. eigenvalues --   -0.05413  -0.05037  -0.04776  -0.03228  -0.03105
 Alpha virt. eigenvalues --   -0.02722  -0.01261  -0.01199  -0.00319  -0.00173
 Alpha virt. eigenvalues --    0.00005   0.00375   0.00867   0.00898   0.00903

  Beta  occ. eigenvalues --  -38.43780 -38.43661 -38.43653 -38.43603 -38.43567
  Beta  occ. eigenvalues --  -38.43310 -38.43264  -2.19606  -2.19507  -2.19464
  Beta  occ. eigenvalues --   -2.19453  -2.19442  -2.19205  -2.19127  -1.13306
  Beta  occ. eigenvalues --   -1.13257  -1.13241  -1.13224  -1.13183  -1.13175
  Beta  occ. eigenvalues --   -1.13145  -1.13137  -1.13126  -1.13122  -1.13115
  Beta  occ. eigenvalues --   -1.13110  -1.13098  -1.13086  -1.13061  -1.12921
  Beta  occ. eigenvalues --   -1.12879  -1.12870  -1.12787  -1.12779  -1.12755
  Beta  occ. eigenvalues --   -0.17962  -0.12573  -0.12351
  Beta virt. eigenvalues --   -0.07115  -0.05412  -0.04940  -0.04736  -0.02452
  Beta virt. eigenvalues --   -0.02335  -0.01685  -0.01181  -0.01117  -0.00331
  Beta virt. eigenvalues --   -0.00216   0.00116   0.00398   0.00861   0.00909

 Mulliken charges and spin densities:
               1          2
     1  Na   0.042696  -0.088982
     2  Na  -0.066685   0.539800
     3  Na   0.035606   0.005204
     4  Na  -0.049302   0.028092
     5  Na  -0.313310   0.699480
     6  Na   0.241802  -0.044794
     7  Na   0.109193  -0.138801
 Sum of Mulliken charges =  -0.00000   1.00000

 Dipole moment (field-independent basis, Debye):
    X=             -0.0098    Y=             -0.2851    Z=              0.1086  Tot=              0.3053
 Quadrupole moment (field-independent basis, Debye-Ang):
   XX=            -59.9954   YY=            -61.3531   ZZ=            -72.9312
   XY=              0.3465   XZ=              0.6831   YZ=              0.0419

 Normal termination of Gaussian 16 at Thu Dec  7 23:28:44 2023.
