 Gaussian 16, Revision B.01,
 Gaussian 16:  ES64L-G16RevB.01 20-Dec-2017

 -------------------------
 #P B3LYP/6-311+g(d) force
 -------------------------

 -----
 DPGEN
 -----
 Symbolic Z-matrix:
 Charge =  0 Multiplicity = 2

                         Standard orientation:
 ---------------------------------------------------------------------
 Center     Atomic      Atomic             Coordinates (Angstroms)
 Number     Number       Type             X           Y           Z
 ---------------------------------------------------------------------
      1         11           0        0.048846    0.248192    1.771804
      2         11           0        2.900795   -0.193822    0.044538
      3         11           0        0.826299   -2.606956   -0.008388
      4         11           0       -2.218558   -1.680572    0.071904
      5         11           0       -0.019077   -0.012105   -1.742409
      6         11           0       -2.621329    1.517718   -0.017907
      7         11           0        1.083026    2.727545   -0.119542
 ---------------------------------------------------------------------

 SCF Done:  E(UB3LYP) =  -1136.13831258     A.U. after   19 cycles

 The electronic state is 2-A.
 Alpha  occ. eigenvalues --  -38.43774 -38.43701 -38.43499 -38.43384 -38.43106
 Alpha  occ. eigenvalues --  -38.43072 -38.43042  -2.19637  -2.19606  -2.19367
 Alpha  occ. eigenvalues --   -2.19316  -2.19107  -2.19092  -2.18986  -1.13327
 Alpha  occ. eigenvalues --   -1.13304  -1.13301  -1.13275  -1.13269  -1.13252
 Alpha  occ. eigenvalues --   -1.13058  -1.13045  -1.13025  -1.12988  -1.12976
 Alpha  occ. eigenvalues --   -1.12959  -1.12810  -1.12765  -1.12735  -1.12727
 Alpha  occ. eigenvalues --   -1.12723  -1.12705  -1.12632  -1.12625  -1.12618
 Alpha  occ. eigenvalues --   -0.19438  -0.13236  -0.12728  -0.10825
 Alpha virt. eigenvalues --   -0.05451  -0.04994  -0.04621  -0.03175  -0.02915
 Alpha virt. eigenvalues --   -0.02389  -0.01357  -0.01072  -0.00167  -0.00005
 Alpha virt. eigenvalues --    0.00026   0.00374   0.00884   0.00929   0.00958

  Beta  occ. eigenvalues --  -38.43771 -38.43694 -38.43493 -38.43376 -38.43034
  Beta  occ. eigenvalues --  -38.43025 -38.42992  -2.19633  -2.19598  -2.19361
  Beta  occ. eigenvalues --   -2.19307  -2.18977  -2.18960  -2.18944  -1.13328
  Beta  occ. eigenvalues --   -1.13298  -1.13278  -1.13274  -1.13252  -1.13230
  Beta  occ. eigenvalues --   -1.13053  -1.13018  -1.13011  -1.12988  -1.12960
  Beta  occ. eigenvalues --   -1.12932  -1.12732  -1.12679  -1.12648  -1.12627
  Beta  occ. eigenvalues --   -1.12625  -1.12617  -1.12600  -1.12591  -1.12559
  Beta  occ. eigenvalues --   -0.18683  -0.12963  -0.12453
  Beta virt. eigenvalues --   -0.06865  -0.05449  -0.04981  -0.04624  -0.02329
  Beta virt. eigenvalues --   -0.02095  -0.01336  -0.01274  -0.01005  -0.00230
  Beta virt. eigenvalues --   -0.00054   0.00144   0.00389   0.00905   0.00932

 Mulliken charges and spin densities:
               1          2
     1  Na  -0.505506   0.665205
     2  Na   0.272628  -0.037659
     3  Na   0.252277  -0.011229
     4  Na   0.237493  -0.010240
     5  Na  -0.507098   0.667450
     6  Na   0.138096  -0.121810
     7  Na   0.112111  -0.151717
 Sum of Mulliken charges =  -0.00000   1.00000

 Dipole moment (field-independent basis, Debye):
    X=             -0.0273    Y=              0.3449    Z=              0.0188  Tot=              0.3465
 Quadrupole moment (field-independent basis, Debye-Ang):
   XX=            -57.6454   YY=            -61.6133   ZZ=            -74.1593
   XY=             -0.3680   XZ=             -0.1170   YZ=             -0.6220

 Normal termination of Gaussian 16 at Tue Dec  5 12:21:01 2023.
