 Gaussian 16, Revision B.01,
 Gaussian 16:  ES64L-G16RevB.01 20-Dec-2017

 -------------------------
 #P B3LYP/6-311+g(d) force
 -------------------------

 -----
 DPGEN
 -----
 Symbolic Z-matrix:
 Charge =  0 Multiplicity = 2

                         Standard orientation:
 ---------------------------------------------------------------------
 Center     Atomic      Atomic             Coordinates (Angstroms)
 Number     Number       Type             X           Y           Z
 ---------------------------------------------------------------------
      1         11           0        2.489129   -1.866147   -0.864453
      2         11           0       -2.199471   -0.806965   -1.432587
      3         11           0        0.992627    0.237782    1.417340
      4         11           0       -1.310270    2.894416   -1.264421
      5         11           0       -0.999962   -2.658782    0.273392
      6         11           0       -2.325336    0.635412    1.772001
      7         11           0        3.353282    1.564284    0.098727
 ---------------------------------------------------------------------

 SCF Done:  E(UB3LYP) =  -1136.11979951     A.U. after   21 cycles

 The electronic state is 2-A.
 Alpha  occ. eigenvalues --  -38.44597 -38.44576 -38.44311 -38.44093 -38.43959
 Alpha  occ. eigenvalues --  -38.43480 -38.43349  -2.20389  -2.20383  -2.20202
 Alpha  occ. eigenvalues --   -2.19854  -2.19805  -2.19412  -2.19243  -1.14115
 Alpha  occ. eigenvalues --   -1.14068  -1.14060  -1.14036  -1.14016  -1.13987
 Alpha  occ. eigenvalues --   -1.13982  -1.13843  -1.13806  -1.13521  -1.13498
 Alpha  occ. eigenvalues --   -1.13494  -1.13481  -1.13446  -1.13418  -1.13081
 Alpha  occ. eigenvalues --   -1.13079  -1.13036  -1.12951  -1.12876  -1.12838
 Alpha  occ. eigenvalues --   -0.17766  -0.13555  -0.11942  -0.10872
 Alpha virt. eigenvalues --   -0.06327  -0.05343  -0.04438  -0.03625  -0.03172
 Alpha virt. eigenvalues --   -0.02366  -0.01586  -0.01109  -0.00778  -0.00328
 Alpha virt. eigenvalues --   -0.00138   0.00259   0.00415   0.00525   0.00738

  Beta  occ. eigenvalues --  -38.44591 -38.44581 -38.44275 -38.44043 -38.43907
  Beta  occ. eigenvalues --  -38.43437 -38.43343  -2.20397  -2.20371  -2.20137
  Beta  occ. eigenvalues --   -2.19763  -2.19713  -2.19337  -2.19236  -1.14118
  Beta  occ. eigenvalues --   -1.14057  -1.14053  -1.14038  -1.14018  -1.13977
  Beta  occ. eigenvalues --   -1.13937  -1.13795  -1.13763  -1.13454  -1.13430
  Beta  occ. eigenvalues --   -1.13427  -1.13417  -1.13387  -1.13344  -1.13033
  Beta  occ. eigenvalues --   -1.13020  -1.12972  -1.12941  -1.12867  -1.12818
  Beta  occ. eigenvalues --   -0.17152  -0.13386  -0.11638
  Beta virt. eigenvalues --   -0.07091  -0.06189  -0.05132  -0.04188  -0.03238
  Beta virt. eigenvalues --   -0.02642  -0.01633  -0.01395  -0.01029  -0.00566
  Beta virt. eigenvalues --   -0.00294   0.00087   0.00345   0.00508   0.00694

 Mulliken charges and spin densities:
               1          2
     1  Na  -0.163094  -0.040787
     2  Na  -0.038409   0.308933
     3  Na  -0.526044   0.147742
     4  Na  -0.387537   0.294890
     5  Na   0.219937   0.185261
     6  Na   0.269257   0.045875
     7  Na   0.625890   0.058086
 Sum of Mulliken charges =  -0.00000   1.00000

 Dipole moment (field-independent basis, Debye):
    X=              0.9028    Y=              0.1735    Z=             -0.3107  Tot=              0.9704
 Quadrupole moment (field-independent basis, Debye-Ang):
   XX=            -58.2697   YY=            -66.5435   ZZ=            -70.9194
   XY=              1.6584   XZ=             -4.2871   YZ=             -0.8803

 Normal termination of Gaussian 16 at Tue Dec  5 14:19:56 2023.
