 Gaussian 16, Revision B.01,
 Gaussian 16:  ES64L-G16RevB.01 20-Dec-2017

 -------------------------
 #P B3LYP/6-311+g(d) force
 -------------------------

 -----
 DPGEN
 -----
 Symbolic Z-matrix:
 Charge =  0 Multiplicity = 2

                         Standard orientation:
 ---------------------------------------------------------------------
 Center     Atomic      Atomic             Coordinates (Angstroms)
 Number     Number       Type             X           Y           Z
 ---------------------------------------------------------------------
      1         11           0       -0.415450   -0.056833    1.641697
      2         11           0        2.111667   -1.630673    0.080814
      3         11           0        0.466192   -0.024705   -1.586278
      4         11           0        2.203991    1.573734    0.108740
      5         11           0       -0.788047    2.569148    0.086883
      6         11           0       -2.757633    0.003843   -0.416821
      7         11           0       -0.820721   -2.434515    0.084964
 ---------------------------------------------------------------------

 SCF Done:  E(UB3LYP) =  -1136.12015067     A.U. after   19 cycles

 The electronic state is 2-A.
 Alpha  occ. eigenvalues --  -38.43519 -38.43488 -38.43478 -38.43355 -38.43348
 Alpha  occ. eigenvalues --  -38.43188 -38.43147  -2.19501  -2.19475  -2.19473
 Alpha  occ. eigenvalues --   -2.19393  -2.19353  -2.19314  -2.19286  -1.13432
 Alpha  occ. eigenvalues --   -1.13325  -1.13283  -1.13216  -1.13195  -1.13160
 Alpha  occ. eigenvalues --   -1.13150  -1.13126  -1.13105  -1.13067  -1.13047
 Alpha  occ. eigenvalues --   -1.13023  -1.12983  -1.12951  -1.12944  -1.12909
 Alpha  occ. eigenvalues --   -1.12902  -1.12891  -1.12883  -1.12853  -1.12823
 Alpha  occ. eigenvalues --   -0.20420  -0.13386  -0.13258  -0.11090
 Alpha virt. eigenvalues --   -0.05016  -0.04853  -0.04749  -0.03190  -0.03055
 Alpha virt. eigenvalues --   -0.02191  -0.01087  -0.00960   0.00025   0.00248
 Alpha virt. eigenvalues --    0.00314   0.00359   0.01001   0.01023   0.01030

  Beta  occ. eigenvalues --  -38.43507 -38.43480 -38.43468 -38.43342 -38.43340
  Beta  occ. eigenvalues --  -38.43113 -38.43067  -2.19487  -2.19463  -2.19454
  Beta  occ. eigenvalues --   -2.19374  -2.19303  -2.19220  -2.19146  -1.13399
  Beta  occ. eigenvalues --   -1.13297  -1.13255  -1.13203  -1.13165  -1.13140
  Beta  occ. eigenvalues --   -1.13107  -1.13083  -1.13075  -1.13053  -1.13017
  Beta  occ. eigenvalues --   -1.12983  -1.12939  -1.12934  -1.12905  -1.12889
  Beta  occ. eigenvalues --   -1.12817  -1.12811  -1.12802  -1.12757  -1.12740
  Beta  occ. eigenvalues --   -0.19657  -0.13097  -0.12930
  Beta virt. eigenvalues --   -0.07036  -0.04993  -0.04848  -0.04745  -0.02349
  Beta virt. eigenvalues --   -0.02181  -0.01151  -0.01011  -0.00899   0.00140
  Beta virt. eigenvalues --    0.00209   0.00266   0.00384   0.01013   0.01024

 Mulliken charges and spin densities:
               1          2
     1  Na  -0.690163   0.515172
     2  Na   0.429369  -0.014640
     3  Na  -0.803950   0.533562
     4  Na   0.280013  -0.039651
     5  Na   0.200116  -0.039055
     6  Na   0.096545   0.009405
     7  Na   0.488071   0.035207
 Sum of Mulliken charges =  -0.00000   1.00000

 Dipole moment (field-independent basis, Debye):
    X=             -0.1051    Y=              0.1644    Z=              0.0142  Tot=              0.1956
 Quadrupole moment (field-independent basis, Debye-Ang):
   XX=            -59.5519   YY=            -61.6768   ZZ=            -73.2718
   XY=             -0.1419   XZ=              1.9690   YZ=              0.0804

 Normal termination of Gaussian 16 at Thu Dec  7 19:20:56 2023.
