 Gaussian 16, Revision B.01,
 Gaussian 16:  ES64L-G16RevB.01 20-Dec-2017

 -------------------------
 #P B3LYP/6-311+g(d) force
 -------------------------

 -----
 DPGEN
 -----
 Symbolic Z-matrix:
 Charge =  0 Multiplicity = 2

                         Standard orientation:
 ---------------------------------------------------------------------
 Center     Atomic      Atomic             Coordinates (Angstroms)
 Number     Number       Type             X           Y           Z
 ---------------------------------------------------------------------
      1         11           0        3.486133   -2.092004   -0.120180
      2         11           0        4.417465    0.996839   -1.030008
      3         11           0       -0.337681   -2.617806    1.134829
      4         11           0       -3.146173   -2.630986   -0.376445
      5         11           0        1.636698    2.183148    0.826774
      6         11           0       -4.082501    0.773975   -0.927671
      7         11           0       -1.973941    3.386834    0.492702
 ---------------------------------------------------------------------

 SCF Done:  E(UB3LYP) =  -1136.10749193     A.U. after   24 cycles

 The electronic state is 2-A.
 Alpha  occ. eigenvalues --  -38.46044 -38.45162 -38.44526 -38.44358 -38.44264
 Alpha  occ. eigenvalues --  -38.44135 -38.43627  -2.21796  -2.20919  -2.20338
 Alpha  occ. eigenvalues --   -2.20145  -2.20044  -2.19874  -2.19426  -1.15479
 Alpha  occ. eigenvalues --   -1.15451  -1.15431  -1.14605  -1.14591  -1.14518
 Alpha  occ. eigenvalues --   -1.13994  -1.13990  -1.13969  -1.13833  -1.13820
 Alpha  occ. eigenvalues --   -1.13800  -1.13713  -1.13692  -1.13661  -1.13563
 Alpha  occ. eigenvalues --   -1.13545  -1.13516  -1.13082  -1.13076  -1.13060
 Alpha  occ. eigenvalues --   -0.15745  -0.14029  -0.12601  -0.10647
 Alpha virt. eigenvalues --   -0.07734  -0.05255  -0.04574  -0.03712  -0.03347
 Alpha virt. eigenvalues --   -0.02239  -0.02108  -0.01523  -0.01367  -0.01121
 Alpha virt. eigenvalues --   -0.00705  -0.00122   0.00003   0.00332   0.00637

  Beta  occ. eigenvalues --  -38.46021 -38.45115 -38.44487 -38.44369 -38.44208
  Beta  occ. eigenvalues --  -38.44149 -38.43581  -2.21758  -2.20833  -2.20266
  Beta  occ. eigenvalues --   -2.20169  -2.19940  -2.19902  -2.19340  -1.15457
  Beta  occ. eigenvalues --   -1.15429  -1.15371  -1.14546  -1.14533  -1.14448
  Beta  occ. eigenvalues --   -1.13944  -1.13934  -1.13924  -1.13850  -1.13840
  Beta  occ. eigenvalues --   -1.13788  -1.13642  -1.13625  -1.13599  -1.13584
  Beta  occ. eigenvalues --   -1.13563  -1.13516  -1.13027  -1.13015  -1.13005
  Beta  occ. eigenvalues --   -0.15156  -0.13565  -0.12215
  Beta virt. eigenvalues --   -0.07741  -0.07359  -0.04716  -0.03981  -0.03558
  Beta virt. eigenvalues --   -0.02975  -0.02148  -0.01925  -0.01437  -0.01026
  Beta virt. eigenvalues --   -0.00812  -0.00606   0.00141   0.00260   0.00332

 Mulliken charges and spin densities:
               1          2
     1  Na   0.036304   0.133438
     2  Na   0.683585   0.242091
     3  Na  -0.651255   0.156142
     4  Na   0.558884   0.036944
     5  Na  -0.651136   0.247341
     6  Na  -0.190759   0.271406
     7  Na   0.214376  -0.087362
 Sum of Mulliken charges =  -0.00000   1.00000

 Dipole moment (field-independent basis, Debye):
    X=              1.5726    Y=             -0.2077    Z=             -0.3854  Tot=              1.6324
 Quadrupole moment (field-independent basis, Debye-Ang):
   XX=            -60.6358   YY=            -65.9140   ZZ=            -71.9693
   XY=             -1.0359   XZ=             -0.0387   YZ=              0.6068

 Normal termination of Gaussian 16 at Sun Dec  3 22:15:03 2023.
