 Gaussian 16, Revision B.01,
 Gaussian 16:  ES64L-G16RevB.01 20-Dec-2017

 -------------------------
 #P B3LYP/6-311+g(d) force
 -------------------------

 -----
 DPGEN
 -----
 Symbolic Z-matrix:
 Charge =  0 Multiplicity = 2

                         Standard orientation:
 ---------------------------------------------------------------------
 Center     Atomic      Atomic             Coordinates (Angstroms)
 Number     Number       Type             X           Y           Z
 ---------------------------------------------------------------------
      1         11           0       -0.636837    1.520150   -0.936103
      2         11           0        1.882210    3.329460    0.790510
      3         11           0        2.969022    0.453859   -0.567322
      4         11           0        0.655961   -2.031192   -0.302175
      5         11           0       -2.996368   -0.727614   -0.946470
      6         11           0        4.012362   -2.270272    0.859608
      7         11           0       -5.886350   -0.274392    1.101952
 ---------------------------------------------------------------------

 SCF Done:  E(UB3LYP) =  -1136.12424206     A.U. after   19 cycles

 The electronic state is 2-A.
 Alpha  occ. eigenvalues --  -38.44818 -38.44523 -38.44070 -38.43939 -38.43931
 Alpha  occ. eigenvalues --  -38.43422 -38.43412  -2.20611  -2.20338  -2.19886
 Alpha  occ. eigenvalues --   -2.19817  -2.19779  -2.19231  -2.19225  -1.14243
 Alpha  occ. eigenvalues --   -1.14242  -1.14217  -1.14048  -1.14031  -1.13912
 Alpha  occ. eigenvalues --   -1.13586  -1.13545  -1.13528  -1.13516  -1.13498
 Alpha  occ. eigenvalues --   -1.13473  -1.13460  -1.13396  -1.13381  -1.12924
 Alpha  occ. eigenvalues --   -1.12902  -1.12898  -1.12892  -1.12862  -1.12853
 Alpha  occ. eigenvalues --   -0.16892  -0.13917  -0.12260  -0.11304
 Alpha virt. eigenvalues --   -0.05810  -0.05426  -0.04868  -0.03755  -0.02488
 Alpha virt. eigenvalues --   -0.02332  -0.02222  -0.01565  -0.00961  -0.00599
 Alpha virt. eigenvalues --   -0.00497  -0.00072  -0.00011   0.00368   0.00659

  Beta  occ. eigenvalues --  -38.44695 -38.44493 -38.44057 -38.43921 -38.43920
  Beta  occ. eigenvalues --  -38.43416 -38.43407  -2.20380  -2.20286  -2.19862
  Beta  occ. eigenvalues --   -2.19798  -2.19749  -2.19241  -2.19203  -1.14086
  Beta  occ. eigenvalues --   -1.14085  -1.14064  -1.14015  -1.13998  -1.13861
  Beta  occ. eigenvalues --   -1.13566  -1.13529  -1.13505  -1.13499  -1.13486
  Beta  occ. eigenvalues --   -1.13455  -1.13437  -1.13373  -1.13363  -1.12941
  Beta  occ. eigenvalues --   -1.12920  -1.12875  -1.12872  -1.12838  -1.12815
  Beta  occ. eigenvalues --   -0.16450  -0.13169  -0.12005
  Beta virt. eigenvalues --   -0.07734  -0.05447  -0.05242  -0.04462  -0.03610
  Beta virt. eigenvalues --   -0.02253  -0.02087  -0.01598  -0.01324  -0.00728
  Beta virt. eigenvalues --   -0.00369  -0.00182   0.00069   0.00183   0.00521

 Mulliken charges and spin densities:
               1          2
     1  Na  -0.421798   0.015885
     2  Na   0.450449   0.117263
     3  Na  -0.392548   0.115103
     4  Na  -0.239321   0.177746
     5  Na   0.019775  -0.141564
     6  Na   0.491050   0.072225
     7  Na   0.092393   0.643343
 Sum of Mulliken charges =  -0.00000   1.00000

 Dipole moment (field-independent basis, Debye):
    X=              0.8827    Y=             -0.3376    Z=              0.7131  Tot=              1.1839
 Quadrupole moment (field-independent basis, Debye-Ang):
   XX=            -62.2362   YY=            -66.7275   ZZ=            -67.7671
   XY=             -3.4171   XZ=              1.0614   YZ=              0.2364

 Normal termination of Gaussian 16 at Wed Nov 29 02:10:43 2023.
