 Gaussian 16, Revision B.01,
 Gaussian 16:  ES64L-G16RevB.01 20-Dec-2017

 -------------------------
 #P B3LYP/6-311+g(d) force
 -------------------------

 -----
 DPGEN
 -----
 Symbolic Z-matrix:
 Charge =  0 Multiplicity = 2

                         Standard orientation:
 ---------------------------------------------------------------------
 Center     Atomic      Atomic             Coordinates (Angstroms)
 Number     Number       Type             X           Y           Z
 ---------------------------------------------------------------------
      1         11           0        0.301129    2.034911   -1.635265
      2         11           0       -0.126090    1.295920    1.999851
      3         11           0        5.665045   -0.634826   -0.250660
      4         11           0        2.468719   -0.994353    0.776416
      5         11           0       -2.822676    1.071145    0.118471
      6         11           0       -0.232270   -1.183422   -0.939527
      7         11           0       -5.253857   -1.589375   -0.069285
 ---------------------------------------------------------------------

 SCF Done:  E(UB3LYP) =  -1136.10267027     A.U. after   29 cycles

 The electronic state is 2-A.
 Alpha  occ. eigenvalues --  -38.45953 -38.45294 -38.45258 -38.44258 -38.44134
 Alpha  occ. eigenvalues --  -38.43665 -38.43149  -2.21812  -2.21076  -2.21046
 Alpha  occ. eigenvalues --   -2.20135  -2.19965  -2.19520  -2.18886  -1.15503
 Alpha  occ. eigenvalues --   -1.15444  -1.15436  -1.14746  -1.14735  -1.14709
 Alpha  occ. eigenvalues --   -1.14705  -1.14699  -1.14680  -1.13796  -1.13783
 Alpha  occ. eigenvalues --   -1.13733  -1.13676  -1.13622  -1.13591  -1.13225
 Alpha  occ. eigenvalues --   -1.13202  -1.13108  -1.12564  -1.12561  -1.12520
 Alpha  occ. eigenvalues --   -0.18160  -0.13406  -0.11344  -0.11011
 Alpha virt. eigenvalues --   -0.08361  -0.05835  -0.04035  -0.03443  -0.03203
 Alpha virt. eigenvalues --   -0.02499  -0.02353  -0.01806  -0.01406  -0.01085
 Alpha virt. eigenvalues --   -0.00545   0.00046   0.00096   0.00426   0.00450

  Beta  occ. eigenvalues --  -38.45902 -38.45277 -38.45231 -38.44159 -38.44131
  Beta  occ. eigenvalues --  -38.43649 -38.43163  -2.21721  -2.21028  -2.21014
  Beta  occ. eigenvalues --   -2.19963  -2.19949  -2.19492  -2.18911  -1.15430
  Beta  occ. eigenvalues --   -1.15390  -1.15359  -1.14713  -1.14687  -1.14684
  Beta  occ. eigenvalues --   -1.14682  -1.14666  -1.14660  -1.13667  -1.13663
  Beta  occ. eigenvalues --   -1.13657  -1.13619  -1.13612  -1.13574  -1.13200
  Beta  occ. eigenvalues --   -1.13163  -1.13101  -1.12581  -1.12577  -1.12536
  Beta  occ. eigenvalues --   -0.17430  -0.13185  -0.11018
  Beta virt. eigenvalues --   -0.08191  -0.07221  -0.05630  -0.03898  -0.02848
  Beta virt. eigenvalues --   -0.02839  -0.02138  -0.01867  -0.01438  -0.01230
  Beta virt. eigenvalues --   -0.00865  -0.00473   0.00127   0.00300   0.00480

 Mulliken charges and spin densities:
               1          2
     1  Na   0.116474   0.067254
     2  Na  -0.087639   0.482063
     3  Na   0.165449   0.030254
     4  Na  -0.214617  -0.013955
     5  Na   0.098741   0.088225
     6  Na  -0.076679   0.451167
     7  Na  -0.001728  -0.105007
 Sum of Mulliken charges =  -0.00000   1.00000

 Dipole moment (field-independent basis, Debye):
    X=              2.5855    Y=              1.1968    Z=             -1.0038  Tot=              3.0207
 Quadrupole moment (field-independent basis, Debye-Ang):
   XX=            -68.4443   YY=            -63.7370   ZZ=            -73.0128
   XY=              3.0399   XZ=             -3.2077   YZ=             -3.0502

 Normal termination of Gaussian 16 at Fri Dec  8 19:46:00 2023.
