 Gaussian 16, Revision B.01,
 Gaussian 16:  ES64L-G16RevB.01 20-Dec-2017

 -------------------------
 #P B3LYP/6-311+g(d) force
 -------------------------

 -----
 DPGEN
 -----
 Symbolic Z-matrix:
 Charge =  0 Multiplicity = 2

                         Standard orientation:
 ---------------------------------------------------------------------
 Center     Atomic      Atomic             Coordinates (Angstroms)
 Number     Number       Type             X           Y           Z
 ---------------------------------------------------------------------
      1         11           0        0.426549   -1.193754   -0.502101
      2         11           0        3.770141   -3.410683    0.192787
      3         11           0        3.152462    0.298535    0.580333
      4         11           0        2.807650    3.544404    0.173493
      5         11           0       -0.383921    1.569187   -0.698732
      6         11           0       -3.575599   -0.735272   -0.580551
      7         11           0       -6.197282   -0.072417    0.834772
 ---------------------------------------------------------------------

 SCF Done:  E(UB3LYP) =  -1136.11558147     A.U. after   22 cycles

 The electronic state is 2-A.
 Alpha  occ. eigenvalues --  -38.44857 -38.44731 -38.44575 -38.44155 -38.43947
 Alpha  occ. eigenvalues --  -38.43901 -38.43846  -2.20720  -2.20556  -2.20466
 Alpha  occ. eigenvalues --   -2.20014  -2.19755  -2.19711  -2.19598  -1.14567
 Alpha  occ. eigenvalues --   -1.14384  -1.14271  -1.14223  -1.14181  -1.14180
 Alpha  occ. eigenvalues --   -1.14144  -1.14128  -1.14023  -1.13722  -1.13709
 Alpha  occ. eigenvalues --   -1.13604  -1.13415  -1.13408  -1.13396  -1.13390
 Alpha  occ. eigenvalues --   -1.13364  -1.13357  -1.13271  -1.13268  -1.13210
 Alpha  occ. eigenvalues --   -0.17040  -0.14144  -0.11987  -0.11773
 Alpha virt. eigenvalues --   -0.05832  -0.05444  -0.04454  -0.04039  -0.02785
 Alpha virt. eigenvalues --   -0.02445  -0.02145  -0.01693  -0.01166  -0.00925
 Alpha virt. eigenvalues --   -0.00380  -0.00089   0.00019   0.00461   0.00685

  Beta  occ. eigenvalues --  -38.44816 -38.44648 -38.44530 -38.44129 -38.43909
  Beta  occ. eigenvalues --  -38.43905 -38.43831  -2.20649  -2.20402  -2.20389
  Beta  occ. eigenvalues --   -2.19967  -2.19727  -2.19685  -2.19569  -1.14498
  Beta  occ. eigenvalues --   -1.14340  -1.14218  -1.14122  -1.14102  -1.14080
  Beta  occ. eigenvalues --   -1.14076  -1.14074  -1.13936  -1.13686  -1.13679
  Beta  occ. eigenvalues --   -1.13561  -1.13410  -1.13408  -1.13362  -1.13359
  Beta  occ. eigenvalues --   -1.13324  -1.13310  -1.13251  -1.13247  -1.13192
  Beta  occ. eigenvalues --   -0.16359  -0.13260  -0.11687
  Beta virt. eigenvalues --   -0.08419  -0.05636  -0.05018  -0.04118  -0.03807
  Beta virt. eigenvalues --   -0.02415  -0.02228  -0.01726  -0.01487  -0.01020
  Beta virt. eigenvalues --   -0.00596  -0.00092   0.00097   0.00121   0.00518

 Mulliken charges and spin densities:
               1          2
     1  Na  -0.992086   0.183436
     2  Na   0.566251   0.153850
     3  Na  -0.784312   0.406062
     4  Na   0.824868   0.141907
     5  Na  -0.017649  -0.094018
     6  Na  -0.478699  -0.097041
     7  Na   0.881627   0.305805
 Sum of Mulliken charges =  -0.00000   1.00000

 Dipole moment (field-independent basis, Debye):
    X=             -0.4688    Y=              0.6230    Z=              0.0934  Tot=              0.7853
 Quadrupole moment (field-independent basis, Debye-Ang):
   XX=            -59.5121   YY=            -62.6365   ZZ=            -71.6770
   XY=             -2.0221   XZ=             -2.0934   YZ=              0.6164

 Normal termination of Gaussian 16 at Tue Nov 28 20:45:55 2023.
