 Gaussian 16, Revision B.01,
 Gaussian 16:  ES64L-G16RevB.01 20-Dec-2017

 -------------------------
 #P B3LYP/6-311+g(d) force
 -------------------------

 -----
 DPGEN
 -----
 Symbolic Z-matrix:
 Charge =  0 Multiplicity = 2

                         Standard orientation:
 ---------------------------------------------------------------------
 Center     Atomic      Atomic             Coordinates (Angstroms)
 Number     Number       Type             X           Y           Z
 ---------------------------------------------------------------------
      1         11           0       -0.155856    0.043816   -1.500057
      2         11           0        3.086267    0.497126   -0.120674
      3         11           0       -2.086689   -2.276991    0.048296
      4         11           0       -2.909373    1.356742   -0.241362
      5         11           0        1.550999   -2.636104   -0.245193
      6         11           0       -0.049653   -0.090305    2.026845
      7         11           0        0.564305    3.105716    0.032145
 ---------------------------------------------------------------------

 SCF Done:  E(UB3LYP) =  -1136.13961561     A.U. after   18 cycles

 The electronic state is 2-A.
 Alpha  occ. eigenvalues --  -38.44008 -38.43828 -38.43827 -38.43802 -38.43579
 Alpha  occ. eigenvalues --  -38.43357 -38.42940  -2.19819  -2.19658  -2.19632
 Alpha  occ. eigenvalues --   -2.19624  -2.19417  -2.19239  -2.18925  -1.13510
 Alpha  occ. eigenvalues --   -1.13476  -1.13450  -1.13339  -1.13328  -1.13315
 Alpha  occ. eigenvalues --   -1.13303  -1.13297  -1.13288  -1.13287  -1.13278
 Alpha  occ. eigenvalues --   -1.13248  -1.13098  -1.13077  -1.13049  -1.12914
 Alpha  occ. eigenvalues --   -1.12859  -1.12853  -1.12619  -1.12555  -1.12553
 Alpha  occ. eigenvalues --   -0.18431  -0.12799  -0.12589  -0.10385
 Alpha virt. eigenvalues --   -0.05597  -0.05286  -0.05085  -0.02915  -0.02816
 Alpha virt. eigenvalues --   -0.02327  -0.01490  -0.01381  -0.00628  -0.00570
 Alpha virt. eigenvalues --    0.00006   0.00346   0.00804   0.00829   0.00841

  Beta  occ. eigenvalues --  -38.44002 -38.43827 -38.43822 -38.43799 -38.43573
  Beta  occ. eigenvalues --  -38.43258 -38.42885  -2.19811  -2.19653  -2.19632
  Beta  occ. eigenvalues --   -2.19621  -2.19408  -2.19056  -2.18826  -1.13495
  Beta  occ. eigenvalues --   -1.13460  -1.13448  -1.13334  -1.13312  -1.13301
  Beta  occ. eigenvalues --   -1.13291  -1.13288  -1.13285  -1.13282  -1.13273
  Beta  occ. eigenvalues --   -1.13248  -1.13087  -1.13059  -1.13042  -1.12793
  Beta  occ. eigenvalues --   -1.12732  -1.12720  -1.12544  -1.12484  -1.12479
  Beta  occ. eigenvalues --   -0.17724  -0.12566  -0.12366
  Beta virt. eigenvalues --   -0.06491  -0.05591  -0.05281  -0.05014  -0.02162
  Beta virt. eigenvalues --   -0.02076  -0.01400  -0.01308  -0.01252  -0.00682
  Beta virt. eigenvalues --   -0.00627   0.00154   0.00382   0.00816   0.00850

 Mulliken charges and spin densities:
               1          2
     1  Na  -0.309928   0.420308
     2  Na   0.101370  -0.043325
     3  Na   0.239703  -0.028927
     4  Na   0.155957  -0.068923
     5  Na   0.177083  -0.023982
     6  Na  -0.435842   0.816400
     7  Na   0.071657  -0.071551
 Sum of Mulliken charges =  -0.00000   1.00000

 Dipole moment (field-independent basis, Debye):
    X=             -0.1506    Y=              0.0899    Z=              0.1072  Tot=              0.2056
 Quadrupole moment (field-independent basis, Debye-Ang):
   XX=            -56.9652   YY=            -58.3866   ZZ=            -76.5556
   XY=              0.1568   XZ=             -0.2060   YZ=              0.3469

 Normal termination of Gaussian 16 at Thu Dec  7 20:20:15 2023.
