 Gaussian 16, Revision B.01,
 Gaussian 16:  ES64L-G16RevB.01 20-Dec-2017

 -------------------------
 #P B3LYP/6-311+g(d) force
 -------------------------

 -----
 DPGEN
 -----
 Symbolic Z-matrix:
 Charge =  0 Multiplicity = 2

                         Standard orientation:
 ---------------------------------------------------------------------
 Center     Atomic      Atomic             Coordinates (Angstroms)
 Number     Number       Type             X           Y           Z
 ---------------------------------------------------------------------
      1         11           0        2.845007   -1.339347    0.161165
      2         11           0        0.250866    0.107503   -1.959904
      3         11           0       -0.796311   -2.772344   -0.154271
      4         11           0       -2.929079   -0.511361   -0.174913
      5         11           0       -0.179730    0.054388    2.240580
      6         11           0       -1.438828    2.696363   -0.014629
      7         11           0        2.248074    1.764798   -0.098027
 ---------------------------------------------------------------------

 SCF Done:  E(UB3LYP) =  -1136.13732682     A.U. after   18 cycles

 The electronic state is 2-A.
 Alpha  occ. eigenvalues --  -38.44237 -38.43875 -38.43857 -38.43803 -38.43643
 Alpha  occ. eigenvalues --  -38.43236 -38.43159  -2.20085  -2.19788  -2.19688
 Alpha  occ. eigenvalues --   -2.19668  -2.19523  -2.19054  -2.19015  -1.13741
 Alpha  occ. eigenvalues --   -1.13715  -1.13705  -1.13485  -1.13440  -1.13410
 Alpha  occ. eigenvalues --   -1.13386  -1.13358  -1.13346  -1.13329  -1.13328
 Alpha  occ. eigenvalues --   -1.13308  -1.13197  -1.13175  -1.13130  -1.12724
 Alpha  occ. eigenvalues --   -1.12717  -1.12700  -1.12691  -1.12672  -1.12653
 Alpha  occ. eigenvalues --   -0.18514  -0.13126  -0.12145  -0.11267
 Alpha virt. eigenvalues --   -0.05437  -0.05152  -0.04554  -0.03533  -0.03121
 Alpha virt. eigenvalues --   -0.02996  -0.01325  -0.00986  -0.00228  -0.00186
 Alpha virt. eigenvalues --   -0.00098   0.00402   0.00771   0.00846   0.00908

  Beta  occ. eigenvalues --  -38.44140 -38.43855 -38.43800 -38.43800 -38.43637
  Beta  occ. eigenvalues --  -38.43235 -38.43156  -2.19905  -2.19687  -2.19665
  Beta  occ. eigenvalues --   -2.19649  -2.19515  -2.19055  -2.19012  -1.13623
  Beta  occ. eigenvalues --   -1.13588  -1.13576  -1.13415  -1.13378  -1.13366
  Beta  occ. eigenvalues --   -1.13339  -1.13335  -1.13325  -1.13311  -1.13301
  Beta  occ. eigenvalues --   -1.13293  -1.13178  -1.13149  -1.13131  -1.12721
  Beta  occ. eigenvalues --   -1.12707  -1.12699  -1.12690  -1.12657  -1.12645
  Beta  occ. eigenvalues --   -0.17740  -0.12921  -0.11937
  Beta virt. eigenvalues --   -0.07331  -0.05331  -0.05173  -0.04474  -0.02706
  Beta virt. eigenvalues --   -0.02227  -0.02087  -0.01230  -0.00916  -0.00293
  Beta virt. eigenvalues --   -0.00242   0.00066   0.00419   0.00878   0.00898

 Mulliken charges and spin densities:
               1          2
     1  Na   0.072073  -0.042194
     2  Na  -0.223917   0.534019
     3  Na   0.085404  -0.053086
     4  Na   0.172976  -0.040048
     5  Na  -0.551422   0.724515
     6  Na   0.129280  -0.089986
     7  Na   0.315607  -0.033220
 Sum of Mulliken charges =  -0.00000   1.00000

 Dipole moment (field-independent basis, Debye):
    X=              0.1474    Y=              0.0084    Z=              0.1349  Tot=              0.2000
 Quadrupole moment (field-independent basis, Debye-Ang):
   XX=            -59.8985   YY=            -65.3425   ZZ=            -70.8143
   XY=             -1.0662   XZ=              0.8499   YZ=             -0.0748

 Normal termination of Gaussian 16 at Fri Dec  8 00:46:16 2023.
