 Gaussian 16, Revision B.01,
 Gaussian 16:  ES64L-G16RevB.01 20-Dec-2017

 -------------------------
 #P B3LYP/6-311+g(d) force
 -------------------------

 -----
 DPGEN
 -----
 Symbolic Z-matrix:
 Charge =  0 Multiplicity = 2

                         Standard orientation:
 ---------------------------------------------------------------------
 Center     Atomic      Atomic             Coordinates (Angstroms)
 Number     Number       Type             X           Y           Z
 ---------------------------------------------------------------------
      1         11           0       -1.056136   -2.680974   -0.553449
      2         11           0        0.536229    0.047432   -1.484552
      3         11           0        2.959853   -1.463854   -0.022438
      4         11           0       -0.078846   -0.729865    2.137549
      5         11           0       -3.352924   -0.148003   -0.118914
      6         11           0        2.145139    2.019170    0.029103
      7         11           0       -1.153315    2.956093    0.012701
 ---------------------------------------------------------------------

 SCF Done:  E(UB3LYP) =  -1136.13197058     A.U. after   19 cycles

 The electronic state is 2-A.
 Alpha  occ. eigenvalues --  -38.44461 -38.44225 -38.43816 -38.43653 -38.43631
 Alpha  occ. eigenvalues --  -38.43490 -38.43233  -2.20239  -2.20050  -2.19697
 Alpha  occ. eigenvalues --   -2.19506  -2.19482  -2.19287  -2.19233  -1.13914
 Alpha  occ. eigenvalues --   -1.13890  -1.13890  -1.13740  -1.13706  -1.13687
 Alpha  occ. eigenvalues --   -1.13472  -1.13347  -1.13301  -1.13211  -1.13184
 Alpha  occ. eigenvalues --   -1.13134  -1.13126  -1.13105  -1.13091  -1.12961
 Alpha  occ. eigenvalues --   -1.12951  -1.12929  -1.12904  -1.12875  -1.12836
 Alpha  occ. eigenvalues --   -0.18291  -0.13090  -0.12392  -0.10489
 Alpha virt. eigenvalues --   -0.05982  -0.05338  -0.04786  -0.03215  -0.02751
 Alpha virt. eigenvalues --   -0.02423  -0.01733  -0.01158  -0.00681  -0.00474
 Alpha virt. eigenvalues --   -0.00027   0.00318   0.00744   0.00813   0.00852

  Beta  occ. eigenvalues --  -38.44461 -38.44221 -38.43812 -38.43637 -38.43532
  Beta  occ. eigenvalues --  -38.43491 -38.43181  -2.20240  -2.20047  -2.19691
  Beta  occ. eigenvalues --   -2.19481  -2.19297  -2.19290  -2.19139  -1.13900
  Beta  occ. eigenvalues --   -1.13894  -1.13892  -1.13732  -1.13695  -1.13679
  Beta  occ. eigenvalues --   -1.13460  -1.13325  -1.13302  -1.13189  -1.13133
  Beta  occ. eigenvalues --   -1.13111  -1.13013  -1.12984  -1.12961  -1.12955
  Beta  occ. eigenvalues --   -1.12950  -1.12933  -1.12834  -1.12809  -1.12769
  Beta  occ. eigenvalues --   -0.17604  -0.12887  -0.12202
  Beta virt. eigenvalues --   -0.06560  -0.05940  -0.05329  -0.04685  -0.02445
  Beta virt. eigenvalues --   -0.02080  -0.01653  -0.01367  -0.01100  -0.00712
  Beta virt. eigenvalues --   -0.00499   0.00153   0.00369   0.00789   0.00828

 Mulliken charges and spin densities:
               1          2
     1  Na   0.246035  -0.021668
     2  Na  -0.015609   0.283027
     3  Na   0.327548  -0.015936
     4  Na  -0.573423   0.778350
     5  Na  -0.037142  -0.020037
     6  Na   0.166037   0.050061
     7  Na  -0.113445  -0.053796
 Sum of Mulliken charges =  -0.00000   1.00000

 Dipole moment (field-independent basis, Debye):
    X=              0.0371    Y=             -0.2219    Z=              0.1454  Tot=              0.2679
 Quadrupole moment (field-independent basis, Debye-Ang):
   XX=            -54.3317   YY=            -63.0508   ZZ=            -75.9551
   XY=             -1.3603   XZ=              0.9611   YZ=              1.5231

 Normal termination of Gaussian 16 at Fri Dec  8 02:25:19 2023.
