 Gaussian 16, Revision B.01,
 Gaussian 16:  ES64L-G16RevB.01 20-Dec-2017

 -------------------------
 #P B3LYP/6-311+g(d) force
 -------------------------

 -----
 DPGEN
 -----
 Symbolic Z-matrix:
 Charge =  0 Multiplicity = 2

                         Standard orientation:
 ---------------------------------------------------------------------
 Center     Atomic      Atomic             Coordinates (Angstroms)
 Number     Number       Type             X           Y           Z
 ---------------------------------------------------------------------
      1         11           0        0.027813    0.019053    1.987641
      2         11           0       -0.072538   -0.228977   -1.911884
      3         11           0       -2.540382    1.360581   -0.187283
      4         11           0        0.472225    2.852751    0.076943
      5         11           0       -2.176049   -1.777808    0.135828
      6         11           0        1.180101   -2.666279    0.049644
      7         11           0        3.108831    0.440679   -0.150889
 ---------------------------------------------------------------------

 SCF Done:  E(UB3LYP) =  -1136.14100095     A.U. after   19 cycles

 The electronic state is 2-A.
 Alpha  occ. eigenvalues --  -38.43886 -38.43626 -38.43554 -38.43419 -38.43365
 Alpha  occ. eigenvalues --  -38.43343 -38.43323  -2.19694  -2.19550  -2.19497
 Alpha  occ. eigenvalues --   -2.19278  -2.19265  -2.19256  -2.19176  -1.13370
 Alpha  occ. eigenvalues --   -1.13355  -1.13337  -1.13231  -1.13187  -1.13182
 Alpha  occ. eigenvalues --   -1.13174  -1.13141  -1.13126  -1.13002  -1.12955
 Alpha  occ. eigenvalues --   -1.12948  -1.12934  -1.12923  -1.12920  -1.12907
 Alpha  occ. eigenvalues --   -1.12889  -1.12849  -1.12845  -1.12834  -1.12798
 Alpha  occ. eigenvalues --   -0.18939  -0.12863  -0.12635  -0.11103
 Alpha virt. eigenvalues --   -0.05392  -0.04897  -0.04746  -0.03222  -0.03109
 Alpha virt. eigenvalues --   -0.02830  -0.01270  -0.01030  -0.00200  -0.00121
 Alpha virt. eigenvalues --   -0.00030   0.00385   0.00860   0.00923   0.00955

  Beta  occ. eigenvalues --  -38.43885 -38.43537 -38.43474 -38.43414 -38.43359
  Beta  occ. eigenvalues --  -38.43334 -38.43320  -2.19694  -2.19388  -2.19349
  Beta  occ. eigenvalues --   -2.19273  -2.19256  -2.19246  -2.19173  -1.13358
  Beta  occ. eigenvalues --   -1.13351  -1.13339  -1.13134  -1.13089  -1.13071
  Beta  occ. eigenvalues --   -1.13064  -1.13042  -1.13026  -1.12989  -1.12945
  Beta  occ. eigenvalues --   -1.12926  -1.12919  -1.12913  -1.12886  -1.12881
  Beta  occ. eigenvalues --   -1.12865  -1.12844  -1.12836  -1.12817  -1.12800
  Beta  occ. eigenvalues --   -0.18162  -0.12625  -0.12387
  Beta virt. eigenvalues --   -0.07154  -0.05392  -0.04888  -0.04688  -0.02408
  Beta virt. eigenvalues --   -0.02286  -0.01766  -0.01190  -0.00961  -0.00253
  Beta virt. eigenvalues --   -0.00182   0.00097   0.00395   0.00888   0.00926

 Mulliken charges and spin densities:
               1          2
     1  Na  -0.439064   0.699820
     2  Na  -0.407069   0.672849
     3  Na   0.208027  -0.025415
     4  Na   0.081535  -0.093352
     5  Na   0.388221  -0.010776
     6  Na   0.170696  -0.116721
     7  Na  -0.002346  -0.126405
 Sum of Mulliken charges =  -0.00000   1.00000

 Dipole moment (field-independent basis, Debye):
    X=              0.2725    Y=             -0.0389    Z=              0.0143  Tot=              0.2756
 Quadrupole moment (field-independent basis, Debye-Ang):
   XX=            -59.5928   YY=            -62.8912   ZZ=            -72.1686
   XY=             -0.1233   XZ=             -0.2383   YZ=             -0.5829

 Normal termination of Gaussian 16 at Tue Dec  5 13:10:41 2023.
