 Gaussian 16, Revision B.01,
 Gaussian 16:  ES64L-G16RevB.01 20-Dec-2017

 -------------------------
 #P B3LYP/6-311+g(d) force
 -------------------------

 -----
 DPGEN
 -----
 Symbolic Z-matrix:
 Charge =  0 Multiplicity = 2

                         Standard orientation:
 ---------------------------------------------------------------------
 Center     Atomic      Atomic             Coordinates (Angstroms)
 Number     Number       Type             X           Y           Z
 ---------------------------------------------------------------------
      1         11           0        3.249523   -0.579842    0.329008
      2         11           0       -2.463295   -1.419145   -0.609782
      3         11           0       -0.069003    0.542085   -1.170747
      4         11           0       -2.137359    2.049477    0.180861
      5         11           0        0.703133   -2.660306   -0.552702
      6         11           0       -0.791357   -0.677468    2.012019
      7         11           0        1.508357    2.745199   -0.188657
 ---------------------------------------------------------------------

 SCF Done:  E(UB3LYP) =  -1136.12848540     A.U. after   20 cycles

 The electronic state is 2-A.
 Alpha  occ. eigenvalues --  -38.44127 -38.43968 -38.43965 -38.43610 -38.43450
 Alpha  occ. eigenvalues --  -38.43402 -38.42846  -2.19916  -2.19863  -2.19814
 Alpha  occ. eigenvalues --   -2.19543  -2.19366  -2.19283  -2.18980  -1.13640
 Alpha  occ. eigenvalues --   -1.13596  -1.13590  -1.13575  -1.13558  -1.13514
 Alpha  occ. eigenvalues --   -1.13465  -1.13454  -1.13406  -1.13259  -1.13222
 Alpha  occ. eigenvalues --   -1.13163  -1.13027  -1.12992  -1.12978  -1.12970
 Alpha  occ. eigenvalues --   -1.12930  -1.12909  -1.12641  -1.12620  -1.12592
 Alpha  occ. eigenvalues --   -0.18918  -0.13000  -0.12863  -0.10503
 Alpha virt. eigenvalues --   -0.05694  -0.05280  -0.04773  -0.02963  -0.02897
 Alpha virt. eigenvalues --   -0.02198  -0.01413  -0.01195  -0.00539  -0.00259
 Alpha virt. eigenvalues --    0.00013   0.00334   0.00825   0.00860   0.00894

  Beta  occ. eigenvalues --  -38.44125 -38.43965 -38.43959 -38.43588 -38.43388
  Beta  occ. eigenvalues --  -38.43361 -38.42801  -2.19914  -2.19851  -2.19814
  Beta  occ. eigenvalues --   -2.19508  -2.19261  -2.19199  -2.18902  -1.13631
  Beta  occ. eigenvalues --   -1.13591  -1.13585  -1.13570  -1.13557  -1.13481
  Beta  occ. eigenvalues --   -1.13456  -1.13446  -1.13409  -1.13237  -1.13166
  Beta  occ. eigenvalues --   -1.13130  -1.12963  -1.12923  -1.12909  -1.12885
  Beta  occ. eigenvalues --   -1.12876  -1.12843  -1.12583  -1.12556  -1.12532
  Beta  occ. eigenvalues --   -0.18208  -0.12801  -0.12621
  Beta virt. eigenvalues --   -0.06553  -0.05625  -0.05223  -0.04688  -0.02313
  Beta virt. eigenvalues --   -0.02183  -0.01380  -0.01198  -0.01039  -0.00521
  Beta virt. eigenvalues --   -0.00290   0.00192   0.00397   0.00835   0.00896

 Mulliken charges and spin densities:
               1          2
     1  Na  -0.123048   0.007771
     2  Na   0.647648   0.032912
     3  Na  -0.026295   0.153983
     4  Na   0.092039   0.022067
     5  Na   0.081672   0.067016
     6  Na  -0.722688   0.729682
     7  Na   0.050672  -0.013430
 Sum of Mulliken charges =  -0.00000   1.00000

 Dipole moment (field-independent basis, Debye):
    X=              0.1203    Y=              0.1491    Z=              0.3348  Tot=              0.3858
 Quadrupole moment (field-independent basis, Debye-Ang):
   XX=            -56.3184   YY=            -60.9740   ZZ=            -75.2271
   XY=             -0.0604   XZ=              1.7296   YZ=              2.0236

 Normal termination of Gaussian 16 at Thu Dec  7 12:37:22 2023.
