 Gaussian 16, Revision B.01,
 Gaussian 16:  ES64L-G16RevB.01 20-Dec-2017

 -------------------------
 #P B3LYP/6-311+g(d) force
 -------------------------

 -----
 DPGEN
 -----
 Symbolic Z-matrix:
 Charge =  0 Multiplicity = 2

                         Standard orientation:
 ---------------------------------------------------------------------
 Center     Atomic      Atomic             Coordinates (Angstroms)
 Number     Number       Type             X           Y           Z
 ---------------------------------------------------------------------
      1         11           0        1.173257    1.231917    1.866641
      2         11           0        0.163557   -0.960614   -1.385752
      3         11           0       -1.414747   -1.078029    1.369507
      4         11           0        2.465106    1.647296   -1.182596
      5         11           0       -1.634434    1.921036   -0.199543
      6         11           0        3.107110   -2.065996    0.108482
      7         11           0       -3.859850   -0.695609   -0.576739
 ---------------------------------------------------------------------

 SCF Done:  E(UB3LYP) =  -1136.12386644     A.U. after   25 cycles

 The electronic state is 2-A.
 Alpha  occ. eigenvalues --  -38.44843 -38.44282 -38.43942 -38.43905 -38.43801
 Alpha  occ. eigenvalues --  -38.43554 -38.43184  -2.20676  -2.20106  -2.19849
 Alpha  occ. eigenvalues --   -2.19829  -2.19566  -2.19419  -2.19057  -1.14362
 Alpha  occ. eigenvalues --   -1.14326  -1.14308  -1.13793  -1.13767  -1.13709
 Alpha  occ. eigenvalues --   -1.13635  -1.13501  -1.13490  -1.13471  -1.13461
 Alpha  occ. eigenvalues --   -1.13422  -1.13240  -1.13228  -1.13206  -1.13118
 Alpha  occ. eigenvalues --   -1.13098  -1.13021  -1.12735  -1.12706  -1.12674
 Alpha  occ. eigenvalues --   -0.18449  -0.13899  -0.11081  -0.10927
 Alpha virt. eigenvalues --   -0.06634  -0.05646  -0.04333  -0.02963  -0.02766
 Alpha virt. eigenvalues --   -0.02379  -0.02276  -0.01324  -0.00779  -0.00165
 Alpha virt. eigenvalues --    0.00126   0.00212   0.00422   0.00623   0.00698

  Beta  occ. eigenvalues --  -38.44833 -38.44247 -38.43916 -38.43852 -38.43807
  Beta  occ. eigenvalues --  -38.43541 -38.43135  -2.20657  -2.20041  -2.19784
  Beta  occ. eigenvalues --   -2.19755  -2.19579  -2.19398  -2.18970  -1.14346
  Beta  occ. eigenvalues --   -1.14311  -1.14292  -1.13738  -1.13727  -1.13665
  Beta  occ. eigenvalues --   -1.13584  -1.13457  -1.13437  -1.13402  -1.13399
  Beta  occ. eigenvalues --   -1.13369  -1.13247  -1.13229  -1.13214  -1.13108
  Beta  occ. eigenvalues --   -1.13057  -1.13007  -1.12666  -1.12643  -1.12608
  Beta  occ. eigenvalues --   -0.17716  -0.13686  -0.10861
  Beta virt. eigenvalues --   -0.07113  -0.06443  -0.05492  -0.03791  -0.02871
  Beta virt. eigenvalues --   -0.02420  -0.01921  -0.01583  -0.01095  -0.00377
  Beta virt. eigenvalues --   -0.00127   0.00156   0.00246   0.00526   0.00693

 Mulliken charges and spin densities:
               1          2
     1  Na   0.163647   0.280616
     2  Na  -0.187689   0.460145
     3  Na  -0.073327   0.125077
     4  Na  -0.002071   0.023333
     5  Na  -0.177813   0.129546
     6  Na  -0.092931  -0.115392
     7  Na   0.370184   0.096675
 Sum of Mulliken charges =  -0.00000   1.00000

 Dipole moment (field-independent basis, Debye):
    X=             -0.7065    Y=              0.1961    Z=             -0.1514  Tot=              0.7487
 Quadrupole moment (field-independent basis, Debye-Ang):
   XX=            -48.1489   YY=            -74.7904   ZZ=            -69.8879
   XY=              2.3271   XZ=              2.8183   YZ=             -3.1579

 Normal termination of Gaussian 16 at Tue Dec  5 16:29:54 2023.
