 Gaussian 16, Revision B.01,
 Gaussian 16:  ES64L-G16RevB.01 20-Dec-2017

 -------------------------
 #P B3LYP/6-311+g(d) force
 -------------------------

 -----
 DPGEN
 -----
 Symbolic Z-matrix:
 Charge =  0 Multiplicity = 2

                         Standard orientation:
 ---------------------------------------------------------------------
 Center     Atomic      Atomic             Coordinates (Angstroms)
 Number     Number       Type             X           Y           Z
 ---------------------------------------------------------------------
      1         11           0       -4.121604   -1.426654   -0.857744
      2         11           0        1.908298   -3.422798    0.309944
      3         11           0       -1.694242   -2.757542    0.672001
      4         11           0       -0.146567    3.463286    0.858152
      5         11           0        3.965024   -0.792159   -0.337622
      6         11           0        3.292653    2.376856   -0.552505
      7         11           0       -3.203562    2.559012   -0.092226
 ---------------------------------------------------------------------

 SCF Done:  E(UB3LYP) =  -1136.10876189     A.U. after   21 cycles

 The electronic state is 2-A.
 Alpha  occ. eigenvalues --  -38.45031 -38.44823 -38.44687 -38.44547 -38.44355
 Alpha  occ. eigenvalues --  -38.44349 -38.43936  -2.20797  -2.20602  -2.20478
 Alpha  occ. eigenvalues --   -2.20312  -2.20163  -2.20153  -2.19740  -1.14465
 Alpha  occ. eigenvalues --   -1.14459  -1.14427  -1.14291  -1.14273  -1.14258
 Alpha  occ. eigenvalues --   -1.14162  -1.14154  -1.14140  -1.13988  -1.13980
 Alpha  occ. eigenvalues --   -1.13947  -1.13810  -1.13806  -1.13803  -1.13798
 Alpha  occ. eigenvalues --   -1.13789  -1.13776  -1.13389  -1.13381  -1.13372
 Alpha  occ. eigenvalues --   -0.15485  -0.13948  -0.13498  -0.11037
 Alpha virt. eigenvalues --   -0.07550  -0.04821  -0.04406  -0.03600  -0.03541
 Alpha virt. eigenvalues --   -0.02370  -0.02041  -0.01944  -0.01422  -0.01059
 Alpha virt. eigenvalues --   -0.00609  -0.00124   0.00023   0.00378   0.00662

  Beta  occ. eigenvalues --  -38.44995 -38.44818 -38.44684 -38.44535 -38.44301
  Beta  occ. eigenvalues --  -38.44288 -38.43870  -2.20735  -2.20599  -2.20479
  Beta  occ. eigenvalues --   -2.20296  -2.20065  -2.20042  -2.19616  -1.14425
  Beta  occ. eigenvalues --   -1.14416  -1.14371  -1.14287  -1.14277  -1.14222
  Beta  occ. eigenvalues --   -1.14162  -1.14158  -1.14101  -1.13980  -1.13972
  Beta  occ. eigenvalues --   -1.13913  -1.13744  -1.13738  -1.13728  -1.13724
  Beta  occ. eigenvalues --   -1.13724  -1.13700  -1.13305  -1.13301  -1.13291
  Beta  occ. eigenvalues --   -0.14926  -0.13154  -0.12714
  Beta virt. eigenvalues --   -0.07986  -0.07698  -0.04299  -0.03985  -0.03376
  Beta virt. eigenvalues --   -0.03271  -0.02096  -0.01836  -0.01760  -0.01209
  Beta virt. eigenvalues --   -0.00715  -0.00428   0.00111   0.00208   0.00353

 Mulliken charges and spin densities:
               1          2
     1  Na   0.451125   0.212990
     2  Na   0.228650   0.313939
     3  Na  -0.627001   0.028897
     4  Na  -0.129403   0.006954
     5  Na   0.054263   0.044262
     6  Na  -0.004619   0.240206
     7  Na   0.026984   0.152752
 Sum of Mulliken charges =  -0.00000   1.00000

 Dipole moment (field-independent basis, Debye):
    X=             -0.6131    Y=              0.3626    Z=             -0.1535  Tot=              0.7286
 Quadrupole moment (field-independent basis, Debye-Ang):
   XX=            -59.9749   YY=            -69.0368   ZZ=            -71.2600
   XY=             -1.3128   XZ=              2.4309   YZ=             -0.7295

 Normal termination of Gaussian 16 at Sun Dec  3 13:27:05 2023.
