 Gaussian 16, Revision B.01,
 Gaussian 16:  ES64L-G16RevB.01 20-Dec-2017

 -------------------------
 #P B3LYP/6-311+g(d) force
 -------------------------

 -----
 DPGEN
 -----
 Symbolic Z-matrix:
 Charge =  0 Multiplicity = 2

                         Standard orientation:
 ---------------------------------------------------------------------
 Center     Atomic      Atomic             Coordinates (Angstroms)
 Number     Number       Type             X           Y           Z
 ---------------------------------------------------------------------
      1         11           0       -1.750110    2.217791   -0.053054
      2         11           0        4.360077    0.547344   -0.348959
      3         11           0       -1.386563   -0.610845   -1.669035
      4         11           0        1.532251    1.368727    0.560793
      5         11           0       -4.260231   -0.530841   -0.201347
      6         11           0        2.458504   -1.923883   -0.284225
      7         11           0       -0.953929   -1.068294    1.995827
 ---------------------------------------------------------------------

 SCF Done:  E(UB3LYP) =  -1136.11152561     A.U. after   27 cycles

 The electronic state is 2-A.
 Alpha  occ. eigenvalues --  -38.45492 -38.45011 -38.44685 -38.44507 -38.44043
 Alpha  occ. eigenvalues --  -38.42709 -38.42471  -2.21336  -2.20829  -2.20561
 Alpha  occ. eigenvalues --   -2.20329  -2.19870  -2.18575  -2.18376  -1.15006
 Alpha  occ. eigenvalues --   -1.15000  -1.14981  -1.14484  -1.14459  -1.14442
 Alpha  occ. eigenvalues --   -1.14238  -1.14204  -1.14191  -1.13995  -1.13973
 Alpha  occ. eigenvalues --   -1.13964  -1.13552  -1.13533  -1.13513  -1.12281
 Alpha  occ. eigenvalues --   -1.12229  -1.12197  -1.12069  -1.12064  -1.11996
 Alpha  occ. eigenvalues --   -0.17957  -0.14799  -0.11221  -0.10458
 Alpha virt. eigenvalues --   -0.07513  -0.05418  -0.04374  -0.03590  -0.03012
 Alpha virt. eigenvalues --   -0.02302  -0.02058  -0.01317  -0.01136  -0.00661
 Alpha virt. eigenvalues --   -0.00476   0.00166   0.00256   0.00630   0.00657

  Beta  occ. eigenvalues --  -38.45482 -38.44913 -38.44642 -38.44478 -38.44042
  Beta  occ. eigenvalues --  -38.42699 -38.42464  -2.21321  -2.20648  -2.20480
  Beta  occ. eigenvalues --   -2.20276  -2.19871  -2.18558  -2.18368  -1.15000
  Beta  occ. eigenvalues --   -1.14976  -1.14957  -1.14355  -1.14337  -1.14313
  Beta  occ. eigenvalues --   -1.14186  -1.14152  -1.14134  -1.13954  -1.13935
  Beta  occ. eigenvalues --   -1.13927  -1.13557  -1.13537  -1.13483  -1.12271
  Beta  occ. eigenvalues --   -1.12220  -1.12173  -1.12065  -1.12029  -1.11992
  Beta  occ. eigenvalues --   -0.17307  -0.14319  -0.10326
  Beta virt. eigenvalues --   -0.07573  -0.07151  -0.05254  -0.03869  -0.03257
  Beta virt. eigenvalues --   -0.02770  -0.01827  -0.01505  -0.01171  -0.00730
  Beta virt. eigenvalues --   -0.00477  -0.00374   0.00194   0.00351   0.00678

 Mulliken charges and spin densities:
               1          2
     1  Na  -0.085583   0.011303
     2  Na   0.430573   0.142028
     3  Na  -0.118052   0.173839
     4  Na  -0.451826   0.095580
     5  Na   0.374766   0.076482
     6  Na  -0.030567   0.059217
     7  Na  -0.119310   0.441551
 Sum of Mulliken charges =  -0.00000   1.00000

 Dipole moment (field-independent basis, Debye):
    X=             -0.2125    Y=             -0.2159    Z=              0.2383  Tot=              0.3854
 Quadrupole moment (field-independent basis, Debye-Ang):
   XX=            -54.3671   YY=            -78.9304   ZZ=            -65.9736
   XY=             -0.2409   XZ=             -4.8984   YZ=             -1.8073

 Normal termination of Gaussian 16 at Thu Dec  7 19:44:18 2023.
