 Gaussian 16, Revision B.01,
 Gaussian 16:  ES64L-G16RevB.01 20-Dec-2017

 -------------------------
 #P B3LYP/6-311+g(d) force
 -------------------------

 -----
 DPGEN
 -----
 Symbolic Z-matrix:
 Charge =  0 Multiplicity = 2

                         Standard orientation:
 ---------------------------------------------------------------------
 Center     Atomic      Atomic             Coordinates (Angstroms)
 Number     Number       Type             X           Y           Z
 ---------------------------------------------------------------------
      1         11           0        0.040534   -0.158925    2.046180
      2         11           0       -0.064451   -0.133492   -1.661487
      3         11           0        3.140017    0.492215    0.121535
      4         11           0       -2.605356    1.337659   -0.106393
      5         11           0        1.554236   -2.625865   -0.321581
      6         11           0       -2.611106   -1.718009    0.097012
      7         11           0        0.546127    2.806417   -0.175267
 ---------------------------------------------------------------------

 SCF Done:  E(UB3LYP) =  -1136.13722745     A.U. after   19 cycles

 The electronic state is 2-A.
 Alpha  occ. eigenvalues --  -38.44341 -38.43939 -38.43704 -38.43699 -38.43489
 Alpha  occ. eigenvalues --  -38.43183 -38.42893  -2.20162  -2.19797  -2.19602
 Alpha  occ. eigenvalues --   -2.19583  -2.19321  -2.19164  -2.18755  -1.13836
 Alpha  occ. eigenvalues --   -1.13822  -1.13802  -1.13535  -1.13453  -1.13436
 Alpha  occ. eigenvalues --   -1.13278  -1.13261  -1.13244  -1.13222  -1.13209
 Alpha  occ. eigenvalues --   -1.13199  -1.13029  -1.12975  -1.12952  -1.12845
 Alpha  occ. eigenvalues --   -1.12794  -1.12785  -1.12435  -1.12415  -1.12394
 Alpha  occ. eigenvalues --   -0.18736  -0.13354  -0.12189  -0.10791
 Alpha virt. eigenvalues --   -0.05873  -0.05174  -0.04452  -0.03369  -0.02736
 Alpha virt. eigenvalues --   -0.02595  -0.01664  -0.01067  -0.00423  -0.00221
 Alpha virt. eigenvalues --   -0.00015   0.00365   0.00772   0.00865   0.00914

  Beta  occ. eigenvalues --  -38.44338 -38.43935 -38.43693 -38.43610 -38.43482
  Beta  occ. eigenvalues --  -38.43114 -38.42889  -2.20160  -2.19794  -2.19594
  Beta  occ. eigenvalues --   -2.19412  -2.19311  -2.19040  -2.18751  -1.13823
  Beta  occ. eigenvalues --   -1.13815  -1.13804  -1.13537  -1.13437  -1.13423
  Beta  occ. eigenvalues --   -1.13268  -1.13230  -1.13214  -1.13139  -1.13091
  Beta  occ. eigenvalues --   -1.13075  -1.13009  -1.12954  -1.12948  -1.12761
  Beta  occ. eigenvalues --   -1.12706  -1.12697  -1.12429  -1.12402  -1.12383
  Beta  occ. eigenvalues --   -0.18000  -0.13131  -0.11937
  Beta virt. eigenvalues --   -0.06873  -0.05816  -0.05171  -0.04427  -0.02560
  Beta virt. eigenvalues --   -0.01986  -0.01560  -0.01526  -0.00990  -0.00484
  Beta virt. eigenvalues --   -0.00267   0.00127   0.00386   0.00835   0.00861

 Mulliken charges and spin densities:
               1          2
     1  Na  -0.504217   0.704856
     2  Na  -0.233779   0.470768
     3  Na   0.115515  -0.017873
     4  Na   0.203653   0.023018
     5  Na   0.098140  -0.097237
     6  Na   0.259441  -0.040319
     7  Na   0.061247  -0.043213
 Sum of Mulliken charges =  -0.00000   1.00000

 Dipole moment (field-independent basis, Debye):
    X=              0.1667    Y=             -0.2242    Z=              0.1950  Tot=              0.3407
 Quadrupole moment (field-independent basis, Debye-Ang):
   XX=            -55.1317   YY=            -64.2061   ZZ=            -74.3473
   XY=              0.6757   XZ=              0.0525   YZ=              0.0134

 Normal termination of Gaussian 16 at Thu Dec  7 13:40:35 2023.
