 Gaussian 16, Revision B.01,
 Gaussian 16:  ES64L-G16RevB.01 20-Dec-2017

 -------------------------
 #P B3LYP/6-311+g(d) force
 -------------------------

 -----
 DPGEN
 -----
 Symbolic Z-matrix:
 Charge =  0 Multiplicity = 2

                         Standard orientation:
 ---------------------------------------------------------------------
 Center     Atomic      Atomic             Coordinates (Angstroms)
 Number     Number       Type             X           Y           Z
 ---------------------------------------------------------------------
      1         11           0        0.453651   -2.452878   -0.019434
      2         11           0        0.002627    0.275718    1.895437
      3         11           0       -0.072221    0.064531   -1.662074
      4         11           0        3.039615   -1.080343    0.037526
      5         11           0        1.842405    2.412832   -0.208684
      6         11           0       -3.286986   -1.146169   -0.053192
      7         11           0       -1.979092    1.926308    0.010421
 ---------------------------------------------------------------------

 SCF Done:  E(UB3LYP) =  -1136.13033128     A.U. after   20 cycles

 The electronic state is 2-A.
 Alpha  occ. eigenvalues --  -38.44445 -38.44337 -38.43697 -38.43385 -38.43359
 Alpha  occ. eigenvalues --  -38.43282 -38.43056  -2.20239  -2.20206  -2.19606
 Alpha  occ. eigenvalues --   -2.19332  -2.19291  -2.19197  -2.19005  -1.13936
 Alpha  occ. eigenvalues --   -1.13912  -1.13905  -1.13876  -1.13851  -1.13831
 Alpha  occ. eigenvalues --   -1.13337  -1.13303  -1.13199  -1.13042  -1.12997
 Alpha  occ. eigenvalues --   -1.12964  -1.12953  -1.12937  -1.12906  -1.12856
 Alpha  occ. eigenvalues --   -1.12839  -1.12825  -1.12679  -1.12646  -1.12623
 Alpha  occ. eigenvalues --   -0.19019  -0.13444  -0.12174  -0.10684
 Alpha virt. eigenvalues --   -0.06078  -0.05348  -0.04054  -0.03299  -0.02655
 Alpha virt. eigenvalues --   -0.02384  -0.01969  -0.01264  -0.00195  -0.00040
 Alpha virt. eigenvalues --   -0.00030   0.00310   0.00721   0.00854   0.00929

  Beta  occ. eigenvalues --  -38.44447 -38.44336 -38.43687 -38.43353 -38.43296
  Beta  occ. eigenvalues --  -38.43209 -38.43045  -2.20244  -2.20206  -2.19592
  Beta  occ. eigenvalues --   -2.19190  -2.19168  -2.19159  -2.18990  -1.13940
  Beta  occ. eigenvalues --   -1.13919  -1.13892  -1.13881  -1.13835  -1.13828
  Beta  occ. eigenvalues --   -1.13326  -1.13252  -1.13196  -1.12953  -1.12906
  Beta  occ. eigenvalues --   -1.12880  -1.12856  -1.12845  -1.12837  -1.12827
  Beta  occ. eigenvalues --   -1.12801  -1.12769  -1.12662  -1.12618  -1.12593
  Beta  occ. eigenvalues --   -0.18269  -0.13217  -0.11914
  Beta virt. eigenvalues --   -0.06739  -0.06032  -0.05345  -0.04060  -0.02494
  Beta virt. eigenvalues --   -0.01892  -0.01869  -0.01316  -0.01219  -0.00244
  Beta virt. eigenvalues --   -0.00071   0.00114   0.00329   0.00772   0.00845

 Mulliken charges and spin densities:
               1          2
     1  Na   0.268201  -0.056747
     2  Na  -0.506534   0.696120
     3  Na  -0.524386   0.653351
     4  Na   0.111397  -0.054019
     5  Na   0.200229  -0.096582
     6  Na   0.040172  -0.077437
     7  Na   0.410922  -0.064685
 Sum of Mulliken charges =  -0.00000   1.00000

 Dipole moment (field-independent basis, Debye):
    X=             -0.1397    Y=              0.0440    Z=              0.1153  Tot=              0.1864
 Quadrupole moment (field-independent basis, Debye-Ang):
   XX=            -50.7481   YY=            -66.6194   ZZ=            -75.0295
   XY=              1.5051   XZ=             -0.0562   YZ=             -0.4800

 Normal termination of Gaussian 16 at Sat Dec  9 06:54:24 2023.
