 Gaussian 16, Revision B.01,
 Gaussian 16:  ES64L-G16RevB.01 20-Dec-2017

 -------------------------
 #P B3LYP/6-311+g(d) force
 -------------------------

 -----
 DPGEN
 -----
 Symbolic Z-matrix:
 Charge =  0 Multiplicity = 2

                         Standard orientation:
 ---------------------------------------------------------------------
 Center     Atomic      Atomic             Coordinates (Angstroms)
 Number     Number       Type             X           Y           Z
 ---------------------------------------------------------------------
      1         11           0        2.922146   -2.637182   -0.512576
      2         11           0       -0.543407   -2.958243    0.718634
      3         11           0       -3.488682   -2.266799   -0.573292
      4         11           0       -1.480563    3.105732   -0.419601
      5         11           0        4.426099    0.250001    0.269916
      6         11           0        2.132214    3.207063    0.020231
      7         11           0       -3.967807    1.299428    0.496687
 ---------------------------------------------------------------------

 SCF Done:  E(UB3LYP) =  -1136.10866030     A.U. after   23 cycles

 The electronic state is 2-A.
 Alpha  occ. eigenvalues --  -38.45331 -38.44844 -38.44751 -38.44444 -38.44338
 Alpha  occ. eigenvalues --  -38.44208 -38.43803  -2.21088  -2.20618  -2.20540
 Alpha  occ. eigenvalues --   -2.20227  -2.20151  -2.20005  -2.19588  -1.14771
 Alpha  occ. eigenvalues --   -1.14755  -1.14733  -1.14304  -1.14289  -1.14274
 Alpha  occ. eigenvalues --   -1.14202  -1.14180  -1.14161  -1.13936  -1.13903
 Alpha  occ. eigenvalues --   -1.13889  -1.13802  -1.13779  -1.13761  -1.13662
 Alpha  occ. eigenvalues --   -1.13653  -1.13642  -1.13244  -1.13233  -1.13211
 Alpha  occ. eigenvalues --   -0.15574  -0.14001  -0.13371  -0.10673
 Alpha virt. eigenvalues --   -0.07757  -0.04975  -0.04243  -0.03597  -0.03304
 Alpha virt. eigenvalues --   -0.02763  -0.02312  -0.02037  -0.01169  -0.00436
 Alpha virt. eigenvalues --   -0.00222  -0.00183   0.00038   0.00160   0.00513

  Beta  occ. eigenvalues --  -38.45327 -38.44829 -38.44722 -38.44436 -38.44282
  Beta  occ. eigenvalues --  -38.44163 -38.43730  -2.21086  -2.20594  -2.20490
  Beta  occ. eigenvalues --   -2.20219  -2.20050  -2.19922  -2.19454  -1.14775
  Beta  occ. eigenvalues --   -1.14758  -1.14695  -1.14284  -1.14276  -1.14240
  Beta  occ. eigenvalues --   -1.14170  -1.14148  -1.14114  -1.13915  -1.13904
  Beta  occ. eigenvalues --   -1.13854  -1.13736  -1.13717  -1.13688  -1.13606
  Beta  occ. eigenvalues --   -1.13599  -1.13583  -1.13153  -1.13144  -1.13123
  Beta  occ. eigenvalues --   -0.15069  -0.13271  -0.12570
  Beta virt. eigenvalues --   -0.07952  -0.07567  -0.04613  -0.03730  -0.03407
  Beta virt. eigenvalues --   -0.02885  -0.02561  -0.02080  -0.01825  -0.01017
  Beta virt. eigenvalues --   -0.00159  -0.00048   0.00012   0.00156   0.00243

 Mulliken charges and spin densities:
               1          2
     1  Na  -0.008595   0.188197
     2  Na  -0.412989   0.068767
     3  Na   0.236721   0.103002
     4  Na  -0.093026  -0.001929
     5  Na   0.076603   0.046188
     6  Na   0.078349   0.369930
     7  Na   0.122938   0.225845
 Sum of Mulliken charges =  -0.00000   1.00000

 Dipole moment (field-independent basis, Debye):
    X=             -0.2480    Y=             -0.8215    Z=              0.0046  Tot=              0.8581
 Quadrupole moment (field-independent basis, Debye-Ang):
   XX=            -56.7180   YY=            -72.6961   ZZ=            -70.9180
   XY=              2.6987   XZ=              1.8567   YZ=              0.5509

 Normal termination of Gaussian 16 at Mon Dec  4 03:57:25 2023.
