 Gaussian 16, Revision B.01,
 Gaussian 16:  ES64L-G16RevB.01 20-Dec-2017

 -------------------------
 #P B3LYP/6-311+g(d) force
 -------------------------

 -----
 DPGEN
 -----
 Symbolic Z-matrix:
 Charge =  0 Multiplicity = 2

                         Standard orientation:
 ---------------------------------------------------------------------
 Center     Atomic      Atomic             Coordinates (Angstroms)
 Number     Number       Type             X           Y           Z
 ---------------------------------------------------------------------
      1         11           0        1.994030    2.328800   -0.132989
      2         11           0        2.799412   -1.141252   -0.116748
      3         11           0        0.020934    0.064637   -1.466014
      4         11           0       -1.581246    2.631592    0.004165
      5         11           0       -0.201912   -2.890465   -0.266724
      6         11           0        0.019024   -0.294038    2.153529
      7         11           0       -3.050243   -0.699273   -0.175219
 ---------------------------------------------------------------------

 SCF Done:  E(UB3LYP) =  -1136.13988203     A.U. after   18 cycles

 The electronic state is 2-A.
 Alpha  occ. eigenvalues --  -38.43793 -38.43720 -38.43648 -38.43640 -38.43575
 Alpha  occ. eigenvalues --  -38.43486 -38.42877  -2.19617  -2.19543  -2.19505
 Alpha  occ. eigenvalues --   -2.19477  -2.19447  -2.19364  -2.18910  -1.13299
 Alpha  occ. eigenvalues --   -1.13279  -1.13261  -1.13230  -1.13209  -1.13202
 Alpha  occ. eigenvalues --   -1.13178  -1.13173  -1.13167  -1.13149  -1.13129
 Alpha  occ. eigenvalues --   -1.13110  -1.13096  -1.13076  -1.13066  -1.13061
 Alpha  occ. eigenvalues --   -1.13013  -1.12979  -1.12594  -1.12547  -1.12534
 Alpha  occ. eigenvalues --   -0.18677  -0.12781  -0.12721  -0.10646
 Alpha virt. eigenvalues --   -0.05372  -0.05253  -0.04948  -0.02941  -0.02902
 Alpha virt. eigenvalues --   -0.02551  -0.01384  -0.01240  -0.00464  -0.00399
 Alpha virt. eigenvalues --   -0.00005   0.00352   0.00830   0.00871   0.00886

  Beta  occ. eigenvalues --  -38.43790 -38.43718 -38.43643 -38.43637 -38.43477
  Beta  occ. eigenvalues --  -38.43470 -38.42824  -2.19614  -2.19543  -2.19499
  Beta  occ. eigenvalues --   -2.19474  -2.19351  -2.19253  -2.18813  -1.13291
  Beta  occ. eigenvalues --   -1.13263  -1.13261  -1.13226  -1.13197  -1.13194
  Beta  occ. eigenvalues --   -1.13180  -1.13166  -1.13143  -1.13139  -1.13118
  Beta  occ. eigenvalues --   -1.13098  -1.13058  -1.12999  -1.12975  -1.12971
  Beta  occ. eigenvalues --   -1.12927  -1.12924  -1.12524  -1.12475  -1.12463
  Beta  occ. eigenvalues --   -0.17957  -0.12564  -0.12491
  Beta virt. eigenvalues --   -0.06674  -0.05383  -0.05255  -0.04876  -0.02173
  Beta virt. eigenvalues --   -0.02140  -0.01431  -0.01307  -0.01165  -0.00512
  Beta virt. eigenvalues --   -0.00461   0.00154   0.00387   0.00866   0.00879

 Mulliken charges and spin densities:
               1          2
     1  Na   0.171962  -0.024191
     2  Na   0.315895   0.010956
     3  Na  -0.476525   0.247331
     4  Na   0.109529  -0.030663
     5  Na   0.363829   0.010048
     6  Na  -0.654316   0.814906
     7  Na   0.169627  -0.028386
 Sum of Mulliken charges =  -0.00000   1.00000

 Dipole moment (field-independent basis, Debye):
    X=             -0.0610    Y=              0.0505    Z=              0.1906  Tot=              0.2064
 Quadrupole moment (field-independent basis, Debye-Ang):
   XX=            -57.6303   YY=            -59.9113   ZZ=            -75.2397
   XY=             -0.0293   XZ=             -0.0222   YZ=              0.8542

 Normal termination of Gaussian 16 at Thu Dec  7 15:15:04 2023.
