 Gaussian 16, Revision B.01,
 Gaussian 16:  ES64L-G16RevB.01 20-Dec-2017

 -------------------------
 #P B3LYP/6-311+g(d) force
 -------------------------

 -----
 DPGEN
 -----
 Symbolic Z-matrix:
 Charge =  0 Multiplicity = 2

                         Standard orientation:
 ---------------------------------------------------------------------
 Center     Atomic      Atomic             Coordinates (Angstroms)
 Number     Number       Type             X           Y           Z
 ---------------------------------------------------------------------
      1         11           0       -2.462467   -1.947346   -0.198627
      2         11           0       -2.556591    1.636348   -0.060131
      3         11           0        0.523624    2.941304    0.310834
      4         11           0       -0.070193   -0.144523   -1.886678
      5         11           0       -0.273849   -0.751965    1.981240
      6         11           0        1.845471   -2.457963   -0.037926
      7         11           0        2.994005    0.724145   -0.108712
 ---------------------------------------------------------------------

 SCF Done:  E(UB3LYP) =  -1136.13768613     A.U. after   19 cycles

 The electronic state is 2-A.
 Alpha  occ. eigenvalues --  -38.43982 -38.43889 -38.43867 -38.43816 -38.43650
 Alpha  occ. eigenvalues --  -38.43563 -38.43225  -2.19819  -2.19720  -2.19700
 Alpha  occ. eigenvalues --   -2.19654  -2.19532  -2.19468  -2.19057  -1.13504
 Alpha  occ. eigenvalues --   -1.13493  -1.13455  -1.13398  -1.13391  -1.13381
 Alpha  occ. eigenvalues --   -1.13370  -1.13368  -1.13352  -1.13333  -1.13317
 Alpha  occ. eigenvalues --   -1.13273  -1.13186  -1.13160  -1.13151  -1.13137
 Alpha  occ. eigenvalues --   -1.13099  -1.13089  -1.12721  -1.12715  -1.12712
 Alpha  occ. eigenvalues --   -0.18385  -0.13033  -0.12487  -0.10778
 Alpha virt. eigenvalues --   -0.05746  -0.05309  -0.04693  -0.03286  -0.03038
 Alpha virt. eigenvalues --   -0.02621  -0.01416  -0.01216  -0.00491  -0.00324
 Alpha virt. eigenvalues --   -0.00034   0.00377   0.00792   0.00824   0.00895

  Beta  occ. eigenvalues --  -38.43976 -38.43886 -38.43865 -38.43811 -38.43568
  Beta  occ. eigenvalues --  -38.43484 -38.43221  -2.19812  -2.19717  -2.19700
  Beta  occ. eigenvalues --   -2.19649  -2.19381  -2.19322  -2.19051  -1.13497
  Beta  occ. eigenvalues --   -1.13462  -1.13452  -1.13397  -1.13381  -1.13373
  Beta  occ. eigenvalues --   -1.13368  -1.13353  -1.13349  -1.13320  -1.13296
  Beta  occ. eigenvalues --   -1.13273  -1.13089  -1.13054  -1.13045  -1.13040
  Beta  occ. eigenvalues --   -1.12996  -1.12981  -1.12717  -1.12711  -1.12698
  Beta  occ. eigenvalues --   -0.17662  -0.12817  -0.12264
  Beta virt. eigenvalues --   -0.06907  -0.05757  -0.05233  -0.04592  -0.02492
  Beta virt. eigenvalues --   -0.02283  -0.01612  -0.01333  -0.01157  -0.00554
  Beta virt. eigenvalues --   -0.00354   0.00128   0.00412   0.00817   0.00891

 Mulliken charges and spin densities:
               1          2
     1  Na   0.296237  -0.144366
     2  Na   0.021539  -0.016504
     3  Na  -0.127158  -0.041703
     4  Na  -0.110089   0.616293
     5  Na  -0.285442   0.722955
     6  Na   0.247595  -0.126317
     7  Na  -0.042682  -0.010359
 Sum of Mulliken charges =  -0.00000   1.00000

 Dipole moment (field-independent basis, Debye):
    X=             -0.1552    Y=             -0.3717    Z=             -0.0221  Tot=              0.4034
 Quadrupole moment (field-independent basis, Debye-Ang):
   XX=            -57.8576   YY=            -63.1171   ZZ=            -73.8878
   XY=             -0.0081   XZ=              0.3575   YZ=              1.2008

 Normal termination of Gaussian 16 at Wed Nov 29 17:28:55 2023.
