 Gaussian 16, Revision B.01,
 Gaussian 16:  ES64L-G16RevB.01 20-Dec-2017

 -------------------------
 #P B3LYP/6-311+g(d) force
 -------------------------

 -----
 DPGEN
 -----
 Symbolic Z-matrix:
 Charge =  0 Multiplicity = 2

                         Standard orientation:
 ---------------------------------------------------------------------
 Center     Atomic      Atomic             Coordinates (Angstroms)
 Number     Number       Type             X           Y           Z
 ---------------------------------------------------------------------
      1         11           0        2.590578   -2.630281   -0.588714
      2         11           0        4.646500   -0.642099   -0.045908
      3         11           0       -4.364489    1.736845   -0.415310
      4         11           0       -0.477389    2.928848    0.542107
      5         11           0        2.559889    3.291058   -0.115733
      6         11           0       -1.025998   -2.774267    1.009573
      7         11           0       -3.929091   -1.910103   -0.386014
 ---------------------------------------------------------------------

 SCF Done:  E(UB3LYP) =  -1136.10404573     A.U. after   19 cycles

 The electronic state is 2-A.
 Alpha  occ. eigenvalues --  -38.44931 -38.44819 -38.44689 -38.44594 -38.44396
 Alpha  occ. eigenvalues --  -38.44252 -38.44151  -2.20693  -2.20600  -2.20513
 Alpha  occ. eigenvalues --   -2.20387  -2.20209  -2.20023  -2.19945  -1.14377
 Alpha  occ. eigenvalues --   -1.14373  -1.14346  -1.14284  -1.14248  -1.14231
 Alpha  occ. eigenvalues --   -1.14215  -1.14149  -1.14132  -1.14037  -1.14032
 Alpha  occ. eigenvalues --   -1.14004  -1.13859  -1.13852  -1.13833  -1.13742
 Alpha  occ. eigenvalues --   -1.13696  -1.13687  -1.13596  -1.13581  -1.13545
 Alpha  occ. eigenvalues --   -0.15383  -0.13926  -0.13118  -0.11177
 Alpha virt. eigenvalues --   -0.07302  -0.04860  -0.04644  -0.03617  -0.03364
 Alpha virt. eigenvalues --   -0.02689  -0.02090  -0.02000  -0.01081  -0.00972
 Alpha virt. eigenvalues --   -0.00560  -0.00489  -0.00009   0.00400   0.00522

  Beta  occ. eigenvalues --  -38.44943 -38.44721 -38.44651 -38.44524 -38.44394
  Beta  occ. eigenvalues --  -38.44252 -38.44122  -2.20720  -2.20445  -2.20417
  Beta  occ. eigenvalues --   -2.20256  -2.20211  -2.20027  -2.19892  -1.14401
  Beta  occ. eigenvalues --   -1.14389  -1.14328  -1.14239  -1.14123  -1.14107
  Beta  occ. eigenvalues --   -1.14103  -1.14095  -1.14084  -1.13946  -1.13944
  Beta  occ. eigenvalues --   -1.13921  -1.13864  -1.13856  -1.13803  -1.13723
  Beta  occ. eigenvalues --   -1.13701  -1.13685  -1.13561  -1.13547  -1.13511
  Beta  occ. eigenvalues --   -0.14831  -0.13225  -0.12510
  Beta virt. eigenvalues --   -0.07988  -0.07280  -0.04532  -0.04084  -0.03414
  Beta virt. eigenvalues --   -0.03033  -0.02475  -0.01897  -0.01809  -0.00877
  Beta virt. eigenvalues --   -0.00643  -0.00344  -0.00141   0.00175   0.00385

 Mulliken charges and spin densities:
               1          2
     1  Na  -0.126772   0.024757
     2  Na   0.153040   0.108237
     3  Na   0.237615   0.501456
     4  Na  -0.420927  -0.015402
     5  Na   0.297120   0.095562
     6  Na  -0.294880   0.350914
     7  Na   0.154803  -0.065524
 Sum of Mulliken charges =  -0.00000   1.00000

 Dipole moment (field-independent basis, Debye):
    X=              0.1647    Y=             -0.2846    Z=             -0.0868  Tot=              0.3401
 Quadrupole moment (field-independent basis, Debye-Ang):
   XX=            -56.5375   YY=            -71.4207   ZZ=            -72.5471
   XY=              5.0682   XZ=              1.3991   YZ=              0.4933

 Normal termination of Gaussian 16 at Sun Dec  3 17:27:52 2023.
