 Gaussian 16, Revision B.01,
 Gaussian 16:  ES64L-G16RevB.01 20-Dec-2017

 -------------------------
 #P B3LYP/6-311+g(d) force
 -------------------------

 -----
 DPGEN
 -----
 Symbolic Z-matrix:
 Charge =  0 Multiplicity = 2

                         Standard orientation:
 ---------------------------------------------------------------------
 Center     Atomic      Atomic             Coordinates (Angstroms)
 Number     Number       Type             X           Y           Z
 ---------------------------------------------------------------------
      1         11           0        0.150232   -0.044523   -1.697908
      2         11           0       -2.643088   -1.953431    0.231021
      3         11           0       -0.020994   -0.130758    1.967310
      4         11           0        3.238236    0.421310    0.055633
      5         11           0        1.432677   -2.824898   -0.287592
      6         11           0       -2.667935    1.507391   -0.401412
      7         11           0        0.510871    3.024910    0.132948
 ---------------------------------------------------------------------

 SCF Done:  E(UB3LYP) =  -1136.13816532     A.U. after   19 cycles

 The electronic state is 2-A.
 Alpha  occ. eigenvalues --  -38.44321 -38.43977 -38.43846 -38.43728 -38.43541
 Alpha  occ. eigenvalues --  -38.43403 -38.43284  -2.20116  -2.19769  -2.19650
 Alpha  occ. eigenvalues --   -2.19560  -2.19412  -2.19223  -2.19207  -1.13796
 Alpha  occ. eigenvalues --   -1.13775  -1.13750  -1.13443  -1.13429  -1.13414
 Alpha  occ. eigenvalues --   -1.13340  -1.13311  -1.13278  -1.13244  -1.13221
 Alpha  occ. eigenvalues --   -1.13192  -1.13089  -1.13041  -1.13026  -1.12906
 Alpha  occ. eigenvalues --   -1.12895  -1.12884  -1.12860  -1.12832  -1.12830
 Alpha  occ. eigenvalues --   -0.18186  -0.12879  -0.12312  -0.10499
 Alpha virt. eigenvalues --   -0.05812  -0.05263  -0.04955  -0.03092  -0.02834
 Alpha virt. eigenvalues --   -0.02431  -0.01638  -0.01303  -0.00677  -0.00528
 Alpha virt. eigenvalues --   -0.00015   0.00351   0.00773   0.00794   0.00852

  Beta  occ. eigenvalues --  -38.44319 -38.43974 -38.43839 -38.43719 -38.43453
  Beta  occ. eigenvalues --  -38.43400 -38.43218  -2.20114  -2.19765  -2.19640
  Beta  occ. eigenvalues --   -2.19546  -2.19250  -2.19220  -2.19087  -1.13783
  Beta  occ. eigenvalues --   -1.13773  -1.13748  -1.13431  -1.13418  -1.13415
  Beta  occ. eigenvalues --   -1.13324  -1.13296  -1.13273  -1.13225  -1.13202
  Beta  occ. eigenvalues --   -1.13183  -1.12981  -1.12931  -1.12910  -1.12889
  Beta  occ. eigenvalues --   -1.12879  -1.12852  -1.12808  -1.12751  -1.12740
  Beta  occ. eigenvalues --   -0.17474  -0.12655  -0.12078
  Beta virt. eigenvalues --   -0.06660  -0.05790  -0.05216  -0.04887  -0.02356
  Beta virt. eigenvalues --   -0.02101  -0.01541  -0.01410  -0.01199  -0.00730
  Beta virt. eigenvalues --   -0.00573   0.00122   0.00376   0.00786   0.00832

 Mulliken charges and spin densities:
               1          2
     1  Na   0.006374   0.545506
     2  Na   0.035753  -0.067289
     3  Na  -0.277853   0.801537
     4  Na   0.069675  -0.090200
     5  Na   0.037012  -0.115326
     6  Na   0.121051  -0.007086
     7  Na   0.007989  -0.067142
 Sum of Mulliken charges =  -0.00000   1.00000

 Dipole moment (field-independent basis, Debye):
    X=              0.2189    Y=             -0.1837    Z=              0.0607  Tot=              0.2921
 Quadrupole moment (field-independent basis, Debye-Ang):
   XX=            -55.9870   YY=            -60.7400   ZZ=            -75.7928
   XY=              0.5757   XZ=              0.5575   YZ=              0.0806

 Normal termination of Gaussian 16 at Thu Dec  7 05:51:25 2023.
