 Gaussian 16, Revision B.01,
 Gaussian 16:  ES64L-G16RevB.01 20-Dec-2017

 -------------------------
 #P B3LYP/6-311+g(d) force
 -------------------------

 -----
 DPGEN
 -----
 Symbolic Z-matrix:
 Charge =  0 Multiplicity = 2

                         Standard orientation:
 ---------------------------------------------------------------------
 Center     Atomic      Atomic             Coordinates (Angstroms)
 Number     Number       Type             X           Y           Z
 ---------------------------------------------------------------------
      1         11           0       -4.078784   -0.408725    0.457322
      2         11           0       -0.786949   -2.438518   -0.414851
      3         11           0        0.425068    0.154133   -1.694333
      4         11           0        0.245940    0.423537    1.996712
      5         11           0        2.493978   -1.859306    0.070256
      6         11           0       -1.612923    2.598235   -0.602504
      7         11           0        3.313669    1.530644    0.187399
 ---------------------------------------------------------------------

 SCF Done:  E(UB3LYP) =  -1136.12085949     A.U. after   24 cycles

 The electronic state is 2-A.
 Alpha  occ. eigenvalues --  -38.45483 -38.44946 -38.44510 -38.43817 -38.43723
 Alpha  occ. eigenvalues --  -38.43282 -38.42726  -2.21210  -2.20753  -2.20293
 Alpha  occ. eigenvalues --   -2.19685  -2.19513  -2.19240  -2.18589  -1.14882
 Alpha  occ. eigenvalues --   -1.14864  -1.14831  -1.14437  -1.14400  -1.14362
 Alpha  occ. eigenvalues --   -1.13969  -1.13955  -1.13936  -1.13370  -1.13358
 Alpha  occ. eigenvalues --   -1.13307  -1.13205  -1.13172  -1.13135  -1.12934
 Alpha  occ. eigenvalues --   -1.12875  -1.12854  -1.12296  -1.12256  -1.12195
 Alpha  occ. eigenvalues --   -0.18004  -0.13159  -0.11648  -0.10659
 Alpha virt. eigenvalues --   -0.07221  -0.05369  -0.04085  -0.03214  -0.02689
 Alpha virt. eigenvalues --   -0.02664  -0.02419  -0.01394  -0.00777  -0.00345
 Alpha virt. eigenvalues --   -0.00098   0.00102   0.00388   0.00625   0.00665

  Beta  occ. eigenvalues --  -38.45456 -38.44889 -38.44517 -38.43813 -38.43699
  Beta  occ. eigenvalues --  -38.43201 -38.42722  -2.21158  -2.20646  -2.20308
  Beta  occ. eigenvalues --   -2.19681  -2.19473  -2.19093  -2.18584  -1.14842
  Beta  occ. eigenvalues --   -1.14828  -1.14798  -1.14363  -1.14325  -1.14283
  Beta  occ. eigenvalues --   -1.13979  -1.13954  -1.13944  -1.13361  -1.13355
  Beta  occ. eigenvalues --   -1.13295  -1.13165  -1.13142  -1.13106  -1.12839
  Beta  occ. eigenvalues --   -1.12775  -1.12738  -1.12285  -1.12245  -1.12185
  Beta  occ. eigenvalues --   -0.17366  -0.12879  -0.11374
  Beta virt. eigenvalues --   -0.07169  -0.06735  -0.05342  -0.03971  -0.02749
  Beta virt. eigenvalues --   -0.02386  -0.01980  -0.01623  -0.01296  -0.00731
  Beta virt. eigenvalues --   -0.00184  -0.00064   0.00156   0.00555   0.00682

 Mulliken charges and spin densities:
               1          2
     1  Na  -0.062925   0.175852
     2  Na  -0.280555   0.062363
     3  Na   0.556094   0.223907
     4  Na  -0.281802   0.510591
     5  Na   0.165177   0.054887
     6  Na  -0.135990   0.020668
     7  Na   0.040000  -0.048269
 Sum of Mulliken charges =  -0.00000   1.00000

 Dipole moment (field-independent basis, Debye):
    X=              0.0168    Y=              0.2287    Z=              0.3862  Tot=              0.4491
 Quadrupole moment (field-independent basis, Debye-Ang):
   XX=            -49.4921   YY=            -70.2192   ZZ=            -73.6340
   XY=              0.1811   XZ=             -1.0092   YZ=             -1.0778

 Normal termination of Gaussian 16 at Thu Dec  7 03:25:51 2023.
