 Gaussian 16, Revision B.01,
 Gaussian 16:  ES64L-G16RevB.01 20-Dec-2017

 -------------------------
 #P B3LYP/6-311+g(d) force
 -------------------------

 -----
 DPGEN
 -----
 Symbolic Z-matrix:
 Charge =  0 Multiplicity = 2

                         Standard orientation:
 ---------------------------------------------------------------------
 Center     Atomic      Atomic             Coordinates (Angstroms)
 Number     Number       Type             X           Y           Z
 ---------------------------------------------------------------------
      1         11           0       -2.218176   -0.813595    0.415299
      2         11           0       -5.206978   -2.272529   -0.224346
      3         11           0       -3.818735    1.758835   -1.015842
      4         11           0       -1.272771    2.221864    0.543791
      5         11           0        1.343774   -0.106058    1.456724
      6         11           0        3.931439   -0.531499   -0.943096
      7         11           0        7.241446   -0.257018   -0.232530
 ---------------------------------------------------------------------

 SCF Done:  E(UB3LYP) =  -1136.11267207     A.U. after   21 cycles

 The electronic state is 2-A.
 Alpha  occ. eigenvalues --  -38.45004 -38.44399 -38.44236 -38.44207 -38.44062
 Alpha  occ. eigenvalues --  -38.43981 -38.43800  -2.20876  -2.20163  -2.20141
 Alpha  occ. eigenvalues --   -2.20105  -2.19831  -2.19770  -2.19613  -1.14592
 Alpha  occ. eigenvalues --   -1.14525  -1.14470  -1.13893  -1.13820  -1.13818
 Alpha  occ. eigenvalues --   -1.13811  -1.13794  -1.13791  -1.13778  -1.13751
 Alpha  occ. eigenvalues --   -1.13676  -1.13515  -1.13512  -1.13462  -1.13427
 Alpha  occ. eigenvalues --   -1.13424  -1.13381  -1.13284  -1.13275  -1.13220
 Alpha  occ. eigenvalues --   -0.17074  -0.13798  -0.12052  -0.11480
 Alpha virt. eigenvalues --   -0.06545  -0.05233  -0.04384  -0.03834  -0.03098
 Alpha virt. eigenvalues --   -0.02340  -0.02127  -0.01677  -0.01135  -0.00947
 Alpha virt. eigenvalues --   -0.00546  -0.00243   0.00094   0.00497   0.00586

  Beta  occ. eigenvalues --  -38.44937 -38.44361 -38.44207 -38.44189 -38.44074
  Beta  occ. eigenvalues --  -38.43934 -38.43764  -2.20757  -2.20095  -2.20092
  Beta  occ. eigenvalues --   -2.20072  -2.19857  -2.19683  -2.19545  -1.14502
  Beta  occ. eigenvalues --   -1.14446  -1.14377  -1.13864  -1.13789  -1.13771
  Beta  occ. eigenvalues --   -1.13770  -1.13766  -1.13746  -1.13735  -1.13689
  Beta  occ. eigenvalues --   -1.13646  -1.13533  -1.13530  -1.13462  -1.13367
  Beta  occ. eigenvalues --   -1.13361  -1.13329  -1.13233  -1.13230  -1.13184
  Beta  occ. eigenvalues --   -0.16424  -0.13452  -0.11353
  Beta virt. eigenvalues --   -0.08159  -0.06154  -0.04986  -0.04097  -0.03628
  Beta virt. eigenvalues --   -0.02576  -0.02111  -0.01811  -0.01509  -0.00921
  Beta virt. eigenvalues --   -0.00564  -0.00292  -0.00128   0.00292   0.00555

 Mulliken charges and spin densities:
               1          2
     1  Na  -2.293866   0.361402
     2  Na  -0.084904   0.184635
     3  Na   0.068476   0.242689
     4  Na   0.641253   0.039944
     5  Na   1.578178   0.069193
     6  Na  -0.364590  -0.049209
     7  Na   0.455453   0.151345
 Sum of Mulliken charges =  -0.00000   1.00000

 Dipole moment (field-independent basis, Debye):
    X=             -0.8197    Y=              0.7872    Z=             -0.1026  Tot=              1.1411
 Quadrupole moment (field-independent basis, Debye-Ang):
   XX=            -57.4805   YY=            -68.3061   ZZ=            -69.5909
   XY=             -0.1557   XZ=              5.5055   YZ=             -0.8330

 Normal termination of Gaussian 16 at Tue Nov 28 20:30:09 2023.
