 Gaussian 16, Revision B.01,
 Gaussian 16:  ES64L-G16RevB.01 20-Dec-2017

 -------------------------
 #P B3LYP/6-311+g(d) force
 -------------------------

 -----
 DPGEN
 -----
 Symbolic Z-matrix:
 Charge =  0 Multiplicity = 2

                         Standard orientation:
 ---------------------------------------------------------------------
 Center     Atomic      Atomic             Coordinates (Angstroms)
 Number     Number       Type             X           Y           Z
 ---------------------------------------------------------------------
      1         11           0       -0.059662    3.187218    0.694230
      2         11           0        3.724906   -1.018352   -0.044517
      3         11           0       -4.308897   -0.535183   -0.719372
      4         11           0       -1.453746   -1.903736   -1.075261
      5         11           0       -2.061248    0.969700    1.467444
      6         11           0        2.459186    2.761050   -1.161915
      7         11           0        1.699460   -3.460697    0.839391
 ---------------------------------------------------------------------

 SCF Done:  E(UB3LYP) =  -1136.11297630     A.U. after   20 cycles

 The electronic state is 2-A.
 Alpha  occ. eigenvalues --  -38.45383 -38.45254 -38.44594 -38.44175 -38.43829
 Alpha  occ. eigenvalues --  -38.43471 -38.43375  -2.21172  -2.21000  -2.20425
 Alpha  occ. eigenvalues --   -2.20040  -2.19622  -2.19284  -2.19227  -1.14853
 Alpha  occ. eigenvalues --   -1.14841  -1.14800  -1.14687  -1.14666  -1.14635
 Alpha  occ. eigenvalues --   -1.14085  -1.14074  -1.14057  -1.13731  -1.13697
 Alpha  occ. eigenvalues --   -1.13644  -1.13281  -1.13272  -1.13264  -1.13001
 Alpha  occ. eigenvalues --   -1.12936  -1.12919  -1.12900  -1.12877  -1.12826
 Alpha  occ. eigenvalues --   -0.16323  -0.13677  -0.13128  -0.10490
 Alpha virt. eigenvalues --   -0.06989  -0.05317  -0.04580  -0.03627  -0.03182
 Alpha virt. eigenvalues --   -0.02408  -0.01884  -0.01327  -0.01230  -0.00878
 Alpha virt. eigenvalues --   -0.00356  -0.00132   0.00075   0.00476   0.00645

  Beta  occ. eigenvalues --  -38.45363 -38.45253 -38.44566 -38.44107 -38.43805
  Beta  occ. eigenvalues --  -38.43418 -38.43362  -2.21138  -2.21001  -2.20375
  Beta  occ. eigenvalues --   -2.19918  -2.19576  -2.19211  -2.19183  -1.14832
  Beta  occ. eigenvalues --   -1.14819  -1.14759  -1.14689  -1.14669  -1.14615
  Beta  occ. eigenvalues --   -1.14043  -1.14034  -1.14029  -1.13646  -1.13616
  Beta  occ. eigenvalues --   -1.13548  -1.13249  -1.13242  -1.13234  -1.12949
  Beta  occ. eigenvalues --   -1.12888  -1.12878  -1.12859  -1.12840  -1.12775
  Beta  occ. eigenvalues --   -0.15822  -0.13230  -0.12617
  Beta virt. eigenvalues --   -0.07119  -0.06950  -0.05016  -0.04087  -0.03320
  Beta virt. eigenvalues --   -0.02833  -0.02302  -0.01549  -0.01144  -0.00960
  Beta virt. eigenvalues --   -0.00686  -0.00129   0.00103   0.00243   0.00573

 Mulliken charges and spin densities:
               1          2
     1  Na  -0.251527  -0.065332
     2  Na  -0.151791   0.061237
     3  Na   0.691446   0.080165
     4  Na  -0.585696   0.159155
     5  Na  -0.146787   0.346201
     6  Na   0.280972   0.327117
     7  Na   0.163384   0.091458
 Sum of Mulliken charges =  -0.00000   1.00000

 Dipole moment (field-independent basis, Debye):
    X=             -1.1548    Y=             -1.1552    Z=             -0.2291  Tot=              1.6494
 Quadrupole moment (field-independent basis, Debye-Ang):
   XX=            -57.3835   YY=            -71.5753   ZZ=            -71.0787
   XY=             -1.6316   XZ=              0.1099   YZ=             -1.7304

 Normal termination of Gaussian 16 at Sun Dec  3 16:39:35 2023.
