 Gaussian 16, Revision B.01,
 Gaussian 16:  ES64L-G16RevB.01 20-Dec-2017

 -------------------------
 #P B3LYP/6-311+g(d) force
 -------------------------

 -----
 DPGEN
 -----
 Symbolic Z-matrix:
 Charge =  0 Multiplicity = 2

                         Standard orientation:
 ---------------------------------------------------------------------
 Center     Atomic      Atomic             Coordinates (Angstroms)
 Number     Number       Type             X           Y           Z
 ---------------------------------------------------------------------
      1         11           0       -1.026927   -2.686006    0.174693
      2         11           0        2.292695   -2.023975   -0.295068
      3         11           0       -0.624560    2.896047   -0.177991
      4         11           0        2.776425    1.568617    0.051719
      5         11           0       -3.139467    0.216767   -0.065455
      6         11           0       -0.020824    0.099415    2.012362
      7         11           0       -0.257343   -0.070865   -1.700261
 ---------------------------------------------------------------------

 SCF Done:  E(UB3LYP) =  -1136.14080456     A.U. after   19 cycles

 The electronic state is 2-A.
 Alpha  occ. eigenvalues --  -38.43866 -38.43856 -38.43599 -38.43597 -38.43519
 Alpha  occ. eigenvalues --  -38.43386 -38.43204  -2.19702  -2.19654  -2.19436
 Alpha  occ. eigenvalues --   -2.19431  -2.19410  -2.19262  -2.19170  -1.13388
 Alpha  occ. eigenvalues --   -1.13362  -1.13340  -1.13330  -1.13315  -1.13301
 Alpha  occ. eigenvalues --   -1.13131  -1.13114  -1.13112  -1.13100  -1.13077
 Alpha  occ. eigenvalues --   -1.13072  -1.13056  -1.13036  -1.13027  -1.12960
 Alpha  occ. eigenvalues --   -1.12925  -1.12883  -1.12842  -1.12792  -1.12787
 Alpha  occ. eigenvalues --   -0.18599  -0.12755  -0.12648  -0.10706
 Alpha virt. eigenvalues --   -0.05508  -0.05167  -0.04892  -0.03022  -0.03006
 Alpha virt. eigenvalues --   -0.02551  -0.01454  -0.01173  -0.00456  -0.00357
 Alpha virt. eigenvalues --   -0.00008   0.00363   0.00820   0.00871   0.00892

  Beta  occ. eigenvalues --  -38.43862 -38.43855 -38.43594 -38.43591 -38.43426
  Beta  occ. eigenvalues --  -38.43379 -38.43136  -2.19698  -2.19656  -2.19429
  Beta  occ. eigenvalues --   -2.19423  -2.19252  -2.19239  -2.19047  -1.13379
  Beta  occ. eigenvalues --   -1.13347  -1.13335  -1.13319  -1.13313  -1.13304
  Beta  occ. eigenvalues --   -1.13121  -1.13103  -1.13084  -1.13078  -1.13068
  Beta  occ. eigenvalues --   -1.13053  -1.12980  -1.12943  -1.12920  -1.12907
  Beta  occ. eigenvalues --   -1.12885  -1.12873  -1.12761  -1.12709  -1.12696
  Beta  occ. eigenvalues --   -0.17861  -0.12531  -0.12409
  Beta virt. eigenvalues --   -0.06790  -0.05505  -0.05168  -0.04819  -0.02262
  Beta virt. eigenvalues --   -0.02208  -0.01493  -0.01373  -0.01094  -0.00509
  Beta virt. eigenvalues --   -0.00413   0.00126   0.00384   0.00852   0.00876

 Mulliken charges and spin densities:
               1          2
     1  Na   0.224926  -0.015218
     2  Na   0.039842  -0.063364
     3  Na   0.075130  -0.125078
     4  Na  -0.007740  -0.092686
     5  Na   0.234479  -0.080318
     6  Na  -0.397720   0.785941
     7  Na  -0.168917   0.590723
 Sum of Mulliken charges =  -0.00000   1.00000

 Dipole moment (field-independent basis, Debye):
    X=             -0.0588    Y=              0.1321    Z=              0.0905  Tot=              0.1706
 Quadrupole moment (field-independent basis, Debye-Ang):
   XX=            -57.1708   YY=            -61.3891   ZZ=            -74.6128
   XY=              0.0211   XZ=             -0.5432   YZ=             -0.2931

 Normal termination of Gaussian 16 at Thu Dec  7 02:35:41 2023.
