 Gaussian 16, Revision B.01,
 Gaussian 16:  ES64L-G16RevB.01 20-Dec-2017

 -------------------------
 #P B3LYP/6-311+g(d) force
 -------------------------

 -----
 DPGEN
 -----
 Symbolic Z-matrix:
 Charge =  0 Multiplicity = 2

                         Standard orientation:
 ---------------------------------------------------------------------
 Center     Atomic      Atomic             Coordinates (Angstroms)
 Number     Number       Type             X           Y           Z
 ---------------------------------------------------------------------
      1         11           0        2.123334   -1.199599    1.460492
      2         11           0        0.855768    0.285824   -1.289416
      3         11           0       -2.420504    1.433902    0.081123
      4         11           0       -1.020080   -2.002203    0.580139
      5         11           0       -4.347063   -1.087386   -0.521581
      6         11           0        0.597056    3.269472    0.599849
      7         11           0        4.211488   -0.700010   -0.910607
 ---------------------------------------------------------------------

 SCF Done:  E(UB3LYP) =  -1136.12467877     A.U. after   21 cycles

 The electronic state is 2-A.
 Alpha  occ. eigenvalues --  -38.44903 -38.44305 -38.43877 -38.43742 -38.43664
 Alpha  occ. eigenvalues --  -38.43526 -38.43192  -2.20772  -2.20187  -2.19731
 Alpha  occ. eigenvalues --   -2.19594  -2.19497  -2.19394  -2.18981  -1.14477
 Alpha  occ. eigenvalues --   -1.14456  -1.14372  -1.13865  -1.13846  -1.13838
 Alpha  occ. eigenvalues --   -1.13383  -1.13359  -1.13348  -1.13302  -1.13281
 Alpha  occ. eigenvalues --   -1.13246  -1.13145  -1.13133  -1.13097  -1.13089
 Alpha  occ. eigenvalues --   -1.13067  -1.12982  -1.12654  -1.12644  -1.12613
 Alpha  occ. eigenvalues --   -0.17683  -0.14163  -0.11850  -0.10723
 Alpha virt. eigenvalues --   -0.06711  -0.05058  -0.04453  -0.03639  -0.02946
 Alpha virt. eigenvalues --   -0.02354  -0.01505  -0.01497  -0.00991  -0.00586
 Alpha virt. eigenvalues --   -0.00227  -0.00014   0.00375   0.00579   0.00779

  Beta  occ. eigenvalues --  -38.44895 -38.44279 -38.43800 -38.43731 -38.43619
  Beta  occ. eigenvalues --  -38.43477 -38.43197  -2.20759  -2.20148  -2.19586
  Beta  occ. eigenvalues --   -2.19578  -2.19412  -2.19309  -2.18991  -1.14458
  Beta  occ. eigenvalues --   -1.14436  -1.14366  -1.13831  -1.13820  -1.13773
  Beta  occ. eigenvalues --   -1.13291  -1.13283  -1.13269  -1.13258  -1.13257
  Beta  occ. eigenvalues --   -1.13206  -1.13087  -1.13075  -1.13053  -1.13035
  Beta  occ. eigenvalues --   -1.13006  -1.12901  -1.12659  -1.12653  -1.12618
  Beta  occ. eigenvalues --   -0.17095  -0.13552  -0.11629
  Beta virt. eigenvalues --   -0.07076  -0.06524  -0.04981  -0.03895  -0.03381
  Beta virt. eigenvalues --   -0.02663  -0.02042  -0.01279  -0.01130  -0.00558
  Beta virt. eigenvalues --   -0.00428  -0.00015   0.00123   0.00521   0.00712

 Mulliken charges and spin densities:
               1          2
     1  Na   0.328441  -0.007464
     2  Na   0.055520   0.027104
     3  Na  -0.221841   0.226953
     4  Na  -0.584639   0.126960
     5  Na   0.537876   0.222164
     6  Na  -0.098326   0.004094
     7  Na  -0.017032   0.400189
 Sum of Mulliken charges =  -0.00000   1.00000

 Dipole moment (field-independent basis, Debye):
    X=              0.4337    Y=             -0.2375    Z=              0.3483  Tot=              0.6048
 Quadrupole moment (field-independent basis, Debye-Ang):
   XX=            -64.0650   YY=            -71.7386   ZZ=            -64.9695
   XY=              2.1691   XZ=              3.2249   YZ=              2.7296

 Normal termination of Gaussian 16 at Wed Nov 29 03:16:14 2023.
