 Gaussian 16, Revision B.01,
 Gaussian 16:  ES64L-G16RevB.01 20-Dec-2017

 -------------------------
 #P B3LYP/6-311+g(d) force
 -------------------------

 -----
 DPGEN
 -----
 Symbolic Z-matrix:
 Charge =  0 Multiplicity = 2

                         Standard orientation:
 ---------------------------------------------------------------------
 Center     Atomic      Atomic             Coordinates (Angstroms)
 Number     Number       Type             X           Y           Z
 ---------------------------------------------------------------------
      1         11           0        0.566861   -0.163548    2.063323
      2         11           0       -2.887382   -0.315010    0.378947
      3         11           0       -1.598193    2.606530   -0.281697
      4         11           0        2.156063    1.983171   -0.034428
      5         11           0       -0.949113   -2.768346   -0.245699
      6         11           0        2.894028   -1.234982   -0.333960
      7         11           0       -0.182263   -0.107816   -1.546486
 ---------------------------------------------------------------------

 SCF Done:  E(UB3LYP) =  -1136.13569320     A.U. after   19 cycles

 The electronic state is 2-A.
 Alpha  occ. eigenvalues --  -38.44146 -38.43833 -38.43812 -38.43666 -38.43292
 Alpha  occ. eigenvalues --  -38.43209 -38.43037  -2.19988  -2.19732  -2.19672
 Alpha  occ. eigenvalues --   -2.19554  -2.19178  -2.19063  -2.19056  -1.13665
 Alpha  occ. eigenvalues --   -1.13652  -1.13629  -1.13422  -1.13392  -1.13385
 Alpha  occ. eigenvalues --   -1.13361  -1.13346  -1.13294  -1.13214  -1.13180
 Alpha  occ. eigenvalues --   -1.13167  -1.12943  -1.12824  -1.12802  -1.12773
 Alpha  occ. eigenvalues --   -1.12724  -1.12715  -1.12690  -1.12678  -1.12649
 Alpha  occ. eigenvalues --   -0.18834  -0.13423  -0.12274  -0.10768
 Alpha virt. eigenvalues --   -0.05615  -0.05301  -0.04494  -0.03466  -0.02691
 Alpha virt. eigenvalues --   -0.02535  -0.01522  -0.01085  -0.00288  -0.00267
 Alpha virt. eigenvalues --    0.00002   0.00364   0.00812   0.00857   0.00909

  Beta  occ. eigenvalues --  -38.44139 -38.43827 -38.43806 -38.43572 -38.43286
  Beta  occ. eigenvalues --  -38.43207 -38.42976  -2.19977  -2.19722  -2.19665
  Beta  occ. eigenvalues --   -2.19382  -2.19171  -2.19054  -2.18952  -1.13657
  Beta  occ. eigenvalues --   -1.13631  -1.13616  -1.13416  -1.13391  -1.13354
  Beta  occ. eigenvalues --   -1.13352  -1.13315  -1.13292  -1.13102  -1.13061
  Beta  occ. eigenvalues --   -1.13044  -1.12920  -1.12805  -1.12793  -1.12750
  Beta  occ. eigenvalues --   -1.12706  -1.12689  -1.12652  -1.12604  -1.12581
  Beta  occ. eigenvalues --   -0.18112  -0.13199  -0.12035
  Beta virt. eigenvalues --   -0.06846  -0.05564  -0.05253  -0.04476  -0.02642
  Beta virt. eigenvalues --   -0.01982  -0.01469  -0.01430  -0.01016  -0.00320
  Beta virt. eigenvalues --   -0.00292   0.00147   0.00393   0.00848   0.00896

 Mulliken charges and spin densities:
               1          2
     1  Na  -0.496340   0.646910
     2  Na   0.138795   0.123407
     3  Na   0.059166  -0.027847
     4  Na   0.169966   0.006400
     5  Na   0.235097  -0.039318
     6  Na   0.188303  -0.058468
     7  Na  -0.294987   0.348917
 Sum of Mulliken charges =  -0.00000   1.00000

 Dipole moment (field-independent basis, Debye):
    X=              0.4170    Y=             -0.0983    Z=              0.2040  Tot=              0.4745
 Quadrupole moment (field-independent basis, Debye-Ang):
   XX=            -56.6538   YY=            -62.8994   ZZ=            -74.2198
   XY=             -0.3475   XZ=             -1.8768   YZ=              0.1203

 Normal termination of Gaussian 16 at Thu Dec  7 12:50:14 2023.
