 Gaussian 16, Revision B.01,
 Gaussian 16:  ES64L-G16RevB.01 20-Dec-2017

 -------------------------
 #P B3LYP/6-311+g(d) force
 -------------------------

 -----
 DPGEN
 -----
 Symbolic Z-matrix:
 Charge =  0 Multiplicity = 2

                         Standard orientation:
 ---------------------------------------------------------------------
 Center     Atomic      Atomic             Coordinates (Angstroms)
 Number     Number       Type             X           Y           Z
 ---------------------------------------------------------------------
      1         11           0       -1.085181    0.860181    1.626744
      2         11           0        2.089908    0.859105    0.453640
      3         11           0        0.703211   -2.407530    1.028873
      4         11           0       -3.676743    0.370826   -0.973996
      5         11           0       -2.008926   -2.639023   -0.655946
      6         11           0        4.347425   -0.426996   -1.134600
      7         11           0       -0.369694    3.383437   -0.344714
 ---------------------------------------------------------------------

 SCF Done:  E(UB3LYP) =  -1136.12252939     A.U. after   20 cycles

 The electronic state is 2-A.
 Alpha  occ. eigenvalues --  -38.44475 -38.44347 -38.44276 -38.44023 -38.44009
 Alpha  occ. eigenvalues --  -38.43765 -38.43152  -2.20266  -2.20217  -2.20077
 Alpha  occ. eigenvalues --   -2.19853  -2.19817  -2.19600  -2.19049  -1.13957
 Alpha  occ. eigenvalues --   -1.13939  -1.13912  -1.13900  -1.13870  -1.13810
 Alpha  occ. eigenvalues --   -1.13740  -1.13720  -1.13695  -1.13536  -1.13512
 Alpha  occ. eigenvalues --   -1.13490  -1.13481  -1.13463  -1.13460  -1.13262
 Alpha  occ. eigenvalues --   -1.13259  -1.13212  -1.12751  -1.12727  -1.12673
 Alpha  occ. eigenvalues --   -0.17234  -0.13528  -0.12568  -0.10919
 Alpha virt. eigenvalues --   -0.06385  -0.05098  -0.04663  -0.03845  -0.02826
 Alpha virt. eigenvalues --   -0.01976  -0.01687  -0.01401  -0.01033  -0.00666
 Alpha virt. eigenvalues --   -0.00445   0.00142   0.00425   0.00616   0.00660

  Beta  occ. eigenvalues --  -38.44478 -38.44318 -38.44207 -38.44009 -38.43942
  Beta  occ. eigenvalues --  -38.43731 -38.43145  -2.20272  -2.20166  -2.19949
  Beta  occ. eigenvalues --   -2.19820  -2.19702  -2.19537  -2.19046  -1.13950
  Beta  occ. eigenvalues --   -1.13943  -1.13914  -1.13864  -1.13829  -1.13778
  Beta  occ. eigenvalues --   -1.13653  -1.13638  -1.13605  -1.13505  -1.13486
  Beta  occ. eigenvalues --   -1.13453  -1.13435  -1.13378  -1.13362  -1.13222
  Beta  occ. eigenvalues --   -1.13209  -1.13175  -1.12735  -1.12708  -1.12658
  Beta  occ. eigenvalues --   -0.16710  -0.12684  -0.12372
  Beta virt. eigenvalues --   -0.07532  -0.06230  -0.04841  -0.04171  -0.03572
  Beta virt. eigenvalues --   -0.02561  -0.01481  -0.01304  -0.01207  -0.00818
  Beta virt. eigenvalues --   -0.00586  -0.00199   0.00307   0.00462   0.00708

 Mulliken charges and spin densities:
               1          2
     1  Na   0.863963   0.136425
     2  Na  -1.302561   0.125611
     3  Na  -0.076400   0.115257
     4  Na  -0.226423   0.416428
     5  Na   0.060526  -0.015260
     6  Na   0.545869   0.283450
     7  Na   0.135026  -0.061911
 Sum of Mulliken charges =  -0.00000   1.00000

 Dipole moment (field-independent basis, Debye):
    X=             -0.4883    Y=              0.4331    Z=             -0.3288  Tot=              0.7309
 Quadrupole moment (field-independent basis, Debye-Ang):
   XX=            -69.2492   YY=            -62.0244   ZZ=            -67.3203
   XY=             -3.1324   XZ=             -1.4992   YZ=             -1.3262

 Normal termination of Gaussian 16 at Tue Nov 28 19:41:45 2023.
