 Gaussian 16, Revision B.01,
 Gaussian 16:  ES64L-G16RevB.01 20-Dec-2017

 -------------------------
 #P B3LYP/6-311+g(d) force
 -------------------------

 -----
 DPGEN
 -----
 Symbolic Z-matrix:
 Charge =  0 Multiplicity = 2

                         Standard orientation:
 ---------------------------------------------------------------------
 Center     Atomic      Atomic             Coordinates (Angstroms)
 Number     Number       Type             X           Y           Z
 ---------------------------------------------------------------------
      1         11           0        3.328099   -1.141350    0.403520
      2         11           0       -3.499598    0.871220   -0.828852
      3         11           0        3.219211    1.889881   -0.351046
      4         11           0       -0.915997    3.182999    0.642685
      5         11           0        0.318966   -3.130570   -0.460764
      6         11           0       -2.601349   -1.791278    0.896584
      7         11           0        0.150667    0.119099   -0.302127
 ---------------------------------------------------------------------

 SCF Done:  E(UB3LYP) =  -1136.12577875     A.U. after   22 cycles

 The electronic state is 2-A.
 Alpha  occ. eigenvalues --  -38.44170 -38.44140 -38.44104 -38.43914 -38.43563
 Alpha  occ. eigenvalues --  -38.43273 -38.43249  -2.20023  -2.19981  -2.19929
 Alpha  occ. eigenvalues --   -2.19752  -2.19373  -2.19200  -2.19127  -1.13721
 Alpha  occ. eigenvalues --   -1.13693  -1.13678  -1.13658  -1.13657  -1.13620
 Alpha  occ. eigenvalues --   -1.13601  -1.13554  -1.13541  -1.13413  -1.13396
 Alpha  occ. eigenvalues --   -1.13373  -1.13042  -1.13021  -1.12997  -1.12932
 Alpha  occ. eigenvalues --   -1.12876  -1.12830  -1.12782  -1.12755  -1.12744
 Alpha  occ. eigenvalues --   -0.17341  -0.14003  -0.12745  -0.09668
 Alpha virt. eigenvalues --   -0.06256  -0.05508  -0.04976  -0.02734  -0.02662
 Alpha virt. eigenvalues --   -0.02136  -0.01986  -0.01697  -0.01243  -0.00329
 Alpha virt. eigenvalues --    0.00107   0.00335   0.00479   0.00522   0.00645

  Beta  occ. eigenvalues --  -38.44145 -38.44114 -38.44062 -38.43878 -38.43512
  Beta  occ. eigenvalues --  -38.43245 -38.43243  -2.19983  -2.19937  -2.19856
  Beta  occ. eigenvalues --   -2.19689  -2.19278  -2.19187  -2.19074  -1.13693
  Beta  occ. eigenvalues --   -1.13670  -1.13644  -1.13628  -1.13596  -1.13567
  Beta  occ. eigenvalues --   -1.13556  -1.13508  -1.13467  -1.13374  -1.13360
  Beta  occ. eigenvalues --   -1.13303  -1.12978  -1.12957  -1.12936  -1.12920
  Beta  occ. eigenvalues --   -1.12856  -1.12835  -1.12747  -1.12726  -1.12712
  Beta  occ. eigenvalues --   -0.17035  -0.13213  -0.12283
  Beta virt. eigenvalues --   -0.06342  -0.06243  -0.05262  -0.04787  -0.02412
  Beta virt. eigenvalues --   -0.02189  -0.01888  -0.01605  -0.01445  -0.01005
  Beta virt. eigenvalues --   -0.00212   0.00363   0.00488   0.00575   0.00622

 Mulliken charges and spin densities:
               1          2
     1  Na   0.962418   0.208157
     2  Na   0.711825   0.329609
     3  Na   0.291726   0.251748
     4  Na   0.500415   0.144620
     5  Na   0.289952   0.090127
     6  Na   0.593761   0.225592
     7  Na  -3.350097  -0.249854
 Sum of Mulliken charges =  -0.00000   1.00000

 Dipole moment (field-independent basis, Debye):
    X=              0.0854    Y=             -0.1487    Z=              0.1700  Tot=              0.2415
 Quadrupole moment (field-independent basis, Debye-Ang):
   XX=            -70.8958   YY=            -60.8282   ZZ=            -67.0930
   XY=             -3.3190   XZ=              0.5641   YZ=             -1.8517

 Normal termination of Gaussian 16 at Tue Dec  5 23:04:23 2023.
