 Gaussian 16, Revision B.01,
 Gaussian 16:  ES64L-G16RevB.01 20-Dec-2017

 -------------------------
 #P B3LYP/6-311+g(d) force
 -------------------------

 -----
 DPGEN
 -----
 Symbolic Z-matrix:
 Charge =  0 Multiplicity = 2

                         Standard orientation:
 ---------------------------------------------------------------------
 Center     Atomic      Atomic             Coordinates (Angstroms)
 Number     Number       Type             X           Y           Z
 ---------------------------------------------------------------------
      1         11           0       -1.379226   -2.385766    0.880918
      2         11           0        3.434216    2.251937    0.227242
      3         11           0        1.491269   -2.811708   -0.745631
      4         11           0        4.668979   -0.871136    0.100898
      5         11           0       -4.731710   -1.033156   -0.229118
      6         11           0       -0.363580    2.713282   -0.268366
      7         11           0       -3.119948    2.136548    0.034058
 ---------------------------------------------------------------------

 SCF Done:  E(UB3LYP) =  -1136.10695915     A.U. after   20 cycles

 The electronic state is 2-A.
 Alpha  occ. eigenvalues --  -38.44999 -38.44995 -38.44651 -38.44642 -38.44414
 Alpha  occ. eigenvalues --  -38.44163 -38.43780  -2.20775  -2.20755  -2.20498
 Alpha  occ. eigenvalues --   -2.20407  -2.20217  -2.19949  -2.19626  -1.14460
 Alpha  occ. eigenvalues --   -1.14445  -1.14430  -1.14419  -1.14409  -1.14361
 Alpha  occ. eigenvalues --   -1.14284  -1.14148  -1.14115  -1.14090  -1.14087
 Alpha  occ. eigenvalues --   -1.14040  -1.13862  -1.13853  -1.13833  -1.13612
 Alpha  occ. eigenvalues --   -1.13605  -1.13576  -1.13287  -1.13254  -1.13243
 Alpha  occ. eigenvalues --   -0.15847  -0.14153  -0.12951  -0.11012
 Alpha virt. eigenvalues --   -0.07411  -0.05132  -0.03991  -0.03659  -0.03564
 Alpha virt. eigenvalues --   -0.02775  -0.02149  -0.01720  -0.00890  -0.00698
 Alpha virt. eigenvalues --   -0.00507  -0.00189  -0.00183   0.00510   0.00614

  Beta  occ. eigenvalues --  -38.44985 -38.44970 -38.44636 -38.44630 -38.44324
  Beta  occ. eigenvalues --  -38.44126 -38.43737  -2.20740  -2.20724  -2.20478
  Beta  occ. eigenvalues --   -2.20390  -2.20049  -2.19882  -2.19547  -1.14431
  Beta  occ. eigenvalues --   -1.14426  -1.14408  -1.14397  -1.14380  -1.14328
  Beta  occ. eigenvalues --   -1.14235  -1.14140  -1.14091  -1.14081  -1.14075
  Beta  occ. eigenvalues --   -1.14000  -1.13747  -1.13738  -1.13725  -1.13568
  Beta  occ. eigenvalues --   -1.13558  -1.13525  -1.13234  -1.13202  -1.13189
  Beta  occ. eigenvalues --   -0.15294  -0.13418  -0.12261
  Beta virt. eigenvalues --   -0.07801  -0.07611  -0.04631  -0.03557  -0.03371
  Beta virt. eigenvalues --   -0.03227  -0.02550  -0.02015  -0.01489  -0.00590
  Beta virt. eigenvalues --   -0.00499  -0.00174  -0.00057   0.00008   0.00501

 Mulliken charges and spin densities:
               1          2
     1  Na  -0.389969   0.042789
     2  Na   0.213207   0.140338
     3  Na  -0.071848   0.155788
     4  Na   0.095427   0.097078
     5  Na   0.169445   0.415663
     6  Na  -0.105299   0.043614
     7  Na   0.089037   0.104729
 Sum of Mulliken charges =  -0.00000   1.00000

 Dipole moment (field-independent basis, Debye):
    X=              0.6618    Y=             -0.2945    Z=              0.0319  Tot=              0.7250
 Quadrupole moment (field-independent basis, Debye-Ang):
   XX=            -57.7851   YY=            -69.9805   ZZ=            -71.4873
   XY=             -2.2061   XZ=             -0.1640   YZ=              0.9153

 Normal termination of Gaussian 16 at Sun Dec  3 20:27:25 2023.
