 Gaussian 16, Revision B.01,
 Gaussian 16:  ES64L-G16RevB.01 20-Dec-2017

 -------------------------
 #P B3LYP/6-311+g(d) force
 -------------------------

 -----
 DPGEN
 -----
 Symbolic Z-matrix:
 Charge =  0 Multiplicity = 2

                         Standard orientation:
 ---------------------------------------------------------------------
 Center     Atomic      Atomic             Coordinates (Angstroms)
 Number     Number       Type             X           Y           Z
 ---------------------------------------------------------------------
      1         11           0        0.276206   -2.580397    0.400674
      2         11           0        3.081549   -0.635365   -0.902260
      3         11           0       -2.830140   -1.296962    0.105865
      4         11           0        1.499462    2.509369    0.708826
      5         11           0        0.346627   -0.207759    1.937713
      6         11           0       -0.255243   -0.003480   -1.896446
      7         11           0       -2.118462    2.214594   -0.354373
 ---------------------------------------------------------------------

 SCF Done:  E(UB3LYP) =  -1136.13266622     A.U. after   19 cycles

 The electronic state is 2-A.
 Alpha  occ. eigenvalues --  -38.44119 -38.43956 -38.43851 -38.43772 -38.43543
 Alpha  occ. eigenvalues --  -38.43516 -38.43166  -2.19929  -2.19919  -2.19770
 Alpha  occ. eigenvalues --   -2.19610  -2.19369  -2.19336  -2.19105  -1.13699
 Alpha  occ. eigenvalues --   -1.13607  -1.13573  -1.13566  -1.13555  -1.13507
 Alpha  occ. eigenvalues --   -1.13448  -1.13419  -1.13393  -1.13288  -1.13273
 Alpha  occ. eigenvalues --   -1.13246  -1.13068  -1.13027  -1.13010  -1.12997
 Alpha  occ. eigenvalues --   -1.12989  -1.12956  -1.12817  -1.12746  -1.12685
 Alpha  occ. eigenvalues --   -0.18618  -0.12828  -0.12370  -0.11430
 Alpha virt. eigenvalues --   -0.05386  -0.05134  -0.04360  -0.03450  -0.03157
 Alpha virt. eigenvalues --   -0.02944  -0.01518  -0.00977  -0.00306  -0.00003
 Alpha virt. eigenvalues --    0.00069   0.00343   0.00802   0.00881   0.00920

  Beta  occ. eigenvalues --  -38.44089 -38.43873 -38.43782 -38.43773 -38.43524
  Beta  occ. eigenvalues --  -38.43515 -38.43153  -2.19875  -2.19770  -2.19642
  Beta  occ. eigenvalues --   -2.19613  -2.19340  -2.19335  -2.19087  -1.13592
  Beta  occ. eigenvalues --   -1.13555  -1.13539  -1.13524  -1.13458  -1.13407
  Beta  occ. eigenvalues --   -1.13366  -1.13335  -1.13307  -1.13282  -1.13266
  Beta  occ. eigenvalues --   -1.13236  -1.13031  -1.13016  -1.12995  -1.12984
  Beta  occ. eigenvalues --   -1.12976  -1.12952  -1.12789  -1.12721  -1.12666
  Beta  occ. eigenvalues --   -0.17899  -0.12546  -0.12084
  Beta virt. eigenvalues --   -0.07535  -0.05272  -0.05064  -0.04304  -0.02773
  Beta virt. eigenvalues --   -0.02419  -0.01953  -0.01352  -0.00893  -0.00244
  Beta virt. eigenvalues --    0.00002   0.00111   0.00382   0.00887   0.00892

 Mulliken charges and spin densities:
               1          2
     1  Na   0.522822   0.081698
     2  Na  -0.013278   0.129310
     3  Na  -0.073821  -0.097885
     4  Na  -0.037682  -0.006454
     5  Na  -0.153749   0.408812
     6  Na  -0.233466   0.553097
     7  Na  -0.010826  -0.068577
 Sum of Mulliken charges =  -0.00000   1.00000

 Dipole moment (field-independent basis, Debye):
    X=              0.0179    Y=              0.0428    Z=             -0.1869  Tot=              0.1926
 Quadrupole moment (field-independent basis, Debye-Ang):
   XX=            -57.7194   YY=            -65.8944   ZZ=            -71.1899
   XY=              0.3212   XZ=             -1.9653   YZ=              0.8242

 Normal termination of Gaussian 16 at Tue Dec  5 12:59:26 2023.
