 Gaussian 16, Revision B.01,
 Gaussian 16:  ES64L-G16RevB.01 20-Dec-2017

 -------------------------
 #P B3LYP/6-311+g(d) force
 -------------------------

 -----
 DPGEN
 -----
 Symbolic Z-matrix:
 Charge =  0 Multiplicity = 2

                         Standard orientation:
 ---------------------------------------------------------------------
 Center     Atomic      Atomic             Coordinates (Angstroms)
 Number     Number       Type             X           Y           Z
 ---------------------------------------------------------------------
      1         11           0        0.412457    0.028948    2.123512
      2         11           0        1.892012   -2.282089   -0.502790
      3         11           0        2.821484    0.925493   -0.021573
      4         11           0       -1.586964   -2.551809    0.117310
      5         11           0       -0.118767    0.253634   -1.520035
      6         11           0       -3.304130    0.597245   -0.037367
      7         11           0       -0.116092    3.028578   -0.159057
 ---------------------------------------------------------------------

 SCF Done:  E(UB3LYP) =  -1136.13750544     A.U. after   19 cycles

 The electronic state is 2-A.
 Alpha  occ. eigenvalues --  -38.44238 -38.43762 -38.43650 -38.43646 -38.43617
 Alpha  occ. eigenvalues --  -38.43387 -38.43030  -2.20019  -2.19644  -2.19529
 Alpha  occ. eigenvalues --   -2.19490  -2.19437  -2.19248  -2.19030  -1.13699
 Alpha  occ. eigenvalues --   -1.13675  -1.13660  -1.13342  -1.13321  -1.13279
 Alpha  occ. eigenvalues --   -1.13219  -1.13186  -1.13153  -1.13150  -1.13134
 Alpha  occ. eigenvalues --   -1.13115  -1.13105  -1.13103  -1.13073  -1.12932
 Alpha  occ. eigenvalues --   -1.12896  -1.12885  -1.12712  -1.12666  -1.12646
 Alpha  occ. eigenvalues --   -0.18568  -0.12878  -0.12539  -0.10688
 Alpha virt. eigenvalues --   -0.05741  -0.05050  -0.04886  -0.03062  -0.02883
 Alpha virt. eigenvalues --   -0.02548  -0.01523  -0.01179  -0.00489  -0.00403
 Alpha virt. eigenvalues --   -0.00010   0.00346   0.00812   0.00852   0.00884

  Beta  occ. eigenvalues --  -38.44240 -38.43753 -38.43641 -38.43614 -38.43549
  Beta  occ. eigenvalues --  -38.43374 -38.42975  -2.20025  -2.19634  -2.19484
  Beta  occ. eigenvalues --   -2.19435  -2.19341  -2.19226  -2.18930  -1.13693
  Beta  occ. eigenvalues --   -1.13678  -1.13666  -1.13333  -1.13280  -1.13272
  Beta  occ. eigenvalues --   -1.13206  -1.13125  -1.13113  -1.13102  -1.13091
  Beta  occ. eigenvalues --   -1.13075  -1.13060  -1.13020  -1.13008  -1.12910
  Beta  occ. eigenvalues --   -1.12876  -1.12864  -1.12643  -1.12594  -1.12570
  Beta  occ. eigenvalues --   -0.17844  -0.12674  -0.12299
  Beta virt. eigenvalues --   -0.06740  -0.05725  -0.05026  -0.04817  -0.02316
  Beta virt. eigenvalues --   -0.02136  -0.01508  -0.01403  -0.01103  -0.00530
  Beta virt. eigenvalues --   -0.00442   0.00146   0.00382   0.00824   0.00880

 Mulliken charges and spin densities:
               1          2
     1  Na  -0.534608   0.762830
     2  Na   0.109601   0.033503
     3  Na   0.456901   0.068144
     4  Na   0.022673  -0.022136
     5  Na  -0.156704   0.326981
     6  Na  -0.019814  -0.080677
     7  Na   0.121952  -0.088646
 Sum of Mulliken charges =  -0.00000   1.00000

 Dipole moment (field-independent basis, Debye):
    X=             -0.2319    Y=              0.1712    Z=              0.1902  Tot=              0.3453
 Quadrupole moment (field-independent basis, Debye-Ang):
   XX=            -56.9396   YY=            -61.2056   ZZ=            -74.9437
   XY=             -0.2898   XZ=             -1.2590   YZ=              0.5192

 Normal termination of Gaussian 16 at Thu Dec  7 15:13:02 2023.
