 Gaussian 16, Revision B.01,
 Gaussian 16:  ES64L-G16RevB.01 20-Dec-2017

 -------------------------
 #P B3LYP/6-311+g(d) force
 -------------------------

 -----
 DPGEN
 -----
 Symbolic Z-matrix:
 Charge =  0 Multiplicity = 2

                         Standard orientation:
 ---------------------------------------------------------------------
 Center     Atomic      Atomic             Coordinates (Angstroms)
 Number     Number       Type             X           Y           Z
 ---------------------------------------------------------------------
      1         11           0        1.495947    2.380024    0.620470
      2         11           0        3.452219   -0.031453   -0.375663
      3         11           0        0.878329   -2.841432   -0.395855
      4         11           0       -0.079738    0.583022   -1.096336
      5         11           0       -2.764194   -1.655784   -0.314431
      6         11           0       -0.550259   -0.891819    1.890821
      7         11           0       -2.432303    2.457442   -0.329007
 ---------------------------------------------------------------------

 SCF Done:  E(UB3LYP) =  -1136.12735247     A.U. after   20 cycles

 The electronic state is 2-A.
 Alpha  occ. eigenvalues --  -38.44651 -38.44110 -38.43990 -38.43847 -38.43797
 Alpha  occ. eigenvalues --  -38.43145 -38.42970  -2.20470  -2.19921  -2.19796
 Alpha  occ. eigenvalues --   -2.19679  -2.19672  -2.19068  -2.19006  -1.14164
 Alpha  occ. eigenvalues --   -1.14134  -1.14086  -1.13601  -1.13588  -1.13562
 Alpha  occ. eigenvalues --   -1.13500  -1.13446  -1.13437  -1.13423  -1.13361
 Alpha  occ. eigenvalues --   -1.13346  -1.13314  -1.13286  -1.13277  -1.12768
 Alpha  occ. eigenvalues --   -1.12705  -1.12695  -1.12667  -1.12648  -1.12612
 Alpha  occ. eigenvalues --   -0.18334  -0.13183  -0.12558  -0.09958
 Alpha virt. eigenvalues --   -0.06085  -0.05540  -0.04788  -0.03150  -0.02634
 Alpha virt. eigenvalues --   -0.01838  -0.01813  -0.01497  -0.00723  -0.00447
 Alpha virt. eigenvalues --   -0.00014   0.00285   0.00674   0.00724   0.00805

  Beta  occ. eigenvalues --  -38.44645 -38.44105 -38.43982 -38.43832 -38.43780
  Beta  occ. eigenvalues --  -38.43061 -38.42941  -2.20460  -2.19913  -2.19783
  Beta  occ. eigenvalues --   -2.19648  -2.19648  -2.18957  -2.18912  -1.14146
  Beta  occ. eigenvalues --   -1.14119  -1.14079  -1.13595  -1.13573  -1.13555
  Beta  occ. eigenvalues --   -1.13487  -1.13429  -1.13421  -1.13410  -1.13341
  Beta  occ. eigenvalues --   -1.13317  -1.13274  -1.13266  -1.13262  -1.12686
  Beta  occ. eigenvalues --   -1.12630  -1.12599  -1.12596  -1.12576  -1.12554
  Beta  occ. eigenvalues --   -0.17700  -0.12988  -0.12267
  Beta virt. eigenvalues --   -0.06323  -0.06017  -0.05328  -0.04651  -0.02465
  Beta virt. eigenvalues --   -0.02055  -0.01742  -0.01474  -0.00926  -0.00695
  Beta virt. eigenvalues --   -0.00374   0.00166   0.00362   0.00697   0.00809

 Mulliken charges and spin densities:
               1          2
     1  Na   0.052267   0.127906
     2  Na   0.119389   0.002083
     3  Na  -0.050893   0.090493
     4  Na  -0.289303   0.320282
     5  Na   0.072132  -0.008827
     6  Na  -0.098808   0.453750
     7  Na   0.195216   0.014314
 Sum of Mulliken charges =  -0.00000   1.00000

 Dipole moment (field-independent basis, Debye):
    X=             -0.3005    Y=             -0.1994    Z=              0.1436  Tot=              0.3882
 Quadrupole moment (field-independent basis, Debye-Ang):
   XX=            -53.3454   YY=            -61.0370   ZZ=            -76.9264
   XY=              0.5633   XZ=              0.7020   YZ=              2.9383

 Normal termination of Gaussian 16 at Wed Nov 29 04:12:18 2023.
