 Gaussian 16, Revision B.01,
 Gaussian 16:  ES64L-G16RevB.01 20-Dec-2017

 -------------------------
 #P B3LYP/6-311+g(d) force
 -------------------------

 -----
 DPGEN
 -----
 Symbolic Z-matrix:
 Charge =  0 Multiplicity = 2

                         Standard orientation:
 ---------------------------------------------------------------------
 Center     Atomic      Atomic             Coordinates (Angstroms)
 Number     Number       Type             X           Y           Z
 ---------------------------------------------------------------------
      1         11           0        3.122666    0.065961    0.201591
      2         11           0       -0.154721   -0.319880    1.942625
      3         11           0       -2.895987    1.382235   -0.039878
      4         11           0        0.112274    0.398865   -1.860747
      5         11           0        1.162200   -2.306695   -0.375689
      6         11           0       -2.107027   -2.019315   -0.035096
      7         11           0        0.760596    2.798828    0.167194
 ---------------------------------------------------------------------

 SCF Done:  E(UB3LYP) =  -1136.13744944     A.U. after   18 cycles

 The electronic state is 2-A.
 Alpha  occ. eigenvalues --  -38.44136 -38.44019 -38.43584 -38.43432 -38.43425
 Alpha  occ. eigenvalues --  -38.43425 -38.42954  -2.19936  -2.19874  -2.19511
 Alpha  occ. eigenvalues --   -2.19372  -2.19306  -2.19271  -2.18904  -1.13614
 Alpha  occ. eigenvalues --   -1.13597  -1.13576  -1.13568  -1.13532  -1.13510
 Alpha  occ. eigenvalues --   -1.13205  -1.13150  -1.13133  -1.13075  -1.13051
 Alpha  occ. eigenvalues --   -1.12986  -1.12973  -1.12964  -1.12941  -1.12936
 Alpha  occ. eigenvalues --   -1.12920  -1.12888  -1.12583  -1.12557  -1.12535
 Alpha  occ. eigenvalues --   -0.18893  -0.13070  -0.12424  -0.10964
 Alpha virt. eigenvalues --   -0.05785  -0.05015  -0.04402  -0.03282  -0.03030
 Alpha virt. eigenvalues --   -0.02656  -0.01573  -0.00986  -0.00290  -0.00089
 Alpha virt. eigenvalues --   -0.00001   0.00372   0.00816   0.00899   0.00949

  Beta  occ. eigenvalues --  -38.44135 -38.44015 -38.43502 -38.43428 -38.43420
  Beta  occ. eigenvalues --  -38.43347 -38.42939  -2.19937  -2.19869  -2.19360
  Beta  occ. eigenvalues --   -2.19301  -2.19266  -2.19229  -2.18883  -1.13604
  Beta  occ. eigenvalues --   -1.13593  -1.13579  -1.13567  -1.13511  -1.13503
  Beta  occ. eigenvalues --   -1.13114  -1.13050  -1.13027  -1.13012  -1.12972
  Beta  occ. eigenvalues --   -1.12951  -1.12940  -1.12928  -1.12915  -1.12894
  Beta  occ. eigenvalues --   -1.12874  -1.12863  -1.12571  -1.12530  -1.12498
  Beta  occ. eigenvalues --   -0.18126  -0.12846  -0.12181
  Beta virt. eigenvalues --   -0.07022  -0.05768  -0.04979  -0.04370  -0.02489
  Beta virt. eigenvalues --   -0.02236  -0.01607  -0.01480  -0.00921  -0.00345
  Beta virt. eigenvalues --   -0.00099   0.00108   0.00386   0.00852   0.00918

 Mulliken charges and spin densities:
               1          2
     1  Na   0.108946  -0.030693
     2  Na  -0.477701   0.703414
     3  Na   0.023441  -0.141726
     4  Na  -0.313920   0.582712
     5  Na   0.360669   0.056969
     6  Na   0.258279  -0.041007
     7  Na   0.040287  -0.129668
 Sum of Mulliken charges =  -0.00000   1.00000

 Dipole moment (field-independent basis, Debye):
    X=             -0.1540    Y=              0.3168    Z=              0.1178  Tot=              0.3714
 Quadrupole moment (field-independent basis, Debye-Ang):
   XX=            -55.9874   YY=            -65.1583   ZZ=            -72.8415
   XY=              0.0186   XZ=              0.8028   YZ=              1.4899

 Normal termination of Gaussian 16 at Tue Dec  5 10:56:54 2023.
