 Gaussian 16, Revision B.01,
 Gaussian 16:  ES64L-G16RevB.01 20-Dec-2017

 -------------------------
 #P B3LYP/6-311+g(d) force
 -------------------------

 -----
 DPGEN
 -----
 Symbolic Z-matrix:
 Charge =  0 Multiplicity = 2

                         Standard orientation:
 ---------------------------------------------------------------------
 Center     Atomic      Atomic             Coordinates (Angstroms)
 Number     Number       Type             X           Y           Z
 ---------------------------------------------------------------------
      1         11           0       -2.064884    0.532609   -0.282153
      2         11           0       -0.944221   -1.685040   -0.210372
      3         11           0       -4.822676    2.194641    0.680734
      4         11           0       -5.251347   -1.446166   -0.253689
      5         11           0        2.357617   -0.030625   -0.409840
      6         11           0        5.513585    1.013205   -1.132390
      7         11           0        5.211925   -0.578623    1.607711
 ---------------------------------------------------------------------

 SCF Done:  E(UB3LYP) =  -1136.09743118     A.U. after   29 cycles

 The electronic state is 2-A.
 Alpha  occ. eigenvalues --  -38.46420 -38.46283 -38.44085 -38.43796 -38.43566
 Alpha  occ. eigenvalues --  -38.43551 -38.42570  -2.22228  -2.22094  -2.20052
 Alpha  occ. eigenvalues --   -2.19625  -2.19477  -2.19324  -2.18393  -1.15900
 Alpha  occ. eigenvalues --   -1.15886  -1.15878  -1.15762  -1.15753  -1.15696
 Alpha  occ. eigenvalues --   -1.14285  -1.13684  -1.13571  -1.13345  -1.13321
 Alpha  occ. eigenvalues --   -1.13193  -1.13079  -1.13004  -1.13000  -1.12972
 Alpha  occ. eigenvalues --   -1.12969  -1.12944  -1.12055  -1.12043  -1.11997
 Alpha  occ. eigenvalues --   -0.16516  -0.15111  -0.11294  -0.09401
 Alpha virt. eigenvalues --   -0.07547  -0.06043  -0.04288  -0.03495  -0.02945
 Alpha virt. eigenvalues --   -0.02512  -0.02047  -0.01558  -0.01413  -0.00275
 Alpha virt. eigenvalues --   -0.00223  -0.00026   0.00016   0.00304   0.00447

  Beta  occ. eigenvalues --  -38.46401 -38.46289 -38.44071 -38.43781 -38.43549
  Beta  occ. eigenvalues --  -38.43508 -38.42499  -2.22192  -2.22107  -2.20032
  Beta  occ. eigenvalues --   -2.19597  -2.19448  -2.19244  -2.18262  -1.15881
  Beta  occ. eigenvalues --   -1.15861  -1.15852  -1.15764  -1.15761  -1.15698
  Beta  occ. eigenvalues --   -1.14243  -1.13673  -1.13557  -1.13324  -1.13300
  Beta  occ. eigenvalues --   -1.13180  -1.13061  -1.12972  -1.12951  -1.12928
  Beta  occ. eigenvalues --   -1.12907  -1.12888  -1.11960  -1.11954  -1.11913
  Beta  occ. eigenvalues --   -0.16360  -0.14536  -0.11023
  Beta virt. eigenvalues --   -0.07358  -0.06065  -0.05531  -0.04147  -0.03289
  Beta virt. eigenvalues --   -0.02766  -0.02170  -0.01841  -0.01304  -0.00917
  Beta virt. eigenvalues --   -0.00195  -0.00135   0.00042   0.00252   0.00511

 Mulliken charges and spin densities:
               1          2
     1  Na  -1.116629   0.193480
     2  Na   0.087579   0.210279
     3  Na   0.526330   0.371828
     4  Na   0.453026   0.227350
     5  Na  -1.384702  -0.111038
     6  Na   0.919922  -0.025524
     7  Na   0.514474   0.133625
 Sum of Mulliken charges =  -0.00000   1.00000

 Dipole moment (field-independent basis, Debye):
    X=              5.9762    Y=             -0.1979    Z=              0.2538  Tot=              5.9848
 Quadrupole moment (field-independent basis, Debye-Ang):
   XX=            -49.6181   YY=            -71.8491   ZZ=            -64.6285
   XY=              4.9383   XZ=             -0.9910   YZ=             -6.0352

 Normal termination of Gaussian 16 at Thu Dec  7 04:46:36 2023.
