 Gaussian 16, Revision B.01,
 Gaussian 16:  ES64L-G16RevB.01 20-Dec-2017

 -------------------------
 #P B3LYP/6-311+g(d) force
 -------------------------

 -----
 DPGEN
 -----
 Symbolic Z-matrix:
 Charge =  0 Multiplicity = 2

                         Standard orientation:
 ---------------------------------------------------------------------
 Center     Atomic      Atomic             Coordinates (Angstroms)
 Number     Number       Type             X           Y           Z
 ---------------------------------------------------------------------
      1         11           0       -2.991788   -1.745013   -0.243771
      2         11           0        3.515091   -0.150632   -0.436998
      3         11           0        1.240084   -2.718400    0.351519
      4         11           0        0.998937    2.958499    0.325635
      5         11           0        0.097845    0.079153   -1.516068
      6         11           0       -0.196018   -0.033844    1.718942
      7         11           0       -2.664152    1.610236   -0.199260
 ---------------------------------------------------------------------

 SCF Done:  E(UB3LYP) =  -1136.13323501     A.U. after   21 cycles

 The electronic state is 2-A.
 Alpha  occ. eigenvalues --  -38.44558 -38.44164 -38.44081 -38.43618 -38.43430
 Alpha  occ. eigenvalues --  -38.43305 -38.42978  -2.20348  -2.19960  -2.19928
 Alpha  occ. eigenvalues --   -2.19552  -2.19266  -2.19114  -2.18928  -1.14020
 Alpha  occ. eigenvalues --   -1.13990  -1.13988  -1.13650  -1.13633  -1.13611
 Alpha  occ. eigenvalues --   -1.13604  -1.13588  -1.13529  -1.13286  -1.13189
 Alpha  occ. eigenvalues --   -1.13160  -1.12957  -1.12931  -1.12889  -1.12793
 Alpha  occ. eigenvalues --   -1.12778  -1.12750  -1.12624  -1.12550  -1.12523
 Alpha  occ. eigenvalues --   -0.18304  -0.13304  -0.12067  -0.10161
 Alpha virt. eigenvalues --   -0.06176  -0.05434  -0.04690  -0.03075  -0.02564
 Alpha virt. eigenvalues --   -0.02114  -0.01958  -0.01401  -0.00694  -0.00494
 Alpha virt. eigenvalues --   -0.00027   0.00268   0.00677   0.00787   0.00800

  Beta  occ. eigenvalues --  -38.44539 -38.44159 -38.44072 -38.43576 -38.43418
  Beta  occ. eigenvalues --  -38.43299 -38.42892  -2.20313  -2.19953  -2.19915
  Beta  occ. eigenvalues --   -2.19476  -2.19248  -2.19106  -2.18770  -1.13982
  Beta  occ. eigenvalues --   -1.13969  -1.13965  -1.13648  -1.13619  -1.13594
  Beta  occ. eigenvalues --   -1.13590  -1.13574  -1.13514  -1.13222  -1.13141
  Beta  occ. eigenvalues --   -1.13101  -1.12938  -1.12909  -1.12871  -1.12779
  Beta  occ. eigenvalues --   -1.12768  -1.12741  -1.12518  -1.12443  -1.12403
  Beta  occ. eigenvalues --   -0.17659  -0.12985  -0.11817
  Beta virt. eigenvalues --   -0.06515  -0.05923  -0.05444  -0.04618  -0.02426
  Beta virt. eigenvalues --   -0.01948  -0.01862  -0.01352  -0.01077  -0.00680
  Beta virt. eigenvalues --   -0.00492   0.00119   0.00336   0.00750   0.00796

 Mulliken charges and spin densities:
               1          2
     1  Na  -0.025203  -0.016266
     2  Na   0.020711   0.088577
     3  Na   0.008968  -0.017833
     4  Na  -0.093273  -0.023858
     5  Na  -0.199325   0.395294
     6  Na   0.078327   0.534406
     7  Na   0.209795   0.039680
 Sum of Mulliken charges =  -0.00000   1.00000

 Dipole moment (field-independent basis, Debye):
    X=             -0.0070    Y=             -0.0151    Z=              0.0192  Tot=              0.0254
 Quadrupole moment (field-independent basis, Debye-Ang):
   XX=            -52.9255   YY=            -62.1290   ZZ=            -76.5096
   XY=              0.8529   XZ=              0.3640   YZ=              0.4328

 Normal termination of Gaussian 16 at Fri Dec  8 03:05:53 2023.
