 Gaussian 16, Revision B.01,
 Gaussian 16:  ES64L-G16RevB.01 20-Dec-2017

 -------------------------
 #P B3LYP/6-311+g(d) force
 -------------------------

 -----
 DPGEN
 -----
 Symbolic Z-matrix:
 Charge =  0 Multiplicity = 2

                         Standard orientation:
 ---------------------------------------------------------------------
 Center     Atomic      Atomic             Coordinates (Angstroms)
 Number     Number       Type             X           Y           Z
 ---------------------------------------------------------------------
      1         11           0       -0.152423    0.248669   -1.859654
      2         11           0        0.234409    2.999887   -0.355593
      3         11           0        0.302431   -0.030170    1.868816
      4         11           0        1.065677   -2.488002    0.013386
      5         11           0       -2.187771   -1.896704   -0.456467
      6         11           0       -2.653945    1.010664    0.737057
      7         11           0        3.391622    0.155656    0.052456
 ---------------------------------------------------------------------

 SCF Done:  E(UB3LYP) =  -1136.13554128     A.U. after   19 cycles

 The electronic state is 2-A.
 Alpha  occ. eigenvalues --  -38.44405 -38.43753 -38.43675 -38.43492 -38.43380
 Alpha  occ. eigenvalues --  -38.43264 -38.43233  -2.20189  -2.19636  -2.19611
 Alpha  occ. eigenvalues --   -2.19445  -2.19213  -2.19160  -2.19136  -1.13869
 Alpha  occ. eigenvalues --   -1.13839  -1.13831  -1.13350  -1.13313  -1.13301
 Alpha  occ. eigenvalues --   -1.13263  -1.13239  -1.13212  -1.13129  -1.13118
 Alpha  occ. eigenvalues --   -1.13066  -1.12890  -1.12863  -1.12859  -1.12835
 Alpha  occ. eigenvalues --   -1.12832  -1.12807  -1.12801  -1.12781  -1.12733
 Alpha  occ. eigenvalues --   -0.18816  -0.12969  -0.12401  -0.11137
 Alpha virt. eigenvalues --   -0.05841  -0.04683  -0.04523  -0.03329  -0.03053
 Alpha virt. eigenvalues --   -0.02756  -0.01652  -0.00976  -0.00277  -0.00066
 Alpha virt. eigenvalues --    0.00059   0.00353   0.00827   0.00880   0.00908

  Beta  occ. eigenvalues --  -38.44407 -38.43730 -38.43599 -38.43411 -38.43372
  Beta  occ. eigenvalues --  -38.43258 -38.43223  -2.20194  -2.19596  -2.19473
  Beta  occ. eigenvalues --   -2.19297  -2.19201  -2.19152  -2.19122  -1.13863
  Beta  occ. eigenvalues --   -1.13843  -1.13833  -1.13310  -1.13270  -1.13227
  Beta  occ. eigenvalues --   -1.13213  -1.13153  -1.13112  -1.13037  -1.13018
  Beta  occ. eigenvalues --   -1.12968  -1.12861  -1.12850  -1.12844  -1.12829
  Beta  occ. eigenvalues --   -1.12804  -1.12797  -1.12789  -1.12744  -1.12727
  Beta  occ. eigenvalues --   -0.18070  -0.12742  -0.12114
  Beta virt. eigenvalues --   -0.07200  -0.05805  -0.04618  -0.04498  -0.02595
  Beta virt. eigenvalues --   -0.02272  -0.01746  -0.01527  -0.00887  -0.00242
  Beta virt. eigenvalues --   -0.00079   0.00123   0.00378   0.00841   0.00916

 Mulliken charges and spin densities:
               1          2
     1  Na  -0.204915   0.574966
     2  Na  -0.066482  -0.089932
     3  Na  -0.159669   0.491117
     4  Na   0.125727  -0.019101
     5  Na   0.203768   0.040448
     6  Na   0.173493   0.128426
     7  Na  -0.071921  -0.125924
 Sum of Mulliken charges =  -0.00000   1.00000

 Dipole moment (field-independent basis, Debye):
    X=              0.4750    Y=              0.1850    Z=              0.0574  Tot=              0.5129
 Quadrupole moment (field-independent basis, Debye-Ang):
   XX=            -56.6280   YY=            -64.8816   ZZ=            -72.4784
   XY=              0.8011   XZ=             -1.0908   YZ=              1.0002

 Normal termination of Gaussian 16 at Fri Dec  8 00:26:18 2023.
