 Gaussian 16, Revision B.01,
 Gaussian 16:  ES64L-G16RevB.01 20-Dec-2017

 -------------------------
 #P B3LYP/6-311+g(d) force
 -------------------------

 -----
 DPGEN
 -----
 Symbolic Z-matrix:
 Charge =  0 Multiplicity = 2

                         Standard orientation:
 ---------------------------------------------------------------------
 Center     Atomic      Atomic             Coordinates (Angstroms)
 Number     Number       Type             X           Y           Z
 ---------------------------------------------------------------------
      1         11           0       -0.528647   -0.332997   -1.473614
      2         11           0        1.606933    0.177883    1.454186
      3         11           0       -0.292792   -1.820188    0.700786
      4         11           0       -2.659960    0.006323   -0.154914
      5         11           0       -0.769298    1.008994    1.229486
      6         11           0        1.884491   -0.827106   -0.927514
      7         11           0        0.759273    1.787091   -0.828414
 ---------------------------------------------------------------------

 SCF Done:  E(UB3LYP) =  -1136.01327625     A.U. after   25 cycles

 The electronic state is 2-A.
 Alpha  occ. eigenvalues --  -38.45905 -38.45371 -38.45058 -38.44980 -38.44861
 Alpha  occ. eigenvalues --  -38.43815 -38.43120  -2.22475  -2.21712  -2.21481
 Alpha  occ. eigenvalues --   -2.21148  -2.21105  -2.20080  -2.19395  -1.16605
 Alpha  occ. eigenvalues --   -1.16260  -1.16126  -1.15998  -1.15625  -1.15412
 Alpha  occ. eigenvalues --   -1.15245  -1.15071  -1.14901  -1.14877  -1.14662
 Alpha  occ. eigenvalues --   -1.14644  -1.14604  -1.14583  -1.14483  -1.13783
 Alpha  occ. eigenvalues --   -1.13680  -1.13568  -1.13150  -1.13042  -1.12923
 Alpha  occ. eigenvalues --   -0.22739  -0.14152  -0.13673  -0.12465
 Alpha virt. eigenvalues --   -0.05413  -0.04255  -0.04167  -0.03613  -0.03247
 Alpha virt. eigenvalues --   -0.02862  -0.00917  -0.00339  -0.00190   0.00274
 Alpha virt. eigenvalues --    0.00908   0.01038   0.01105   0.01202   0.01327

  Beta  occ. eigenvalues --  -38.45815 -38.45303 -38.44994 -38.44974 -38.44821
  Beta  occ. eigenvalues --  -38.43786 -38.43095  -2.22318  -2.21595  -2.21373
  Beta  occ. eigenvalues --   -2.21094  -2.21080  -2.20034  -2.19358  -1.16478
  Beta  occ. eigenvalues --   -1.16170  -1.16009  -1.15891  -1.15558  -1.15345
  Beta  occ. eigenvalues --   -1.15155  -1.14993  -1.14834  -1.14805  -1.14613
  Beta  occ. eigenvalues --   -1.14606  -1.14571  -1.14531  -1.14435  -1.13750
  Beta  occ. eigenvalues --   -1.13595  -1.13544  -1.13135  -1.12952  -1.12905
  Beta  occ. eigenvalues --   -0.21909  -0.13902  -0.12179
  Beta virt. eigenvalues --   -0.09028  -0.05362  -0.03602  -0.03428  -0.03385
  Beta virt. eigenvalues --   -0.02384  -0.02183  -0.00899  -0.00197  -0.00080
  Beta virt. eigenvalues --    0.00306   0.00968   0.01120   0.01154   0.01308

 Mulliken charges and spin densities:
               1          2
     1  Na  -0.977506   0.188977
     2  Na   0.285817   0.184730
     3  Na  -0.157258   0.272713
     4  Na   0.718060   0.019931
     5  Na  -0.495065   0.296941
     6  Na   0.270561  -0.105255
     7  Na   0.355390   0.141962
 Sum of Mulliken charges =  -0.00000   1.00000

 Dipole moment (field-independent basis, Debye):
    X=             -0.0491    Y=             -0.0254    Z=              0.1827  Tot=              0.1908
 Quadrupole moment (field-independent basis, Debye-Ang):
   XX=            -61.1226   YY=            -74.9041   ZZ=            -63.5753
   XY=              0.0596   XZ=             -0.0706   YZ=              0.0571

 Normal termination of Gaussian 16 at Thu Dec  7 07:17:00 2023.
