 Gaussian 16, Revision B.01,
 Gaussian 16:  ES64L-G16RevB.01 20-Dec-2017

 -------------------------
 #P B3LYP/6-311+g(d) force
 -------------------------

 -----
 DPGEN
 -----
 Symbolic Z-matrix:
 Charge =  0 Multiplicity = 2

                         Standard orientation:
 ---------------------------------------------------------------------
 Center     Atomic      Atomic             Coordinates (Angstroms)
 Number     Number       Type             X           Y           Z
 ---------------------------------------------------------------------
      1         11           0       -1.833536    1.407467    1.134649
      2         11           0        1.923927    2.469564   -0.364619
      3         11           0        2.732540   -1.566231   -0.730919
      4         11           0        0.298907    0.005041   -1.675971
      5         11           0        1.182661   -0.065420    1.866656
      6         11           0       -0.833152   -2.132883    0.862267
      7         11           0       -3.471347   -0.117539   -1.092062
 ---------------------------------------------------------------------

 SCF Done:  E(UB3LYP) =  -1136.12818496     A.U. after   22 cycles

 The electronic state is 2-A.
 Alpha  occ. eigenvalues --  -38.44377 -38.44201 -38.43838 -38.43815 -38.43706
 Alpha  occ. eigenvalues --  -38.43171 -38.42817  -2.20202  -2.20061  -2.19787
 Alpha  occ. eigenvalues --   -2.19707  -2.19687  -2.19056  -2.18650  -1.13886
 Alpha  occ. eigenvalues --   -1.13854  -1.13828  -1.13811  -1.13722  -1.13654
 Alpha  occ. eigenvalues --   -1.13468  -1.13431  -1.13416  -1.13413  -1.13378
 Alpha  occ. eigenvalues --   -1.13366  -1.13321  -1.13309  -1.13285  -1.12772
 Alpha  occ. eigenvalues --   -1.12719  -1.12636  -1.12339  -1.12312  -1.12278
 Alpha  occ. eigenvalues --   -0.18825  -0.13522  -0.11767  -0.11338
 Alpha virt. eigenvalues --   -0.05899  -0.05078  -0.04251  -0.03192  -0.03041
 Alpha virt. eigenvalues --   -0.02769  -0.01764  -0.00908  -0.00640   0.00201
 Alpha virt. eigenvalues --    0.00259   0.00337   0.00512   0.00730   0.00854

  Beta  occ. eigenvalues --  -38.44354 -38.44181 -38.43816 -38.43758 -38.43631
  Beta  occ. eigenvalues --  -38.43150 -38.42819  -2.20157  -2.20027  -2.19684
  Beta  occ. eigenvalues --   -2.19670  -2.19554  -2.19023  -2.18655  -1.13859
  Beta  occ. eigenvalues --   -1.13816  -1.13799  -1.13769  -1.13697  -1.13631
  Beta  occ. eigenvalues --   -1.13400  -1.13368  -1.13345  -1.13336  -1.13326
  Beta  occ. eigenvalues --   -1.13303  -1.13298  -1.13211  -1.13192  -1.12740
  Beta  occ. eigenvalues --   -1.12672  -1.12622  -1.12335  -1.12316  -1.12276
  Beta  occ. eigenvalues --   -0.18043  -0.13258  -0.11131
  Beta virt. eigenvalues --   -0.07792  -0.05739  -0.04800  -0.03889  -0.03019
  Beta virt. eigenvalues --   -0.02146  -0.02056  -0.01622  -0.00776  -0.00359
  Beta virt. eigenvalues --    0.00272   0.00294   0.00371   0.00614   0.00819

 Mulliken charges and spin densities:
               1          2
     1  Na  -0.136284   0.015195
     2  Na  -0.113399  -0.085683
     3  Na   0.296367  -0.075168
     4  Na  -0.403735   0.618390
     5  Na   0.307008   0.469503
     6  Na  -0.156654   0.002769
     7  Na   0.206699   0.054995
 Sum of Mulliken charges =  -0.00000   1.00000

 Dipole moment (field-independent basis, Debye):
    X=             -0.2357    Y=             -0.3103    Z=             -0.2316  Tot=              0.4533
 Quadrupole moment (field-independent basis, Debye-Ang):
   XX=            -54.1692   YY=            -72.6294   ZZ=            -67.1769
   XY=             -0.7738   XZ=              1.1795   YZ=              1.9919

 Normal termination of Gaussian 16 at Wed Nov 29 16:51:55 2023.
