 Gaussian 16, Revision B.01,
 Gaussian 16:  ES64L-G16RevB.01 20-Dec-2017

 -------------------------
 #P B3LYP/6-311+g(d) force
 -------------------------

 -----
 DPGEN
 -----
 Symbolic Z-matrix:
 Charge =  0 Multiplicity = 2

                         Standard orientation:
 ---------------------------------------------------------------------
 Center     Atomic      Atomic             Coordinates (Angstroms)
 Number     Number       Type             X           Y           Z
 ---------------------------------------------------------------------
      1         11           0       -1.520661    2.462712    0.238340
      2         11           0        2.005398    1.822112   -0.274494
      3         11           0        1.326275   -1.165846   -1.657280
      4         11           0       -1.435150   -0.481374   -1.390876
      5         11           0        0.116358   -0.880027    1.978481
      6         11           0       -4.064587   -0.959465    0.401449
      7         11           0        3.572367   -0.798112    0.704381
 ---------------------------------------------------------------------

 SCF Done:  E(UB3LYP) =  -1136.11288391     A.U. after   29 cycles

 The electronic state is 2-A.
 Alpha  occ. eigenvalues --  -38.45441 -38.45140 -38.44626 -38.44136 -38.43780
 Alpha  occ. eigenvalues --  -38.43440 -38.42906  -2.21238  -2.20891  -2.20480
 Alpha  occ. eigenvalues --   -2.20103  -2.19752  -2.19319  -2.18714  -1.14916
 Alpha  occ. eigenvalues --   -1.14882  -1.14842  -1.14590  -1.14557  -1.14541
 Alpha  occ. eigenvalues --   -1.14167  -1.14147  -1.14120  -1.13930  -1.13714
 Alpha  occ. eigenvalues --   -1.13693  -1.13417  -1.13376  -1.13335  -1.12999
 Alpha  occ. eigenvalues --   -1.12985  -1.12928  -1.12402  -1.12384  -1.12336
 Alpha  occ. eigenvalues --   -0.18604  -0.13945  -0.11666  -0.10918
 Alpha virt. eigenvalues --   -0.07371  -0.05124  -0.04420  -0.03454  -0.02872
 Alpha virt. eigenvalues --   -0.02672  -0.02329  -0.01253  -0.00769  -0.00229
 Alpha virt. eigenvalues --    0.00049   0.00183   0.00256   0.00620   0.00752

  Beta  occ. eigenvalues --  -38.45361 -38.45182 -38.44626 -38.44044 -38.43722
  Beta  occ. eigenvalues --  -38.43413 -38.42911  -2.21089  -2.20970  -2.20482
  Beta  occ. eigenvalues --   -2.19941  -2.19651  -2.19268  -2.18723  -1.14812
  Beta  occ. eigenvalues --   -1.14778  -1.14730  -1.14645  -1.14608  -1.14589
  Beta  occ. eigenvalues --   -1.14165  -1.14143  -1.14107  -1.13806  -1.13596
  Beta  occ. eigenvalues --   -1.13572  -1.13344  -1.13279  -1.13266  -1.12957
  Beta  occ. eigenvalues --   -1.12936  -1.12913  -1.12403  -1.12390  -1.12344
  Beta  occ. eigenvalues --   -0.17726  -0.14042  -0.10748
  Beta virt. eigenvalues --   -0.07536  -0.07063  -0.05024  -0.04002  -0.02951
  Beta virt. eigenvalues --   -0.02703  -0.01857  -0.01682  -0.01126  -0.00561
  Beta virt. eigenvalues --   -0.00235   0.00067   0.00320   0.00345   0.00649

 Mulliken charges and spin densities:
               1          2
     1  Na  -0.105102  -0.025816
     2  Na  -0.538882   0.166707
     3  Na   0.209385   0.165019
     4  Na  -0.518044   0.209358
     5  Na  -0.489892   0.446162
     6  Na   0.555003  -0.204573
     7  Na   0.887532   0.243144
 Sum of Mulliken charges =  -0.00000   1.00000

 Dipole moment (field-independent basis, Debye):
    X=              0.0216    Y=             -0.3180    Z=              0.9463  Tot=              0.9985
 Quadrupole moment (field-independent basis, Debye-Ang):
   XX=            -48.1276   YY=            -77.8443   ZZ=            -69.6743
   XY=             -0.8290   XZ=             -1.4644   YZ=             -0.3489

 Normal termination of Gaussian 16 at Thu Dec  7 18:39:53 2023.
