 Gaussian 16, Revision B.01,
 Gaussian 16:  ES64L-G16RevB.01 20-Dec-2017

 -------------------------
 #P B3LYP/6-311+g(d) force
 -------------------------

 -----
 DPGEN
 -----
 Symbolic Z-matrix:
 Charge =  0 Multiplicity = 2

                         Standard orientation:
 ---------------------------------------------------------------------
 Center     Atomic      Atomic             Coordinates (Angstroms)
 Number     Number       Type             X           Y           Z
 ---------------------------------------------------------------------
      1         11           0        1.324993   -2.858924   -1.175209
      2         11           0        2.039054    3.052567   -0.016978
      3         11           0       -0.127676    0.456836   -0.572900
      4         11           0        0.240855   -1.575773    1.695693
      5         11           0       -3.720403    1.830742   -0.187855
      6         11           0       -3.174098   -1.199572    0.070970
      7         11           0        3.417274    0.294125    0.186280
 ---------------------------------------------------------------------

 SCF Done:  E(UB3LYP) =  -1136.11946474     A.U. after   21 cycles

 The electronic state is 2-A.
 Alpha  occ. eigenvalues --  -38.44884 -38.44637 -38.44222 -38.43967 -38.43728
 Alpha  occ. eigenvalues --  -38.43111 -38.43106  -2.20718  -2.20476  -2.20150
 Alpha  occ. eigenvalues --   -2.19789  -2.19565  -2.19018  -2.18951  -1.14399
 Alpha  occ. eigenvalues --   -1.14389  -1.14347  -1.14159  -1.14152  -1.14113
 Alpha  occ. eigenvalues --   -1.13904  -1.13816  -1.13757  -1.13450  -1.13433
 Alpha  occ. eigenvalues --   -1.13415  -1.13230  -1.13219  -1.13207  -1.12716
 Alpha  occ. eigenvalues --   -1.12665  -1.12638  -1.12618  -1.12584  -1.12552
 Alpha  occ. eigenvalues --   -0.17746  -0.13959  -0.12366  -0.09557
 Alpha virt. eigenvalues --   -0.06535  -0.05857  -0.04904  -0.02838  -0.02587
 Alpha virt. eigenvalues --   -0.02560  -0.01952  -0.01418  -0.01068  -0.00784
 Alpha virt. eigenvalues --   -0.00127   0.00164   0.00498   0.00640   0.00700

  Beta  occ. eigenvalues --  -38.44874 -38.44631 -38.44214 -38.43937 -38.43727
  Beta  occ. eigenvalues --  -38.43056 -38.43047  -2.20700  -2.20468  -2.20138
  Beta  occ. eigenvalues --   -2.19732  -2.19565  -2.18911  -2.18848  -1.14389
  Beta  occ. eigenvalues --   -1.14367  -1.14328  -1.14158  -1.14150  -1.14073
  Beta  occ. eigenvalues --   -1.13864  -1.13810  -1.13754  -1.13413  -1.13390
  Beta  occ. eigenvalues --   -1.13379  -1.13231  -1.13219  -1.13202  -1.12644
  Beta  occ. eigenvalues --   -1.12590  -1.12558  -1.12546  -1.12506  -1.12478
  Beta  occ. eigenvalues --   -0.17262  -0.13659  -0.12055
  Beta virt. eigenvalues --   -0.06403  -0.05994  -0.05620  -0.04688  -0.02606
  Beta virt. eigenvalues --   -0.02301  -0.02127  -0.01757  -0.01132  -0.00685
  Beta virt. eigenvalues --   -0.00645   0.00130   0.00323   0.00635   0.00730

 Mulliken charges and spin densities:
               1          2
     1  Na   0.016020   0.477805
     2  Na  -0.133770  -0.177587
     3  Na  -1.007378   0.139024
     4  Na   0.039721   0.045815
     5  Na  -0.189258   0.143228
     6  Na   0.680445   0.080948
     7  Na   0.594219   0.290767
 Sum of Mulliken charges =  -0.00000   1.00000

 Dipole moment (field-independent basis, Debye):
    X=             -0.0796    Y=              0.3921    Z=              0.7425  Tot=              0.8434
 Quadrupole moment (field-independent basis, Debye-Ang):
   XX=            -60.6467   YY=            -63.1862   ZZ=            -74.1452
   XY=              3.7004   XZ=              2.8074   YZ=             -0.5196

 Normal termination of Gaussian 16 at Wed Dec  6 00:59:04 2023.
