 Gaussian 16, Revision B.01,
 Gaussian 16:  ES64L-G16RevB.01 20-Dec-2017

 -------------------------
 #P B3LYP/6-311+g(d) force
 -------------------------

 -----
 DPGEN
 -----
 Symbolic Z-matrix:
 Charge =  0 Multiplicity = 2

                         Standard orientation:
 ---------------------------------------------------------------------
 Center     Atomic      Atomic             Coordinates (Angstroms)
 Number     Number       Type             X           Y           Z
 ---------------------------------------------------------------------
      1         11           0        3.040851    0.554984    1.418643
      2         11           0       -3.087307   -1.598979    0.671641
      3         11           0        3.025946   -0.923327   -1.935710
      4         11           0        0.213237   -1.662483   -1.026886
      5         11           0        0.080089   -0.337434    2.414932
      6         11           0       -0.039182    2.936310   -0.421253
      7         11           0       -3.233634    1.030929   -1.121367
 ---------------------------------------------------------------------

 SCF Done:  E(UB3LYP) =  -1136.11515493     A.U. after   27 cycles

 The electronic state is 2-A.
 Alpha  occ. eigenvalues --  -38.45040 -38.44735 -38.44614 -38.44415 -38.44366
 Alpha  occ. eigenvalues --  -38.43550 -38.43230  -2.20838  -2.20481  -2.20408
 Alpha  occ. eigenvalues --   -2.20251  -2.20194  -2.19384  -2.19068  -1.14516
 Alpha  occ. eigenvalues --   -1.14492  -1.14475  -1.14155  -1.14135  -1.14124
 Alpha  occ. eigenvalues --   -1.14094  -1.14059  -1.14038  -1.13919  -1.13888
 Alpha  occ. eigenvalues --   -1.13861  -1.13854  -1.13839  -1.13832  -1.13100
 Alpha  occ. eigenvalues --   -1.13062  -1.13041  -1.12720  -1.12704  -1.12696
 Alpha  occ. eigenvalues --   -0.17360  -0.13669  -0.11954  -0.11254
 Alpha virt. eigenvalues --   -0.06710  -0.05387  -0.04797  -0.03592  -0.03085
 Alpha virt. eigenvalues --   -0.02555  -0.02191  -0.01148  -0.00868  -0.00468
 Alpha virt. eigenvalues --   -0.00061   0.00150   0.00247   0.00335   0.00654

  Beta  occ. eigenvalues --  -38.45012 -38.44682 -38.44610 -38.44346 -38.44342
  Beta  occ. eigenvalues --  -38.43550 -38.43210  -2.20786  -2.20404  -2.20384
  Beta  occ. eigenvalues --   -2.20158  -2.20114  -2.19387  -2.19030  -1.14479
  Beta  occ. eigenvalues --   -1.14460  -1.14428  -1.14101  -1.14088  -1.14071
  Beta  occ. eigenvalues --   -1.14058  -1.14035  -1.14019  -1.13832  -1.13830
  Beta  occ. eigenvalues --   -1.13814  -1.13809  -1.13792  -1.13755  -1.13080
  Beta  occ. eigenvalues --   -1.13062  -1.13048  -1.12693  -1.12681  -1.12672
  Beta  occ. eigenvalues --   -0.16686  -0.13466  -0.10926
  Beta virt. eigenvalues --   -0.08233  -0.06526  -0.04758  -0.04452  -0.03215
  Beta virt. eigenvalues --   -0.02717  -0.02183  -0.01992  -0.00849  -0.00656
  Beta virt. eigenvalues --   -0.00323   0.00098   0.00227   0.00273   0.00540

 Mulliken charges and spin densities:
               1          2
     1  Na  -0.136460   0.043269
     2  Na   0.784168   0.181412
     3  Na   0.728215  -0.110542
     4  Na  -1.252757   0.289113
     5  Na   0.099514   0.253103
     6  Na  -0.194299   0.366479
     7  Na  -0.028382  -0.022834
 Sum of Mulliken charges =  -0.00000   1.00000

 Dipole moment (field-independent basis, Debye):
    X=             -0.5686    Y=              0.4621    Z=              0.3102  Tot=              0.7957
 Quadrupole moment (field-independent basis, Debye-Ang):
   XX=            -53.1930   YY=            -73.7136   ZZ=            -71.6020
   XY=              4.5297   XZ=              1.0537   YZ=             -6.9850

 Normal termination of Gaussian 16 at Sun Dec  3 17:48:25 2023.
