 Gaussian 16, Revision B.01,
 Gaussian 16:  ES64L-G16RevB.01 20-Dec-2017

 -------------------------
 #P B3LYP/6-311+g(d) force
 -------------------------

 -----
 DPGEN
 -----
 Symbolic Z-matrix:
 Charge =  0 Multiplicity = 2

                         Standard orientation:
 ---------------------------------------------------------------------
 Center     Atomic      Atomic             Coordinates (Angstroms)
 Number     Number       Type             X           Y           Z
 ---------------------------------------------------------------------
      1         11           0       -3.114915   -0.707157   -0.552034
      2         11           0       -0.051081   -2.892654   -0.378981
      3         11           0        2.603865    1.898388   -0.323757
      4         11           0        2.664114   -1.425416    0.113973
      5         11           0       -1.197464    2.950132    0.282687
      6         11           0       -0.321873    0.534815   -1.384469
      7         11           0       -0.582646   -0.358109    2.242582
 ---------------------------------------------------------------------

 SCF Done:  E(UB3LYP) =  -1136.13227028     A.U. after   19 cycles

 The electronic state is 2-A.
 Alpha  occ. eigenvalues --  -38.44301 -38.44166 -38.43884 -38.43817 -38.43642
 Alpha  occ. eigenvalues --  -38.43528 -38.43038  -2.20115  -2.19992  -2.19694
 Alpha  occ. eigenvalues --   -2.19659  -2.19499  -2.19379  -2.19035  -1.13832
 Alpha  occ. eigenvalues --   -1.13770  -1.13730  -1.13693  -1.13639  -1.13616
 Alpha  occ. eigenvalues --   -1.13378  -1.13363  -1.13326  -1.13314  -1.13289
 Alpha  occ. eigenvalues --   -1.13274  -1.13231  -1.13160  -1.13138  -1.13036
 Alpha  occ. eigenvalues --   -1.13027  -1.13004  -1.12719  -1.12684  -1.12665
 Alpha  occ. eigenvalues --   -0.18286  -0.12855  -0.12623  -0.10679
 Alpha virt. eigenvalues --   -0.05976  -0.05133  -0.04812  -0.03096  -0.02933
 Alpha virt. eigenvalues --   -0.02562  -0.01555  -0.01334  -0.00570  -0.00365
 Alpha virt. eigenvalues --   -0.00040   0.00328   0.00770   0.00805   0.00883

  Beta  occ. eigenvalues --  -38.44296 -38.44148 -38.43882 -38.43712 -38.43637
  Beta  occ. eigenvalues --  -38.43527 -38.42997  -2.20107  -2.19963  -2.19691
  Beta  occ. eigenvalues --   -2.19491  -2.19464  -2.19380  -2.18961  -1.13825
  Beta  occ. eigenvalues --   -1.13748  -1.13727  -1.13664  -1.13610  -1.13595
  Beta  occ. eigenvalues --   -1.13373  -1.13356  -1.13325  -1.13233  -1.13183
  Beta  occ. eigenvalues --   -1.13159  -1.13142  -1.13135  -1.13119  -1.13031
  Beta  occ. eigenvalues --   -1.13023  -1.13000  -1.12660  -1.12635  -1.12605
  Beta  occ. eigenvalues --   -0.17615  -0.12655  -0.12411
  Beta virt. eigenvalues --   -0.06744  -0.05931  -0.05036  -0.04756  -0.02357
  Beta virt. eigenvalues --   -0.02275  -0.01531  -0.01427  -0.01245  -0.00578
  Beta virt. eigenvalues --   -0.00406   0.00145   0.00389   0.00777   0.00877

 Mulliken charges and spin densities:
               1          2
     1  Na   0.306822   0.054545
     2  Na   0.201842   0.079308
     3  Na   0.149747   0.034009
     4  Na  -0.063875   0.005629
     5  Na   0.017292   0.043558
     6  Na  -0.075404   0.059839
     7  Na  -0.536424   0.723112
 Sum of Mulliken charges =  -0.00000   1.00000

 Dipole moment (field-independent basis, Debye):
    X=             -0.3950    Y=              0.3082    Z=              0.2004  Tot=              0.5396
 Quadrupole moment (field-independent basis, Debye-Ang):
   XX=            -58.5119   YY=            -60.3480   ZZ=            -74.9444
   XY=              0.3386   XZ=              0.5066   YZ=              1.6648

 Normal termination of Gaussian 16 at Thu Dec  7 12:39:46 2023.
