 Gaussian 16, Revision B.01,
 Gaussian 16:  ES64L-G16RevB.01 20-Dec-2017

 -------------------------
 #P B3LYP/6-311+g(d) force
 -------------------------

 -----
 DPGEN
 -----
 Symbolic Z-matrix:
 Charge =  0 Multiplicity = 2

                         Standard orientation:
 ---------------------------------------------------------------------
 Center     Atomic      Atomic             Coordinates (Angstroms)
 Number     Number       Type             X           Y           Z
 ---------------------------------------------------------------------
      1         11           0        0.178340   -0.087417   -1.369473
      2         11           0        1.689524    2.532213   -0.667354
      3         11           0       -0.001160   -2.974130    0.053633
      4         11           0        0.151157    0.204573    2.095888
      5         11           0       -3.137865   -1.055363   -0.503258
      6         11           0        3.054568   -0.989885    0.046383
      7         11           0       -1.934564    2.370009    0.344181
 ---------------------------------------------------------------------

 SCF Done:  E(UB3LYP) =  -1136.13656172     A.U. after   19 cycles

 The electronic state is 2-A.
 Alpha  occ. eigenvalues --  -38.44055 -38.43866 -38.43750 -38.43651 -38.43645
 Alpha  occ. eigenvalues --  -38.43593 -38.42927  -2.19878  -2.19658  -2.19565
 Alpha  occ. eigenvalues --   -2.19523  -2.19494  -2.19432  -2.18952  -1.13561
 Alpha  occ. eigenvalues --   -1.13541  -1.13509  -1.13337  -1.13309  -1.13301
 Alpha  occ. eigenvalues --   -1.13257  -1.13233  -1.13217  -1.13197  -1.13192
 Alpha  occ. eigenvalues --   -1.13151  -1.13139  -1.13133  -1.13128  -1.13106
 Alpha  occ. eigenvalues --   -1.13097  -1.13044  -1.12644  -1.12597  -1.12565
 Alpha  occ. eigenvalues --   -0.18402  -0.12735  -0.12555  -0.10626
 Alpha virt. eigenvalues --   -0.05566  -0.05267  -0.04891  -0.03033  -0.02839
 Alpha virt. eigenvalues --   -0.02420  -0.01587  -0.01286  -0.00569  -0.00401
 Alpha virt. eigenvalues --   -0.00006   0.00326   0.00799   0.00834   0.00851

  Beta  occ. eigenvalues --  -38.44052 -38.43858 -38.43743 -38.43630 -38.43591
  Beta  occ. eigenvalues --  -38.43546 -38.42881  -2.19876  -2.19644  -2.19555
  Beta  occ. eigenvalues --   -2.19459  -2.19430  -2.19340  -2.18869  -1.13555
  Beta  occ. eigenvalues --   -1.13533  -1.13502  -1.13318  -1.13301  -1.13291
  Beta  occ. eigenvalues --   -1.13235  -1.13210  -1.13197  -1.13183  -1.13137
  Beta  occ. eigenvalues --   -1.13107  -1.13090  -1.13082  -1.13068  -1.13039
  Beta  occ. eigenvalues --   -1.13022  -1.12994  -1.12576  -1.12538  -1.12505
  Beta  occ. eigenvalues --   -0.17718  -0.12512  -0.12267
  Beta virt. eigenvalues --   -0.06770  -0.05545  -0.05165  -0.04819  -0.02288
  Beta virt. eigenvalues --   -0.02176  -0.01506  -0.01395  -0.01180  -0.00563
  Beta virt. eigenvalues --   -0.00433   0.00137   0.00370   0.00833   0.00846

 Mulliken charges and spin densities:
               1          2
     1  Na  -0.338416   0.169309
     2  Na   0.183990   0.050826
     3  Na   0.100865   0.031501
     4  Na  -0.279788   0.665909
     5  Na   0.004225   0.012662
     6  Na   0.195847   0.007758
     7  Na   0.133276   0.062035
 Sum of Mulliken charges =  -0.00000   1.00000

 Dipole moment (field-independent basis, Debye):
    X=              0.1607    Y=             -0.0354    Z=              0.2339  Tot=              0.2860
 Quadrupole moment (field-independent basis, Debye-Ang):
   XX=            -56.2433   YY=            -60.7113   ZZ=            -75.1879
   XY=             -0.8116   XZ=              0.3826   YZ=             -0.7224

 Normal termination of Gaussian 16 at Thu Dec  7 17:46:06 2023.
