 Gaussian 16, Revision B.01,
 Gaussian 16:  ES64L-G16RevB.01 20-Dec-2017

 -------------------------
 #P B3LYP/6-311+g(d) force
 -------------------------

 -----
 DPGEN
 -----
 Symbolic Z-matrix:
 Charge =  0 Multiplicity = 2

                         Standard orientation:
 ---------------------------------------------------------------------
 Center     Atomic      Atomic             Coordinates (Angstroms)
 Number     Number       Type             X           Y           Z
 ---------------------------------------------------------------------
      1         11           0       -0.585551    1.558800   -0.310457
      2         11           0        1.979889    3.369661    0.412747
      3         11           0        3.192505    0.361365   -0.516217
      4         11           0        0.216534   -1.452474   -0.828837
      5         11           0       -3.052025   -1.185776   -0.571232
      6         11           0        3.759229   -2.678447    0.979661
      7         11           0       -5.510581    0.026870    0.834335
 ---------------------------------------------------------------------

 SCF Done:  E(UB3LYP) =  -1136.12173422     A.U. after   20 cycles

 The electronic state is 2-A.
 Alpha  occ. eigenvalues --  -38.44774 -38.44257 -38.44137 -38.44056 -38.43955
 Alpha  occ. eigenvalues --  -38.43629 -38.43380  -2.20607  -2.20128  -2.20030
 Alpha  occ. eigenvalues --   -2.19907  -2.19728  -2.19503  -2.19218  -1.14265
 Alpha  occ. eigenvalues --   -1.14227  -1.14223  -1.13886  -1.13815  -1.13729
 Alpha  occ. eigenvalues --   -1.13711  -1.13690  -1.13625  -1.13607  -1.13582
 Alpha  occ. eigenvalues --   -1.13506  -1.13394  -1.13389  -1.13341  -1.13193
 Alpha  occ. eigenvalues --   -1.13168  -1.13150  -1.12883  -1.12870  -1.12854
 Alpha  occ. eigenvalues --   -0.17238  -0.14348  -0.12040  -0.11515
 Alpha virt. eigenvalues --   -0.05883  -0.05431  -0.04413  -0.03965  -0.02642
 Alpha virt. eigenvalues --   -0.02436  -0.02148  -0.01524  -0.00810  -0.00755
 Alpha virt. eigenvalues --   -0.00468  -0.00041   0.00245   0.00499   0.00755

  Beta  occ. eigenvalues --  -38.44668 -38.44242 -38.44079 -38.44040 -38.43933
  Beta  occ. eigenvalues --  -38.43619 -38.43367  -2.20410  -2.20104  -2.19928
  Beta  occ. eigenvalues --   -2.19879  -2.19686  -2.19498  -2.19195  -1.14135
  Beta  occ. eigenvalues --   -1.14093  -1.14089  -1.13844  -1.13799  -1.13712
  Beta  occ. eigenvalues --   -1.13653  -1.13628  -1.13589  -1.13573  -1.13516
  Beta  occ. eigenvalues --   -1.13481  -1.13366  -1.13356  -1.13316  -1.13177
  Beta  occ. eigenvalues --   -1.13174  -1.13087  -1.12865  -1.12854  -1.12840
  Beta  occ. eigenvalues --   -0.16623  -0.13470  -0.11876
  Beta virt. eigenvalues --   -0.07977  -0.05706  -0.05043  -0.04065  -0.03711
  Beta virt. eigenvalues --   -0.02360  -0.02123  -0.01731  -0.01211  -0.00707
  Beta virt. eigenvalues --   -0.00472  -0.00121   0.00115   0.00396   0.00577

 Mulliken charges and spin densities:
               1          2
     1  Na  -0.615780  -0.053639
     2  Na   0.399726   0.026585
     3  Na  -0.075791   0.356872
     4  Na  -0.263494  -0.013077
     5  Na  -0.163856   0.092464
     6  Na   0.534302   0.172243
     7  Na   0.184893   0.418552
 Sum of Mulliken charges =  -0.00000   1.00000

 Dipole moment (field-independent basis, Debye):
    X=             -0.1480    Y=              0.1830    Z=              0.4621  Tot=              0.5186
 Quadrupole moment (field-independent basis, Debye-Ang):
   XX=            -62.3552   YY=            -65.4734   ZZ=            -69.2627
   XY=             -1.2667   XZ=             -0.0989   YZ=              0.1251

 Normal termination of Gaussian 16 at Wed Nov 29 00:06:35 2023.
