 Gaussian 16, Revision B.01,
 Gaussian 16:  ES64L-G16RevB.01 20-Dec-2017

 -------------------------
 #P B3LYP/6-311+g(d) force
 -------------------------

 -----
 DPGEN
 -----
 Symbolic Z-matrix:
 Charge =  0 Multiplicity = 2

                         Standard orientation:
 ---------------------------------------------------------------------
 Center     Atomic      Atomic             Coordinates (Angstroms)
 Number     Number       Type             X           Y           Z
 ---------------------------------------------------------------------
      1         11           0        0.102516   -2.849758    0.595289
      2         11           0        3.125165   -2.728148   -0.302292
      3         11           0        3.289704    0.460783   -0.628788
      4         11           0       -0.137540    0.906537    0.249888
      5         11           0       -2.914908    0.474462    1.457168
      6         11           0        1.905440    3.968531   -0.017884
      7         11           0       -5.370376   -0.232408   -1.353382
 ---------------------------------------------------------------------

 SCF Done:  E(UB3LYP) =  -1136.11508877     A.U. after   21 cycles

 The electronic state is 2-A.
 Alpha  occ. eigenvalues --  -38.44910 -38.44678 -38.44482 -38.44363 -38.44039
 Alpha  occ. eigenvalues --  -38.43818 -38.43641  -2.20703  -2.20462  -2.20231
 Alpha  occ. eigenvalues --   -2.20184  -2.19836  -2.19669  -2.19514  -1.14378
 Alpha  occ. eigenvalues --   -1.14369  -1.14333  -1.14097  -1.14096  -1.14059
 Alpha  occ. eigenvalues --   -1.13908  -1.13900  -1.13871  -1.13865  -1.13855
 Alpha  occ. eigenvalues --   -1.13795  -1.13584  -1.13486  -1.13481  -1.13334
 Alpha  occ. eigenvalues --   -1.13317  -1.13313  -1.13205  -1.13189  -1.13098
 Alpha  occ. eigenvalues --   -0.16573  -0.13659  -0.12466  -0.10939
 Alpha virt. eigenvalues --   -0.06790  -0.05448  -0.04567  -0.03830  -0.02519
 Alpha virt. eigenvalues --   -0.02168  -0.02009  -0.01678  -0.01448  -0.00866
 Alpha virt. eigenvalues --   -0.00460  -0.00035   0.00075   0.00270   0.00581

  Beta  occ. eigenvalues --  -38.44891 -38.44547 -38.44486 -38.44334 -38.44053
  Beta  occ. eigenvalues --  -38.43804 -38.43613  -2.20669  -2.20239  -2.20216
  Beta  occ. eigenvalues --   -2.20132  -2.19867  -2.19646  -2.19465  -1.14355
  Beta  occ. eigenvalues --   -1.14348  -1.14305  -1.13930  -1.13928  -1.13914
  Beta  occ. eigenvalues --   -1.13902  -1.13897  -1.13861  -1.13837  -1.13832
  Beta  occ. eigenvalues --   -1.13750  -1.13592  -1.13509  -1.13480  -1.13305
  Beta  occ. eigenvalues --   -1.13302  -1.13301  -1.13172  -1.13160  -1.13058
  Beta  occ. eigenvalues --   -0.16182  -0.12966  -0.12385
  Beta virt. eigenvalues --   -0.07283  -0.06329  -0.05198  -0.04333  -0.03522
  Beta virt. eigenvalues --   -0.02234  -0.02064  -0.01695  -0.01362  -0.01151
  Beta virt. eigenvalues --   -0.00627   0.00006   0.00134   0.00242   0.00494

 Mulliken charges and spin densities:
               1          2
     1  Na   0.885438   0.027861
     2  Na  -0.430385   0.040021
     3  Na   0.481361   0.312915
     4  Na  -2.276681   0.027670
     5  Na   0.687215  -0.160654
     6  Na   0.440593   0.052400
     7  Na   0.212459   0.699787
 Sum of Mulliken charges =  -0.00000   1.00000

 Dipole moment (field-independent basis, Debye):
    X=              0.8180    Y=             -0.0507    Z=              0.1824  Tot=              0.8396
 Quadrupole moment (field-independent basis, Debye-Ang):
   XX=            -70.5881   YY=            -57.5292   ZZ=            -70.2914
   XY=              1.5038   XZ=             -1.8952   YZ=              0.8998

 Normal termination of Gaussian 16 at Tue Nov 28 19:47:26 2023.
