 Gaussian 16, Revision B.01,
 Gaussian 16:  ES64L-G16RevB.01 20-Dec-2017

 -------------------------
 #P B3LYP/6-311+g(d) force
 -------------------------

 -----
 DPGEN
 -----
 Symbolic Z-matrix:
 Charge =  0 Multiplicity = 2

                         Standard orientation:
 ---------------------------------------------------------------------
 Center     Atomic      Atomic             Coordinates (Angstroms)
 Number     Number       Type             X           Y           Z
 ---------------------------------------------------------------------
      1         11           0       -3.303830   -0.562201   -0.387830
      2         11           0       -0.271935   -2.958247    0.086538
      3         11           0        2.997856   -1.154323    0.051688
      4         11           0       -0.865393    0.003165    1.579373
      5         11           0        2.262189    2.036487    0.188835
      6         11           0        0.525163   -0.141139   -1.345073
      7         11           0       -1.344051    2.776258   -0.173533
 ---------------------------------------------------------------------

 SCF Done:  E(UB3LYP) =  -1136.12960672     A.U. after   25 cycles

 The electronic state is 2-A.
 Alpha  occ. eigenvalues --  -38.44721 -38.44238 -38.43846 -38.43814 -38.43645
 Alpha  occ. eigenvalues --  -38.42863 -38.42660  -2.20532  -2.20108  -2.19708
 Alpha  occ. eigenvalues --   -2.19638  -2.19494  -2.18910  -2.18646  -1.14223
 Alpha  occ. eigenvalues --   -1.14180  -1.14161  -1.13834  -1.13762  -1.13732
 Alpha  occ. eigenvalues --   -1.13408  -1.13364  -1.13339  -1.13320  -1.13304
 Alpha  occ. eigenvalues --   -1.13264  -1.13195  -1.13164  -1.13111  -1.12625
 Alpha  occ. eigenvalues --   -1.12542  -1.12532  -1.12332  -1.12277  -1.12255
 Alpha  occ. eigenvalues --   -0.18705  -0.13452  -0.12585  -0.09623
 Alpha virt. eigenvalues --   -0.06215  -0.05387  -0.04951  -0.03080  -0.02489
 Alpha virt. eigenvalues --   -0.01909  -0.01474  -0.01307  -0.00729  -0.00635
 Alpha virt. eigenvalues --    0.00050   0.00326   0.00744   0.00805   0.00820

  Beta  occ. eigenvalues --  -38.44709 -38.44235 -38.43841 -38.43808 -38.43637
  Beta  occ. eigenvalues --  -38.42811 -38.42590  -2.20512  -2.20105  -2.19702
  Beta  occ. eigenvalues --   -2.19630  -2.19483  -2.18818  -2.18520  -1.14200
  Beta  occ. eigenvalues --   -1.14158  -1.14148  -1.13829  -1.13753  -1.13722
  Beta  occ. eigenvalues --   -1.13402  -1.13350  -1.13327  -1.13311  -1.13283
  Beta  occ. eigenvalues --   -1.13258  -1.13190  -1.13125  -1.13109  -1.12545
  Beta  occ. eigenvalues --   -1.12474  -1.12468  -1.12244  -1.12183  -1.12162
  Beta  occ. eigenvalues --   -0.18043  -0.13220  -0.12338
  Beta virt. eigenvalues --   -0.06138  -0.05874  -0.05361  -0.04907  -0.02332
  Beta virt. eigenvalues --   -0.01812  -0.01771  -0.01244  -0.00753  -0.00689
  Beta virt. eigenvalues --   -0.00617   0.00216   0.00396   0.00769   0.00826

 Mulliken charges and spin densities:
               1          2
     1  Na   0.040816   0.054785
     2  Na   0.109875  -0.100569
     3  Na   0.342881  -0.025718
     4  Na  -0.270717   0.558477
     5  Na   0.115216  -0.050485
     6  Na  -0.362451   0.557616
     7  Na   0.024381   0.005894
 Sum of Mulliken charges =  -0.00000   1.00000

 Dipole moment (field-independent basis, Debye):
    X=             -0.1480    Y=             -0.0653    Z=              0.0654  Tot=              0.1745
 Quadrupole moment (field-independent basis, Debye-Ang):
   XX=            -51.4994   YY=            -58.8956   ZZ=            -79.4128
   XY=             -0.0520   XZ=              2.7942   YZ=             -0.2392

 Normal termination of Gaussian 16 at Tue Nov 28 23:13:12 2023.
