 Gaussian 16, Revision B.01,
 Gaussian 16:  ES64L-G16RevB.01 20-Dec-2017

 -------------------------
 #P B3LYP/6-311+g(d) force
 -------------------------

 -----
 DPGEN
 -----
 Symbolic Z-matrix:
 Charge =  0 Multiplicity = 2

                         Standard orientation:
 ---------------------------------------------------------------------
 Center     Atomic      Atomic             Coordinates (Angstroms)
 Number     Number       Type             X           Y           Z
 ---------------------------------------------------------------------
      1         11           0       -1.888711    2.563097    0.234624
      2         11           0       -3.046735   -1.350306    0.551989
      3         11           0        0.218023   -2.474086   -0.592823
      4         11           0       -1.014989    0.046388   -1.690971
      5         11           0        0.298461    0.140692    2.068311
      6         11           0        1.723485    1.366100   -1.026525
      7         11           0        3.710466   -0.291884    0.455394
 ---------------------------------------------------------------------

 SCF Done:  E(UB3LYP) =  -1136.12554212     A.U. after   21 cycles

 The electronic state is 2-A.
 Alpha  occ. eigenvalues --  -38.44656 -38.44621 -38.44549 -38.43576 -38.43265
 Alpha  occ. eigenvalues --  -38.43221 -38.42978  -2.20460  -2.20442  -2.20387
 Alpha  occ. eigenvalues --   -2.19500  -2.19289  -2.19083  -2.18793  -1.14171
 Alpha  occ. eigenvalues --   -1.14146  -1.14113  -1.14086  -1.14081  -1.14070
 Alpha  occ. eigenvalues --   -1.14060  -1.14026  -1.13994  -1.13245  -1.13150
 Alpha  occ. eigenvalues --   -1.13104  -1.13036  -1.12925  -1.12913  -1.12746
 Alpha  occ. eigenvalues --   -1.12740  -1.12664  -1.12470  -1.12451  -1.12433
 Alpha  occ. eigenvalues --   -0.18547  -0.13382  -0.11547  -0.11352
 Alpha virt. eigenvalues --   -0.06500  -0.04878  -0.03989  -0.03434  -0.02985
 Alpha virt. eigenvalues --   -0.02741  -0.02123  -0.01012  -0.00507   0.00011
 Alpha virt. eigenvalues --    0.00169   0.00294   0.00446   0.00760   0.00854

  Beta  occ. eigenvalues --  -38.44648 -38.44621 -38.44471 -38.43546 -38.43205
  Beta  occ. eigenvalues --  -38.43198 -38.42979  -2.20445  -2.20442  -2.20243
  Beta  occ. eigenvalues --   -2.19449  -2.19168  -2.19057  -2.18797  -1.14173
  Beta  occ. eigenvalues --   -1.14131  -1.14098  -1.14076  -1.14070  -1.14065
  Beta  occ. eigenvalues --   -1.13969  -1.13925  -1.13887  -1.13190  -1.13105
  Beta  occ. eigenvalues --   -1.13071  -1.12966  -1.12840  -1.12826  -1.12720
  Beta  occ. eigenvalues --   -1.12688  -1.12650  -1.12468  -1.12450  -1.12429
  Beta  occ. eigenvalues --   -0.17758  -0.13243  -0.11330
  Beta virt. eigenvalues --   -0.07383  -0.06315  -0.04779  -0.03712  -0.03074
  Beta virt. eigenvalues --   -0.02146  -0.01947  -0.01887  -0.00927  -0.00320
  Beta virt. eigenvalues --    0.00061   0.00190   0.00311   0.00616   0.00836

 Mulliken charges and spin densities:
               1          2
     1  Na  -0.107116   0.011798
     2  Na   0.067757   0.078173
     3  Na  -0.198131  -0.001762
     4  Na   0.461903   0.178748
     5  Na  -0.373061   0.684865
     6  Na  -0.098086   0.053722
     7  Na   0.246734  -0.005544
 Sum of Mulliken charges =  -0.00000   1.00000

 Dipole moment (field-independent basis, Debye):
    X=              0.1047    Y=             -0.3934    Z=              0.7325  Tot=              0.8380
 Quadrupole moment (field-independent basis, Debye-Ang):
   XX=            -51.2032   YY=            -71.9908   ZZ=            -70.3435
   XY=             -0.8425   XZ=             -1.2553   YZ=             -0.7119

 Normal termination of Gaussian 16 at Thu Dec  7 14:52:49 2023.
