 Gaussian 16, Revision B.01,
 Gaussian 16:  ES64L-G16RevB.01 20-Dec-2017

 -------------------------
 #P B3LYP/6-311+g(d) force
 -------------------------

 -----
 DPGEN
 -----
 Symbolic Z-matrix:
 Charge =  0 Multiplicity = 2

                         Standard orientation:
 ---------------------------------------------------------------------
 Center     Atomic      Atomic             Coordinates (Angstroms)
 Number     Number       Type             X           Y           Z
 ---------------------------------------------------------------------
      1         11           0       -0.023845    1.216475   -0.318376
      2         11           0        2.725848    3.373565   -0.339774
      3         11           0        3.628198    0.315008    0.932281
      4         11           0        3.067456   -2.941248   -0.702830
      5         11           0       -0.171272   -1.825030    0.274724
      6         11           0       -3.349633   -0.955904    0.254797
      7         11           0       -5.876753    0.817133   -0.100822
 ---------------------------------------------------------------------

 SCF Done:  E(UB3LYP) =  -1136.12010613     A.U. after   21 cycles

 The electronic state is 2-A.
 Alpha  occ. eigenvalues --  -38.44978 -38.44865 -38.44563 -38.43762 -38.43654
 Alpha  occ. eigenvalues --  -38.43590 -38.43565  -2.20770  -2.20703  -2.20391
 Alpha  occ. eigenvalues --   -2.19548  -2.19502  -2.19480  -2.19368  -1.14468
 Alpha  occ. eigenvalues --   -1.14434  -1.14418  -1.14387  -1.14370  -1.14276
 Alpha  occ. eigenvalues --   -1.14046  -1.14013  -1.14011  -1.13218  -1.13214
 Alpha  occ. eigenvalues --   -1.13203  -1.13193  -1.13181  -1.13174  -1.13154
 Alpha  occ. eigenvalues --   -1.13142  -1.13044  -1.13035  -1.13032  -1.13005
 Alpha  occ. eigenvalues --   -0.16871  -0.14213  -0.12149  -0.11436
 Alpha virt. eigenvalues --   -0.06100  -0.05556  -0.04380  -0.03760  -0.02877
 Alpha virt. eigenvalues --   -0.02474  -0.02024  -0.01445  -0.01119  -0.00910
 Alpha virt. eigenvalues --   -0.00533  -0.00133   0.00376   0.00522   0.00650

  Beta  occ. eigenvalues --  -38.44944 -38.44822 -38.44464 -38.43735 -38.43651
  Beta  occ. eigenvalues --  -38.43565 -38.43557  -2.20709  -2.20626  -2.20207
  Beta  occ. eigenvalues --   -2.19508  -2.19499  -2.19424  -2.19368  -1.14424
  Beta  occ. eigenvalues --   -1.14395  -1.14363  -1.14338  -1.14319  -1.14214
  Beta  occ. eigenvalues --   -1.13925  -1.13888  -1.13886  -1.13191  -1.13187
  Beta  occ. eigenvalues --   -1.13181  -1.13168  -1.13154  -1.13145  -1.13124
  Beta  occ. eigenvalues --   -1.13108  -1.13034  -1.13029  -1.13006  -1.12991
  Beta  occ. eigenvalues --   -0.16258  -0.13404  -0.11844
  Beta virt. eigenvalues --   -0.08047  -0.05719  -0.05402  -0.03914  -0.03518
  Beta virt. eigenvalues --   -0.02590  -0.02168  -0.01848  -0.01170  -0.00782
  Beta virt. eigenvalues --   -0.00604  -0.00250  -0.00003   0.00516   0.00608

 Mulliken charges and spin densities:
               1          2
     1  Na  -0.940021   0.099296
     2  Na   0.728377  -0.000068
     3  Na  -0.053887   0.284571
     4  Na   1.257433   0.280410
     5  Na   0.450275  -0.209971
     6  Na  -1.109424   0.148004
     7  Na  -0.332754   0.397757
 Sum of Mulliken charges =  -0.00000   1.00000

 Dipole moment (field-independent basis, Debye):
    X=              0.4838    Y=              0.6551    Z=             -0.1515  Tot=              0.8284
 Quadrupole moment (field-independent basis, Debye-Ang):
   XX=            -61.8891   YY=            -65.2328   ZZ=            -70.1472
   XY=             -1.1306   XZ=              1.1265   YZ=             -0.6591

 Normal termination of Gaussian 16 at Wed Nov 29 04:09:34 2023.
