 Gaussian 16, Revision B.01,
 Gaussian 16:  ES64L-G16RevB.01 20-Dec-2017

 -------------------------
 #P B3LYP/6-311+g(d) force
 -------------------------

 -----
 DPGEN
 -----
 Symbolic Z-matrix:
 Charge =  0 Multiplicity = 2

                         Standard orientation:
 ---------------------------------------------------------------------
 Center     Atomic      Atomic             Coordinates (Angstroms)
 Number     Number       Type             X           Y           Z
 ---------------------------------------------------------------------
      1         11           0       -1.537504   -1.687892    1.500906
      2         11           0       -2.133325    2.033089    0.218204
      3         11           0        0.368427    0.279887   -1.247698
      4         11           0       -3.560087   -0.671280   -1.340419
      5         11           0        1.774801   -1.719835    0.656699
      6         11           0        3.740786   -0.032224   -1.249284
      7         11           0        1.346902    1.798254    1.461591
 ---------------------------------------------------------------------

 SCF Done:  E(UB3LYP) =  -1136.12432361     A.U. after   24 cycles

 The electronic state is 2-A.
 Alpha  occ. eigenvalues --  -38.44692 -38.44470 -38.44321 -38.43510 -38.43431
 Alpha  occ. eigenvalues --  -38.43313 -38.43294  -2.20545  -2.20279  -2.20273
 Alpha  occ. eigenvalues --   -2.19336  -2.19279  -2.19219  -2.19150  -1.14209
 Alpha  occ. eigenvalues --   -1.14194  -1.14165  -1.14015  -1.13945  -1.13924
 Alpha  occ. eigenvalues --   -1.13920  -1.13904  -1.13890  -1.13020  -1.12994
 Alpha  occ. eigenvalues --   -1.12966  -1.12963  -1.12930  -1.12926  -1.12898
 Alpha  occ. eigenvalues --   -1.12867  -1.12843  -1.12830  -1.12824  -1.12768
 Alpha  occ. eigenvalues --   -0.18338  -0.14235  -0.11293  -0.10963
 Alpha virt. eigenvalues --   -0.06350  -0.05279  -0.04907  -0.03113  -0.02630
 Alpha virt. eigenvalues --   -0.02532  -0.02143  -0.01152  -0.00829  -0.00182
 Alpha virt. eigenvalues --    0.00107   0.00341   0.00410   0.00458   0.00737

  Beta  occ. eigenvalues --  -38.44640 -38.44430 -38.44310 -38.43474 -38.43395
  Beta  occ. eigenvalues --  -38.43314 -38.43273  -2.20448  -2.20255  -2.20204
  Beta  occ. eigenvalues --   -2.19272  -2.19213  -2.19188  -2.19154  -1.14139
  Beta  occ. eigenvalues --   -1.14131  -1.14099  -1.13985  -1.13910  -1.13894
  Beta  occ. eigenvalues --   -1.13877  -1.13865  -1.13856  -1.12972  -1.12951
  Beta  occ. eigenvalues --   -1.12923  -1.12913  -1.12903  -1.12876  -1.12858
  Beta  occ. eigenvalues --   -1.12845  -1.12833  -1.12826  -1.12775  -1.12753
  Beta  occ. eigenvalues --   -0.17698  -0.13790  -0.10738
  Beta virt. eigenvalues --   -0.07652  -0.06085  -0.04986  -0.04489  -0.02908
  Beta virt. eigenvalues --   -0.02301  -0.02116  -0.01471  -0.00853  -0.00637
  Beta virt. eigenvalues --   -0.00037   0.00195   0.00427   0.00447   0.00593

 Mulliken charges and spin densities:
               1          2
     1  Na  -0.336981   0.088096
     2  Na   0.188282   0.123781
     3  Na  -1.002889  -0.155327
     4  Na   0.516362   0.192944
     5  Na  -0.012205   0.212805
     6  Na   0.889508   0.216713
     7  Na  -0.242076   0.320988
 Sum of Mulliken charges =  -0.00000   1.00000

 Dipole moment (field-independent basis, Debye):
    X=              0.4006    Y=              0.2525    Z=             -0.2521  Tot=              0.5364
 Quadrupole moment (field-independent basis, Debye-Ang):
   XX=            -50.3236   YY=            -78.6944   ZZ=            -65.4567
   XY=              1.0781   XZ=              0.8168   YZ=              1.0229

 Normal termination of Gaussian 16 at Wed Nov 29 15:45:52 2023.
