 Gaussian 16, Revision B.01,
 Gaussian 16:  ES64L-G16RevB.01 20-Dec-2017

 -------------------------
 #P B3LYP/6-311+g(d) force
 -------------------------

 -----
 DPGEN
 -----
 Symbolic Z-matrix:
 Charge =  0 Multiplicity = 2

                         Standard orientation:
 ---------------------------------------------------------------------
 Center     Atomic      Atomic             Coordinates (Angstroms)
 Number     Number       Type             X           Y           Z
 ---------------------------------------------------------------------
      1         11           0       -3.913943    0.760580   -0.402493
      2         11           0        2.376690   -2.679739   -0.223547
      3         11           0        0.514512    3.341009    0.335552
      4         11           0       -0.698890    0.475678   -0.578122
      5         11           0        1.771042    0.106465    1.986602
      6         11           0        2.816616    0.356732   -1.468203
      7         11           0       -2.866026   -2.360725    0.350211
 ---------------------------------------------------------------------

 SCF Done:  E(UB3LYP) =  -1136.12146132     A.U. after   20 cycles

 The electronic state is 2-A.
 Alpha  occ. eigenvalues --  -38.45111 -38.44977 -38.43782 -38.43720 -38.43535
 Alpha  occ. eigenvalues --  -38.43475 -38.43388  -2.20920  -2.20748  -2.19639
 Alpha  occ. eigenvalues --   -2.19518  -2.19396  -2.19387  -2.19187  -1.14601
 Alpha  occ. eigenvalues --   -1.14579  -1.14548  -1.14420  -1.14412  -1.14365
 Alpha  occ. eigenvalues --   -1.13318  -1.13296  -1.13262  -1.13185  -1.13172
 Alpha  occ. eigenvalues --   -1.13153  -1.13110  -1.13083  -1.13060  -1.13039
 Alpha  occ. eigenvalues --   -1.13021  -1.12981  -1.12851  -1.12842  -1.12823
 Alpha  occ. eigenvalues --   -0.17311  -0.14013  -0.11706  -0.09917
 Alpha virt. eigenvalues --   -0.06380  -0.05777  -0.05054  -0.03170  -0.02464
 Alpha virt. eigenvalues --   -0.02333  -0.01985  -0.01420  -0.01103  -0.00844
 Alpha virt. eigenvalues --   -0.00169   0.00242   0.00485   0.00532   0.00574

  Beta  occ. eigenvalues --  -38.45105 -38.44973 -38.43718 -38.43717 -38.43463
  Beta  occ. eigenvalues --  -38.43453 -38.43389  -2.20908  -2.20740  -2.19521
  Beta  occ. eigenvalues --   -2.19517  -2.19378  -2.19236  -2.19190  -1.14592
  Beta  occ. eigenvalues --   -1.14569  -1.14541  -1.14415  -1.14404  -1.14359
  Beta  occ. eigenvalues --   -1.13244  -1.13222  -1.13186  -1.13182  -1.13156
  Beta  occ. eigenvalues --   -1.13119  -1.13074  -1.13063  -1.13025  -1.12957
  Beta  occ. eigenvalues --   -1.12925  -1.12874  -1.12854  -1.12833  -1.12820
  Beta  occ. eigenvalues --   -0.16764  -0.13761  -0.11537
  Beta virt. eigenvalues --   -0.06514  -0.05801  -0.05557  -0.05000  -0.02845
  Beta virt. eigenvalues --   -0.02178  -0.01885  -0.01370  -0.01286  -0.01033
  Beta virt. eigenvalues --   -0.00571   0.00160   0.00320   0.00591   0.00637

 Mulliken charges and spin densities:
               1          2
     1  Na   0.511384  -0.030930
     2  Na   0.247489  -0.005291
     3  Na   0.159514  -0.063474
     4  Na  -1.612190   0.345903
     5  Na  -0.253283   0.537902
     6  Na   0.767396   0.234028
     7  Na   0.179690  -0.018138
 Sum of Mulliken charges =  -0.00000   1.00000

 Dipole moment (field-independent basis, Debye):
    X=             -1.7838    Y=             -0.1544    Z=              0.1536  Tot=              1.7970
 Quadrupole moment (field-independent basis, Debye-Ang):
   XX=            -56.1244   YY=            -59.1717   ZZ=            -77.1301
   XY=              0.6200   XZ=              0.4393   YZ=             -0.6753

 Normal termination of Gaussian 16 at Tue Dec  5 20:29:07 2023.
