 Gaussian 16, Revision B.01,
 Gaussian 16:  ES64L-G16RevB.01 20-Dec-2017

 -------------------------
 #P B3LYP/6-311+g(d) force
 -------------------------

 -----
 DPGEN
 -----
 Symbolic Z-matrix:
 Charge =  0 Multiplicity = 2

                         Standard orientation:
 ---------------------------------------------------------------------
 Center     Atomic      Atomic             Coordinates (Angstroms)
 Number     Number       Type             X           Y           Z
 ---------------------------------------------------------------------
      1         11           0       -2.940495   -1.607122   -0.088758
      2         11           0        0.223739   -0.085317   -1.642732
      3         11           0       -2.113753    2.193059   -0.335205
      4         11           0        1.542551    2.359558   -0.021564
      5         11           0       -0.298638    0.429607    1.971279
      6         11           0        2.999087   -0.684084   -0.020217
      7         11           0        0.587509   -2.605702    0.137198
 ---------------------------------------------------------------------

 SCF Done:  E(UB3LYP) =  -1136.13558865     A.U. after   19 cycles

 The electronic state is 2-A.
 Alpha  occ. eigenvalues --  -38.44155 -38.43937 -38.43756 -38.43394 -38.43393
 Alpha  occ. eigenvalues --  -38.43250 -38.43172  -2.19931  -2.19763  -2.19657
 Alpha  occ. eigenvalues --   -2.19305  -2.19290  -2.19182  -2.19160  -1.13607
 Alpha  occ. eigenvalues --   -1.13584  -1.13577  -1.13443  -1.13436  -1.13388
 Alpha  occ. eigenvalues --   -1.13367  -1.13325  -1.13296  -1.13028  -1.12993
 Alpha  occ. eigenvalues --   -1.12965  -1.12945  -1.12930  -1.12910  -1.12894
 Alpha  occ. eigenvalues --   -1.12832  -1.12811  -1.12788  -1.12769  -1.12758
 Alpha  occ. eigenvalues --   -0.18891  -0.13048  -0.12536  -0.10678
 Alpha virt. eigenvalues --   -0.05665  -0.05402  -0.04434  -0.03190  -0.02867
 Alpha virt. eigenvalues --   -0.02419  -0.01564  -0.01241  -0.00311  -0.00182
 Alpha virt. eigenvalues --   -0.00007   0.00347   0.00775   0.00851   0.00929

  Beta  occ. eigenvalues --  -38.44156 -38.43930 -38.43752 -38.43384 -38.43305
  Beta  occ. eigenvalues --  -38.43242 -38.43105  -2.19936  -2.19753  -2.19653
  Beta  occ. eigenvalues --   -2.19278  -2.19152  -2.19141  -2.19059  -1.13596
  Beta  occ. eigenvalues --   -1.13589  -1.13582  -1.13431  -1.13411  -1.13384
  Beta  occ. eigenvalues --   -1.13367  -1.13319  -1.13271  -1.13002  -1.12934
  Beta  occ. eigenvalues --   -1.12915  -1.12904  -1.12859  -1.12813  -1.12799
  Beta  occ. eigenvalues --   -1.12785  -1.12767  -1.12756  -1.12694  -1.12692
  Beta  occ. eigenvalues --   -0.18149  -0.12819  -0.12295
  Beta virt. eigenvalues --   -0.06747  -0.05666  -0.05347  -0.04411  -0.02397
  Beta virt. eigenvalues --   -0.02096  -0.01510  -0.01351  -0.01174  -0.00370
  Beta virt. eigenvalues --   -0.00212   0.00136   0.00375   0.00826   0.00847

 Mulliken charges and spin densities:
               1          2
     1  Na  -0.034638  -0.099490
     2  Na  -0.412299   0.519099
     3  Na   0.078244  -0.118195
     4  Na   0.435424  -0.022040
     5  Na  -0.539420   0.713305
     6  Na   0.289368   0.035439
     7  Na   0.183322  -0.028118
 Sum of Mulliken charges =  -0.00000   1.00000

 Dipole moment (field-independent basis, Debye):
    X=             -0.3554    Y=              0.1472    Z=              0.0896  Tot=              0.3950
 Quadrupole moment (field-independent basis, Debye-Ang):
   XX=            -55.0110   YY=            -63.3379   ZZ=            -74.6255
   XY=              0.0859   XZ=              1.0516   YZ=             -1.0922

 Normal termination of Gaussian 16 at Thu Dec  7 17:23:12 2023.
