 Gaussian 16, Revision B.01,
 Gaussian 16:  ES64L-G16RevB.01 20-Dec-2017

 -------------------------
 #P B3LYP/6-311+g(d) force
 -------------------------

 -----
 DPGEN
 -----
 Symbolic Z-matrix:
 Charge =  0 Multiplicity = 2

                         Standard orientation:
 ---------------------------------------------------------------------
 Center     Atomic      Atomic             Coordinates (Angstroms)
 Number     Number       Type             X           Y           Z
 ---------------------------------------------------------------------
      1         11           0       -1.944926    1.179227   -0.782618
      2         11           0        0.101992    1.080084    1.860526
      3         11           0       -0.373493   -2.016230   -0.440943
      4         11           0        0.810019    3.245934   -0.637129
      5         11           0        2.314536   -2.915189   -0.106312
      6         11           0       -4.336689   -0.967868    0.190527
      7         11           0        3.428560    0.394042   -0.084051
 ---------------------------------------------------------------------

 SCF Done:  E(UB3LYP) =  -1136.11698069     A.U. after   24 cycles

 The electronic state is 2-A.
 Alpha  occ. eigenvalues --  -38.44876 -38.44424 -38.44022 -38.43981 -38.43981
 Alpha  occ. eigenvalues --  -38.43897 -38.43786  -2.20729  -2.20236  -2.19887
 Alpha  occ. eigenvalues --   -2.19859  -2.19843  -2.19701  -2.19586  -1.14396
 Alpha  occ. eigenvalues --   -1.14376  -1.14348  -1.13925  -1.13882  -1.13878
 Alpha  occ. eigenvalues --   -1.13772  -1.13567  -1.13552  -1.13542  -1.13526
 Alpha  occ. eigenvalues --   -1.13492  -1.13478  -1.13468  -1.13379  -1.13356
 Alpha  occ. eigenvalues --   -1.13344  -1.13311  -1.13242  -1.13238  -1.13193
 Alpha  occ. eigenvalues --   -0.17627  -0.13505  -0.12959  -0.09710
 Alpha virt. eigenvalues --   -0.07228  -0.05401  -0.05269  -0.02877  -0.02775
 Alpha virt. eigenvalues --   -0.02706  -0.01731  -0.01514  -0.01251  -0.00886
 Alpha virt. eigenvalues --   -0.00126  -0.00009   0.00395   0.00459   0.00725

  Beta  occ. eigenvalues --  -38.44820 -38.44424 -38.44021 -38.43982 -38.43968
  Beta  occ. eigenvalues --  -38.43832 -38.43728  -2.20624  -2.20237  -2.19885
  Beta  occ. eigenvalues --   -2.19864  -2.19824  -2.19579  -2.19477  -1.14321
  Beta  occ. eigenvalues --   -1.14305  -1.14274  -1.13929  -1.13880  -1.13864
  Beta  occ. eigenvalues --   -1.13763  -1.13572  -1.13546  -1.13533  -1.13519
  Beta  occ. eigenvalues --   -1.13480  -1.13461  -1.13458  -1.13348  -1.13295
  Beta  occ. eigenvalues --   -1.13261  -1.13227  -1.13168  -1.13159  -1.13125
  Beta  occ. eigenvalues --   -0.17207  -0.13181  -0.12491
  Beta virt. eigenvalues --   -0.06888  -0.06391  -0.05212  -0.04991  -0.02624
  Beta virt. eigenvalues --   -0.02487  -0.02211  -0.01512  -0.01198  -0.00996
  Beta virt. eigenvalues --   -0.00665   0.00037   0.00222   0.00548   0.00619

 Mulliken charges and spin densities:
               1          2
     1  Na  -0.147975   0.085094
     2  Na  -0.208142   0.014983
     3  Na  -0.963678  -0.180336
     4  Na   0.509077   0.259586
     5  Na   0.712818   0.104703
     6  Na   0.446100   0.258933
     7  Na  -0.348200   0.457038
 Sum of Mulliken charges =  -0.00000   1.00000

 Dipole moment (field-independent basis, Debye):
    X=              0.0140    Y=              0.4552    Z=              0.8119  Tot=              0.9309
 Quadrupole moment (field-independent basis, Debye-Ang):
   XX=            -75.9890   YY=            -62.4822   ZZ=            -66.5162
   XY=             -2.5335   XZ=             -0.2618   YZ=             -2.2117

 Normal termination of Gaussian 16 at Sun Dec  3 12:33:12 2023.
