 Gaussian 16, Revision B.01,
 Gaussian 16:  ES64L-G16RevB.01 20-Dec-2017

 -------------------------
 #P B3LYP/6-311+g(d) force
 -------------------------

 -----
 DPGEN
 -----
 Symbolic Z-matrix:
 Charge =  0 Multiplicity = 2

                         Standard orientation:
 ---------------------------------------------------------------------
 Center     Atomic      Atomic             Coordinates (Angstroms)
 Number     Number       Type             X           Y           Z
 ---------------------------------------------------------------------
      1         11           0       -0.411365    0.412999   -1.612146
      2         11           0       -2.794212   -1.893469   -0.356144
      3         11           0        1.235928    2.906609   -0.098185
      4         11           0        0.884554   -2.824026    0.040152
      5         11           0        3.281674   -0.371956   -0.343968
      6         11           0        0.241481   -0.253626    1.991093
      7         11           0       -2.438060    2.023468    0.379198
 ---------------------------------------------------------------------

 SCF Done:  E(UB3LYP) =  -1136.13534259     A.U. after   19 cycles

 The electronic state is 2-A.
 Alpha  occ. eigenvalues --  -38.44250 -38.44063 -38.43994 -38.43865 -38.43616
 Alpha  occ. eigenvalues --  -38.43474 -38.43285  -2.20058  -2.19856  -2.19774
 Alpha  occ. eigenvalues --   -2.19670  -2.19454  -2.19349  -2.19207  -1.13748
 Alpha  occ. eigenvalues --   -1.13722  -1.13681  -1.13533  -1.13512  -1.13501
 Alpha  occ. eigenvalues --   -1.13451  -1.13423  -1.13418  -1.13361  -1.13334
 Alpha  occ. eigenvalues --   -1.13297  -1.13167  -1.13121  -1.13074  -1.13015
 Alpha  occ. eigenvalues --   -1.12973  -1.12959  -1.12896  -1.12850  -1.12825
 Alpha  occ. eigenvalues --   -0.18075  -0.12818  -0.12442  -0.10349
 Alpha virt. eigenvalues --   -0.05745  -0.05511  -0.04987  -0.03137  -0.02797
 Alpha virt. eigenvalues --   -0.02292  -0.01599  -0.01443  -0.00699  -0.00607
 Alpha virt. eigenvalues --   -0.00020   0.00334   0.00752   0.00782   0.00835

  Beta  occ. eigenvalues --  -38.44242 -38.44058 -38.43986 -38.43862 -38.43612
  Beta  occ. eigenvalues --  -38.43382 -38.43233  -2.20045  -2.19848  -2.19762
  Beta  occ. eigenvalues --   -2.19667  -2.19448  -2.19181  -2.19112  -1.13736
  Beta  occ. eigenvalues --   -1.13698  -1.13674  -1.13521  -1.13504  -1.13492
  Beta  occ. eigenvalues --   -1.13429  -1.13415  -1.13413  -1.13352  -1.13324
  Beta  occ. eigenvalues --   -1.13293  -1.13148  -1.13102  -1.13073  -1.12906
  Beta  occ. eigenvalues --   -1.12858  -1.12840  -1.12825  -1.12784  -1.12752
  Beta  occ. eigenvalues --   -0.17389  -0.12617  -0.12200
  Beta virt. eigenvalues --   -0.06566  -0.05714  -0.05426  -0.04891  -0.02394
  Beta virt. eigenvalues --   -0.02126  -0.01487  -0.01364  -0.01305  -0.00735
  Beta virt. eigenvalues --   -0.00632   0.00127   0.00376   0.00774   0.00826

 Mulliken charges and spin densities:
               1          2
     1  Na  -0.081174   0.548722
     2  Na   0.028269  -0.058177
     3  Na   0.091189  -0.056382
     4  Na   0.146272  -0.038025
     5  Na  -0.051413  -0.042115
     6  Na  -0.206938   0.668173
     7  Na   0.073795  -0.022196
 Sum of Mulliken charges =  -0.00000   1.00000

 Dipole moment (field-independent basis, Debye):
    X=             -0.1254    Y=              0.2111    Z=              0.0764  Tot=              0.2572
 Quadrupole moment (field-independent basis, Debye-Ang):
   XX=            -56.2607   YY=            -60.1543   ZZ=            -76.1496
   XY=              0.0884   XZ=             -1.5538   YZ=              1.6087

 Normal termination of Gaussian 16 at Thu Dec  7 22:40:39 2023.
