 Gaussian 16, Revision B.01,
 Gaussian 16:  ES64L-G16RevB.01 20-Dec-2017

 -------------------------
 #P B3LYP/6-311+g(d) force
 -------------------------

 -----
 DPGEN
 -----
 Symbolic Z-matrix:
 Charge =  0 Multiplicity = 2

                         Standard orientation:
 ---------------------------------------------------------------------
 Center     Atomic      Atomic             Coordinates (Angstroms)
 Number     Number       Type             X           Y           Z
 ---------------------------------------------------------------------
      1         11           0       -3.299699    0.150009   -0.085654
      2         11           0        2.296409    1.823890   -0.040691
      3         11           0        2.628173   -1.582427   -0.465193
      4         11           0       -0.843932    2.334639    0.344410
      5         11           0       -0.075669    0.380021   -1.529919
      6         11           0       -1.168305   -2.392360   -0.236310
      7         11           0        0.463022   -0.713773    2.013357
 ---------------------------------------------------------------------

 SCF Done:  E(UB3LYP) =  -1136.13157598     A.U. after   20 cycles

 The electronic state is 2-A.
 Alpha  occ. eigenvalues --  -38.44249 -38.43938 -38.43555 -38.43416 -38.43334
 Alpha  occ. eigenvalues --  -38.43272 -38.43091  -2.20094  -2.19785  -2.19462
 Alpha  occ. eigenvalues --   -2.19348  -2.19331  -2.19227  -2.19055  -1.13763
 Alpha  occ. eigenvalues --   -1.13753  -1.13745  -1.13457  -1.13456  -1.13421
 Alpha  occ. eigenvalues --   -1.13252  -1.13145  -1.13120  -1.13091  -1.13044
 Alpha  occ. eigenvalues --   -1.13003  -1.12967  -1.12948  -1.12935  -1.12880
 Alpha  occ. eigenvalues --   -1.12875  -1.12832  -1.12691  -1.12674  -1.12652
 Alpha  occ. eigenvalues --   -0.19179  -0.13386  -0.12435  -0.10820
 Alpha virt. eigenvalues --   -0.05866  -0.05154  -0.04142  -0.03256  -0.02982
 Alpha virt. eigenvalues --   -0.02374  -0.01753  -0.01004  -0.00171  -0.00031
 Alpha virt. eigenvalues --    0.00056   0.00339   0.00782   0.00905   0.00949

  Beta  occ. eigenvalues --  -38.44250 -38.43927 -38.43549 -38.43328 -38.43325
  Beta  occ. eigenvalues --  -38.43215 -38.43079  -2.20096  -2.19768  -2.19454
  Beta  occ. eigenvalues --   -2.19244  -2.19214  -2.19167  -2.19036  -1.13764
  Beta  occ. eigenvalues --   -1.13753  -1.13736  -1.13448  -1.13422  -1.13408
  Beta  occ. eigenvalues --   -1.13218  -1.13106  -1.13092  -1.13082  -1.12988
  Beta  occ. eigenvalues --   -1.12922  -1.12878  -1.12861  -1.12841  -1.12832
  Beta  occ. eigenvalues --   -1.12829  -1.12800  -1.12666  -1.12645  -1.12624
  Beta  occ. eigenvalues --   -0.18444  -0.13146  -0.12197
  Beta virt. eigenvalues --   -0.06860  -0.05804  -0.05153  -0.04095  -0.02514
  Beta virt. eigenvalues --   -0.02171  -0.01673  -0.01323  -0.00956  -0.00195
  Beta virt. eigenvalues --    0.00025   0.00133   0.00372   0.00837   0.00904

 Mulliken charges and spin densities:
               1          2
     1  Na   0.068542  -0.017775
     2  Na   0.371814   0.058561
     3  Na   0.281914  -0.032908
     4  Na   0.426215   0.167444
     5  Na  -0.815629   0.275119
     6  Na   0.400257  -0.026456
     7  Na  -0.733114   0.576014
 Sum of Mulliken charges =  -0.00000   1.00000

 Dipole moment (field-independent basis, Debye):
    X=             -0.0224    Y=             -0.2421    Z=              0.1652  Tot=              0.2940
 Quadrupole moment (field-independent basis, Debye-Ang):
   XX=            -52.8679   YY=            -66.9048   ZZ=            -73.4566
   XY=             -0.1769   XZ=             -0.9585   YZ=              2.0429

 Normal termination of Gaussian 16 at Thu Dec  7 03:20:55 2023.
