 Gaussian 16, Revision B.01,
 Gaussian 16:  ES64L-G16RevB.01 20-Dec-2017

 -------------------------
 #P B3LYP/6-311+g(d) force
 -------------------------

 -----
 DPGEN
 -----
 Symbolic Z-matrix:
 Charge =  0 Multiplicity = 2

                         Standard orientation:
 ---------------------------------------------------------------------
 Center     Atomic      Atomic             Coordinates (Angstroms)
 Number     Number       Type             X           Y           Z
 ---------------------------------------------------------------------
      1         11           0        3.102231    0.559183    0.937656
      2         11           0        2.804874   -2.738667    0.716061
      3         11           0       -2.893690   -0.462906   -0.822729
      4         11           0        2.165756    3.249720   -0.240044
      5         11           0       -5.056877    0.446143    1.362605
      6         11           0        0.003957   -2.362455   -1.030987
      7         11           0       -0.126252    1.308982   -0.922562
 ---------------------------------------------------------------------

 SCF Done:  E(UB3LYP) =  -1136.12328368     A.U. after   20 cycles

 The electronic state is 2-A.
 Alpha  occ. eigenvalues --  -38.44797 -38.44357 -38.44208 -38.44084 -38.43693
 Alpha  occ. eigenvalues --  -38.43424 -38.43317  -2.20617  -2.20219  -2.20092
 Alpha  occ. eigenvalues --   -2.19912  -2.19572  -2.19293  -2.19145  -1.14253
 Alpha  occ. eigenvalues --   -1.14240  -1.14237  -1.13896  -1.13881  -1.13872
 Alpha  occ. eigenvalues --   -1.13772  -1.13760  -1.13747  -1.13594  -1.13579
 Alpha  occ. eigenvalues --   -1.13536  -1.13232  -1.13216  -1.13204  -1.12979
 Alpha  occ. eigenvalues --   -1.12963  -1.12951  -1.12809  -1.12799  -1.12787
 Alpha  occ. eigenvalues --   -0.17084  -0.14267  -0.12626  -0.11463
 Alpha virt. eigenvalues --   -0.05684  -0.05526  -0.04473  -0.04092  -0.02576
 Alpha virt. eigenvalues --   -0.02177  -0.02101  -0.01409  -0.00905  -0.00746
 Alpha virt. eigenvalues --   -0.00231   0.00068   0.00174   0.00338   0.00718

  Beta  occ. eigenvalues --  -38.44683 -38.44326 -38.44176 -38.44060 -38.43691
  Beta  occ. eigenvalues --  -38.43419 -38.43302  -2.20405  -2.20162  -2.20034
  Beta  occ. eigenvalues --   -2.19869  -2.19569  -2.19294  -2.19118  -1.14112
  Beta  occ. eigenvalues --   -1.14096  -1.14093  -1.13859  -1.13843  -1.13827
  Beta  occ. eigenvalues --   -1.13737  -1.13722  -1.13698  -1.13567  -1.13552
  Beta  occ. eigenvalues --   -1.13497  -1.13221  -1.13214  -1.13203  -1.12989
  Beta  occ. eigenvalues --   -1.12972  -1.12876  -1.12782  -1.12781  -1.12773
  Beta  occ. eigenvalues --   -0.16572  -0.13424  -0.12447
  Beta virt. eigenvalues --   -0.07900  -0.05347  -0.05190  -0.04141  -0.03882
  Beta virt. eigenvalues --   -0.02237  -0.01853  -0.01626  -0.01292  -0.00803
  Beta virt. eigenvalues --   -0.00379   0.00063   0.00253   0.00376   0.00419

 Mulliken charges and spin densities:
               1          2
     1  Na  -0.392073   0.204474
     2  Na   0.174793   0.128712
     3  Na  -0.312065  -0.093781
     4  Na   1.515821   0.048501
     5  Na   0.459494   0.512373
     6  Na   0.012242   0.065175
     7  Na  -1.458211   0.134547
 Sum of Mulliken charges =  -0.00000   1.00000

 Dipole moment (field-independent basis, Debye):
    X=              0.1253    Y=              0.5401    Z=              0.2540  Tot=              0.6099
 Quadrupole moment (field-independent basis, Debye-Ang):
   XX=            -65.0990   YY=            -63.5161   ZZ=            -68.6156
   XY=              2.0799   XZ=             -0.7038   YZ=              1.1214

 Normal termination of Gaussian 16 at Tue Nov 28 21:47:29 2023.
