 Gaussian 16, Revision B.01,
 Gaussian 16:  ES64L-G16RevB.01 20-Dec-2017

 -------------------------
 #P B3LYP/6-311+g(d) force
 -------------------------

 -----
 DPGEN
 -----
 Symbolic Z-matrix:
 Charge =  0 Multiplicity = 2

                         Standard orientation:
 ---------------------------------------------------------------------
 Center     Atomic      Atomic             Coordinates (Angstroms)
 Number     Number       Type             X           Y           Z
 ---------------------------------------------------------------------
      1         11           0        3.787117   -0.964055   -0.565322
      2         11           0       -2.771830   -1.478466   -0.974028
      3         11           0       -0.158871   -2.594112    1.295644
      4         11           0       -1.255207    0.603681    1.696593
      5         11           0        1.808078    2.131585    0.630315
      6         11           0       -1.535362    2.555420   -0.541397
      7         11           0        0.126076   -0.254054   -1.541805
 ---------------------------------------------------------------------

 SCF Done:  E(UB3LYP) =  -1136.12984822     A.U. after   19 cycles

 The electronic state is 2-A.
 Alpha  occ. eigenvalues --  -38.44045 -38.44032 -38.43949 -38.43934 -38.43526
 Alpha  occ. eigenvalues --  -38.43519 -38.43495  -2.19886  -2.19841  -2.19753
 Alpha  occ. eigenvalues --   -2.19693  -2.19483  -2.19426  -2.19407  -1.13590
 Alpha  occ. eigenvalues --   -1.13537  -1.13531  -1.13524  -1.13508  -1.13443
 Alpha  occ. eigenvalues --   -1.13441  -1.13396  -1.13370  -1.13367  -1.13354
 Alpha  occ. eigenvalues --   -1.13325  -1.13279  -1.13162  -1.13115  -1.13097
 Alpha  occ. eigenvalues --   -1.13085  -1.13053  -1.13033  -1.13012  -1.12989
 Alpha  occ. eigenvalues --   -0.18331  -0.12723  -0.12181  -0.11100
 Alpha virt. eigenvalues --   -0.05738  -0.05288  -0.04617  -0.03266  -0.02935
 Alpha virt. eigenvalues --   -0.02596  -0.01599  -0.01277  -0.00654  -0.00076
 Alpha virt. eigenvalues --    0.00001   0.00298   0.00619   0.00706   0.00829

  Beta  occ. eigenvalues --  -38.44026 -38.44020 -38.43948 -38.43891 -38.43512
  Beta  occ. eigenvalues --  -38.43466 -38.43442  -2.19843  -2.19831  -2.19691
  Beta  occ. eigenvalues --   -2.19676  -2.19402  -2.19369  -2.19331  -1.13549
  Beta  occ. eigenvalues --   -1.13524  -1.13514  -1.13505  -1.13468  -1.13435
  Beta  occ. eigenvalues --   -1.13379  -1.13365  -1.13354  -1.13334  -1.13324
  Beta  occ. eigenvalues --   -1.13320  -1.13232  -1.13100  -1.13059  -1.13040
  Beta  occ. eigenvalues --   -1.13017  -1.13005  -1.12992  -1.12953  -1.12937
  Beta  occ. eigenvalues --   -0.17606  -0.12482  -0.11996
  Beta virt. eigenvalues --   -0.07170  -0.05615  -0.05157  -0.04437  -0.02663
  Beta virt. eigenvalues --   -0.02455  -0.01741  -0.01369  -0.01246  -0.00377
  Beta virt. eigenvalues --   -0.00076   0.00092   0.00350   0.00729   0.00777

 Mulliken charges and spin densities:
               1          2
     1  Na   0.169356   0.010000
     2  Na   0.121157   0.046200
     3  Na  -0.348506   0.108314
     4  Na   0.420363   0.436959
     5  Na  -0.318302  -0.082020
     6  Na   0.209292   0.042018
     7  Na  -0.253361   0.438529
 Sum of Mulliken charges =  -0.00000   1.00000

 Dipole moment (field-independent basis, Debye):
    X=             -0.2982    Y=             -0.0388    Z=              0.0798  Tot=              0.3111
 Quadrupole moment (field-independent basis, Debye-Ang):
   XX=            -58.5298   YY=            -63.6540   ZZ=            -71.4489
   XY=             -0.1819   XZ=              2.7861   YZ=             -0.9733

 Normal termination of Gaussian 16 at Tue Dec  5 11:02:13 2023.
