 Gaussian 16, Revision B.01,
 Gaussian 16:  ES64L-G16RevB.01 20-Dec-2017

 -------------------------
 #P B3LYP/6-311+g(d) force
 -------------------------

 -----
 DPGEN
 -----
 Symbolic Z-matrix:
 Charge =  0 Multiplicity = 2

                         Standard orientation:
 ---------------------------------------------------------------------
 Center     Atomic      Atomic             Coordinates (Angstroms)
 Number     Number       Type             X           Y           Z
 ---------------------------------------------------------------------
      1         11           0       -0.975850    2.453656   -0.620935
      2         11           0       -2.442898    0.379644    1.913719
      3         11           0        0.184390   -1.031541   -1.295226
      4         11           0        3.190327   -1.918708    0.737302
      5         11           0       -3.230020   -1.618663   -1.371949
      6         11           0        0.433047    0.218381    1.779815
      7         11           0        2.841004    1.517232   -1.142727
 ---------------------------------------------------------------------

 SCF Done:  E(UB3LYP) =  -1136.11989771     A.U. after   25 cycles

 The electronic state is 2-A.
 Alpha  occ. eigenvalues --  -38.44921 -38.44457 -38.44313 -38.44066 -38.43928
 Alpha  occ. eigenvalues --  -38.43621 -38.43253  -2.20699  -2.20333  -2.20103
 Alpha  occ. eigenvalues --   -2.20020  -2.19733  -2.19486  -2.19032  -1.14385
 Alpha  occ. eigenvalues --   -1.14340  -1.14316  -1.14158  -1.13951  -1.13919
 Alpha  occ. eigenvalues --   -1.13774  -1.13759  -1.13724  -1.13704  -1.13647
 Alpha  occ. eigenvalues --   -1.13594  -1.13420  -1.13386  -1.13366  -1.13208
 Alpha  occ. eigenvalues --   -1.13158  -1.13081  -1.12699  -1.12691  -1.12667
 Alpha  occ. eigenvalues --   -0.18035  -0.13420  -0.11736  -0.11168
 Alpha virt. eigenvalues --   -0.06095  -0.05652  -0.04715  -0.03331  -0.02846
 Alpha virt. eigenvalues --   -0.02316  -0.02122  -0.01329  -0.00919  -0.00253
 Alpha virt. eigenvalues --    0.00150   0.00254   0.00373   0.00446   0.00584

  Beta  occ. eigenvalues --  -38.44888 -38.44413 -38.44283 -38.44004 -38.43919
  Beta  occ. eigenvalues --  -38.43597 -38.43237  -2.20640  -2.20255  -2.20049
  Beta  occ. eigenvalues --   -2.19911  -2.19718  -2.19445  -2.19005  -1.14340
  Beta  occ. eigenvalues --   -1.14303  -1.14271  -1.14081  -1.13904  -1.13864
  Beta  occ. eigenvalues --   -1.13728  -1.13722  -1.13691  -1.13638  -1.13557
  Beta  occ. eigenvalues --   -1.13516  -1.13406  -1.13375  -1.13345  -1.13180
  Beta  occ. eigenvalues --   -1.13113  -1.13050  -1.12677  -1.12671  -1.12651
  Beta  occ. eigenvalues --   -0.17365  -0.13129  -0.10790
  Beta virt. eigenvalues --   -0.08035  -0.05941  -0.05245  -0.04342  -0.02893
  Beta virt. eigenvalues --   -0.02424  -0.02004  -0.01723  -0.01072  -0.00619
  Beta virt. eigenvalues --   -0.00107   0.00197   0.00322   0.00464   0.00599

 Mulliken charges and spin densities:
               1          2
     1  Na  -0.019125   0.115025
     2  Na   0.449741   0.147350
     3  Na  -0.595144   0.387176
     4  Na   0.583562   0.000467
     5  Na  -0.066469  -0.024971
     6  Na  -0.472737   0.278805
     7  Na   0.120171   0.096149
 Sum of Mulliken charges =  -0.00000   1.00000

 Dipole moment (field-independent basis, Debye):
    X=              0.9121    Y=              0.6856    Z=              0.1959  Tot=              1.1577
 Quadrupole moment (field-independent basis, Debye-Ang):
   XX=            -52.1917   YY=            -73.0349   ZZ=            -69.2153
   XY=             -2.8440   XZ=             -2.6310   YZ=             -5.1426

 Normal termination of Gaussian 16 at Thu Dec  7 17:12:56 2023.
