 Gaussian 16, Revision B.01,
 Gaussian 16:  ES64L-G16RevB.01 20-Dec-2017

 -------------------------
 #P B3LYP/6-311+g(d) force
 -------------------------

 -----
 DPGEN
 -----
 Symbolic Z-matrix:
 Charge =  0 Multiplicity = 2

                         Standard orientation:
 ---------------------------------------------------------------------
 Center     Atomic      Atomic             Coordinates (Angstroms)
 Number     Number       Type             X           Y           Z
 ---------------------------------------------------------------------
      1         11           0       -3.053791    0.851227   -0.014600
      2         11           0        0.088767   -0.393696    1.977908
      3         11           0       -1.800485   -2.193779   -0.177721
      4         11           0        0.068548    2.934697    0.094935
      5         11           0        2.764581    0.936033   -0.040925
      6         11           0        0.093661    0.102945   -1.689912
      7         11           0        1.838720   -2.237427   -0.149686
 ---------------------------------------------------------------------

 SCF Done:  E(UB3LYP) =  -1136.13970950     A.U. after   20 cycles

 The electronic state is 2-A.
 Alpha  occ. eigenvalues --  -38.43970 -38.43658 -38.43464 -38.43447 -38.43340
 Alpha  occ. eigenvalues --  -38.43307 -38.43138  -2.19791  -2.19557  -2.19389
 Alpha  occ. eigenvalues --   -2.19335  -2.19241  -2.19153  -2.19141  -1.13465
 Alpha  occ. eigenvalues --   -1.13456  -1.13436  -1.13260  -1.13218  -1.13203
 Alpha  occ. eigenvalues --   -1.13087  -1.13034  -1.13024  -1.13020  -1.12975
 Alpha  occ. eigenvalues --   -1.12960  -1.12930  -1.12892  -1.12866  -1.12861
 Alpha  occ. eigenvalues --   -1.12817  -1.12800  -1.12786  -1.12761  -1.12741
 Alpha  occ. eigenvalues --   -0.19016  -0.13146  -0.12549  -0.10825
 Alpha virt. eigenvalues --   -0.05497  -0.05075  -0.04702  -0.03204  -0.02913
 Alpha virt. eigenvalues --   -0.02540  -0.01397  -0.01055  -0.00290  -0.00186
 Alpha virt. eigenvalues --   -0.00005   0.00371   0.00840   0.00916   0.00925

  Beta  occ. eigenvalues --  -38.43970 -38.43651 -38.43439 -38.43373 -38.43332
  Beta  occ. eigenvalues --  -38.43304 -38.43067  -2.19793  -2.19549  -2.19325
  Beta  occ. eigenvalues --   -2.19231  -2.19221  -2.19151  -2.19012  -1.13467
  Beta  occ. eigenvalues --   -1.13443  -1.13439  -1.13252  -1.13203  -1.13182
  Beta  occ. eigenvalues --   -1.13037  -1.12980  -1.12970  -1.12951  -1.12916
  Beta  occ. eigenvalues --   -1.12896  -1.12881  -1.12865  -1.12844  -1.12837
  Beta  occ. eigenvalues --   -1.12796  -1.12788  -1.12724  -1.12670  -1.12654
  Beta  occ. eigenvalues --   -0.18264  -0.12901  -0.12307
  Beta virt. eigenvalues --   -0.06873  -0.05477  -0.05084  -0.04657  -0.02384
  Beta virt. eigenvalues --   -0.02129  -0.01471  -0.01313  -0.00988  -0.00338
  Beta virt. eigenvalues --   -0.00250   0.00136   0.00392   0.00884   0.00917

 Mulliken charges and spin densities:
               1          2
     1  Na  -0.043354  -0.092820
     2  Na  -0.563864   0.774468
     3  Na   0.264046  -0.072843
     4  Na  -0.014557  -0.093275
     5  Na   0.254818  -0.020601
     6  Na  -0.327129   0.542207
     7  Na   0.430039  -0.037136
 Sum of Mulliken charges =  -0.00000   1.00000

 Dipole moment (field-independent basis, Debye):
    X=             -0.1459    Y=              0.0344    Z=              0.1327  Tot=              0.2002
 Quadrupole moment (field-independent basis, Debye-Ang):
   XX=            -57.3500   YY=            -62.4616   ZZ=            -73.9302
   XY=             -0.7150   XZ=             -0.0762   YZ=              1.1636

 Normal termination of Gaussian 16 at Thu Dec  7 11:12:30 2023.
