 Gaussian 16, Revision B.01,
 Gaussian 16:  ES64L-G16RevB.01 20-Dec-2017

 -------------------------
 #P B3LYP/6-311+g(d) force
 -------------------------

 -----
 DPGEN
 -----
 Symbolic Z-matrix:
 Charge =  0 Multiplicity = 2

                         Standard orientation:
 ---------------------------------------------------------------------
 Center     Atomic      Atomic             Coordinates (Angstroms)
 Number     Number       Type             X           Y           Z
 ---------------------------------------------------------------------
      1         11           0       -2.069909    0.377617   -2.097001
      2         11           0        3.887671   -0.723173   -0.462882
      3         11           0        0.516201   -2.030174   -0.707191
      4         11           0       -2.574098   -1.820259    0.700498
      5         11           0       -0.203120   -0.141586    2.279464
      6         11           0        2.213629    1.909114    0.150210
      7         11           0       -1.770374    2.428461    0.136902
 ---------------------------------------------------------------------

 SCF Done:  E(UB3LYP) =  -1136.12598999     A.U. after   21 cycles

 The electronic state is 2-A.
 Alpha  occ. eigenvalues --  -38.44551 -38.44308 -38.44304 -38.44088 -38.44019
 Alpha  occ. eigenvalues --  -38.43633 -38.43057  -2.20417  -2.20172  -2.20116
 Alpha  occ. eigenvalues --   -2.19885  -2.19865  -2.19461  -2.18891  -1.14073
 Alpha  occ. eigenvalues --   -1.14066  -1.14023  -1.13845  -1.13820  -1.13807
 Alpha  occ. eigenvalues --   -1.13779  -1.13773  -1.13756  -1.13568  -1.13552
 Alpha  occ. eigenvalues --   -1.13543  -1.13515  -1.13506  -1.13503  -1.13153
 Alpha  occ. eigenvalues --   -1.13148  -1.13065  -1.12592  -1.12544  -1.12525
 Alpha  occ. eigenvalues --   -0.17896  -0.13555  -0.11711  -0.11544
 Alpha virt. eigenvalues --   -0.06072  -0.05481  -0.04345  -0.03411  -0.03122
 Alpha virt. eigenvalues --   -0.03031  -0.01869  -0.01125  -0.00396  -0.00266
 Alpha virt. eigenvalues --    0.00010   0.00241   0.00297   0.00650   0.00821

  Beta  occ. eigenvalues --  -38.44453 -38.44300 -38.44231 -38.44087 -38.44009
  Beta  occ. eigenvalues --  -38.43621 -38.43058  -2.20237  -2.20101  -2.20034
  Beta  occ. eigenvalues --   -2.19885  -2.19852  -2.19441  -2.18896  -1.13957
  Beta  occ. eigenvalues --   -1.13939  -1.13890  -1.13799  -1.13760  -1.13757
  Beta  occ. eigenvalues --   -1.13746  -1.13726  -1.13684  -1.13558  -1.13553
  Beta  occ. eigenvalues --   -1.13519  -1.13506  -1.13502  -1.13483  -1.13143
  Beta  occ. eigenvalues --   -1.13116  -1.13053  -1.12585  -1.12542  -1.12519
  Beta  occ. eigenvalues --   -0.17160  -0.13299  -0.11466
  Beta virt. eigenvalues --   -0.07775  -0.05867  -0.05302  -0.03807  -0.03161
  Beta virt. eigenvalues --   -0.02436  -0.02227  -0.01802  -0.01086  -0.00226
  Beta virt. eigenvalues --   -0.00114   0.00013   0.00354   0.00584   0.00762

 Mulliken charges and spin densities:
               1          2
     1  Na  -0.009406   0.363203
     2  Na   0.129412  -0.092708
     3  Na  -0.303902   0.195131
     4  Na   0.581329  -0.000776
     5  Na  -0.178628   0.643346
     6  Na  -0.082185   0.017954
     7  Na  -0.136619  -0.126151
 Sum of Mulliken charges =  -0.00000   1.00000

 Dipole moment (field-independent basis, Debye):
    X=              0.3090    Y=             -0.4620    Z=              0.0834  Tot=              0.5620
 Quadrupole moment (field-independent basis, Debye-Ang):
   XX=            -56.3859   YY=            -73.0851   ZZ=            -67.9390
   XY=              1.4599   XZ=             -1.2472   YZ=              1.2665

 Normal termination of Gaussian 16 at Sun Dec  3 23:24:02 2023.
