 Gaussian 16, Revision B.01,
 Gaussian 16:  ES64L-G16RevB.01 20-Dec-2017

 -------------------------
 #P B3LYP/6-311+g(d) force
 -------------------------

 -----
 DPGEN
 -----
 Symbolic Z-matrix:
 Charge =  0 Multiplicity = 2

                         Standard orientation:
 ---------------------------------------------------------------------
 Center     Atomic      Atomic             Coordinates (Angstroms)
 Number     Number       Type             X           Y           Z
 ---------------------------------------------------------------------
      1         11           0        2.430110   -2.066062   -0.744129
      2         11           0        0.789583    0.285885    1.759429
      3         11           0       -1.302915    2.715582   -0.001605
      4         11           0       -1.040755   -2.055118    0.954554
      5         11           0       -0.110962    0.016440   -1.301723
      6         11           0       -3.642850   -0.463323   -0.488318
      7         11           0        2.877789    1.566595   -0.178209
 ---------------------------------------------------------------------

 SCF Done:  E(UB3LYP) =  -1136.12675536     A.U. after   21 cycles

 The electronic state is 2-A.
 Alpha  occ. eigenvalues --  -38.44692 -38.44549 -38.43726 -38.43648 -38.43277
 Alpha  occ. eigenvalues --  -38.43138 -38.42947  -2.20481  -2.20382  -2.19557
 Alpha  occ. eigenvalues --   -2.19454  -2.19302  -2.19144  -2.18872  -1.14155
 Alpha  occ. eigenvalues --   -1.14139  -1.14109  -1.14094  -1.14039  -1.13992
 Alpha  occ. eigenvalues --   -1.13250  -1.13198  -1.13189  -1.13177  -1.13129
 Alpha  occ. eigenvalues --   -1.13066  -1.13062  -1.12938  -1.12903  -1.12865
 Alpha  occ. eigenvalues --   -1.12782  -1.12724  -1.12557  -1.12513  -1.12467
 Alpha  occ. eigenvalues --   -0.18684  -0.13377  -0.11882  -0.10628
 Alpha virt. eigenvalues --   -0.06471  -0.05246  -0.03991  -0.03174  -0.02679
 Alpha virt. eigenvalues --   -0.02194  -0.02123  -0.01259  -0.00553  -0.00185
 Alpha virt. eigenvalues --    0.00114   0.00248   0.00579   0.00699   0.00794

  Beta  occ. eigenvalues --  -38.44683 -38.44541 -38.43699 -38.43649 -38.43243
  Beta  occ. eigenvalues --  -38.43052 -38.42913  -2.20465  -2.20371  -2.19509
  Beta  occ. eigenvalues --   -2.19458  -2.19242  -2.18987  -2.18814  -1.14136
  Beta  occ. eigenvalues --   -1.14132  -1.14099  -1.14078  -1.14026  -1.13979
  Beta  occ. eigenvalues --   -1.13210  -1.13175  -1.13168  -1.13146  -1.13121
  Beta  occ. eigenvalues --   -1.13064  -1.13007  -1.12901  -1.12855  -1.12756
  Beta  occ. eigenvalues --   -1.12672  -1.12619  -1.12512  -1.12441  -1.12431
  Beta  occ. eigenvalues --   -0.18002  -0.13091  -0.11647
  Beta virt. eigenvalues --   -0.06790  -0.06353  -0.05110  -0.03888  -0.02632
  Beta virt. eigenvalues --   -0.02115  -0.01980  -0.01275  -0.01071  -0.00471
  Beta virt. eigenvalues --   -0.00025   0.00141   0.00309   0.00666   0.00793

 Mulliken charges and spin densities:
               1          2
     1  Na  -0.059378   0.229142
     2  Na   0.391288   0.318169
     3  Na  -0.170758  -0.036758
     4  Na   0.150539   0.126480
     5  Na  -0.480093   0.270559
     6  Na   0.045994   0.036713
     7  Na   0.122408   0.055695
 Sum of Mulliken charges =  -0.00000   1.00000

 Dipole moment (field-independent basis, Debye):
    X=             -0.0324    Y=              0.2829    Z=             -0.0954  Tot=              0.3003
 Quadrupole moment (field-independent basis, Debye-Ang):
   XX=            -49.9264   YY=            -66.2638   ZZ=            -74.3511
   XY=              0.7755   XZ=             -0.4388   YZ=              0.3031

 Normal termination of Gaussian 16 at Fri Dec  8 01:04:03 2023.
