 Gaussian 16, Revision B.01,
 Gaussian 16:  ES64L-G16RevB.01 20-Dec-2017

 -------------------------
 #P B3LYP/6-311+g(d) force
 -------------------------

 -----
 DPGEN
 -----
 Symbolic Z-matrix:
 Charge =  0 Multiplicity = 2

                         Standard orientation:
 ---------------------------------------------------------------------
 Center     Atomic      Atomic             Coordinates (Angstroms)
 Number     Number       Type             X           Y           Z
 ---------------------------------------------------------------------
      1         11           0       -3.073052    1.003786   -0.188928
      2         11           0       -1.621470   -2.291817   -0.366626
      3         11           0       -0.640340   -0.220178    2.050796
      4         11           0        2.965564    0.930353    0.285871
      5         11           0        0.240242    2.964140   -0.223028
      6         11           0        0.347974   -0.004621   -1.478628
      7         11           0        1.781082   -2.381663   -0.079456
 ---------------------------------------------------------------------

 SCF Done:  E(UB3LYP) =  -1136.13702768     A.U. after   19 cycles

 The electronic state is 2-A.
 Alpha  occ. eigenvalues --  -38.44069 -38.43869 -38.43576 -38.43512 -38.43483
 Alpha  occ. eigenvalues --  -38.43480 -38.42914  -2.19875  -2.19712  -2.19414
 Alpha  occ. eigenvalues --   -2.19410  -2.19369  -2.19360  -2.18954  -1.13550
 Alpha  occ. eigenvalues --   -1.13532  -1.13521  -1.13398  -1.13371  -1.13355
 Alpha  occ. eigenvalues --   -1.13141  -1.13120  -1.13098  -1.13079  -1.13073
 Alpha  occ. eigenvalues --   -1.13037  -1.13032  -1.13022  -1.13008  -1.12985
 Alpha  occ. eigenvalues --   -1.12976  -1.12971  -1.12630  -1.12587  -1.12574
 Alpha  occ. eigenvalues --   -0.18727  -0.13026  -0.12635  -0.10540
 Alpha virt. eigenvalues --   -0.05628  -0.05166  -0.04823  -0.03179  -0.02826
 Alpha virt. eigenvalues --   -0.02353  -0.01499  -0.01151  -0.00438  -0.00333
 Alpha virt. eigenvalues --    0.00002   0.00351   0.00821   0.00873   0.00883

  Beta  occ. eigenvalues --  -38.44066 -38.43865 -38.43571 -38.43498 -38.43478
  Beta  occ. eigenvalues --  -38.43388 -38.42858  -2.19873  -2.19706  -2.19407
  Beta  occ. eigenvalues --   -2.19391  -2.19356  -2.19197  -2.18852  -1.13534
  Beta  occ. eigenvalues --   -1.13530  -1.13517  -1.13392  -1.13358  -1.13348
  Beta  occ. eigenvalues --   -1.13125  -1.13109  -1.13068  -1.13055  -1.13044
  Beta  occ. eigenvalues --   -1.13032  -1.13027  -1.12984  -1.12968  -1.12913
  Beta  occ. eigenvalues --   -1.12873  -1.12856  -1.12557  -1.12510  -1.12502
  Beta  occ. eigenvalues --   -0.18016  -0.12815  -0.12386
  Beta virt. eigenvalues --   -0.06639  -0.05587  -0.05141  -0.04769  -0.02415
  Beta virt. eigenvalues --   -0.02075  -0.01427  -0.01303  -0.01076  -0.00471
  Beta virt. eigenvalues --   -0.00379   0.00161   0.00388   0.00852   0.00875

 Mulliken charges and spin densities:
               1          2
     1  Na   0.127602  -0.073434
     2  Na   0.378168  -0.019605
     3  Na  -0.639130   0.782685
     4  Na   0.045299   0.042640
     5  Na   0.089509  -0.075437
     6  Na  -0.280297   0.317584
     7  Na   0.278850   0.025567
 Sum of Mulliken charges =  -0.00000   1.00000

 Dipole moment (field-independent basis, Debye):
    X=             -0.0945    Y=              0.1360    Z=              0.1909  Tot=              0.2528
 Quadrupole moment (field-independent basis, Debye-Ang):
   XX=            -56.2139   YY=            -61.3843   ZZ=            -75.2066
   XY=             -0.7965   XZ=              2.3378   YZ=              0.4133

 Normal termination of Gaussian 16 at Fri Dec  8 07:27:50 2023.
