 Gaussian 16, Revision B.01,
 Gaussian 16:  ES64L-G16RevB.01 20-Dec-2017

 -------------------------
 #P B3LYP/6-311+g(d) force
 -------------------------

 -----
 DPGEN
 -----
 Symbolic Z-matrix:
 Charge =  0 Multiplicity = 2

                         Standard orientation:
 ---------------------------------------------------------------------
 Center     Atomic      Atomic             Coordinates (Angstroms)
 Number     Number       Type             X           Y           Z
 ---------------------------------------------------------------------
      1         11           0       -0.008693    0.255804   -1.541953
      2         11           0        0.444687   -0.291083    2.083809
      3         11           0        2.179885   -2.250065   -0.289118
      4         11           0       -0.846389    2.977621    0.268164
      5         11           0        2.841117    1.575688   -0.277689
      6         11           0       -3.044019    0.320088   -0.220045
      7         11           0       -1.566589   -2.588053   -0.023168
 ---------------------------------------------------------------------

 SCF Done:  E(UB3LYP) =  -1136.13775884     A.U. after   20 cycles

 The electronic state is 2-A.
 Alpha  occ. eigenvalues --  -38.44213 -38.44016 -38.43750 -38.43609 -38.43558
 Alpha  occ. eigenvalues --  -38.43496 -38.43056  -2.20009  -2.19826  -2.19567
 Alpha  occ. eigenvalues --   -2.19469  -2.19398  -2.19361  -2.19026  -1.13694
 Alpha  occ. eigenvalues --   -1.13666  -1.13641  -1.13505  -1.13492  -1.13456
 Alpha  occ. eigenvalues --   -1.13252  -1.13234  -1.13206  -1.13178  -1.13139
 Alpha  occ. eigenvalues --   -1.13109  -1.13065  -1.13057  -1.13024  -1.13018
 Alpha  occ. eigenvalues --   -1.12987  -1.12975  -1.12716  -1.12658  -1.12655
 Alpha  occ. eigenvalues --   -0.18353  -0.12895  -0.12505  -0.10484
 Alpha virt. eigenvalues --   -0.05793  -0.05205  -0.04929  -0.03053  -0.02894
 Alpha virt. eigenvalues --   -0.02405  -0.01513  -0.01352  -0.00547  -0.00516
 Alpha virt. eigenvalues --   -0.00007   0.00346   0.00778   0.00809   0.00873

  Beta  occ. eigenvalues --  -38.44207 -38.44011 -38.43745 -38.43605 -38.43554
  Beta  occ. eigenvalues --  -38.43399 -38.43002  -2.20000  -2.19819  -2.19560
  Beta  occ. eigenvalues --   -2.19465  -2.19395  -2.19182  -2.18928  -1.13676
  Beta  occ. eigenvalues --   -1.13653  -1.13636  -1.13492  -1.13477  -1.13452
  Beta  occ. eigenvalues --   -1.13248  -1.13213  -1.13202  -1.13174  -1.13127
  Beta  occ. eigenvalues --   -1.13099  -1.13055  -1.13042  -1.13016  -1.12905
  Beta  occ. eigenvalues --   -1.12863  -1.12848  -1.12643  -1.12586  -1.12584
  Beta  occ. eigenvalues --   -0.17656  -0.12657  -0.12302
  Beta virt. eigenvalues --   -0.06604  -0.05789  -0.05140  -0.04872  -0.02312
  Beta virt. eigenvalues --   -0.02153  -0.01425  -0.01357  -0.01274  -0.00585
  Beta virt. eigenvalues --   -0.00564   0.00147   0.00387   0.00792   0.00852

 Mulliken charges and spin densities:
               1          2
     1  Na  -0.150613   0.374585
     2  Na  -0.504711   0.788828
     3  Na   0.143643  -0.071579
     4  Na   0.073426   0.002514
     5  Na   0.102418  -0.063064
     6  Na   0.177571   0.000238
     7  Na   0.158266  -0.031522
 Sum of Mulliken charges =  -0.00000   1.00000

 Dipole moment (field-independent basis, Debye):
    X=              0.3745    Y=              0.0746    Z=              0.0784  Tot=              0.3898
 Quadrupole moment (field-independent basis, Debye-Ang):
   XX=            -57.4163   YY=            -59.5594   ZZ=            -75.7475
   XY=             -0.0176   XZ=             -0.9256   YZ=              1.3145

 Normal termination of Gaussian 16 at Thu Dec  7 10:35:52 2023.
