 Gaussian 16, Revision B.01,
 Gaussian 16:  ES64L-G16RevB.01 20-Dec-2017

 -------------------------
 #P B3LYP/6-311+g(d) force
 -------------------------

 -----
 DPGEN
 -----
 Symbolic Z-matrix:
 Charge =  0 Multiplicity = 2

                         Standard orientation:
 ---------------------------------------------------------------------
 Center     Atomic      Atomic             Coordinates (Angstroms)
 Number     Number       Type             X           Y           Z
 ---------------------------------------------------------------------
      1         11           0        0.806484    1.394164   -1.148851
      2         11           0       -1.929030    3.001781    0.544890
      3         11           0        0.318806   -0.226614    1.912547
      4         11           0        1.426741   -1.693981   -0.956874
      5         11           0       -2.062729   -2.810344    0.483753
      6         11           0        3.670371    0.356811    0.316445
      7         11           0       -2.230641   -0.021817   -1.151912
 ---------------------------------------------------------------------

 SCF Done:  E(UB3LYP) =  -1136.13251977     A.U. after   20 cycles

 The electronic state is 2-A.
 Alpha  occ. eigenvalues --  -38.44519 -38.43914 -38.43881 -38.43517 -38.43497
 Alpha  occ. eigenvalues --  -38.43370 -38.43251  -2.20352  -2.19822  -2.19751
 Alpha  occ. eigenvalues --   -2.19403  -2.19290  -2.19204  -2.19179  -1.14026
 Alpha  occ. eigenvalues --   -1.14009  -1.13994  -1.13559  -1.13502  -1.13431
 Alpha  occ. eigenvalues --   -1.13404  -1.13376  -1.13355  -1.13115  -1.13081
 Alpha  occ. eigenvalues --   -1.13035  -1.12961  -1.12949  -1.12922  -1.12919
 Alpha  occ. eigenvalues --   -1.12869  -1.12849  -1.12835  -1.12807  -1.12780
 Alpha  occ. eigenvalues --   -0.18452  -0.13319  -0.11988  -0.10689
 Alpha virt. eigenvalues --   -0.06059  -0.05187  -0.04518  -0.03245  -0.02782
 Alpha virt. eigenvalues --   -0.02458  -0.01957  -0.01265  -0.00491  -0.00154
 Alpha virt. eigenvalues --    0.00224   0.00300   0.00686   0.00691   0.00827

  Beta  occ. eigenvalues --  -38.44517 -38.43884 -38.43797 -38.43495 -38.43494
  Beta  occ. eigenvalues --  -38.43370 -38.43213  -2.20351  -2.19771  -2.19595
  Beta  occ. eigenvalues --   -2.19365  -2.19285  -2.19182  -2.19141  -1.14028
  Beta  occ. eigenvalues --   -1.14003  -1.13981  -1.13523  -1.13430  -1.13373
  Beta  occ. eigenvalues --   -1.13332  -1.13266  -1.13242  -1.13080  -1.13051
  Beta  occ. eigenvalues --   -1.13013  -1.12956  -1.12936  -1.12917  -1.12880
  Beta  occ. eigenvalues --   -1.12850  -1.12824  -1.12809  -1.12793  -1.12737
  Beta  occ. eigenvalues --   -0.17678  -0.13152  -0.11842
  Beta virt. eigenvalues --   -0.06769  -0.05924  -0.05076  -0.04361  -0.02701
  Beta virt. eigenvalues --   -0.02224  -0.01864  -0.01478  -0.01144  -0.00215
  Beta virt. eigenvalues --   -0.00164   0.00268   0.00362   0.00728   0.00790

 Mulliken charges and spin densities:
               1          2
     1  Na  -0.197643   0.266177
     2  Na   0.010594  -0.182211
     3  Na  -0.530378   0.822195
     4  Na  -0.057054   0.115347
     5  Na   0.208250  -0.143574
     6  Na   0.590500  -0.038208
     7  Na  -0.024269   0.160273
 Sum of Mulliken charges =  -0.00000   1.00000

 Dipole moment (field-independent basis, Debye):
    X=              0.8455    Y=              0.0379    Z=              0.2684  Tot=              0.8879
 Quadrupole moment (field-independent basis, Debye-Ang):
   XX=            -54.0084   YY=            -65.1398   ZZ=            -72.8735
   XY=              0.5960   XZ=              0.0839   YZ=              1.7036

 Normal termination of Gaussian 16 at Tue Dec  5 18:18:46 2023.
