 Gaussian 16, Revision B.01,
 Gaussian 16:  ES64L-G16RevB.01 20-Dec-2017

 -------------------------
 #P B3LYP/6-311+g(d) force
 -------------------------

 -----
 DPGEN
 -----
 Symbolic Z-matrix:
 Charge =  0 Multiplicity = 2

                         Standard orientation:
 ---------------------------------------------------------------------
 Center     Atomic      Atomic             Coordinates (Angstroms)
 Number     Number       Type             X           Y           Z
 ---------------------------------------------------------------------
      1         11           0        0.387546    0.289693    2.048548
      2         11           0       -2.944376    0.984491    0.481680
      3         11           0        1.018075   -2.587615   -0.033328
      4         11           0       -2.137781   -2.100509   -0.360174
      5         11           0        3.424851   -0.107996   -0.048668
      6         11           0       -0.152201    0.219728   -1.615419
      7         11           0        0.403886    3.302209   -0.472639
 ---------------------------------------------------------------------

 SCF Done:  E(UB3LYP) =  -1136.13360906     A.U. after   20 cycles

 The electronic state is 2-A.
 Alpha  occ. eigenvalues --  -38.44553 -38.44214 -38.43864 -38.43805 -38.43309
 Alpha  occ. eigenvalues --  -38.43263 -38.43192  -2.20332  -2.20034  -2.19660
 Alpha  occ. eigenvalues --   -2.19649  -2.19194  -2.19152  -2.19143  -1.14007
 Alpha  occ. eigenvalues --   -1.13985  -1.13977  -1.13707  -1.13699  -1.13666
 Alpha  occ. eigenvalues --   -1.13338  -1.13334  -1.13304  -1.13287  -1.13284
 Alpha  occ. eigenvalues --   -1.13270  -1.12935  -1.12874  -1.12851  -1.12849
 Alpha  occ. eigenvalues --   -1.12816  -1.12792  -1.12765  -1.12761  -1.12745
 Alpha  occ. eigenvalues --   -0.18334  -0.12862  -0.12424  -0.10660
 Alpha virt. eigenvalues --   -0.06136  -0.05109  -0.04628  -0.03142  -0.02943
 Alpha virt. eigenvalues --   -0.02469  -0.01773  -0.01306  -0.00555  -0.00291
 Alpha virt. eigenvalues --   -0.00021   0.00334   0.00740   0.00796   0.00824

  Beta  occ. eigenvalues --  -38.44555 -38.44200 -38.43851 -38.43720 -38.43303
  Beta  occ. eigenvalues --  -38.43257 -38.43130  -2.20338  -2.20010  -2.19627
  Beta  occ. eigenvalues --   -2.19501  -2.19186  -2.19145  -2.19032  -1.14002
  Beta  occ. eigenvalues --   -1.13985  -1.13982  -1.13695  -1.13662  -1.13654
  Beta  occ. eigenvalues --   -1.13309  -1.13282  -1.13271  -1.13230  -1.13183
  Beta  occ. eigenvalues --   -1.13153  -1.12925  -1.12860  -1.12832  -1.12823
  Beta  occ. eigenvalues --   -1.12773  -1.12754  -1.12743  -1.12692  -1.12672
  Beta  occ. eigenvalues --   -0.17637  -0.12670  -0.12127
  Beta virt. eigenvalues --   -0.06843  -0.06053  -0.04994  -0.04611  -0.02442
  Beta virt. eigenvalues --   -0.02225  -0.01685  -0.01463  -0.01188  -0.00580
  Beta virt. eigenvalues --   -0.00312   0.00116   0.00368   0.00755   0.00856

 Mulliken charges and spin densities:
               1          2
     1  Na  -0.397876   0.587249
     2  Na   0.140894   0.102507
     3  Na   0.156659   0.046837
     4  Na   0.212791   0.038862
     5  Na   0.092627  -0.087666
     6  Na  -0.137244   0.381517
     7  Na  -0.067850  -0.069307
 Sum of Mulliken charges =  -0.00000   1.00000

 Dipole moment (field-independent basis, Debye):
    X=              0.3507    Y=              0.3742    Z=              0.1841  Tot=              0.5449
 Quadrupole moment (field-independent basis, Debye-Ang):
   XX=            -55.6121   YY=            -62.7043   ZZ=            -74.7993
   XY=              0.2723   XZ=             -1.2498   YZ=              0.3124

 Normal termination of Gaussian 16 at Fri Dec  8 05:34:15 2023.
