 Gaussian 16, Revision B.01,
 Gaussian 16:  ES64L-G16RevB.01 20-Dec-2017

 -------------------------
 #P B3LYP/6-311+g(d) force
 -------------------------

 -----
 DPGEN
 -----
 Symbolic Z-matrix:
 Charge =  0 Multiplicity = 2

                         Standard orientation:
 ---------------------------------------------------------------------
 Center     Atomic      Atomic             Coordinates (Angstroms)
 Number     Number       Type             X           Y           Z
 ---------------------------------------------------------------------
      1         11           0        2.842711    1.170250   -0.028517
      2         11           0        2.069178   -1.973316   -0.501836
      3         11           0       -0.287564   -0.308349   -1.812064
      4         11           0       -1.328543   -2.520139    0.819679
      5         11           0       -3.116389    0.507438   -0.427256
      6         11           0        0.219060    0.236222    1.834512
      7         11           0       -0.398454    2.887895    0.115482
 ---------------------------------------------------------------------

 SCF Done:  E(UB3LYP) =  -1136.13829888     A.U. after   19 cycles

 The electronic state is 2-A.
 Alpha  occ. eigenvalues --  -38.43958 -38.43743 -38.43524 -38.43474 -38.43446
 Alpha  occ. eigenvalues --  -38.43378 -38.43341  -2.19786  -2.19596  -2.19472
 Alpha  occ. eigenvalues --   -2.19403  -2.19326  -2.19265  -2.19187  -1.13489
 Alpha  occ. eigenvalues --   -1.13434  -1.13417  -1.13293  -1.13263  -1.13238
 Alpha  occ. eigenvalues --   -1.13170  -1.13127  -1.13093  -1.13082  -1.13081
 Alpha  occ. eigenvalues --   -1.13032  -1.12977  -1.12964  -1.12954  -1.12934
 Alpha  occ. eigenvalues --   -1.12910  -1.12882  -1.12865  -1.12850  -1.12801
 Alpha  occ. eigenvalues --   -0.18758  -0.12993  -0.12459  -0.11100
 Alpha virt. eigenvalues --   -0.05500  -0.04862  -0.04679  -0.03298  -0.03099
 Alpha virt. eigenvalues --   -0.02671  -0.01449  -0.01045  -0.00273  -0.00147
 Alpha virt. eigenvalues --    0.00056   0.00361   0.00841   0.00903   0.00921

  Beta  occ. eigenvalues --  -38.43948 -38.43741 -38.43454 -38.43447 -38.43368
  Beta  occ. eigenvalues --  -38.43365 -38.43339  -2.19771  -2.19596  -2.19344
  Beta  occ. eigenvalues --   -2.19277  -2.19261  -2.19244  -2.19185  -1.13465
  Beta  occ. eigenvalues --   -1.13418  -1.13408  -1.13291  -1.13250  -1.13231
  Beta  occ. eigenvalues --   -1.13091  -1.13039  -1.13013  -1.13000  -1.12993
  Beta  occ. eigenvalues --   -1.12947  -1.12928  -1.12921  -1.12902  -1.12900
  Beta  occ. eigenvalues --   -1.12888  -1.12859  -1.12844  -1.12837  -1.12795
  Beta  occ. eigenvalues --   -0.18046  -0.12717  -0.12187
  Beta virt. eigenvalues --   -0.07198  -0.05447  -0.04839  -0.04590  -0.02569
  Beta virt. eigenvalues --   -0.02357  -0.01643  -0.01352  -0.00941  -0.00248
  Beta virt. eigenvalues --   -0.00157   0.00129   0.00394   0.00876   0.00916

 Mulliken charges and spin densities:
               1          2
     1  Na  -0.046985  -0.080604
     2  Na   0.268787   0.047594
     3  Na  -0.171136   0.542375
     4  Na  -0.004748   0.080351
     5  Na   0.064795  -0.038099
     6  Na  -0.062319   0.548293
     7  Na  -0.048394  -0.099909
 Sum of Mulliken charges =  -0.00000   1.00000

 Dipole moment (field-independent basis, Debye):
    X=             -0.1286    Y=              0.0751    Z=             -0.0423  Tot=              0.1548
 Quadrupole moment (field-independent basis, Debye-Ang):
   XX=            -57.7411   YY=            -63.5484   ZZ=            -72.7359
   XY=              0.3358   XZ=             -0.8321   YZ=             -1.2982

 Normal termination of Gaussian 16 at Fri Dec  8 03:08:19 2023.
