 Gaussian 16, Revision B.01,
 Gaussian 16:  ES64L-G16RevB.01 20-Dec-2017

 -------------------------
 #P B3LYP/6-311+g(d) force
 -------------------------

 -----
 DPGEN
 -----
 Symbolic Z-matrix:
 Charge =  0 Multiplicity = 2

                         Standard orientation:
 ---------------------------------------------------------------------
 Center     Atomic      Atomic             Coordinates (Angstroms)
 Number     Number       Type             X           Y           Z
 ---------------------------------------------------------------------
      1         11           0        3.146916    0.573464    1.151023
      2         11           0       -1.976170    3.099339   -0.467925
      3         11           0       -2.869999   -2.680133    0.774439
      4         11           0       -4.456345   -0.292795   -0.211386
      5         11           0        1.208563    3.627785    0.027518
      6         11           0        4.009274   -1.628739   -0.685364
      7         11           0        0.937760   -2.698922   -0.588305
 ---------------------------------------------------------------------

 SCF Done:  E(UB3LYP) =  -1136.10628109     A.U. after   22 cycles

 The electronic state is 2-A.
 Alpha  occ. eigenvalues --  -38.44877 -38.44698 -38.44438 -38.44417 -38.44303
 Alpha  occ. eigenvalues --  -38.44187 -38.44042  -2.20725  -2.20494  -2.20229
 Alpha  occ. eigenvalues --   -2.20213  -2.20148  -2.19961  -2.19856  -1.14452
 Alpha  occ. eigenvalues --   -1.14382  -1.14374  -1.14220  -1.14156  -1.14140
 Alpha  occ. eigenvalues --   -1.13876  -1.13873  -1.13873  -1.13863  -1.13857
 Alpha  occ. eigenvalues --   -1.13853  -1.13804  -1.13776  -1.13769  -1.13636
 Alpha  occ. eigenvalues --   -1.13627  -1.13600  -1.13510  -1.13498  -1.13471
 Alpha  occ. eigenvalues --   -0.15918  -0.14089  -0.13160  -0.10302
 Alpha virt. eigenvalues --   -0.07620  -0.05014  -0.04592  -0.03573  -0.03271
 Alpha virt. eigenvalues --   -0.02539  -0.02067  -0.01746  -0.01334  -0.00854
 Alpha virt. eigenvalues --   -0.00431  -0.00275   0.00236   0.00402   0.00603

  Beta  occ. eigenvalues --  -38.44880 -38.44696 -38.44403 -38.44382 -38.44238
  Beta  occ. eigenvalues --  -38.44192 -38.43959  -2.20737  -2.20494  -2.20166
  Beta  occ. eigenvalues --   -2.20150  -2.20028  -2.19975  -2.19701  -1.14445
  Beta  occ. eigenvalues --   -1.14391  -1.14354  -1.14204  -1.14160  -1.14126
  Beta  occ. eigenvalues --   -1.13834  -1.13832  -1.13831  -1.13821  -1.13814
  Beta  occ. eigenvalues --   -1.13806  -1.13724  -1.13698  -1.13687  -1.13648
  Beta  occ. eigenvalues --   -1.13638  -1.13581  -1.13404  -1.13390  -1.13373
  Beta  occ. eigenvalues --   -0.15343  -0.13622  -0.12606
  Beta virt. eigenvalues --   -0.07507  -0.07029  -0.04821  -0.04145  -0.03237
  Beta virt. eigenvalues --   -0.02889  -0.02318  -0.01931  -0.01638  -0.01197
  Beta virt. eigenvalues --   -0.00463  -0.00169  -0.00072   0.00297   0.00549

 Mulliken charges and spin densities:
               1          2
     1  Na  -0.444474   0.371812
     2  Na   0.035806   0.132204
     3  Na   0.052282  -0.006796
     4  Na   0.063238   0.157943
     5  Na   0.030060  -0.050223
     6  Na   0.743908   0.010681
     7  Na  -0.480821   0.384380
 Sum of Mulliken charges =  -0.00000   1.00000

 Dipole moment (field-independent basis, Debye):
    X=              0.2162    Y=             -0.2904    Z=             -0.1324  Tot=              0.3855
 Quadrupole moment (field-independent basis, Debye-Ang):
   XX=            -60.1136   YY=            -70.5222   ZZ=            -70.7846
   XY=             -3.8942   XZ=             -1.3622   YZ=             -1.7703

 Normal termination of Gaussian 16 at Sun Dec  3 22:58:07 2023.
