 Gaussian 16, Revision B.01,
 Gaussian 16:  ES64L-G16RevB.01 20-Dec-2017

 -------------------------
 #P B3LYP/6-311+g(d) force
 -------------------------

 -----
 DPGEN
 -----
 Symbolic Z-matrix:
 Charge =  0 Multiplicity = 2

                         Standard orientation:
 ---------------------------------------------------------------------
 Center     Atomic      Atomic             Coordinates (Angstroms)
 Number     Number       Type             X           Y           Z
 ---------------------------------------------------------------------
      1         11           0        2.606916    1.849741    0.053340
      2         11           0       -0.588421   -2.350114    0.237384
      3         11           0       -0.205053   -0.233249   -1.581837
      4         11           0       -1.311013    2.523793   -0.397093
      5         11           0        2.863880   -1.604260   -0.373977
      6         11           0       -3.584237   -0.444706    0.058574
      7         11           0        0.217928    0.258795    2.003609
 ---------------------------------------------------------------------

 SCF Done:  E(UB3LYP) =  -1136.12872553     A.U. after   21 cycles

 The electronic state is 2-A.
 Alpha  occ. eigenvalues --  -38.45098 -38.44020 -38.44017 -38.43525 -38.43475
 Alpha  occ. eigenvalues --  -38.43326 -38.42976  -2.20870  -2.19838  -2.19827
 Alpha  occ. eigenvalues --   -2.19530  -2.19384  -2.19161  -2.18925  -1.14544
 Alpha  occ. eigenvalues --   -1.14528  -1.14506  -1.13524  -1.13511  -1.13502
 Alpha  occ. eigenvalues --   -1.13483  -1.13472  -1.13451  -1.13350  -1.13198
 Alpha  occ. eigenvalues --   -1.13106  -1.13068  -1.13009  -1.12995  -1.12856
 Alpha  occ. eigenvalues --   -1.12821  -1.12767  -1.12622  -1.12580  -1.12487
 Alpha  occ. eigenvalues --   -0.18632  -0.13243  -0.11988  -0.10642
 Alpha virt. eigenvalues --   -0.06484  -0.05260  -0.03935  -0.03206  -0.02711
 Alpha virt. eigenvalues --   -0.02394  -0.02279  -0.01237  -0.00371  -0.00136
 Alpha virt. eigenvalues --   -0.00014   0.00262   0.00693   0.00797   0.00845

  Beta  occ. eigenvalues --  -38.45101 -38.44017 -38.44009 -38.43466 -38.43378
  Beta  occ. eigenvalues --  -38.43315 -38.42961  -2.20877  -2.19826  -2.19823
  Beta  occ. eigenvalues --   -2.19424  -2.19207  -2.19145  -2.18902  -1.14542
  Beta  occ. eigenvalues --   -1.14528  -1.14512  -1.13521  -1.13488  -1.13479
  Beta  occ. eigenvalues --   -1.13474  -1.13470  -1.13450  -1.13278  -1.13124
  Beta  occ. eigenvalues --   -1.13028  -1.12951  -1.12884  -1.12870  -1.12835
  Beta  occ. eigenvalues --   -1.12797  -1.12757  -1.12603  -1.12523  -1.12475
  Beta  occ. eigenvalues --   -0.17901  -0.13040  -0.11720
  Beta virt. eigenvalues --   -0.06725  -0.06421  -0.05240  -0.03922  -0.02504
  Beta virt. eigenvalues --   -0.02196  -0.01913  -0.01351  -0.01177  -0.00400
  Beta virt. eigenvalues --   -0.00093   0.00080   0.00291   0.00753   0.00820

 Mulliken charges and spin densities:
               1          2
     1  Na   0.100188  -0.064997
     2  Na   0.402620   0.074741
     3  Na  -0.433664   0.505907
     4  Na   0.038110  -0.100767
     5  Na   0.175757   0.014695
     6  Na   0.106402  -0.082866
     7  Na  -0.389413   0.653288
 Sum of Mulliken charges =  -0.00000   1.00000

 Dipole moment (field-independent basis, Debye):
    X=             -0.3326    Y=              0.0937    Z=              0.1399  Tot=              0.3728
 Quadrupole moment (field-independent basis, Debye-Ang):
   XX=            -47.9517   YY=            -68.2352   ZZ=            -75.0229
   XY=              0.1883   XZ=             -1.2647   YZ=             -0.6327

 Normal termination of Gaussian 16 at Tue Dec  5 15:14:36 2023.
