 Gaussian 16, Revision B.01,
 Gaussian 16:  ES64L-G16RevB.01 20-Dec-2017

 -------------------------
 #P B3LYP/6-311+g(d) force
 -------------------------

 -----
 DPGEN
 -----
 Symbolic Z-matrix:
 Charge =  0 Multiplicity = 2

                         Standard orientation:
 ---------------------------------------------------------------------
 Center     Atomic      Atomic             Coordinates (Angstroms)
 Number     Number       Type             X           Y           Z
 ---------------------------------------------------------------------
      1         11           0       -0.750550    2.633639    0.331189
      2         11           0        2.915737    1.405275    0.252032
      3         11           0       -3.442728    0.165553   -0.317718
      4         11           0       -1.094728   -2.030757    0.024498
      5         11           0        2.278692   -1.473633   -1.212272
      6         11           0       -0.247033    0.302056   -1.522989
      7         11           0        0.340611   -1.002132    2.445261
 ---------------------------------------------------------------------

 SCF Done:  E(UB3LYP) =  -1136.12263307     A.U. after   21 cycles

 The electronic state is 2-A.
 Alpha  occ. eigenvalues --  -38.44524 -38.44495 -38.44176 -38.43767 -38.43586
 Alpha  occ. eigenvalues --  -38.43248 -38.42820  -2.20355  -2.20351  -2.19977
 Alpha  occ. eigenvalues --   -2.19656  -2.19643  -2.19084  -2.18806  -1.14045
 Alpha  occ. eigenvalues --   -1.14033  -1.14018  -1.13981  -1.13964  -1.13948
 Alpha  occ. eigenvalues --   -1.13659  -1.13644  -1.13615  -1.13446  -1.13369
 Alpha  occ. eigenvalues --   -1.13330  -1.13285  -1.13259  -1.13202  -1.12789
 Alpha  occ. eigenvalues --   -1.12744  -1.12678  -1.12501  -1.12492  -1.12392
 Alpha  occ. eigenvalues --   -0.18691  -0.13290  -0.11897  -0.11543
 Alpha virt. eigenvalues --   -0.06161  -0.04799  -0.03851  -0.03497  -0.03361
 Alpha virt. eigenvalues --   -0.02772  -0.01960  -0.00848  -0.00246  -0.00082
 Alpha virt. eigenvalues --    0.00176   0.00311   0.00730   0.00862   0.00893

  Beta  occ. eigenvalues --  -38.44521 -38.44389 -38.44174 -38.43733 -38.43539
  Beta  occ. eigenvalues --  -38.43244 -38.42809  -2.20351  -2.20154  -2.19975
  Beta  occ. eigenvalues --   -2.19593  -2.19562  -2.19078  -2.18793  -1.14029
  Beta  occ. eigenvalues --   -1.14008  -1.13981  -1.13912  -1.13825  -1.13813
  Beta  occ. eigenvalues --   -1.13654  -1.13630  -1.13614  -1.13387  -1.13314
  Beta  occ. eigenvalues --   -1.13266  -1.13237  -1.13218  -1.13145  -1.12781
  Beta  occ. eigenvalues --   -1.12732  -1.12673  -1.12498  -1.12428  -1.12389
  Beta  occ. eigenvalues --   -0.17981  -0.13089  -0.11596
  Beta virt. eigenvalues --   -0.07548  -0.06104  -0.04679  -0.03662  -0.02863
  Beta virt. eigenvalues --   -0.02588  -0.01896  -0.01864  -0.00732  -0.00083
  Beta virt. eigenvalues --   -0.00039   0.00202   0.00348   0.00877   0.00908

 Mulliken charges and spin densities:
               1          2
     1  Na   0.027783   0.162928
     2  Na  -0.177886   0.115864
     3  Na   0.140584  -0.013964
     4  Na   0.590138   0.241417
     5  Na   0.375920   0.107693
     6  Na  -0.266633  -0.041869
     7  Na  -0.689905   0.427930
 Sum of Mulliken charges =  -0.00000   1.00000

 Dipole moment (field-independent basis, Debye):
    X=             -0.0644    Y=              0.1094    Z=              0.4232  Tot=              0.4418
 Quadrupole moment (field-independent basis, Debye-Ang):
   XX=            -52.7335   YY=            -72.3838   ZZ=            -69.2024
   XY=             -0.3903   XZ=              0.2557   YZ=              2.7853

 Normal termination of Gaussian 16 at Tue Dec  5 11:07:45 2023.
