 Gaussian 16, Revision B.01,
 Gaussian 16:  ES64L-G16RevB.01 20-Dec-2017

 -------------------------
 #P B3LYP/6-311+g(d) force
 -------------------------

 -----
 DPGEN
 -----
 Symbolic Z-matrix:
 Charge =  0 Multiplicity = 2

                         Standard orientation:
 ---------------------------------------------------------------------
 Center     Atomic      Atomic             Coordinates (Angstroms)
 Number     Number       Type             X           Y           Z
 ---------------------------------------------------------------------
      1         11           0       -0.153330   -0.059138    2.040246
      2         11           0       -3.367982   -0.510967    0.221736
      3         11           0       -0.391008   -2.743582   -0.747194
      4         11           0       -1.223635    2.701380   -0.221387
      5         11           0        2.545024    2.050867   -0.124335
      6         11           0       -0.061253    0.332213   -1.442299
      7         11           0        2.652183   -1.770773    0.273234
 ---------------------------------------------------------------------

 SCF Done:  E(UB3LYP) =  -1136.13288426     A.U. after   19 cycles

 The electronic state is 2-A.
 Alpha  occ. eigenvalues --  -38.44292 -38.44063 -38.43910 -38.43812 -38.43671
 Alpha  occ. eigenvalues --  -38.43305 -38.43035  -2.20071  -2.19856  -2.19773
 Alpha  occ. eigenvalues --   -2.19626  -2.19540  -2.19171  -2.19062  -1.13746
 Alpha  occ. eigenvalues --   -1.13725  -1.13714  -1.13562  -1.13543  -1.13514
 Alpha  occ. eigenvalues --   -1.13490  -1.13422  -1.13357  -1.13298  -1.13292
 Alpha  occ. eigenvalues --   -1.13272  -1.13218  -1.13168  -1.13145  -1.12911
 Alpha  occ. eigenvalues --   -1.12815  -1.12785  -1.12737  -1.12698  -1.12649
 Alpha  occ. eigenvalues --   -0.18395  -0.12746  -0.12515  -0.10570
 Alpha virt. eigenvalues --   -0.05842  -0.05350  -0.04609  -0.03031  -0.02874
 Alpha virt. eigenvalues --   -0.02426  -0.01781  -0.01276  -0.00461  -0.00378
 Alpha virt. eigenvalues --    0.00001   0.00324   0.00768   0.00794   0.00874

  Beta  occ. eigenvalues --  -38.44289 -38.44063 -38.43901 -38.43810 -38.43579
  Beta  occ. eigenvalues --  -38.43282 -38.42978  -2.20069  -2.19859  -2.19760
  Beta  occ. eigenvalues --   -2.19624  -2.19369  -2.19131  -2.18960  -1.13732
  Beta  occ. eigenvalues --   -1.13719  -1.13715  -1.13546  -1.13536  -1.13511
  Beta  occ. eigenvalues --   -1.13489  -1.13398  -1.13350  -1.13295  -1.13278
  Beta  occ. eigenvalues --   -1.13268  -1.13105  -1.13052  -1.13019  -1.12870
  Beta  occ. eigenvalues --   -1.12776  -1.12761  -1.12660  -1.12628  -1.12579
  Beta  occ. eigenvalues --   -0.17694  -0.12528  -0.12260
  Beta virt. eigenvalues --   -0.06698  -0.05810  -0.05289  -0.04544  -0.02310
  Beta virt. eigenvalues --   -0.02179  -0.01673  -0.01375  -0.01211  -0.00506
  Beta virt. eigenvalues --   -0.00352   0.00129   0.00356   0.00785   0.00828

 Mulliken charges and spin densities:
               1          2
     1  Na  -0.410504   0.806406
     2  Na   0.062916   0.001321
     3  Na   0.142861   0.052735
     4  Na   0.180008  -0.053984
     5  Na  -0.006761  -0.047149
     6  Na  -0.007307   0.218184
     7  Na   0.038788   0.022487
 Sum of Mulliken charges =  -0.00000   1.00000

 Dipole moment (field-independent basis, Debye):
    X=             -0.0891    Y=              0.2267    Z=              0.2842  Tot=              0.3743
 Quadrupole moment (field-independent basis, Debye-Ang):
   XX=            -54.0046   YY=            -62.2304   ZZ=            -75.6658
   XY=              0.4543   XZ=              0.3523   YZ=              0.6609

 Normal termination of Gaussian 16 at Thu Dec  7 22:39:39 2023.
