 Gaussian 16, Revision B.01,
 Gaussian 16:  ES64L-G16RevB.01 20-Dec-2017

 -------------------------
 #P B3LYP/6-311+g(d) force
 -------------------------

 -----
 DPGEN
 -----
 Symbolic Z-matrix:
 Charge =  0 Multiplicity = 2

                         Standard orientation:
 ---------------------------------------------------------------------
 Center     Atomic      Atomic             Coordinates (Angstroms)
 Number     Number       Type             X           Y           Z
 ---------------------------------------------------------------------
      1         11           0        1.835433   -0.695761    0.720140
      2         11           0        7.470573   -0.514255   -0.226369
      3         11           0       -1.117303    0.676450    1.445187
      4         11           0       -2.457787   -2.117517   -0.216738
      5         11           0       -4.659766    2.241817   -0.286881
      6         11           0       -6.212327   -0.793801   -0.660051
      7         11           0        5.141178    1.203067   -0.775289
 ---------------------------------------------------------------------

 SCF Done:  E(UB3LYP) =  -1136.10593835     A.U. after   20 cycles

 The electronic state is 2-A.
 Alpha  occ. eigenvalues --  -38.45125 -38.44810 -38.44801 -38.44505 -38.44387
 Alpha  occ. eigenvalues --  -38.44366 -38.43678  -2.20928  -2.20614  -2.20572
 Alpha  occ. eigenvalues --   -2.20250  -2.20182  -2.20155  -2.19469  -1.14672
 Alpha  occ. eigenvalues --   -1.14573  -1.14570  -1.14264  -1.14256  -1.14251
 Alpha  occ. eigenvalues --   -1.14251  -1.14238  -1.14187  -1.13935  -1.13911
 Alpha  occ. eigenvalues --   -1.13901  -1.13874  -1.13859  -1.13824  -1.13803
 Alpha  occ. eigenvalues --   -1.13796  -1.13736  -1.13128  -1.13114  -1.13087
 Alpha  occ. eigenvalues --   -0.15543  -0.14307  -0.12239  -0.10301
 Alpha virt. eigenvalues --   -0.07241  -0.05456  -0.04884  -0.03295  -0.03214
 Alpha virt. eigenvalues --   -0.03048  -0.02390  -0.01628  -0.01251  -0.00789
 Alpha virt. eigenvalues --   -0.00595  -0.00507   0.00141   0.00248   0.00437

  Beta  occ. eigenvalues --  -38.45121 -38.44805 -38.44802 -38.44517 -38.44375
  Beta  occ. eigenvalues --  -38.44271 -38.43607  -2.20921  -2.20616  -2.20562
  Beta  occ. eigenvalues --   -2.20275  -2.20161  -2.19979  -2.19336  -1.14668
  Beta  occ. eigenvalues --   -1.14568  -1.14565  -1.14266  -1.14255  -1.14246
  Beta  occ. eigenvalues --   -1.14239  -1.14236  -1.14183  -1.13955  -1.13923
  Beta  occ. eigenvalues --   -1.13901  -1.13848  -1.13840  -1.13776  -1.13706
  Beta  occ. eigenvalues --   -1.13689  -1.13611  -1.13036  -1.13022  -1.13002
  Beta  occ. eigenvalues --   -0.15053  -0.14044  -0.12125
  Beta virt. eigenvalues --   -0.07124  -0.06509  -0.05319  -0.04371  -0.03140
  Beta virt. eigenvalues --   -0.02946  -0.02853  -0.01729  -0.01614  -0.01160
  Beta virt. eigenvalues --   -0.00591  -0.00363  -0.00050   0.00260   0.00392

 Mulliken charges and spin densities:
               1          2
     1  Na  -0.119551  -0.050141
     2  Na   0.265798   0.010441
     3  Na  -0.171438   0.203404
     4  Na   0.130829   0.546234
     5  Na   0.027948   0.370479
     6  Na   0.032678  -0.084229
     7  Na  -0.166265   0.003812
 Sum of Mulliken charges =  -0.00000   1.00000

 Dipole moment (field-independent basis, Debye):
    X=              2.5952    Y=             -0.4955    Z=             -0.0936  Tot=              2.6437
 Quadrupole moment (field-independent basis, Debye-Ang):
   XX=            -48.4956   YY=            -70.4982   ZZ=            -73.2762
   XY=             -2.4849   XZ=              1.5329   YZ=             -1.0791

 Normal termination of Gaussian 16 at Sun Dec  3 15:25:32 2023.
