 Gaussian 16, Revision B.01,
 Gaussian 16:  ES64L-G16RevB.01 20-Dec-2017

 -------------------------
 #P B3LYP/6-311+g(d) force
 -------------------------

 -----
 DPGEN
 -----
 Symbolic Z-matrix:
 Charge =  0 Multiplicity = 2

                         Standard orientation:
 ---------------------------------------------------------------------
 Center     Atomic      Atomic             Coordinates (Angstroms)
 Number     Number       Type             X           Y           Z
 ---------------------------------------------------------------------
      1         11           0        2.448207    2.262621    0.038791
      2         11           0        2.721180   -1.804719    0.088353
      3         11           0       -1.581430    2.521338   -0.428046
      4         11           0        0.513766    0.174242   -1.417273
      5         11           0       -0.604186   -2.754875   -0.283917
      6         11           0       -2.915973   -0.588213   -0.303560
      7         11           0       -0.581564    0.189606    2.305652
 ---------------------------------------------------------------------

 SCF Done:  E(UB3LYP) =  -1136.13396202     A.U. after   19 cycles

 The electronic state is 2-A.
 Alpha  occ. eigenvalues --  -38.44284 -38.44140 -38.43830 -38.43829 -38.43609
 Alpha  occ. eigenvalues --  -38.43282 -38.42980  -2.20071  -2.19944  -2.19674
 Alpha  occ. eigenvalues --   -2.19667  -2.19490  -2.19161  -2.18975  -1.13766
 Alpha  occ. eigenvalues --   -1.13729  -1.13698  -1.13626  -1.13607  -1.13577
 Alpha  occ. eigenvalues --   -1.13368  -1.13336  -1.13316  -1.13303  -1.13295
 Alpha  occ. eigenvalues --   -1.13290  -1.13187  -1.13141  -1.13128  -1.12856
 Alpha  occ. eigenvalues --   -1.12811  -1.12794  -1.12660  -1.12615  -1.12610
 Alpha  occ. eigenvalues --   -0.18397  -0.12881  -0.12528  -0.10696
 Alpha virt. eigenvalues --   -0.05911  -0.05248  -0.04661  -0.03128  -0.02857
 Alpha virt. eigenvalues --   -0.02636  -0.01469  -0.01370  -0.00523  -0.00368
 Alpha virt. eigenvalues --   -0.00033   0.00331   0.00765   0.00821   0.00884

  Beta  occ. eigenvalues --  -38.44285 -38.44141 -38.43818 -38.43720 -38.43601
  Beta  occ. eigenvalues --  -38.43275 -38.42938  -2.20075  -2.19947  -2.19652
  Beta  occ. eigenvalues --   -2.19478  -2.19466  -2.19151  -2.18900  -1.13764
  Beta  occ. eigenvalues --   -1.13724  -1.13704  -1.13624  -1.13602  -1.13581
  Beta  occ. eigenvalues --   -1.13352  -1.13300  -1.13292  -1.13193  -1.13174
  Beta  occ. eigenvalues --   -1.13155  -1.13150  -1.13122  -1.13098  -1.12845
  Beta  occ. eigenvalues --   -1.12791  -1.12784  -1.12605  -1.12560  -1.12552
  Beta  occ. eigenvalues --   -0.17697  -0.12702  -0.12326
  Beta virt. eigenvalues --   -0.06698  -0.05911  -0.05137  -0.04641  -0.02403
  Beta virt. eigenvalues --   -0.02137  -0.01547  -0.01362  -0.01300  -0.00556
  Beta virt. eigenvalues --   -0.00403   0.00159   0.00386   0.00787   0.00894

 Mulliken charges and spin densities:
               1          2
     1  Na   0.003137  -0.042959
     2  Na   0.026176   0.005848
     3  Na   0.245477   0.006613
     4  Na  -0.018732   0.121711
     5  Na   0.153985   0.013486
     6  Na   0.351717   0.120358
     7  Na  -0.761760   0.774943
 Sum of Mulliken charges =  -0.00000   1.00000

 Dipole moment (field-independent basis, Debye):
    X=              0.4453    Y=              0.2867    Z=              0.2267  Tot=              0.5761
 Quadrupole moment (field-independent basis, Debye-Ang):
   XX=            -57.2511   YY=            -61.3635   ZZ=            -74.9325
   XY=             -0.1669   XZ=              2.5271   YZ=             -0.0399

 Normal termination of Gaussian 16 at Thu Dec  7 03:58:45 2023.
