 Gaussian 16, Revision B.01,
 Gaussian 16:  ES64L-G16RevB.01 20-Dec-2017

 -------------------------
 #P B3LYP/6-311+g(d) force
 -------------------------

 -----
 DPGEN
 -----
 Symbolic Z-matrix:
 Charge =  0 Multiplicity = 2

                         Standard orientation:
 ---------------------------------------------------------------------
 Center     Atomic      Atomic             Coordinates (Angstroms)
 Number     Number       Type             X           Y           Z
 ---------------------------------------------------------------------
      1         11           0        0.718841   -1.415102   -1.294230
      2         11           0       -3.767043    0.883734   -0.147051
      3         11           0        4.031906   -0.439454   -0.760526
      4         11           0        0.518658   -1.539115    2.366218
      5         11           0       -2.401812   -2.636546   -0.495146
      6         11           0       -0.724834    3.309936   -0.208185
      7         11           0        1.624283    1.836547    0.538921
 ---------------------------------------------------------------------

 SCF Done:  E(UB3LYP) =  -1136.11409357     A.U. after   21 cycles

 The electronic state is 2-A.
 Alpha  occ. eigenvalues --  -38.45262 -38.44654 -38.44530 -38.44501 -38.44132
 Alpha  occ. eigenvalues --  -38.43789 -38.43528  -2.20985  -2.20450  -2.20332
 Alpha  occ. eigenvalues --   -2.20313  -2.19904  -2.19660  -2.19352  -1.14672
 Alpha  occ. eigenvalues --   -1.14637  -1.14615  -1.14094  -1.14079  -1.14064
 Alpha  occ. eigenvalues --   -1.14007  -1.13996  -1.13992  -1.13983  -1.13967
 Alpha  occ. eigenvalues --   -1.13913  -1.13588  -1.13558  -1.13545  -1.13468
 Alpha  occ. eigenvalues --   -1.13312  -1.13301  -1.12997  -1.12989  -1.12960
 Alpha  occ. eigenvalues --   -0.16956  -0.13143  -0.12486  -0.10778
 Alpha virt. eigenvalues --   -0.07069  -0.05719  -0.04688  -0.03110  -0.02797
 Alpha virt. eigenvalues --   -0.02466  -0.02428  -0.01533  -0.01149  -0.00637
 Alpha virt. eigenvalues --   -0.00381   0.00091   0.00361   0.00574   0.00641

  Beta  occ. eigenvalues --  -38.45248 -38.44538 -38.44496 -38.44481 -38.44135
  Beta  occ. eigenvalues --  -38.43779 -38.43527  -2.20960  -2.20306  -2.20242
  Beta  occ. eigenvalues --   -2.20234  -2.19911  -2.19645  -2.19351  -1.14653
  Beta  occ. eigenvalues --   -1.14620  -1.14597  -1.14003  -1.13987  -1.13948
  Beta  occ. eigenvalues --   -1.13945  -1.13927  -1.13922  -1.13915  -1.13910
  Beta  occ. eigenvalues --   -1.13881  -1.13593  -1.13562  -1.13542  -1.13459
  Beta  occ. eigenvalues --   -1.13297  -1.13277  -1.12997  -1.12983  -1.12959
  Beta  occ. eigenvalues --   -0.16447  -0.12794  -0.12292
  Beta virt. eigenvalues --   -0.07260  -0.06490  -0.05620  -0.04392  -0.02716
  Beta virt. eigenvalues --   -0.02332  -0.02262  -0.01728  -0.01418  -0.01047
  Beta virt. eigenvalues --   -0.00517  -0.00084   0.00180   0.00491   0.00667

 Mulliken charges and spin densities:
               1          2
     1  Na  -0.534368   0.075019
     2  Na  -0.301073   0.119343
     3  Na   0.552285   0.110888
     4  Na   0.039317   0.448576
     5  Na   0.411393   0.116943
     6  Na   0.273536  -0.258605
     7  Na  -0.441091   0.387837
 Sum of Mulliken charges =  -0.00000   1.00000

 Dipole moment (field-independent basis, Debye):
    X=             -0.0082    Y=             -0.6981    Z=              0.1492  Tot=              0.7140
 Quadrupole moment (field-independent basis, Debye-Ang):
   XX=            -56.0356   YY=            -69.7631   ZZ=            -72.4404
   XY=              0.0782   XZ=              0.1791   YZ=             -0.3812

 Normal termination of Gaussian 16 at Sun Dec  3 18:06:55 2023.
