 Gaussian 16, Revision B.01,
 Gaussian 16:  ES64L-G16RevB.01 20-Dec-2017

 -------------------------
 #P B3LYP/6-311+g(d) force
 -------------------------

 -----
 DPGEN
 -----
 Symbolic Z-matrix:
 Charge =  0 Multiplicity = 2

                         Standard orientation:
 ---------------------------------------------------------------------
 Center     Atomic      Atomic             Coordinates (Angstroms)
 Number     Number       Type             X           Y           Z
 ---------------------------------------------------------------------
      1         11           0        2.116746    1.935767   -0.017930
      2         11           0        3.674678   -1.081123    0.390180
      3         11           0        0.107283   -0.351449    2.014552
      4         11           0        1.165374   -0.656586   -1.700588
      5         11           0       -1.981894   -2.191954   -0.484566
      6         11           0       -3.816378    0.273407    0.331590
      7         11           0       -1.265808    2.071938   -0.533238
 ---------------------------------------------------------------------

 SCF Done:  E(UB3LYP) =  -1136.12032174     A.U. after  123 cycles

 The electronic state is 2-A.
 Alpha  occ. eigenvalues --  -38.45444 -38.45067 -38.44638 -38.43714 -38.43609
 Alpha  occ. eigenvalues --  -38.43576 -38.42626  -2.21268  -2.20865  -2.20463
 Alpha  occ. eigenvalues --   -2.19621  -2.19466  -2.19441  -2.18485  -1.14942
 Alpha  occ. eigenvalues --   -1.14929  -1.14910  -1.14545  -1.14540  -1.14512
 Alpha  occ. eigenvalues --   -1.14141  -1.14101  -1.14071  -1.13307  -1.13280
 Alpha  occ. eigenvalues --   -1.13246  -1.13131  -1.13130  -1.13105  -1.13099
 Alpha  occ. eigenvalues --   -1.13091  -1.13083  -1.12160  -1.12152  -1.12132
 Alpha  occ. eigenvalues --   -0.18331  -0.14257  -0.11188  -0.10750
 Alpha virt. eigenvalues --   -0.07452  -0.05494  -0.04246  -0.03281  -0.02953
 Alpha virt. eigenvalues --   -0.02405  -0.02311  -0.01313  -0.00756  -0.00359
 Alpha virt. eigenvalues --    0.00034   0.00093   0.00319   0.00637   0.00726

  Beta  occ. eigenvalues --  -38.45445 -38.45091 -38.44551 -38.43642 -38.43588
  Beta  occ. eigenvalues --  -38.43571 -38.42620  -2.21270  -2.20912  -2.20302
  Beta  occ. eigenvalues --   -2.19488  -2.19457  -2.19405  -2.18474  -1.14939
  Beta  occ. eigenvalues --   -1.14931  -1.14906  -1.14573  -1.14570  -1.14532
  Beta  occ. eigenvalues --   -1.14030  -1.13987  -1.13954  -1.13234  -1.13186
  Beta  occ. eigenvalues --   -1.13157  -1.13121  -1.13088  -1.13082  -1.13078
  Beta  occ. eigenvalues --   -1.13074  -1.13049  -1.12156  -1.12133  -1.12121
  Beta  occ. eigenvalues --   -0.17628  -0.14210  -0.10982
  Beta virt. eigenvalues --   -0.07236  -0.06834  -0.05448  -0.03790  -0.03049
  Beta virt. eigenvalues --   -0.02666  -0.01667  -0.01527  -0.01200  -0.00552
  Beta virt. eigenvalues --   -0.00306   0.00061   0.00124   0.00478   0.00693

 Mulliken charges and spin densities:
               1          2
     1  Na   0.184847   0.179867
     2  Na   0.452641  -0.061585
     3  Na  -0.384721   0.539695
     4  Na  -0.188542   0.274157
     5  Na  -0.152248   0.078717
     6  Na   0.556246  -0.021026
     7  Na  -0.468223   0.010174
 Sum of Mulliken charges =  -0.00000   1.00000

 Dipole moment (field-independent basis, Debye):
    X=              0.0713    Y=             -0.0970    Z=              0.4934  Tot=              0.5079
 Quadrupole moment (field-independent basis, Debye-Ang):
   XX=            -44.8516   YY=            -75.2670   ZZ=            -73.8315
   XY=             -1.1264   XZ=              0.2194   YZ=              0.1874

 Normal termination of Gaussian 16 at Fri Dec  8 03:38:00 2023.
