 Gaussian 16, Revision B.01,
 Gaussian 16:  ES64L-G16RevB.01 20-Dec-2017

 -------------------------
 #P B3LYP/6-311+g(d) force
 -------------------------

 -----
 DPGEN
 -----
 Symbolic Z-matrix:
 Charge =  0 Multiplicity = 2

                         Standard orientation:
 ---------------------------------------------------------------------
 Center     Atomic      Atomic             Coordinates (Angstroms)
 Number     Number       Type             X           Y           Z
 ---------------------------------------------------------------------
      1         11           0       -3.619601    1.542157    0.319400
      2         11           0       -0.888408   -3.334664   -0.664703
      3         11           0       -3.775501   -1.464060   -0.423543
      4         11           0        2.172330   -2.507901    1.451413
      5         11           0        4.261678   -0.107724   -0.565640
      6         11           0        2.773554    2.278548   -0.509501
      7         11           0       -0.924052    3.593644    0.392574
 ---------------------------------------------------------------------

 SCF Done:  E(UB3LYP) =  -1136.10349577     A.U. after   22 cycles

 The electronic state is 2-A.
 Alpha  occ. eigenvalues --  -38.45095 -38.44997 -38.44913 -38.44635 -38.44622
 Alpha  occ. eigenvalues --  -38.43946 -38.43905  -2.20830  -2.20764  -2.20750
 Alpha  occ. eigenvalues --   -2.20478  -2.20440  -2.19744  -2.19737  -1.14598
 Alpha  occ. eigenvalues --   -1.14521  -1.14511  -1.14474  -1.14425  -1.14402
 Alpha  occ. eigenvalues --   -1.14391  -1.14382  -1.14371  -1.14141  -1.14110
 Alpha  occ. eigenvalues --   -1.14108  -1.14096  -1.14085  -1.14077  -1.13403
 Alpha  occ. eigenvalues --   -1.13389  -1.13385  -1.13380  -1.13369  -1.13367
 Alpha  occ. eigenvalues --   -0.15739  -0.14357  -0.13156  -0.10838
 Alpha virt. eigenvalues --   -0.07689  -0.05070  -0.04111  -0.03665  -0.03450
 Alpha virt. eigenvalues --   -0.02512  -0.02329  -0.01709  -0.01299  -0.01004
 Alpha virt. eigenvalues --   -0.00516  -0.00153   0.00122   0.00378   0.00661

  Beta  occ. eigenvalues --  -38.45115 -38.44927 -38.44879 -38.44635 -38.44590
  Beta  occ. eigenvalues --  -38.43883 -38.43853  -2.20870  -2.20693  -2.20633
  Beta  occ. eigenvalues --   -2.20447  -2.20426  -2.19646  -2.19620  -1.14552
  Beta  occ. eigenvalues --   -1.14542  -1.14537  -1.14474  -1.14356  -1.14336
  Beta  occ. eigenvalues --   -1.14328  -1.14316  -1.14291  -1.14130  -1.14122
  Beta  occ. eigenvalues --   -1.14076  -1.14074  -1.14055  -1.14012  -1.13341
  Beta  occ. eigenvalues --   -1.13318  -1.13309  -1.13309  -1.13303  -1.13288
  Beta  occ. eigenvalues --   -0.15214  -0.13721  -0.12395
  Beta virt. eigenvalues --   -0.07767  -0.07690  -0.04628  -0.03654  -0.03403
  Beta virt. eigenvalues --   -0.03129  -0.02357  -0.02092  -0.01481  -0.01127
  Beta virt. eigenvalues --   -0.00766  -0.00241   0.00102   0.00302   0.00375

 Mulliken charges and spin densities:
               1          2
     1  Na  -0.013501   0.007722
     2  Na  -0.333483  -0.094500
     3  Na   0.292923   0.216838
     4  Na  -0.208686   0.349900
     5  Na   0.020719   0.062467
     6  Na  -0.081946   0.143335
     7  Na   0.323974   0.314237
 Sum of Mulliken charges =  -0.00000   1.00000

 Dipole moment (field-independent basis, Debye):
    X=              0.7638    Y=             -0.5667    Z=             -0.0257  Tot=              0.9514
 Quadrupole moment (field-independent basis, Debye-Ang):
   XX=            -63.5155   YY=            -68.5706   ZZ=            -70.5974
   XY=             -1.6335   XZ=              0.6288   YZ=              1.4601

 Normal termination of Gaussian 16 at Sun Dec  3 15:01:53 2023.
