 Gaussian 16, Revision B.01,
 Gaussian 16:  ES64L-G16RevB.01 20-Dec-2017

 -------------------------
 #P B3LYP/6-311+g(d) force
 -------------------------

 -----
 DPGEN
 -----
 Symbolic Z-matrix:
 Charge =  0 Multiplicity = 2

                         Standard orientation:
 ---------------------------------------------------------------------
 Center     Atomic      Atomic             Coordinates (Angstroms)
 Number     Number       Type             X           Y           Z
 ---------------------------------------------------------------------
      1         11           0        2.871203   -0.368288    0.049497
      2         11           0        3.021945    3.241606   -0.024804
      3         11           0       -3.964404    0.583690    0.273261
      4         11           0        5.435131   -2.634401   -0.193428
      5         11           0       -6.446754   -1.218528   -0.346221
      6         11           0       -0.383236    1.656816   -0.235651
      7         11           0       -0.533886   -1.260895    0.477346
 ---------------------------------------------------------------------

 SCF Done:  E(UB3LYP) =  -1136.11045224     A.U. after   22 cycles

 The electronic state is 2-A.
 Alpha  occ. eigenvalues --  -38.45905 -38.45592 -38.44341 -38.44285 -38.43939
 Alpha  occ. eigenvalues --  -38.43641 -38.43169  -2.21759  -2.21394  -2.20203
 Alpha  occ. eigenvalues --   -2.20090  -2.19756  -2.19383  -2.19007  -1.15442
 Alpha  occ. eigenvalues --   -1.15405  -1.15358  -1.15032  -1.15025  -1.14997
 Alpha  occ. eigenvalues --   -1.13911  -1.13878  -1.13814  -1.13762  -1.13730
 Alpha  occ. eigenvalues --   -1.13729  -1.13439  -1.13430  -1.13380  -1.13057
 Alpha  occ. eigenvalues --   -1.13055  -1.13032  -1.12716  -1.12704  -1.12595
 Alpha  occ. eigenvalues --   -0.17134  -0.14107  -0.12079  -0.11416
 Alpha virt. eigenvalues --   -0.07005  -0.05403  -0.04385  -0.04131  -0.03089
 Alpha virt. eigenvalues --   -0.02606  -0.01887  -0.01659  -0.01251  -0.01003
 Alpha virt. eigenvalues --   -0.00620  -0.00423  -0.00046   0.00373   0.00507

  Beta  occ. eigenvalues --  -38.45839 -38.45477 -38.44334 -38.44234 -38.43943
  Beta  occ. eigenvalues --  -38.43664 -38.43158  -2.21637  -2.21180  -2.20197
  Beta  occ. eigenvalues --   -2.19995  -2.19767  -2.19425  -2.18987  -1.15361
  Beta  occ. eigenvalues --   -1.15322  -1.15268  -1.14887  -1.14877  -1.14855
  Beta  occ. eigenvalues --   -1.13893  -1.13879  -1.13790  -1.13702  -1.13666
  Beta  occ. eigenvalues --   -1.13664  -1.13451  -1.13440  -1.13354  -1.13086
  Beta  occ. eigenvalues --   -1.13083  -1.13059  -1.12694  -1.12673  -1.12595
  Beta  occ. eigenvalues --   -0.16443  -0.13404  -0.11242
  Beta virt. eigenvalues --   -0.08591  -0.06735  -0.04781  -0.04072  -0.03857
  Beta virt. eigenvalues --   -0.02586  -0.02390  -0.01585  -0.01504  -0.01107
  Beta virt. eigenvalues --   -0.00616  -0.00321  -0.00287   0.00124   0.00451

 Mulliken charges and spin densities:
               1          2
     1  Na  -0.684543   0.055602
     2  Na   1.840789   0.323420
     3  Na  -1.019215   0.159825
     4  Na  -0.227640  -0.071249
     5  Na   0.686677   0.160432
     6  Na  -0.562721   0.149760
     7  Na  -0.033347   0.222211
 Sum of Mulliken charges =  -0.00000   1.00000

 Dipole moment (field-independent basis, Debye):
    X=             -0.6382    Y=              0.7119    Z=              0.1004  Tot=              0.9614
 Quadrupole moment (field-independent basis, Debye-Ang):
   XX=            -68.9027   YY=            -60.2454   ZZ=            -73.9090
   XY=              8.0441   XZ=              0.8365   YZ=             -0.2178

 Normal termination of Gaussian 16 at Wed Nov 29 01:00:31 2023.
