 Gaussian 16, Revision B.01,
 Gaussian 16:  ES64L-G16RevB.01 20-Dec-2017

 -------------------------
 #P B3LYP/6-311+g(d) force
 -------------------------

 -----
 DPGEN
 -----
 Symbolic Z-matrix:
 Charge =  0 Multiplicity = 2

                         Standard orientation:
 ---------------------------------------------------------------------
 Center     Atomic      Atomic             Coordinates (Angstroms)
 Number     Number       Type             X           Y           Z
 ---------------------------------------------------------------------
      1         11           0        1.561667   -0.814275    1.871069
      2         11           0       -3.364473   -0.511359   -1.607243
      3         11           0       -1.963641   -1.877496    1.189657
      4         11           0       -2.222168    2.243812    0.704878
      5         11           0       -0.011845    0.439512   -0.767146
      6         11           0        3.212260   -1.399684   -1.313954
      7         11           0        2.788201    1.919490   -0.077261
 ---------------------------------------------------------------------

 SCF Done:  E(UB3LYP) =  -1136.11810043     A.U. after   26 cycles

 The electronic state is 2-A.
 Alpha  occ. eigenvalues --  -38.44735 -38.44596 -38.44452 -38.44195 -38.43700
 Alpha  occ. eigenvalues --  -38.43353 -38.43244  -2.20548  -2.20420  -2.20277
 Alpha  occ. eigenvalues --   -2.19983  -2.19562  -2.19330  -2.19057  -1.14215
 Alpha  occ. eigenvalues --   -1.14186  -1.14166  -1.14092  -1.14057  -1.14033
 Alpha  occ. eigenvalues --   -1.13966  -1.13951  -1.13893  -1.13677  -1.13646
 Alpha  occ. eigenvalues --   -1.13609  -1.13266  -1.13205  -1.13174  -1.13054
 Alpha  occ. eigenvalues --   -1.12970  -1.12962  -1.12733  -1.12730  -1.12695
 Alpha  occ. eigenvalues --   -0.17923  -0.14372  -0.10834  -0.10582
 Alpha virt. eigenvalues --   -0.06381  -0.05893  -0.05229  -0.02982  -0.02454
 Alpha virt. eigenvalues --   -0.02373  -0.02185  -0.01241  -0.00844  -0.00527
 Alpha virt. eigenvalues --    0.00056   0.00175   0.00194   0.00267   0.00564

  Beta  occ. eigenvalues --  -38.44677 -38.44545 -38.44449 -38.44196 -38.43651
  Beta  occ. eigenvalues --  -38.43339 -38.43237  -2.20438  -2.20323  -2.20275
  Beta  occ. eigenvalues --   -2.19986  -2.19474  -2.19310  -2.19049  -1.14139
  Beta  occ. eigenvalues --   -1.14106  -1.14096  -1.14023  -1.13996  -1.13970
  Beta  occ. eigenvalues --   -1.13966  -1.13942  -1.13879  -1.13677  -1.13646
  Beta  occ. eigenvalues --   -1.13606  -1.13207  -1.13137  -1.13105  -1.12993
  Beta  occ. eigenvalues --   -1.12963  -1.12958  -1.12730  -1.12721  -1.12668
  Beta  occ. eigenvalues --   -0.17317  -0.14009  -0.10437
  Beta virt. eigenvalues --   -0.07268  -0.06016  -0.05697  -0.04726  -0.02801
  Beta virt. eigenvalues --   -0.02283  -0.01895  -0.01532  -0.01075  -0.00558
  Beta virt. eigenvalues --   -0.00207   0.00186   0.00255   0.00292   0.00368

 Mulliken charges and spin densities:
               1          2
     1  Na   0.043740   0.228141
     2  Na   0.901966   0.160078
     3  Na  -0.142151  -0.002839
     4  Na   0.144642   0.031835
     5  Na  -1.803980   0.345965
     6  Na   0.122094   0.243271
     7  Na   0.733690  -0.006450
 Sum of Mulliken charges =  -0.00000   1.00000

 Dipole moment (field-independent basis, Debye):
    X=              0.3153    Y=              0.2465    Z=             -0.0816  Tot=              0.4085
 Quadrupole moment (field-independent basis, Debye-Ang):
   XX=            -51.5724   YY=            -75.1543   ZZ=            -67.0772
   XY=              0.4427   XZ=              0.7499   YZ=              5.3466

 Normal termination of Gaussian 16 at Tue Dec  5 12:45:36 2023.
