 Gaussian 16, Revision B.01,
 Gaussian 16:  ES64L-G16RevB.01 20-Dec-2017

 -------------------------
 #P B3LYP/6-311+g(d) force
 -------------------------

 -----
 DPGEN
 -----
 Symbolic Z-matrix:
 Charge =  0 Multiplicity = 2

                         Standard orientation:
 ---------------------------------------------------------------------
 Center     Atomic      Atomic             Coordinates (Angstroms)
 Number     Number       Type             X           Y           Z
 ---------------------------------------------------------------------
      1         11           0        0.502860    0.057292    1.938892
      2         11           0        3.949571    0.038952   -0.000909
      3         11           0       -3.025994   -1.479430    0.766693
      4         11           0       -1.373602    2.846012    0.344112
      5         11           0       -2.179324   -0.281595   -1.553892
      6         11           0        1.095275   -2.274340   -0.368348
      7         11           0        1.031214    1.093110   -1.126548
 ---------------------------------------------------------------------

 SCF Done:  E(UB3LYP) =  -1136.12058627     A.U. after   22 cycles

 The electronic state is 2-A.
 Alpha  occ. eigenvalues --  -38.45523 -38.44556 -38.44296 -38.43774 -38.43742
 Alpha  occ. eigenvalues --  -38.42930 -38.42805  -2.21312  -2.20397  -2.20121
 Alpha  occ. eigenvalues --   -2.19694  -2.19638  -2.18893  -2.18623  -1.14994
 Alpha  occ. eigenvalues --   -1.14971  -1.14929  -1.14259  -1.14014  -1.14001
 Alpha  occ. eigenvalues --   -1.13841  -1.13811  -1.13704  -1.13366  -1.13336
 Alpha  occ. eigenvalues --   -1.13325  -1.13266  -1.13260  -1.13238  -1.12604
 Alpha  occ. eigenvalues --   -1.12565  -1.12500  -1.12284  -1.12278  -1.12270
 Alpha  occ. eigenvalues --   -0.18410  -0.13683  -0.11459  -0.10764
 Alpha virt. eigenvalues --   -0.07001  -0.04850  -0.04286  -0.03258  -0.02734
 Alpha virt. eigenvalues --   -0.02565  -0.02428  -0.01004  -0.00627  -0.00099
 Alpha virt. eigenvalues --    0.00076   0.00145   0.00418   0.00709   0.00818

  Beta  occ. eigenvalues --  -38.45520 -38.44558 -38.44283 -38.43736 -38.43650
  Beta  occ. eigenvalues --  -38.42898 -38.42805  -2.21308  -2.20403  -2.20101
  Beta  occ. eigenvalues --   -2.19624  -2.19470  -2.18839  -2.18624  -1.14988
  Beta  occ. eigenvalues --   -1.14960  -1.14929  -1.14255  -1.14012  -1.13999
  Beta  occ. eigenvalues --   -1.13829  -1.13765  -1.13693  -1.13316  -1.13280
  Beta  occ. eigenvalues --   -1.13225  -1.13219  -1.13136  -1.13119  -1.12570
  Beta  occ. eigenvalues --   -1.12501  -1.12465  -1.12283  -1.12272  -1.12263
  Beta  occ. eigenvalues --   -0.17667  -0.13526  -0.11274
  Beta virt. eigenvalues --   -0.06959  -0.06788  -0.04817  -0.03767  -0.03043
  Beta virt. eigenvalues --   -0.02551  -0.01901  -0.01525  -0.00905  -0.00344
  Beta virt. eigenvalues --   -0.00060   0.00082   0.00199   0.00521   0.00743

 Mulliken charges and spin densities:
               1          2
     1  Na  -0.311485   0.734673
     2  Na   0.570873  -0.006632
     3  Na  -0.011691  -0.120104
     4  Na  -0.081089  -0.107090
     5  Na   0.219530   0.195628
     6  Na  -0.092709   0.010875
     7  Na  -0.293428   0.292651
 Sum of Mulliken charges =  -0.00000   1.00000

 Dipole moment (field-independent basis, Debye):
    X=              1.3600    Y=             -0.2844    Z=              0.4267  Tot=              1.4534
 Quadrupole moment (field-independent basis, Debye-Ang):
   XX=            -48.4551   YY=            -71.9314   ZZ=            -71.9006
   XY=             -0.9397   XZ=             -1.3684   YZ=              0.4439

 Normal termination of Gaussian 16 at Tue Dec  5 23:48:07 2023.
