 Gaussian 16, Revision B.01,
 Gaussian 16:  ES64L-G16RevB.01 20-Dec-2017

 -------------------------
 #P B3LYP/6-311+g(d) force
 -------------------------

 -----
 DPGEN
 -----
 Symbolic Z-matrix:
 Charge =  0 Multiplicity = 2

                         Standard orientation:
 ---------------------------------------------------------------------
 Center     Atomic      Atomic             Coordinates (Angstroms)
 Number     Number       Type             X           Y           Z
 ---------------------------------------------------------------------
      1         11           0       -1.078151   -2.382047    0.800867
      2         11           0        2.545241    2.142835   -0.206481
      3         11           0        2.564823   -2.287520   -0.405417
      4         11           0        0.248054    0.020278   -1.862438
      5         11           0        0.230693    0.120986    2.105067
      6         11           0       -1.102918    2.577623    0.405414
      7         11           0       -3.407742   -0.192155   -0.837012
 ---------------------------------------------------------------------

 SCF Done:  E(UB3LYP) =  -1136.13156946     A.U. after   19 cycles

 The electronic state is 2-A.
 Alpha  occ. eigenvalues --  -38.44137 -38.44081 -38.43992 -38.43965 -38.43831
 Alpha  occ. eigenvalues --  -38.43667 -38.43525  -2.19986  -2.19918  -2.19858
 Alpha  occ. eigenvalues --   -2.19730  -2.19620  -2.19499  -2.19376  -1.13672
 Alpha  occ. eigenvalues --   -1.13633  -1.13607  -1.13601  -1.13576  -1.13551
 Alpha  occ. eigenvalues --   -1.13538  -1.13498  -1.13479  -1.13409  -1.13380
 Alpha  occ. eigenvalues --   -1.13370  -1.13287  -1.13277  -1.13257  -1.13200
 Alpha  occ. eigenvalues --   -1.13164  -1.13102  -1.13089  -1.13025  -1.12974
 Alpha  occ. eigenvalues --   -0.18029  -0.12479  -0.12225  -0.11322
 Alpha virt. eigenvalues --   -0.05669  -0.05417  -0.04365  -0.03299  -0.03181
 Alpha virt. eigenvalues --   -0.02960  -0.01612  -0.01309  -0.00465  -0.00117
 Alpha virt. eigenvalues --   -0.00007   0.00348   0.00704   0.00733   0.00822

  Beta  occ. eigenvalues --  -38.44138 -38.43984 -38.43966 -38.43930 -38.43813
  Beta  occ. eigenvalues --  -38.43658 -38.43504  -2.19922  -2.19809  -2.19744
  Beta  occ. eigenvalues --   -2.19732  -2.19586  -2.19485  -2.19342  -1.13597
  Beta  occ. eigenvalues --   -1.13584  -1.13556  -1.13551  -1.13501  -1.13475
  Beta  occ. eigenvalues --   -1.13462  -1.13427  -1.13405  -1.13396  -1.13372
  Beta  occ. eigenvalues --   -1.13368  -1.13257  -1.13252  -1.13237  -1.13178
  Beta  occ. eigenvalues --   -1.13144  -1.13094  -1.13049  -1.12988  -1.12957
  Beta  occ. eigenvalues --   -0.17275  -0.12227  -0.11989
  Beta virt. eigenvalues --   -0.07468  -0.05650  -0.05226  -0.04231  -0.02665
  Beta virt. eigenvalues --   -0.02472  -0.02034  -0.01448  -0.01269  -0.00383
  Beta virt. eigenvalues --   -0.00123   0.00070   0.00379   0.00762   0.00837

 Mulliken charges and spin densities:
               1          2
     1  Na   0.022768   0.077010
     2  Na  -0.069318  -0.128237
     3  Na  -0.118318  -0.104679
     4  Na  -0.102521   0.683266
     5  Na   0.288092   0.369679
     6  Na   0.002902   0.041472
     7  Na  -0.023605   0.061490
 Sum of Mulliken charges =  -0.00000   1.00000

 Dipole moment (field-independent basis, Debye):
    X=              0.4079    Y=              0.2219    Z=             -0.1093  Tot=              0.4771
 Quadrupole moment (field-independent basis, Debye-Ang):
   XX=            -57.8950   YY=            -65.0449   ZZ=            -71.4332
   XY=              0.2273   XZ=              0.7546   YZ=              0.0154

 Normal termination of Gaussian 16 at Sun Dec  3 20:09:08 2023.
