 Gaussian 16, Revision B.01,
 Gaussian 16:  ES64L-G16RevB.01 20-Dec-2017

 -------------------------
 #P B3LYP/6-311+g(d) force
 -------------------------

 -----
 DPGEN
 -----
 Symbolic Z-matrix:
 Charge =  0 Multiplicity = 2

                         Standard orientation:
 ---------------------------------------------------------------------
 Center     Atomic      Atomic             Coordinates (Angstroms)
 Number     Number       Type             X           Y           Z
 ---------------------------------------------------------------------
      1         11           0        0.034312    0.109684   -1.642074
      2         11           0       -3.204083   -0.032603    0.142037
      3         11           0        2.643907    1.939352    0.217244
      4         11           0       -1.344724    2.997325   -0.229140
      5         11           0       -1.003191   -3.041742   -0.230261
      6         11           0        0.209921   -0.406126    2.136574
      7         11           0        2.663856   -1.565892   -0.394380
 ---------------------------------------------------------------------

 SCF Done:  E(UB3LYP) =  -1136.13611699     A.U. after   19 cycles

 The electronic state is 2-A.
 Alpha  occ. eigenvalues --  -38.44154 -38.44135 -38.43988 -38.43763 -38.43709
 Alpha  occ. eigenvalues --  -38.43696 -38.43316  -2.19946  -2.19920  -2.19815
 Alpha  occ. eigenvalues --   -2.19602  -2.19496  -2.19492  -2.19232  -1.13626
 Alpha  occ. eigenvalues --   -1.13611  -1.13593  -1.13580  -1.13580  -1.13567
 Alpha  occ. eigenvalues --   -1.13504  -1.13476  -1.13435  -1.13264  -1.13236
 Alpha  occ. eigenvalues --   -1.13215  -1.13178  -1.13169  -1.13156  -1.13149
 Alpha  occ. eigenvalues --   -1.13134  -1.13134  -1.12921  -1.12864  -1.12857
 Alpha  occ. eigenvalues --   -0.17954  -0.12835  -0.12241  -0.10529
 Alpha virt. eigenvalues --   -0.05633  -0.05526  -0.05063  -0.03124  -0.02809
 Alpha virt. eigenvalues --   -0.02536  -0.01536  -0.01357  -0.00767  -0.00674
 Alpha virt. eigenvalues --   -0.00035   0.00346   0.00757   0.00792   0.00820

  Beta  occ. eigenvalues --  -38.44153 -38.44132 -38.43977 -38.43709 -38.43693
  Beta  occ. eigenvalues --  -38.43666 -38.43257  -2.19945  -2.19916  -2.19798
  Beta  occ. eigenvalues --   -2.19497  -2.19490  -2.19423  -2.19124  -1.13612
  Beta  occ. eigenvalues --   -1.13611  -1.13581  -1.13580  -1.13573  -1.13566
  Beta  occ. eigenvalues --   -1.13484  -1.13451  -1.13425  -1.13168  -1.13161
  Beta  occ. eigenvalues --   -1.13154  -1.13152  -1.13139  -1.13136  -1.13130
  Beta  occ. eigenvalues --   -1.13110  -1.13082  -1.12846  -1.12786  -1.12777
  Beta  occ. eigenvalues --   -0.17246  -0.12649  -0.12045
  Beta virt. eigenvalues --   -0.06642  -0.05586  -0.05518  -0.04949  -0.02387
  Beta virt. eigenvalues --   -0.02126  -0.01502  -0.01428  -0.01257  -0.00807
  Beta virt. eigenvalues --   -0.00729   0.00125   0.00384   0.00796   0.00810

 Mulliken charges and spin densities:
               1          2
     1  Na   0.088269   0.466480
     2  Na   0.015826  -0.045203
     3  Na  -0.007745  -0.020500
     4  Na  -0.007627  -0.073456
     5  Na   0.065574  -0.076417
     6  Na  -0.404277   0.780338
     7  Na   0.249980  -0.031242
 Sum of Mulliken charges =  -0.00000   1.00000

 Dipole moment (field-independent basis, Debye):
    X=              0.0959    Y=             -0.0171    Z=              0.0855  Tot=              0.1297
 Quadrupole moment (field-independent basis, Debye-Ang):
   XX=            -57.2667   YY=            -60.0595   ZZ=            -75.7927
   XY=              0.8291   XZ=             -0.4951   YZ=              1.2861

 Normal termination of Gaussian 16 at Thu Dec  7 09:36:30 2023.
