 Gaussian 16, Revision B.01,
 Gaussian 16:  ES64L-G16RevB.01 20-Dec-2017

 -------------------------
 #P B3LYP/6-311+g(d) force
 -------------------------

 -----
 DPGEN
 -----
 Symbolic Z-matrix:
 Charge =  0 Multiplicity = 2

                         Standard orientation:
 ---------------------------------------------------------------------
 Center     Atomic      Atomic             Coordinates (Angstroms)
 Number     Number       Type             X           Y           Z
 ---------------------------------------------------------------------
      1         11           0       -3.532447   -1.242604   -0.700320
      2         11           0       -2.301531    1.987283   -0.449326
      3         11           0        3.824574    0.208498   -0.963651
      4         11           0       -1.065993   -0.770779    2.106220
      5         11           0        1.183640    1.958371    1.111860
      6         11           0        2.054337   -1.849755    0.418207
      7         11           0       -0.162580   -0.291015   -1.522990
 ---------------------------------------------------------------------

 SCF Done:  E(UB3LYP) =  -1136.12228798     A.U. after   28 cycles

 The electronic state is 2-A.
 Alpha  occ. eigenvalues --  -38.45020 -38.44719 -38.44419 -38.43990 -38.43842
 Alpha  occ. eigenvalues --  -38.43785 -38.42367  -2.20849  -2.20598  -2.20269
 Alpha  occ. eigenvalues --   -2.19794  -2.19686  -2.19666  -2.18191  -1.14540
 Alpha  occ. eigenvalues --   -1.14491  -1.14472  -1.14318  -1.14262  -1.14207
 Alpha  occ. eigenvalues --   -1.13940  -1.13895  -1.13876  -1.13470  -1.13460
 Alpha  occ. eigenvalues --   -1.13437  -1.13388  -1.13351  -1.13336  -1.13319
 Alpha  occ. eigenvalues --   -1.13303  -1.13283  -1.11877  -1.11864  -1.11817
 Alpha  occ. eigenvalues --   -0.18273  -0.14155  -0.11491  -0.10648
 Alpha virt. eigenvalues --   -0.06843  -0.05286  -0.04595  -0.03142  -0.02906
 Alpha virt. eigenvalues --   -0.02436  -0.02427  -0.01100  -0.00942  -0.00275
 Alpha virt. eigenvalues --    0.00088   0.00234   0.00340   0.00658   0.00760

  Beta  occ. eigenvalues --  -38.44995 -38.44696 -38.44319 -38.43990 -38.43820
  Beta  occ. eigenvalues --  -38.43770 -38.42359  -2.20801  -2.20557  -2.20086
  Beta  occ. eigenvalues --   -2.19797  -2.19647  -2.19641  -2.18180  -1.14512
  Beta  occ. eigenvalues --   -1.14455  -1.14439  -1.14272  -1.14235  -1.14178
  Beta  occ. eigenvalues --   -1.13811  -1.13769  -1.13745  -1.13474  -1.13445
  Beta  occ. eigenvalues --   -1.13441  -1.13355  -1.13339  -1.13313  -1.13298
  Beta  occ. eigenvalues --   -1.13257  -1.13251  -1.11869  -1.11837  -1.11814
  Beta  occ. eigenvalues --   -0.17548  -0.13864  -0.10504
  Beta virt. eigenvalues --   -0.07597  -0.06596  -0.05153  -0.04091  -0.02815
  Beta virt. eigenvalues --   -0.02534  -0.01975  -0.01775  -0.00955  -0.00577
  Beta virt. eigenvalues --   -0.00212   0.00129   0.00280   0.00449   0.00696

 Mulliken charges and spin densities:
               1          2
     1  Na   0.152358  -0.042958
     2  Na   0.057922   0.067436
     3  Na   0.465981   0.099195
     4  Na   0.075291   0.470872
     5  Na  -0.516752   0.038747
     6  Na   0.013827   0.125667
     7  Na  -0.248628   0.241042
 Sum of Mulliken charges =  -0.00000   1.00000

 Dipole moment (field-independent basis, Debye):
    X=              0.1631    Y=              0.1229    Z=             -0.1932  Tot=              0.2811
 Quadrupole moment (field-independent basis, Debye-Ang):
   XX=            -50.0571   YY=            -76.3898   ZZ=            -68.6876
   XY=              1.2044   XZ=             -2.1980   YZ=             -4.1801

 Normal termination of Gaussian 16 at Thu Dec  7 07:02:04 2023.
