 Gaussian 16, Revision B.01,
 Gaussian 16:  ES64L-G16RevB.01 20-Dec-2017

 -------------------------
 #P B3LYP/6-311+g(d) force
 -------------------------

 -----
 DPGEN
 -----
 Symbolic Z-matrix:
 Charge =  0 Multiplicity = 2

                         Standard orientation:
 ---------------------------------------------------------------------
 Center     Atomic      Atomic             Coordinates (Angstroms)
 Number     Number       Type             X           Y           Z
 ---------------------------------------------------------------------
      1         11           0       -4.731535    0.345783    0.814809
      2         11           0       -1.511792    1.305368   -0.080614
      3         11           0        1.060158   -1.108560   -0.942162
      4         11           0        0.907517   -0.160792    1.766037
      5         11           0        2.378747    2.274686   -0.998505
      6         11           0        4.175260   -1.012241    0.655425
      7         11           0       -2.278354   -1.644243   -1.214990
 ---------------------------------------------------------------------

 SCF Done:  E(UB3LYP) =  -1136.10648467     A.U. after   29 cycles

 The electronic state is 2-A.
 Alpha  occ. eigenvalues --  -38.46588 -38.44635 -38.44039 -38.43808 -38.43734
 Alpha  occ. eigenvalues --  -38.43719 -38.43226  -2.22457  -2.20448  -2.19887
 Alpha  occ. eigenvalues --   -2.19696  -2.19585  -2.19555  -2.19120  -1.16234
 Alpha  occ. eigenvalues --   -1.16084  -1.16042  -1.14093  -1.14091  -1.14053
 Alpha  occ. eigenvalues --   -1.13589  -1.13546  -1.13518  -1.13468  -1.13317
 Alpha  occ. eigenvalues --   -1.13294  -1.13274  -1.13237  -1.13222  -1.13199
 Alpha  occ. eigenvalues --   -1.13198  -1.13169  -1.12857  -1.12819  -1.12695
 Alpha  occ. eigenvalues --   -0.18241  -0.14530  -0.11289  -0.10452
 Alpha virt. eigenvalues --   -0.07717  -0.05009  -0.04878  -0.03381  -0.02908
 Alpha virt. eigenvalues --   -0.02190  -0.01871  -0.01617  -0.01414  -0.00744
 Alpha virt. eigenvalues --   -0.00108   0.00152   0.00201   0.00549   0.00627

  Beta  occ. eigenvalues --  -38.46589 -38.44542 -38.44012 -38.43797 -38.43693
  Beta  occ. eigenvalues --  -38.43681 -38.43225  -2.22460  -2.20275  -2.19845
  Beta  occ. eigenvalues --   -2.19633  -2.19566  -2.19477  -2.19123  -1.16229
  Beta  occ. eigenvalues --   -1.16078  -1.16051  -1.13974  -1.13970  -1.13943
  Beta  occ. eigenvalues --   -1.13554  -1.13521  -1.13459  -1.13433  -1.13279
  Beta  occ. eigenvalues --   -1.13249  -1.13225  -1.13216  -1.13185  -1.13166
  Beta  occ. eigenvalues --   -1.13142  -1.13120  -1.12866  -1.12795  -1.12689
  Beta  occ. eigenvalues --   -0.17686  -0.13849  -0.10251
  Beta virt. eigenvalues --   -0.07648  -0.07558  -0.04761  -0.04316  -0.03114
  Beta virt. eigenvalues --   -0.02647  -0.01968  -0.01417  -0.01281  -0.01095
  Beta virt. eigenvalues --   -0.00446   0.00022   0.00242   0.00329   0.00619

 Mulliken charges and spin densities:
               1          2
     1  Na   0.732876   0.404570
     2  Na  -0.697739   0.117991
     3  Na  -0.241949   0.209884
     4  Na   0.100811  -0.033979
     5  Na  -0.213896   0.089807
     6  Na   0.509810   0.269522
     7  Na  -0.189913  -0.057795
 Sum of Mulliken charges =  -0.00000   1.00000

 Dipole moment (field-independent basis, Debye):
    X=             -0.0583    Y=             -0.0041    Z=              0.4139  Tot=              0.4180
 Quadrupole moment (field-independent basis, Debye-Ang):
   XX=            -57.1209   YY=            -81.3607   ZZ=            -62.4175
   XY=              4.7777   XZ=             -3.1266   YZ=              1.3614

 Normal termination of Gaussian 16 at Thu Dec  7 22:31:23 2023.
