 Gaussian 16, Revision B.01,
 Gaussian 16:  ES64L-G16RevB.01 20-Dec-2017

 -------------------------
 #P B3LYP/6-311+g(d) force
 -------------------------

 -----
 DPGEN
 -----
 Symbolic Z-matrix:
 Charge =  0 Multiplicity = 2

                         Standard orientation:
 ---------------------------------------------------------------------
 Center     Atomic      Atomic             Coordinates (Angstroms)
 Number     Number       Type             X           Y           Z
 ---------------------------------------------------------------------
      1         11           0        3.256926    1.739792    0.823734
      2         11           0       -1.830527   -2.042546   -0.471086
      3         11           0       -2.522407    1.856438   -0.767099
      4         11           0        0.908210   -2.886495   -1.696336
      5         11           0        0.388701    3.371818   -0.982692
      6         11           0       -3.229753   -0.441655    2.065508
      7         11           0        3.028850   -1.597351    1.027971
 ---------------------------------------------------------------------

 SCF Done:  E(UB3LYP) =  -1136.11598391     A.U. after   18 cycles

 The electronic state is 2-A.
 Alpha  occ. eigenvalues --  -38.44684 -38.44612 -38.44451 -38.44324 -38.44179
 Alpha  occ. eigenvalues --  -38.43839 -38.43833  -2.20456  -2.20404  -2.20271
 Alpha  occ. eigenvalues --   -2.20098  -2.20021  -2.19663  -2.19627  -1.14134
 Alpha  occ. eigenvalues --   -1.14127  -1.14091  -1.14088  -1.14084  -1.14026
 Alpha  occ. eigenvalues --   -1.13936  -1.13911  -1.13882  -1.13772  -1.13759
 Alpha  occ. eigenvalues --   -1.13728  -1.13723  -1.13694  -1.13661  -1.13321
 Alpha  occ. eigenvalues --   -1.13302  -1.13293  -1.13292  -1.13277  -1.13257
 Alpha  occ. eigenvalues --   -0.16193  -0.13641  -0.13060  -0.11056
 Alpha virt. eigenvalues --   -0.06592  -0.05423  -0.04369  -0.03637  -0.03296
 Alpha virt. eigenvalues --   -0.02356  -0.01430  -0.01310  -0.01087  -0.00978
 Alpha virt. eigenvalues --   -0.00558  -0.00278   0.00098   0.00589   0.00641

  Beta  occ. eigenvalues --  -38.44666 -38.44594 -38.44375 -38.44303 -38.44160
  Beta  occ. eigenvalues --  -38.43810 -38.43783  -2.20428  -2.20374  -2.20131
  Beta  occ. eigenvalues --   -2.20061  -2.19993  -2.19576  -2.19571  -1.14117
  Beta  occ. eigenvalues --   -1.14107  -1.14072  -1.14065  -1.14053  -1.13979
  Beta  occ. eigenvalues --   -1.13840  -1.13815  -1.13792  -1.13747  -1.13735
  Beta  occ. eigenvalues --   -1.13694  -1.13685  -1.13681  -1.13613  -1.13259
  Beta  occ. eigenvalues --   -1.13255  -1.13253  -1.13241  -1.13219  -1.13218
  Beta  occ. eigenvalues --   -0.15652  -0.13017  -0.12416
  Beta virt. eigenvalues --   -0.07791  -0.06653  -0.04942  -0.03982  -0.03395
  Beta virt. eigenvalues --   -0.03015  -0.01895  -0.01331  -0.01111  -0.00899
  Beta virt. eigenvalues --   -0.00750  -0.00288  -0.00064   0.00326   0.00633

 Mulliken charges and spin densities:
               1          2
     1  Na  -0.007815   0.090998
     2  Na  -0.455913   0.141123
     3  Na   0.000026   0.090990
     4  Na   0.174436   0.179928
     5  Na  -0.021913   0.075876
     6  Na   0.416180   0.348937
     7  Na  -0.105000   0.072148
 Sum of Mulliken charges =  -0.00000   1.00000

 Dipole moment (field-independent basis, Debye):
    X=             -0.1885    Y=             -0.1263    Z=              0.5151  Tot=              0.5628
 Quadrupole moment (field-independent basis, Debye-Ang):
   XX=            -64.9119   YY=            -69.2676   ZZ=            -66.3371
   XY=             -1.3718   XZ=             -0.7853   YZ=             -0.5571

 Normal termination of Gaussian 16 at Mon Dec  4 02:23:35 2023.
