 Gaussian 16, Revision B.01,
 Gaussian 16:  ES64L-G16RevB.01 20-Dec-2017

 -------------------------
 #P B3LYP/6-311+g(d) force
 -------------------------

 -----
 DPGEN
 -----
 Symbolic Z-matrix:
 Charge =  0 Multiplicity = 2

                         Standard orientation:
 ---------------------------------------------------------------------
 Center     Atomic      Atomic             Coordinates (Angstroms)
 Number     Number       Type             X           Y           Z
 ---------------------------------------------------------------------
      1         11           0        0.984248   -0.142463   -1.327611
      2         11           0       -1.341051   -1.848964   -1.005149
      3         11           0        2.656132   -1.545401    0.443200
      4         11           0        0.360901   -0.125747    1.442689
      5         11           0       -2.565935   -0.193586    1.260506
      6         11           0       -1.360770    1.358694   -0.961350
      7         11           0        1.266474    2.497468    0.147714
 ---------------------------------------------------------------------

 SCF Done:  E(UB3LYP) =  -1136.09920281     A.U. after   21 cycles

 The electronic state is 2-A.
 Alpha  occ. eigenvalues --  -38.44171 -38.43892 -38.43599 -38.43579 -38.43500
 Alpha  occ. eigenvalues --  -38.43208 -38.43036  -2.20168  -2.19892  -2.19827
 Alpha  occ. eigenvalues --   -2.19733  -2.19606  -2.19342  -2.19001  -1.13952
 Alpha  occ. eigenvalues --   -1.13876  -1.13830  -1.13810  -1.13782  -1.13593
 Alpha  occ. eigenvalues --   -1.13589  -1.13407  -1.13386  -1.13319  -1.13296
 Alpha  occ. eigenvalues --   -1.13266  -1.13255  -1.13226  -1.13180  -1.13009
 Alpha  occ. eigenvalues --   -1.12974  -1.12931  -1.12675  -1.12649  -1.12592
 Alpha  occ. eigenvalues --   -0.20602  -0.13657  -0.12291  -0.12069
 Alpha virt. eigenvalues --   -0.05240  -0.04511  -0.03956  -0.03443  -0.02868
 Alpha virt. eigenvalues --   -0.02814  -0.01199  -0.00808  -0.00299   0.00343
 Alpha virt. eigenvalues --    0.00677   0.00766   0.00900   0.00945   0.01040

  Beta  occ. eigenvalues --  -38.44130 -38.43886 -38.43564 -38.43517 -38.43434
  Beta  occ. eigenvalues --  -38.43175 -38.43033  -2.20094  -2.19834  -2.19770
  Beta  occ. eigenvalues --   -2.19616  -2.19546  -2.19288  -2.18998  -1.13891
  Beta  occ. eigenvalues --   -1.13824  -1.13769  -1.13744  -1.13728  -1.13551
  Beta  occ. eigenvalues --   -1.13511  -1.13390  -1.13343  -1.13242  -1.13222
  Beta  occ. eigenvalues --   -1.13212  -1.13183  -1.13147  -1.13143  -1.12971
  Beta  occ. eigenvalues --   -1.12912  -1.12881  -1.12671  -1.12624  -1.12590
  Beta  occ. eigenvalues --   -0.19796  -0.13421  -0.12046
  Beta virt. eigenvalues --   -0.07760  -0.05166  -0.04469  -0.03507  -0.03083
  Beta virt. eigenvalues --   -0.02120  -0.01739  -0.01090  -0.00772  -0.00034
  Beta virt. eigenvalues --    0.00373   0.00689   0.00828   0.00903   0.01037

 Mulliken charges and spin densities:
               1          2
     1  Na  -0.524447  -0.070951
     2  Na  -0.247659   0.192418
     3  Na   0.319239   0.095462
     4  Na  -0.722231   0.464498
     5  Na   0.957633  -0.004619
     6  Na   0.028988   0.308194
     7  Na   0.188477   0.014999
 Sum of Mulliken charges =  -0.00000   1.00000

 Dipole moment (field-independent basis, Debye):
    X=             -0.1488    Y=             -0.1346    Z=              0.2876  Tot=              0.3507
 Quadrupole moment (field-independent basis, Debye-Ang):
   XX=            -58.5081   YY=            -67.4633   ZZ=            -68.0471
   XY=              0.5823   XZ=              0.2059   YZ=              1.0580

 Normal termination of Gaussian 16 at Fri Dec  8 18:18:40 2023.
