 Gaussian 16, Revision B.01,
 Gaussian 16:  ES64L-G16RevB.01 20-Dec-2017

 -------------------------
 #P B3LYP/6-311+g(d) force
 -------------------------

 -----
 DPGEN
 -----
 Symbolic Z-matrix:
 Charge =  0 Multiplicity = 2

                         Standard orientation:
 ---------------------------------------------------------------------
 Center     Atomic      Atomic             Coordinates (Angstroms)
 Number     Number       Type             X           Y           Z
 ---------------------------------------------------------------------
      1         11           0       -1.250016   -1.343957   -1.400260
      2         11           0        1.124436    2.096374   -1.145414
      3         11           0       -1.862900    2.073321   -0.141490
      4         11           0       -3.566201   -0.954063    0.797587
      5         11           0        2.285723   -1.919908   -0.819458
      6         11           0        3.202656    0.257618    1.215365
      7         11           0        0.066302   -0.209386    1.493670
 ---------------------------------------------------------------------

 SCF Done:  E(UB3LYP) =  -1136.12828763     A.U. after   21 cycles

 The electronic state is 2-A.
 Alpha  occ. eigenvalues --  -38.44338 -38.44316 -38.44239 -38.43822 -38.43656
 Alpha  occ. eigenvalues --  -38.43219 -38.42868  -2.20209  -2.20176  -2.20171
 Alpha  occ. eigenvalues --   -2.19675  -2.19547  -2.19104  -2.18730  -1.13936
 Alpha  occ. eigenvalues --   -1.13891  -1.13870  -1.13847  -1.13831  -1.13825
 Alpha  occ. eigenvalues --   -1.13811  -1.13807  -1.13758  -1.13336  -1.13328
 Alpha  occ. eigenvalues --   -1.13323  -1.13238  -1.13182  -1.13168  -1.12803
 Alpha  occ. eigenvalues --   -1.12781  -1.12729  -1.12397  -1.12377  -1.12365
 Alpha  occ. eigenvalues --   -0.18582  -0.14185  -0.11536  -0.10927
 Alpha virt. eigenvalues --   -0.06414  -0.05283  -0.04603  -0.03374  -0.02701
 Alpha virt. eigenvalues --   -0.02360  -0.02104  -0.00969  -0.00735  -0.00166
 Alpha virt. eigenvalues --    0.00193   0.00329   0.00415   0.00681   0.00749

  Beta  occ. eigenvalues --  -38.44322 -38.44280 -38.44200 -38.43801 -38.43610
  Beta  occ. eigenvalues --  -38.43216 -38.42848  -2.20144  -2.20141  -2.20104
  Beta  occ. eigenvalues --   -2.19639  -2.19464  -2.19100  -2.18694  -1.13881
  Beta  occ. eigenvalues --   -1.13836  -1.13827  -1.13813  -1.13806  -1.13785
  Beta  occ. eigenvalues --   -1.13783  -1.13766  -1.13708  -1.13310  -1.13308
  Beta  occ. eigenvalues --   -1.13273  -1.13186  -1.13121  -1.13094  -1.12801
  Beta  occ. eigenvalues --   -1.12760  -1.12727  -1.12372  -1.12345  -1.12338
  Beta  occ. eigenvalues --   -0.17921  -0.13943  -0.11240
  Beta virt. eigenvalues --   -0.07196  -0.06209  -0.05232  -0.03967  -0.03163
  Beta virt. eigenvalues --   -0.02234  -0.02024  -0.01381  -0.00870  -0.00372
  Beta virt. eigenvalues --   -0.00103   0.00238   0.00375   0.00528   0.00762

 Mulliken charges and spin densities:
               1          2
     1  Na  -0.328283   0.236570
     2  Na  -0.498342   0.158141
     3  Na   0.112196   0.052756
     4  Na   0.982538   0.078252
     5  Na  -0.296471   0.155084
     6  Na   1.270660   0.103509
     7  Na  -1.242298   0.215688
 Sum of Mulliken charges =  -0.00000   1.00000

 Dipole moment (field-independent basis, Debye):
    X=             -0.1404    Y=             -0.1202    Z=              0.1542  Tot=              0.2407
 Quadrupole moment (field-independent basis, Debye-Ang):
   XX=            -49.7412   YY=            -75.1130   ZZ=            -69.8503
   XY=              0.5783   XZ=             -1.8497   YZ=              1.0068

 Normal termination of Gaussian 16 at Wed Nov 29 17:20:47 2023.
