 Gaussian 16, Revision B.01,
 Gaussian 16:  ES64L-G16RevB.01 20-Dec-2017

 -------------------------
 #P B3LYP/6-311+g(d) force
 -------------------------

 -----
 DPGEN
 -----
 Symbolic Z-matrix:
 Charge =  0 Multiplicity = 2

                         Standard orientation:
 ---------------------------------------------------------------------
 Center     Atomic      Atomic             Coordinates (Angstroms)
 Number     Number       Type             X           Y           Z
 ---------------------------------------------------------------------
      1         11           0       -0.682791    1.603899   -0.411998
      2         11           0        1.950885    3.339119    0.487335
      3         11           0        3.137865    0.371051   -0.548891
      4         11           0        0.329441   -1.474158   -0.768465
      5         11           0       -3.082970   -1.150253   -0.606616
      6         11           0        3.880629   -2.605355    0.966879
      7         11           0       -5.533059   -0.084303    0.881756
 ---------------------------------------------------------------------

 SCF Done:  E(UB3LYP) =  -1136.12264019     A.U. after   20 cycles

 The electronic state is 2-A.
 Alpha  occ. eigenvalues --  -38.44661 -38.44248 -38.44184 -38.44042 -38.44037
 Alpha  occ. eigenvalues --  -38.43563 -38.43396  -2.20495  -2.20104  -2.20064
 Alpha  occ. eigenvalues --   -2.19905  -2.19811  -2.19430  -2.19231  -1.14158
 Alpha  occ. eigenvalues --   -1.14115  -1.14111  -1.13850  -1.13796  -1.13752
 Alpha  occ. eigenvalues --   -1.13731  -1.13703  -1.13647  -1.13609  -1.13583
 Alpha  occ. eigenvalues --   -1.13514  -1.13477  -1.13466  -1.13415  -1.13117
 Alpha  occ. eigenvalues --   -1.13099  -1.13081  -1.12896  -1.12883  -1.12863
 Alpha  occ. eigenvalues --   -0.17194  -0.14302  -0.12069  -0.11443
 Alpha virt. eigenvalues --   -0.05927  -0.05353  -0.04518  -0.03902  -0.02596
 Alpha virt. eigenvalues --   -0.02408  -0.02224  -0.01504  -0.00847  -0.00682
 Alpha virt. eigenvalues --   -0.00438  -0.00023   0.00190   0.00489   0.00737

  Beta  occ. eigenvalues --  -38.44559 -38.44235 -38.44127 -38.44028 -38.44017
  Beta  occ. eigenvalues --  -38.43555 -38.43379  -2.20307  -2.20083  -2.19962
  Beta  occ. eigenvalues --   -2.19878  -2.19773  -2.19427  -2.19199  -1.14034
  Beta  occ. eigenvalues --   -1.13987  -1.13983  -1.13809  -1.13781  -1.13701
  Beta  occ. eigenvalues --   -1.13688  -1.13665  -1.13591  -1.13578  -1.13534
  Beta  occ. eigenvalues --   -1.13488  -1.13451  -1.13439  -1.13393  -1.13108
  Beta  occ. eigenvalues --   -1.13106  -1.13014  -1.12870  -1.12862  -1.12845
  Beta  occ. eigenvalues --   -0.16570  -0.13455  -0.11905
  Beta virt. eigenvalues --   -0.07923  -0.05746  -0.04941  -0.04178  -0.03650
  Beta virt. eigenvalues --   -0.02360  -0.02138  -0.01712  -0.01225  -0.00742
  Beta virt. eigenvalues --   -0.00415  -0.00117   0.00144   0.00345   0.00572

 Mulliken charges and spin densities:
               1          2
     1  Na  -0.595214  -0.069125
     2  Na   0.500226   0.067218
     3  Na  -0.240276   0.300341
     4  Na  -0.147927   0.041458
     5  Na  -0.329387   0.080935
     6  Na   0.550891   0.185127
     7  Na   0.261687   0.394047
 Sum of Mulliken charges =  -0.00000   1.00000

 Dipole moment (field-independent basis, Debye):
    X=              0.0375    Y=              0.1018    Z=              0.5174  Tot=              0.5286
 Quadrupole moment (field-independent basis, Debye-Ang):
   XX=            -62.2385   YY=            -65.7553   ZZ=            -68.9105
   XY=             -2.1237   XZ=              0.2535   YZ=              0.0345

 Normal termination of Gaussian 16 at Wed Nov 29 00:06:54 2023.
