 Gaussian 16, Revision B.01,
 Gaussian 16:  ES64L-G16RevB.01 20-Dec-2017

 -------------------------
 #P B3LYP/6-311+g(d) force
 -------------------------

 -----
 DPGEN
 -----
 Symbolic Z-matrix:
 Charge =  0 Multiplicity = 2

                         Standard orientation:
 ---------------------------------------------------------------------
 Center     Atomic      Atomic             Coordinates (Angstroms)
 Number     Number       Type             X           Y           Z
 ---------------------------------------------------------------------
      1         11           0       -1.862932    2.704348   -0.049230
      2         11           0        2.596464   -1.642257   -0.522091
      3         11           0       -0.887352   -2.693939    0.556999
      4         11           0        0.350735    0.336655    1.682399
      5         11           0        0.109746   -0.133316   -1.142500
      6         11           0       -3.290698   -0.405665   -0.456081
      7         11           0        2.984038    1.834173   -0.069497
 ---------------------------------------------------------------------

 SCF Done:  E(UB3LYP) =  -1136.12643614     A.U. after   21 cycles

 The electronic state is 2-A.
 Alpha  occ. eigenvalues --  -38.44547 -38.44240 -38.44002 -38.43786 -38.43388
 Alpha  occ. eigenvalues --  -38.42982 -38.42957  -2.20347  -2.20073  -2.19887
 Alpha  occ. eigenvalues --   -2.19586  -2.19468  -2.18963  -2.18836  -1.14023
 Alpha  occ. eigenvalues --   -1.13998  -1.13993  -1.13749  -1.13724  -1.13711
 Alpha  occ. eigenvalues --   -1.13652  -1.13528  -1.13484  -1.13301  -1.13262
 Alpha  occ. eigenvalues --   -1.13245  -1.13228  -1.13081  -1.13063  -1.12662
 Alpha  occ. eigenvalues --   -1.12560  -1.12552  -1.12507  -1.12482  -1.12470
 Alpha  occ. eigenvalues --   -0.18670  -0.13601  -0.12097  -0.10034
 Alpha virt. eigenvalues --   -0.06252  -0.05518  -0.04420  -0.03076  -0.02524
 Alpha virt. eigenvalues --   -0.02091  -0.01676  -0.01422  -0.00733  -0.00359
 Alpha virt. eigenvalues --    0.00044   0.00270   0.00674   0.00710   0.00867

  Beta  occ. eigenvalues --  -38.44543 -38.44223 -38.43975 -38.43786 -38.43358
  Beta  occ. eigenvalues --  -38.42942 -38.42892  -2.20344  -2.20042  -2.19840
  Beta  occ. eigenvalues --   -2.19589  -2.19419  -2.18813  -2.18798  -1.14017
  Beta  occ. eigenvalues --   -1.13997  -1.13976  -1.13722  -1.13700  -1.13690
  Beta  occ. eigenvalues --   -1.13618  -1.13483  -1.13447  -1.13262  -1.13253
  Beta  occ. eigenvalues --   -1.13224  -1.13216  -1.13051  -1.13028  -1.12556
  Beta  occ. eigenvalues --   -1.12504  -1.12461  -1.12455  -1.12443  -1.12401
  Beta  occ. eigenvalues --   -0.18011  -0.13246  -0.11881
  Beta virt. eigenvalues --   -0.06354  -0.06156  -0.05332  -0.04372  -0.02417
  Beta virt. eigenvalues --   -0.01984  -0.01824  -0.01397  -0.00842  -0.00670
  Beta virt. eigenvalues --   -0.00303   0.00171   0.00353   0.00720   0.00767

 Mulliken charges and spin densities:
               1          2
     1  Na   0.010475   0.040410
     2  Na   0.352685   0.243428
     3  Na   0.059639   0.140551
     4  Na   0.035321   0.471404
     5  Na  -0.648381  -0.023249
     6  Na   0.140336   0.099457
     7  Na   0.049925   0.027998
 Sum of Mulliken charges =  -0.00000   1.00000

 Dipole moment (field-independent basis, Debye):
    X=              0.3025    Y=              0.3213    Z=              0.2436  Tot=              0.5041
 Quadrupole moment (field-independent basis, Debye-Ang):
   XX=            -52.8332   YY=            -60.8812   ZZ=            -76.8037
   XY=              2.2285   XZ=             -0.1654   YZ=             -1.0726

 Normal termination of Gaussian 16 at Tue Dec  5 15:16:01 2023.
