 Gaussian 16, Revision B.01,
 Gaussian 16:  ES64L-G16RevB.01 20-Dec-2017

 -------------------------
 #P B3LYP/6-311+g(d) force
 -------------------------

 -----
 DPGEN
 -----
 Symbolic Z-matrix:
 Charge =  0 Multiplicity = 2

                         Standard orientation:
 ---------------------------------------------------------------------
 Center     Atomic      Atomic             Coordinates (Angstroms)
 Number     Number       Type             X           Y           Z
 ---------------------------------------------------------------------
      1         11           0       -2.903969    1.000616   -0.991541
      2         11           0       -0.517874    3.263517    0.924805
      3         11           0        0.260326    0.136287   -1.670869
      4         11           0        3.573155   -1.698484   -0.661061
      5         11           0        2.848659    1.283452    0.455336
      6         11           0       -0.417025   -1.796331    1.906191
      7         11           0       -2.843273   -2.189057    0.037139
 ---------------------------------------------------------------------

 SCF Done:  E(UB3LYP) =  -1136.12103125     A.U. after   20 cycles

 The electronic state is 2-A.
 Alpha  occ. eigenvalues --  -38.44819 -38.44535 -38.44452 -38.44103 -38.44017
 Alpha  occ. eigenvalues --  -38.43775 -38.43441  -2.20637  -2.20349  -2.20245
 Alpha  occ. eigenvalues --   -2.19922  -2.19856  -2.19614  -2.19209  -1.14331
 Alpha  occ. eigenvalues --   -1.14295  -1.14261  -1.14033  -1.14027  -1.14000
 Alpha  occ. eigenvalues --   -1.13903  -1.13895  -1.13858  -1.13611  -1.13560
 Alpha  occ. eigenvalues --   -1.13551  -1.13535  -1.13514  -1.13479  -1.13277
 Alpha  occ. eigenvalues --   -1.13270  -1.13249  -1.12884  -1.12859  -1.12842
 Alpha  occ. eigenvalues --   -0.17209  -0.13739  -0.12003  -0.10603
 Alpha virt. eigenvalues --   -0.06330  -0.05719  -0.04687  -0.03425  -0.03251
 Alpha virt. eigenvalues --   -0.02215  -0.02113  -0.01428  -0.00922  -0.00309
 Alpha virt. eigenvalues --   -0.00138   0.00164   0.00301   0.00526   0.00697

  Beta  occ. eigenvalues --  -38.44782 -38.44525 -38.44436 -38.44034 -38.43985
  Beta  occ. eigenvalues --  -38.43780 -38.43412  -2.20570  -2.20332  -2.20216
  Beta  occ. eigenvalues --   -2.19798  -2.19795  -2.19628  -2.19156  -1.14282
  Beta  occ. eigenvalues --   -1.14250  -1.14208  -1.14021  -1.14018  -1.13972
  Beta  occ. eigenvalues --   -1.13879  -1.13873  -1.13837  -1.13536  -1.13486
  Beta  occ. eigenvalues --   -1.13481  -1.13471  -1.13462  -1.13442  -1.13291
  Beta  occ. eigenvalues --   -1.13266  -1.13231  -1.12847  -1.12816  -1.12808
  Beta  occ. eigenvalues --   -0.16666  -0.13466  -0.11538
  Beta virt. eigenvalues --   -0.07211  -0.06107  -0.05605  -0.04236  -0.02933
  Beta virt. eigenvalues --   -0.02760  -0.02057  -0.01595  -0.01316  -0.00715
  Beta virt. eigenvalues --   -0.00270   0.00044   0.00267   0.00492   0.00618

 Mulliken charges and spin densities:
               1          2
     1  Na   0.466295   0.159488
     2  Na  -0.247510   0.167776
     3  Na  -0.189320   0.102018
     4  Na   0.344706   0.029025
     5  Na  -0.142810   0.179323
     6  Na  -0.323504   0.405722
     7  Na   0.092143  -0.043352
 Sum of Mulliken charges =  -0.00000   1.00000

 Dipole moment (field-independent basis, Debye):
    X=              0.5864    Y=             -0.4700    Z=             -0.2156  Tot=              0.7818
 Quadrupole moment (field-independent basis, Debye-Ang):
   XX=            -55.4343   YY=            -69.8621   ZZ=            -72.3893
   XY=             -2.5897   XZ=              1.9550   YZ=              3.6674

 Normal termination of Gaussian 16 at Sun Dec  3 14:59:47 2023.
