 Gaussian 16, Revision B.01,
 Gaussian 16:  ES64L-G16RevB.01 20-Dec-2017

 -------------------------
 #P B3LYP/6-311+g(d) force
 -------------------------

 -----
 DPGEN
 -----
 Symbolic Z-matrix:
 Charge =  0 Multiplicity = 2

                         Standard orientation:
 ---------------------------------------------------------------------
 Center     Atomic      Atomic             Coordinates (Angstroms)
 Number     Number       Type             X           Y           Z
 ---------------------------------------------------------------------
      1         11           0       -0.052460   -0.422042    2.013508
      2         11           0       -2.450685    1.563290   -0.229182
      3         11           0        1.594524   -2.898354   -0.165048
      4         11           0       -0.003697    0.108471   -1.495488
      5         11           0       -2.938664   -1.765178   -0.106796
      6         11           0        0.881490    3.301559    0.221148
      7         11           0        2.969492    0.112254   -0.238141
 ---------------------------------------------------------------------

 SCF Done:  E(UB3LYP) =  -1136.13369421     A.U. after   20 cycles

 The electronic state is 2-A.
 Alpha  occ. eigenvalues --  -38.44139 -38.43982 -38.43969 -38.43871 -38.43654
 Alpha  occ. eigenvalues --  -38.43431 -38.43243  -2.19934  -2.19826  -2.19796
 Alpha  occ. eigenvalues --   -2.19737  -2.19432  -2.19294  -2.19210  -1.13605
 Alpha  occ. eigenvalues --   -1.13598  -1.13583  -1.13543  -1.13500  -1.13478
 Alpha  occ. eigenvalues --   -1.13468  -1.13460  -1.13446  -1.13399  -1.13395
 Alpha  occ. eigenvalues --   -1.13335  -1.13102  -1.13092  -1.13077  -1.12977
 Alpha  occ. eigenvalues --   -1.12914  -1.12910  -1.12894  -1.12861  -1.12812
 Alpha  occ. eigenvalues --   -0.18238  -0.13188  -0.12208  -0.10285
 Alpha virt. eigenvalues --   -0.05679  -0.05392  -0.05147  -0.03108  -0.02697
 Alpha virt. eigenvalues --   -0.02222  -0.01641  -0.01521  -0.00695  -0.00501
 Alpha virt. eigenvalues --   -0.00009   0.00320   0.00757   0.00778   0.00797

  Beta  occ. eigenvalues --  -38.44139 -38.43979 -38.43959 -38.43862 -38.43653
  Beta  occ. eigenvalues --  -38.43334 -38.43189  -2.19936  -2.19813  -2.19794
  Beta  occ. eigenvalues --   -2.19723  -2.19432  -2.19116  -2.19112  -1.13607
  Beta  occ. eigenvalues --   -1.13590  -1.13577  -1.13532  -1.13491  -1.13454
  Beta  occ. eigenvalues --   -1.13453  -1.13451  -1.13432  -1.13395  -1.13367
  Beta  occ. eigenvalues --   -1.13330  -1.13094  -1.13089  -1.13077  -1.12866
  Beta  occ. eigenvalues --   -1.12810  -1.12791  -1.12786  -1.12782  -1.12745
  Beta  occ. eigenvalues --   -0.17539  -0.12932  -0.12038
  Beta virt. eigenvalues --   -0.06423  -0.05676  -0.05293  -0.05111  -0.02332
  Beta virt. eigenvalues --   -0.02022  -0.01556  -0.01427  -0.01223  -0.00736
  Beta virt. eigenvalues --   -0.00523   0.00149   0.00360   0.00776   0.00789

 Mulliken charges and spin densities:
               1          2
     1  Na  -0.467461   0.818718
     2  Na   0.215472   0.029800
     3  Na   0.102089  -0.084704
     4  Na  -0.052985   0.301208
     5  Na   0.068104  -0.089396
     6  Na  -0.071628  -0.010439
     7  Na   0.206410   0.034812
 Sum of Mulliken charges =  -0.00000   1.00000

 Dipole moment (field-independent basis, Debye):
    X=             -0.0764    Y=             -0.3620    Z=              0.0574  Tot=              0.3744
 Quadrupole moment (field-independent basis, Debye-Ang):
   XX=            -57.7748   YY=            -57.3162   ZZ=            -77.0864
   XY=              1.0345   XZ=              0.1656   YZ=              1.4193

 Normal termination of Gaussian 16 at Fri Dec  8 02:07:44 2023.
