 Gaussian 16, Revision B.01,
 Gaussian 16:  ES64L-G16RevB.01 20-Dec-2017

 -------------------------
 #P B3LYP/6-311+g(d) force
 -------------------------

 -----
 DPGEN
 -----
 Symbolic Z-matrix:
 Charge =  0 Multiplicity = 2

                         Standard orientation:
 ---------------------------------------------------------------------
 Center     Atomic      Atomic             Coordinates (Angstroms)
 Number     Number       Type             X           Y           Z
 ---------------------------------------------------------------------
      1         11           0        0.059675    1.297928   -0.158448
      2         11           0        0.543247   -1.512243    1.851009
      3         11           0        2.769240    2.020174    0.452767
      4         11           0        2.557709   -0.869208   -0.885572
      5         11           0       -0.428477   -1.862804   -1.736381
      6         11           0       -2.404761   -0.805499    1.079742
      7         11           0       -3.096634    1.731653   -0.603117
 ---------------------------------------------------------------------

 SCF Done:  E(UB3LYP) =  -1136.12483973     A.U. after   20 cycles

 The electronic state is 2-A.
 Alpha  occ. eigenvalues --  -38.44045 -38.43867 -38.43801 -38.43677 -38.43668
 Alpha  occ. eigenvalues --  -38.43643 -38.43055  -2.19973  -2.19803  -2.19654
 Alpha  occ. eigenvalues --   -2.19560  -2.19556  -2.19550  -2.19088  -1.13670
 Alpha  occ. eigenvalues --   -1.13642  -1.13609  -1.13535  -1.13492  -1.13444
 Alpha  occ. eigenvalues --   -1.13354  -1.13315  -1.13289  -1.13276  -1.13236
 Alpha  occ. eigenvalues --   -1.13226  -1.13191  -1.13186  -1.13183  -1.13171
 Alpha  occ. eigenvalues --   -1.13165  -1.13138  -1.12773  -1.12743  -1.12692
 Alpha  occ. eigenvalues --   -0.18922  -0.13866  -0.11911  -0.11379
 Alpha virt. eigenvalues --   -0.05842  -0.05368  -0.04130  -0.03583  -0.02892
 Alpha virt. eigenvalues --   -0.02369  -0.01820  -0.00948  -0.00532   0.00012
 Alpha virt. eigenvalues --    0.00162   0.00316   0.00536   0.00709   0.00875

  Beta  occ. eigenvalues --  -38.44023 -38.43839 -38.43794 -38.43665 -38.43616
  Beta  occ. eigenvalues --  -38.43575 -38.43040  -2.19935  -2.19756  -2.19642
  Beta  occ. eigenvalues --   -2.19555  -2.19443  -2.19428  -2.19066  -1.13641
  Beta  occ. eigenvalues --   -1.13601  -1.13580  -1.13479  -1.13464  -1.13411
  Beta  occ. eigenvalues --   -1.13347  -1.13306  -1.13276  -1.13259  -1.13185
  Beta  occ. eigenvalues --   -1.13165  -1.13156  -1.13141  -1.13104  -1.13091
  Beta  occ. eigenvalues --   -1.13088  -1.13057  -1.12739  -1.12713  -1.12682
  Beta  occ. eigenvalues --   -0.18228  -0.13686  -0.11633
  Beta virt. eigenvalues --   -0.07345  -0.05734  -0.05263  -0.03758  -0.03014
  Beta virt. eigenvalues --   -0.02316  -0.01770  -0.01597  -0.00812  -0.00222
  Beta virt. eigenvalues --    0.00086   0.00206   0.00359   0.00658   0.00746

 Mulliken charges and spin densities:
               1          2
     1  Na  -1.278007   0.259956
     2  Na  -0.075658   0.308532
     3  Na   0.056879  -0.030793
     4  Na   0.464867   0.124620
     5  Na  -0.149404   0.288457
     6  Na   0.351150   0.077538
     7  Na   0.630173  -0.028311
 Sum of Mulliken charges =  -0.00000   1.00000

 Dipole moment (field-independent basis, Debye):
    X=              0.0436    Y=             -0.4133    Z=             -0.0722  Tot=              0.4218
 Quadrupole moment (field-independent basis, Debye-Ang):
   XX=            -54.2279   YY=            -71.0565   ZZ=            -69.2669
   XY=             -0.2660   XZ=              1.8288   YZ=              0.3066

 Normal termination of Gaussian 16 at Tue Dec  5 12:49:08 2023.
