 Gaussian 16, Revision B.01,
 Gaussian 16:  ES64L-G16RevB.01 20-Dec-2017

 -------------------------
 #P B3LYP/6-311+g(d) force
 -------------------------

 -----
 DPGEN
 -----
 Symbolic Z-matrix:
 Charge =  0 Multiplicity = 2

                         Standard orientation:
 ---------------------------------------------------------------------
 Center     Atomic      Atomic             Coordinates (Angstroms)
 Number     Number       Type             X           Y           Z
 ---------------------------------------------------------------------
      1         11           0       -1.778157   -2.273977   -0.146627
      2         11           0       -3.049613    0.633003    0.036571
      3         11           0       -0.077173    2.841156    0.226204
      4         11           0       -0.176859    0.456733   -1.865131
      5         11           0        0.123159   -0.015072    1.962527
      6         11           0        1.660715   -2.200998   -0.000576
      7         11           0        3.297928    0.559154   -0.212968
 ---------------------------------------------------------------------

 SCF Done:  E(UB3LYP) =  -1136.13664790     A.U. after   19 cycles

 The electronic state is 2-A.
 Alpha  occ. eigenvalues --  -38.44490 -38.44250 -38.43557 -38.43554 -38.43203
 Alpha  occ. eigenvalues --  -38.43176 -38.43128  -2.20294  -2.20104  -2.19485
 Alpha  occ. eigenvalues --   -2.19475  -2.19091  -2.19038  -2.19005  -1.13974
 Alpha  occ. eigenvalues --   -1.13958  -1.13927  -1.13789  -1.13770  -1.13736
 Alpha  occ. eigenvalues --   -1.13178  -1.13147  -1.13132  -1.13121  -1.13097
 Alpha  occ. eigenvalues --   -1.13090  -1.12772  -1.12753  -1.12739  -1.12718
 Alpha  occ. eigenvalues --   -1.12710  -1.12676  -1.12663  -1.12650  -1.12642
 Alpha  occ. eigenvalues --   -0.18757  -0.13217  -0.12285  -0.10905
 Alpha virt. eigenvalues --   -0.06077  -0.04797  -0.04469  -0.03336  -0.02933
 Alpha virt. eigenvalues --   -0.02667  -0.01808  -0.00905  -0.00334  -0.00112
 Alpha virt. eigenvalues --   -0.00043   0.00365   0.00829   0.00861   0.00881

  Beta  occ. eigenvalues --  -38.44487 -38.44246 -38.43485 -38.43464 -38.43197
  Beta  occ. eigenvalues --  -38.43167 -38.43124  -2.20292  -2.20100  -2.19351
  Beta  occ. eigenvalues --   -2.19310  -2.19084  -2.19027  -2.19001  -1.13975
  Beta  occ. eigenvalues --   -1.13940  -1.13928  -1.13789  -1.13747  -1.13733
  Beta  occ. eigenvalues --   -1.13089  -1.13045  -1.13035  -1.13001  -1.12998
  Beta  occ. eigenvalues --   -1.12974  -1.12766  -1.12742  -1.12718  -1.12711
  Beta  occ. eigenvalues --   -1.12676  -1.12669  -1.12649  -1.12647  -1.12625
  Beta  occ. eigenvalues --   -0.18005  -0.13001  -0.12033
  Beta virt. eigenvalues --   -0.06992  -0.06024  -0.04815  -0.04410  -0.02554
  Beta virt. eigenvalues --   -0.02131  -0.01711  -0.01609  -0.00848  -0.00389
  Beta virt. eigenvalues --   -0.00153   0.00098   0.00383   0.00863   0.00878

 Mulliken charges and spin densities:
               1          2
     1  Na   0.031452  -0.049903
     2  Na   0.324324  -0.037681
     3  Na   0.146035  -0.154745
     4  Na  -0.395470   0.661008
     5  Na  -0.343142   0.685779
     6  Na   0.139223  -0.016349
     7  Na   0.097578  -0.088109
 Sum of Mulliken charges =  -0.00000   1.00000

 Dipole moment (field-independent basis, Debye):
    X=              0.1414    Y=              0.3202    Z=             -0.0111  Tot=              0.3502
 Quadrupole moment (field-independent basis, Debye-Ang):
   XX=            -54.6056   YY=            -66.2067   ZZ=            -73.2506
   XY=              0.5624   XZ=             -0.7857   YZ=              0.9012

 Normal termination of Gaussian 16 at Wed Nov 29 15:38:12 2023.
