 Gaussian 16, Revision B.01,
 Gaussian 16:  ES64L-G16RevB.01 20-Dec-2017

 -------------------------
 #P B3LYP/6-311+g(d) force
 -------------------------

 -----
 DPGEN
 -----
 Symbolic Z-matrix:
 Charge =  0 Multiplicity = 2

                         Standard orientation:
 ---------------------------------------------------------------------
 Center     Atomic      Atomic             Coordinates (Angstroms)
 Number     Number       Type             X           Y           Z
 ---------------------------------------------------------------------
      1         11           0       -0.084263    0.067784   -1.639843
      2         11           0       -3.324383    0.650005   -0.169310
      3         11           0        0.280125   -0.130457    2.016676
      4         11           0        2.115932   -2.262524   -0.422732
      5         11           0       -0.568332    3.125211    0.024852
      6         11           0        3.262734    1.279786   -0.007525
      7         11           0       -1.681814   -2.729806    0.197883
 ---------------------------------------------------------------------

 SCF Done:  E(UB3LYP) =  -1136.13419134     A.U. after   19 cycles

 The electronic state is 2-A.
 Alpha  occ. eigenvalues --  -38.44557 -38.44373 -38.43904 -38.43805 -38.43697
 Alpha  occ. eigenvalues --  -38.43513 -38.43364  -2.20313  -2.20152  -2.19717
 Alpha  occ. eigenvalues --   -2.19590  -2.19489  -2.19364  -2.19266  -1.13991
 Alpha  occ. eigenvalues --   -1.13964  -1.13960  -1.13833  -1.13808  -1.13789
 Alpha  occ. eigenvalues --   -1.13406  -1.13381  -1.13340  -1.13274  -1.13259
 Alpha  occ. eigenvalues --   -1.13220  -1.13164  -1.13153  -1.13131  -1.13040
 Alpha  occ. eigenvalues --   -1.12993  -1.12974  -1.12958  -1.12898  -1.12887
 Alpha  occ. eigenvalues --   -0.17855  -0.12797  -0.12198  -0.10290
 Alpha virt. eigenvalues --   -0.06053  -0.05452  -0.05025  -0.03000  -0.02756
 Alpha virt. eigenvalues --   -0.02349  -0.01835  -0.01392  -0.00832  -0.00744
 Alpha virt. eigenvalues --   -0.00037   0.00318   0.00708   0.00768   0.00795

  Beta  occ. eigenvalues --  -38.44557 -38.44371 -38.43891 -38.43804 -38.43694
  Beta  occ. eigenvalues --  -38.43419 -38.43305  -2.20317  -2.20151  -2.19696
  Beta  occ. eigenvalues --   -2.19590  -2.19485  -2.19192  -2.19159  -1.13981
  Beta  occ. eigenvalues --   -1.13964  -1.13964  -1.13819  -1.13807  -1.13790
  Beta  occ. eigenvalues --   -1.13384  -1.13353  -1.13328  -1.13267  -1.13252
  Beta  occ. eigenvalues --   -1.13219  -1.13152  -1.13139  -1.13131  -1.12927
  Beta  occ. eigenvalues --   -1.12877  -1.12874  -1.12849  -1.12822  -1.12807
  Beta  occ. eigenvalues --   -0.17155  -0.12595  -0.12001
  Beta virt. eigenvalues --   -0.06444  -0.06034  -0.05429  -0.04924  -0.02308
  Beta virt. eigenvalues --   -0.02042  -0.01748  -0.01341  -0.01280  -0.00872
  Beta virt. eigenvalues --   -0.00782   0.00116   0.00356   0.00760   0.00777

 Mulliken charges and spin densities:
               1          2
     1  Na   0.081976   0.518095
     2  Na   0.058675  -0.068422
     3  Na  -0.285321   0.849578
     4  Na   0.136464  -0.012251
     5  Na  -0.051336  -0.134430
     6  Na   0.017078  -0.101564
     7  Na   0.042464  -0.051006
 Sum of Mulliken charges =  -0.00000   1.00000

 Dipole moment (field-independent basis, Debye):
    X=              0.0916    Y=              0.1496    Z=              0.0060  Tot=              0.1755
 Quadrupole moment (field-independent basis, Debye-Ang):
   XX=            -53.8663   YY=            -60.9002   ZZ=            -77.0961
   XY=              0.8547   XZ=             -0.6662   YZ=              0.4755

 Normal termination of Gaussian 16 at Fri Dec  8 05:19:50 2023.
