 Gaussian 16, Revision B.01,
 Gaussian 16:  ES64L-G16RevB.01 20-Dec-2017

 -------------------------
 #P B3LYP/6-311+g(d) force
 -------------------------

 -----
 DPGEN
 -----
 Symbolic Z-matrix:
 Charge =  0 Multiplicity = 2

                         Standard orientation:
 ---------------------------------------------------------------------
 Center     Atomic      Atomic             Coordinates (Angstroms)
 Number     Number       Type             X           Y           Z
 ---------------------------------------------------------------------
      1         11           0       -3.183175    0.628318   -0.024703
      2         11           0        2.162410   -1.865659   -0.206564
      3         11           0       -0.178752    2.704826    0.182381
      4         11           0       -0.031521    0.282376   -1.689442
      5         11           0        2.657090    1.092584   -0.052412
      6         11           0       -1.510123   -2.422936   -0.210832
      7         11           0        0.084071   -0.419509    2.001571
 ---------------------------------------------------------------------

 SCF Done:  E(UB3LYP) =  -1136.13620306     A.U. after   19 cycles

 The electronic state is 2-A.
 Alpha  occ. eigenvalues --  -38.44279 -38.43628 -38.43508 -38.43465 -38.43403
 Alpha  occ. eigenvalues --  -38.43222 -38.43037  -2.20088  -2.19570  -2.19433
 Alpha  occ. eigenvalues --   -2.19379  -2.19264  -2.19238  -2.18940  -1.13763
 Alpha  occ. eigenvalues --   -1.13742  -1.13734  -1.13333  -1.13244  -1.13216
 Alpha  occ. eigenvalues --   -1.13118  -1.13072  -1.13064  -1.13039  -1.13005
 Alpha  occ. eigenvalues --   -1.12991  -1.12959  -1.12950  -1.12928  -1.12884
 Alpha  occ. eigenvalues --   -1.12873  -1.12841  -1.12615  -1.12592  -1.12556
 Alpha  occ. eigenvalues --   -0.19164  -0.13277  -0.12443  -0.10943
 Alpha virt. eigenvalues --   -0.05758  -0.04983  -0.04376  -0.03295  -0.02956
 Alpha virt. eigenvalues --   -0.02559  -0.01585  -0.00927  -0.00160  -0.00080
 Alpha virt. eigenvalues --   -0.00017   0.00366   0.00819   0.00926   0.00954

  Beta  occ. eigenvalues --  -38.44279 -38.43620 -38.43456 -38.43417 -38.43397
  Beta  occ. eigenvalues --  -38.43154 -38.43029  -2.20091  -2.19560  -2.19367
  Beta  occ. eigenvalues --   -2.19265  -2.19256  -2.19114  -2.18930  -1.13750
  Beta  occ. eigenvalues --   -1.13743  -1.13739  -1.13329  -1.13240  -1.13173
  Beta  occ. eigenvalues --   -1.13052  -1.13000  -1.12997  -1.12981  -1.12960
  Beta  occ. eigenvalues --   -1.12930  -1.12919  -1.12891  -1.12880  -1.12873
  Beta  occ. eigenvalues --   -1.12796  -1.12752  -1.12599  -1.12555  -1.12553
  Beta  occ. eigenvalues --   -0.18400  -0.13033  -0.12194
  Beta virt. eigenvalues --   -0.06975  -0.05731  -0.04984  -0.04347  -0.02482
  Beta virt. eigenvalues --   -0.02146  -0.01533  -0.01462  -0.00867  -0.00209
  Beta virt. eigenvalues --   -0.00130   0.00125   0.00385   0.00863   0.00921

 Mulliken charges and spin densities:
               1          2
     1  Na   0.024499  -0.092746
     2  Na   0.359063  -0.017125
     3  Na   0.190208  -0.025544
     4  Na  -0.444566   0.478700
     5  Na   0.344235   0.055960
     6  Na   0.157336  -0.106795
     7  Na  -0.630776   0.707550
 Sum of Mulliken charges =  -0.00000   1.00000

 Dipole moment (field-independent basis, Debye):
    X=             -0.4218    Y=             -0.0721    Z=              0.1502  Tot=              0.4535
 Quadrupole moment (field-independent basis, Debye-Ang):
   XX=            -55.7840   YY=            -64.9760   ZZ=            -73.1878
   XY=             -0.4307   XZ=             -0.3080   YZ=              1.5363

 Normal termination of Gaussian 16 at Fri Dec  8 05:48:10 2023.
