 Gaussian 16, Revision B.01,
 Gaussian 16:  ES64L-G16RevB.01 20-Dec-2017

 -------------------------
 #P B3LYP/6-311+g(d) force
 -------------------------

 -----
 DPGEN
 -----
 Symbolic Z-matrix:
 Charge =  0 Multiplicity = 2

                         Standard orientation:
 ---------------------------------------------------------------------
 Center     Atomic      Atomic             Coordinates (Angstroms)
 Number     Number       Type             X           Y           Z
 ---------------------------------------------------------------------
      1         11           0        1.659567   -2.363866   -0.164518
      2         11           0        0.384513    2.984843   -0.281417
      3         11           0        3.385467    0.382034    0.083649
      4         11           0       -0.124550    0.089024   -1.736727
      5         11           0       -2.164246   -2.136438   -0.144940
      6         11           0        0.022986    0.054428    2.092220
      7         11           0       -3.163737    0.989975    0.151733
 ---------------------------------------------------------------------

 SCF Done:  E(UB3LYP) =  -1136.13472830     A.U. after   19 cycles

 The electronic state is 2-A.
 Alpha  occ. eigenvalues --  -38.44727 -38.44594 -38.43903 -38.43512 -38.43330
 Alpha  occ. eigenvalues --  -38.43244 -38.43148  -2.20521  -2.20398  -2.19752
 Alpha  occ. eigenvalues --   -2.19357  -2.19265  -2.19100  -2.18958  -1.14196
 Alpha  occ. eigenvalues --   -1.14188  -1.14155  -1.14070  -1.14065  -1.14034
 Alpha  occ. eigenvalues --   -1.13421  -1.13381  -1.13368  -1.13048  -1.13017
 Alpha  occ. eigenvalues --   -1.12999  -1.12949  -1.12917  -1.12885  -1.12774
 Alpha  occ. eigenvalues --   -1.12762  -1.12736  -1.12643  -1.12617  -1.12585
 Alpha  occ. eigenvalues --   -0.18290  -0.13231  -0.11969  -0.10700
 Alpha virt. eigenvalues --   -0.06321  -0.05100  -0.04439  -0.03340  -0.02715
 Alpha virt. eigenvalues --   -0.02638  -0.01977  -0.01103  -0.00553  -0.00344
 Alpha virt. eigenvalues --   -0.00055   0.00347   0.00735   0.00760   0.00829

  Beta  occ. eigenvalues --  -38.44728 -38.44591 -38.43810 -38.43507 -38.43259
  Beta  occ. eigenvalues --  -38.43239 -38.43143  -2.20524  -2.20396  -2.19581
  Beta  occ. eigenvalues --   -2.19352  -2.19136  -2.19093  -2.18951  -1.14200
  Beta  occ. eigenvalues --   -1.14175  -1.14159  -1.14069  -1.14045  -1.14035
  Beta  occ. eigenvalues --   -1.13307  -1.13262  -1.13244  -1.13037  -1.13000
  Beta  occ. eigenvalues --   -1.12992  -1.12866  -1.12831  -1.12799  -1.12761
  Beta  occ. eigenvalues --   -1.12740  -1.12725  -1.12626  -1.12600  -1.12584
  Beta  occ. eigenvalues --   -0.17555  -0.13056  -0.11721
  Beta virt. eigenvalues --   -0.06814  -0.06227  -0.05126  -0.04388  -0.02584
  Beta virt. eigenvalues --   -0.01959  -0.01859  -0.01582  -0.01047  -0.00590
  Beta virt. eigenvalues --   -0.00397   0.00098   0.00366   0.00799   0.00827

 Mulliken charges and spin densities:
               1          2
     1  Na   0.123015  -0.057737
     2  Na  -0.026890  -0.137586
     3  Na   0.096639  -0.053154
     4  Na  -0.058416   0.572029
     5  Na   0.158830  -0.046184
     6  Na  -0.445430   0.761796
     7  Na   0.152251  -0.039163
 Sum of Mulliken charges =  -0.00000   1.00000

 Dipole moment (field-independent basis, Debye):
    X=             -0.0067    Y=              0.1718    Z=              0.1968  Tot=              0.2613
 Quadrupole moment (field-independent basis, Debye-Ang):
   XX=            -52.2398   YY=            -66.1254   ZZ=            -74.8330
   XY=              0.1109   XZ=             -0.2105   YZ=              0.4379

 Normal termination of Gaussian 16 at Thu Dec  7 03:47:49 2023.
