 Gaussian 16, Revision B.01,
 Gaussian 16:  ES64L-G16RevB.01 20-Dec-2017

 -------------------------
 #P B3LYP/6-311+g(d) force
 -------------------------

 -----
 DPGEN
 -----
 Symbolic Z-matrix:
 Charge =  0 Multiplicity = 2

                         Standard orientation:
 ---------------------------------------------------------------------
 Center     Atomic      Atomic             Coordinates (Angstroms)
 Number     Number       Type             X           Y           Z
 ---------------------------------------------------------------------
      1         11           0        0.790000    2.236800   -0.724923
      2         11           0       -2.204929   -2.432790   -1.130220
      3         11           0        4.054937   -0.093911    0.040435
      4         11           0       -2.544599   -0.452881    1.380741
      5         11           0        1.167749   -1.369080   -1.380171
      6         11           0       -2.186513    2.654151   -0.439473
      7         11           0        0.923356   -0.542289    2.253611
 ---------------------------------------------------------------------

 SCF Done:  E(UB3LYP) =  -1136.12342772     A.U. after   21 cycles

 The electronic state is 2-A.
 Alpha  occ. eigenvalues --  -38.45189 -38.44883 -38.44263 -38.44172 -38.43651
 Alpha  occ. eigenvalues --  -38.43491 -38.43143  -2.20962  -2.20695  -2.20099
 Alpha  occ. eigenvalues --   -2.20002  -2.19466  -2.19330  -2.18971  -1.14637
 Alpha  occ. eigenvalues --   -1.14624  -1.14590  -1.14355  -1.14346  -1.14295
 Alpha  occ. eigenvalues --   -1.13785  -1.13772  -1.13701  -1.13682  -1.13669
 Alpha  occ. eigenvalues --   -1.13638  -1.13122  -1.13120  -1.13105  -1.13038
 Alpha  occ. eigenvalues --   -1.13004  -1.12977  -1.12625  -1.12613  -1.12609
 Alpha  occ. eigenvalues --   -0.17549  -0.13383  -0.11913  -0.11333
 Alpha virt. eigenvalues --   -0.06591  -0.05139  -0.04950  -0.03521  -0.02865
 Alpha virt. eigenvalues --   -0.02545  -0.02350  -0.01073  -0.00815  -0.00120
 Alpha virt. eigenvalues --    0.00060   0.00103   0.00210   0.00649   0.00760

  Beta  occ. eigenvalues --  -38.45191 -38.44787 -38.44219 -38.44154 -38.43629
  Beta  occ. eigenvalues --  -38.43480 -38.43144  -2.20966  -2.20518  -2.20019
  Beta  occ. eigenvalues --   -2.19970  -2.19425  -2.19310  -2.18973  -1.14638
  Beta  occ. eigenvalues --   -1.14619  -1.14594  -1.14236  -1.14227  -1.14161
  Beta  occ. eigenvalues --   -1.13733  -1.13713  -1.13653  -1.13637  -1.13636
  Beta  occ. eigenvalues --   -1.13621  -1.13097  -1.13083  -1.13078  -1.13025
  Beta  occ. eigenvalues --   -1.12982  -1.12963  -1.12621  -1.12616  -1.12610
  Beta  occ. eigenvalues --   -0.16867  -0.13319  -0.11645
  Beta virt. eigenvalues --   -0.07464  -0.06389  -0.05057  -0.04329  -0.03121
  Beta virt. eigenvalues --   -0.02284  -0.02242  -0.01879  -0.01021  -0.00496
  Beta virt. eigenvalues --   -0.00064   0.00153   0.00245   0.00318   0.00734

 Mulliken charges and spin densities:
               1          2
     1  Na  -0.426016   0.103577
     2  Na   0.152142  -0.012181
     3  Na   0.928033   0.046293
     4  Na  -0.167531   0.256617
     5  Na  -0.578356   0.367875
     6  Na   0.159098  -0.078063
     7  Na  -0.067370   0.315882
 Sum of Mulliken charges =  -0.00000   1.00000

 Dipole moment (field-independent basis, Debye):
    X=              1.3889    Y=             -0.3698    Z=              0.2248  Tot=              1.4548
 Quadrupole moment (field-independent basis, Debye-Ang):
   XX=            -49.2272   YY=            -76.0786   ZZ=            -70.7473
   XY=              0.7962   XZ=              0.0652   YZ=              1.4850

 Normal termination of Gaussian 16 at Mon Dec  4 00:30:33 2023.
