 Gaussian 16, Revision B.01,
 Gaussian 16:  ES64L-G16RevB.01 20-Dec-2017

 -------------------------
 #P B3LYP/6-311+g(d) force
 -------------------------

 -----
 DPGEN
 -----
 Symbolic Z-matrix:
 Charge =  0 Multiplicity = 2

                         Standard orientation:
 ---------------------------------------------------------------------
 Center     Atomic      Atomic             Coordinates (Angstroms)
 Number     Number       Type             X           Y           Z
 ---------------------------------------------------------------------
      1         11           0        0.284056   -0.368450   -1.822879
      2         11           0       -1.225402   -2.593947   -0.337170
      3         11           0       -0.022434    0.189039    1.871557
      4         11           0        2.245624   -1.856950    0.552583
      5         11           0       -0.758668    2.955905   -0.165366
      6         11           0       -3.051734    0.159668    0.173844
      7         11           0        2.528559    1.514736   -0.272569
 ---------------------------------------------------------------------

 SCF Done:  E(UB3LYP) =  -1136.13993606     A.U. after   19 cycles

 The electronic state is 2-A.
 Alpha  occ. eigenvalues --  -38.43701 -38.43621 -38.43553 -38.43540 -38.43454
 Alpha  occ. eigenvalues --  -38.43433 -38.43359  -2.19538  -2.19484  -2.19415
 Alpha  occ. eigenvalues --   -2.19398  -2.19390  -2.19371  -2.19248  -1.13226
 Alpha  occ. eigenvalues --   -1.13205  -1.13199  -1.13184  -1.13164  -1.13139
 Alpha  occ. eigenvalues --   -1.13124  -1.13115  -1.13073  -1.13065  -1.13050
 Alpha  occ. eigenvalues --   -1.13040  -1.13034  -1.13030  -1.13008  -1.13004
 Alpha  occ. eigenvalues --   -1.12995  -1.12989  -1.12896  -1.12888  -1.12862
 Alpha  occ. eigenvalues --   -0.18829  -0.12927  -0.12615  -0.10970
 Alpha virt. eigenvalues --   -0.05294  -0.05049  -0.04837  -0.03210  -0.03083
 Alpha virt. eigenvalues --   -0.02625  -0.01276  -0.01125  -0.00270  -0.00230
 Alpha virt. eigenvalues --    0.00022   0.00374   0.00870   0.00906   0.00922

  Beta  occ. eigenvalues --  -38.43699 -38.43612 -38.43551 -38.43522 -38.43374
  Beta  occ. eigenvalues --  -38.43357 -38.43349  -2.19537  -2.19471  -2.19387
  Beta  occ. eigenvalues --   -2.19372  -2.19259  -2.19245  -2.19232  -1.13219
  Beta  occ. eigenvalues --   -1.13192  -1.13181  -1.13178  -1.13127  -1.13119
  Beta  occ. eigenvalues --   -1.13091  -1.13055  -1.13043  -1.13035  -1.13032
  Beta  occ. eigenvalues --   -1.13021  -1.13001  -1.12964  -1.12942  -1.12914
  Beta  occ. eigenvalues --   -1.12907  -1.12891  -1.12870  -1.12854  -1.12838
  Beta  occ. eigenvalues --   -0.18095  -0.12672  -0.12366
  Beta virt. eigenvalues --   -0.07044  -0.05293  -0.05015  -0.04760  -0.02433
  Beta virt. eigenvalues --   -0.02315  -0.01585  -0.01183  -0.01038  -0.00299
  Beta virt. eigenvalues --   -0.00261   0.00128   0.00400   0.00890   0.00914

 Mulliken charges and spin densities:
               1          2
     1  Na  -0.167882   0.614136
     2  Na   0.227569  -0.023411
     3  Na  -0.212305   0.642765
     4  Na   0.172911   0.025852
     5  Na  -0.101278  -0.102766
     6  Na  -0.035306  -0.098725
     7  Na   0.116291  -0.057853
 Sum of Mulliken charges =  -0.00000   1.00000

 Dipole moment (field-independent basis, Debye):
    X=              0.0349    Y=              0.1004    Z=              0.0423  Tot=              0.1144
 Quadrupole moment (field-independent basis, Debye-Ang):
   XX=            -59.2285   YY=            -61.6592   ZZ=            -73.1957
   XY=             -0.3264   XZ=              0.5001   YZ=             -1.3748

 Normal termination of Gaussian 16 at Thu Dec  7 14:56:36 2023.
