 Gaussian 16, Revision B.01,
 Gaussian 16:  ES64L-G16RevB.01 20-Dec-2017

 -------------------------
 #P B3LYP/6-311+g(d) force
 -------------------------

 -----
 DPGEN
 -----
 Symbolic Z-matrix:
 Charge =  0 Multiplicity = 2

                         Standard orientation:
 ---------------------------------------------------------------------
 Center     Atomic      Atomic             Coordinates (Angstroms)
 Number     Number       Type             X           Y           Z
 ---------------------------------------------------------------------
      1         11           0       -3.041943   -1.907102    1.015574
      2         11           0       -0.786937    2.625248    0.112602
      3         11           0        3.234271    1.319071    0.340163
      4         11           0        3.712308   -1.764806   -0.640674
      5         11           0        0.260282   -0.160534    2.061011
      6         11           0        0.131731   -0.494584   -1.707767
      7         11           0       -3.509714    0.382705   -1.180909
 ---------------------------------------------------------------------

 SCF Done:  E(UB3LYP) =  -1136.11688543     A.U. after   25 cycles

 The electronic state is 2-A.
 Alpha  occ. eigenvalues --  -38.45642 -38.45273 -38.44541 -38.44304 -38.43909
 Alpha  occ. eigenvalues --  -38.43594 -38.42736  -2.21419  -2.21065  -2.20359
 Alpha  occ. eigenvalues --   -2.20131  -2.19719  -2.19386  -2.18548  -1.15125
 Alpha  occ. eigenvalues --   -1.15074  -1.15017  -1.14761  -1.14728  -1.14678
 Alpha  occ. eigenvalues --   -1.14041  -1.14019  -1.13993  -1.13811  -1.13773
 Alpha  occ. eigenvalues --   -1.13732  -1.13386  -1.13362  -1.13356  -1.13060
 Alpha  occ. eigenvalues --   -1.13050  -1.13031  -1.12228  -1.12215  -1.12181
 Alpha  occ. eigenvalues --   -0.17512  -0.13872  -0.11257  -0.10879
 Alpha virt. eigenvalues --   -0.07070  -0.05514  -0.04850  -0.03049  -0.02980
 Alpha virt. eigenvalues --   -0.02704  -0.02468  -0.01421  -0.00932  -0.00424
 Alpha virt. eigenvalues --   -0.00060   0.00091   0.00220   0.00337   0.00609

  Beta  occ. eigenvalues --  -38.45596 -38.45273 -38.44529 -38.44228 -38.43875
  Beta  occ. eigenvalues --  -38.43601 -38.42727  -2.21336  -2.21064  -2.20337
  Beta  occ. eigenvalues --   -2.19989  -2.19656  -2.19399  -2.18533  -1.15060
  Beta  occ. eigenvalues --   -1.15020  -1.14951  -1.14753  -1.14726  -1.14684
  Beta  occ. eigenvalues --   -1.14022  -1.14005  -1.13971  -1.13716  -1.13679
  Beta  occ. eigenvalues --   -1.13620  -1.13347  -1.13319  -1.13302  -1.13072
  Beta  occ. eigenvalues --   -1.13056  -1.13037  -1.12215  -1.12208  -1.12156
  Beta  occ. eigenvalues --   -0.16836  -0.13786  -0.10752
  Beta virt. eigenvalues --   -0.07383  -0.06868  -0.05325  -0.04224  -0.02882
  Beta virt. eigenvalues --   -0.02700  -0.02037  -0.01964  -0.01167  -0.00649
  Beta virt. eigenvalues --   -0.00442  -0.00029   0.00129   0.00355   0.00511

 Mulliken charges and spin densities:
               1          2
     1  Na  -0.063410   0.066540
     2  Na  -0.258210   0.001182
     3  Na   0.326098  -0.028302
     4  Na   0.174038  -0.108898
     5  Na  -0.157673   0.579199
     6  Na  -0.532354   0.438859
     7  Na   0.511510   0.051420
 Sum of Mulliken charges =  -0.00000   1.00000

 Dipole moment (field-independent basis, Debye):
    X=              0.4176    Y=              0.5309    Z=             -0.1089  Tot=              0.6842
 Quadrupole moment (field-independent basis, Debye-Ang):
   XX=            -57.8496   YY=            -70.2307   ZZ=            -71.6867
   XY=              0.4740   XZ=              3.0745   YZ=             -2.2282

 Normal termination of Gaussian 16 at Thu Dec  7 01:43:37 2023.
