 Gaussian 16, Revision B.01,
 Gaussian 16:  ES64L-G16RevB.01 20-Dec-2017

 -------------------------
 #P B3LYP/6-311+g(d) force
 -------------------------

 -----
 DPGEN
 -----
 Symbolic Z-matrix:
 Charge =  0 Multiplicity = 2

                         Standard orientation:
 ---------------------------------------------------------------------
 Center     Atomic      Atomic             Coordinates (Angstroms)
 Number     Number       Type             X           Y           Z
 ---------------------------------------------------------------------
      1         11           0       -1.797682   -1.533867   -0.951038
      2         11           0        0.038830   -0.354706    1.896518
      3         11           0        0.987402    0.395465   -1.575562
      4         11           0       -3.973234   -0.311941    0.643258
      5         11           0        3.001666   -1.946696   -0.127142
      6         11           0        3.226474    1.493728    0.611246
      7         11           0       -1.483457    2.258017   -0.497279
 ---------------------------------------------------------------------

 SCF Done:  E(UB3LYP) =  -1136.11441196     A.U. after   32 cycles

 The electronic state is 2-A.
 Alpha  occ. eigenvalues --  -38.45573 -38.45171 -38.45114 -38.43988 -38.43916
 Alpha  occ. eigenvalues --  -38.42770 -38.42749  -2.21364  -2.20976  -2.20948
 Alpha  occ. eigenvalues --   -2.19813  -2.19797  -2.18741  -2.18581  -1.15072
 Alpha  occ. eigenvalues --   -1.15012  -1.14975  -1.14671  -1.14659  -1.14624
 Alpha  occ. eigenvalues --   -1.14600  -1.14578  -1.14567  -1.13497  -1.13477
 Alpha  occ. eigenvalues --   -1.13472  -1.13447  -1.13440  -1.13433  -1.12448
 Alpha  occ. eigenvalues --   -1.12394  -1.12367  -1.12251  -1.12244  -1.12207
 Alpha  occ. eigenvalues --   -0.18295  -0.14367  -0.10842  -0.10620
 Alpha virt. eigenvalues --   -0.07393  -0.05797  -0.04379  -0.03035  -0.02906
 Alpha virt. eigenvalues --   -0.02355  -0.02154  -0.01425  -0.01026  -0.00411
 Alpha virt. eigenvalues --    0.00031   0.00118   0.00290   0.00520   0.00604

  Beta  occ. eigenvalues --  -38.45539 -38.45151 -38.45090 -38.43978 -38.43885
  Beta  occ. eigenvalues --  -38.42744 -38.42710  -2.21302  -2.20941  -2.20903
  Beta  occ. eigenvalues --   -2.19779  -2.19760  -2.18634  -2.18575  -1.15022
  Beta  occ. eigenvalues --   -1.14967  -1.14929  -1.14641  -1.14632  -1.14596
  Beta  occ. eigenvalues --   -1.14574  -1.14547  -1.14533  -1.13460  -1.13456
  Beta  occ. eigenvalues --   -1.13436  -1.13426  -1.13418  -1.13384  -1.12379
  Beta  occ. eigenvalues --   -1.12312  -1.12294  -1.12240  -1.12218  -1.12196
  Beta  occ. eigenvalues --   -0.17603  -0.14095  -0.10465
  Beta virt. eigenvalues --   -0.07179  -0.07024  -0.05641  -0.03853  -0.02871
  Beta virt. eigenvalues --   -0.02739  -0.01699  -0.01511  -0.01224  -0.00775
  Beta virt. eigenvalues --   -0.00292   0.00094   0.00139   0.00430   0.00605

 Mulliken charges and spin densities:
               1          2
     1  Na  -0.051170  -0.069081
     2  Na  -0.288729   0.379910
     3  Na   0.346964   0.309905
     4  Na   0.240737   0.255716
     5  Na   0.013742  -0.048026
     6  Na   0.092632   0.185071
     7  Na  -0.354177  -0.013495
 Sum of Mulliken charges =  -0.00000   1.00000

 Dipole moment (field-independent basis, Debye):
    X=              0.1378    Y=              0.2933    Z=              0.7370  Tot=              0.8051
 Quadrupole moment (field-independent basis, Debye-Ang):
   XX=            -47.3011   YY=            -75.3841   ZZ=            -71.5944
   XY=             -0.1365   XZ=             -0.4414   YZ=              3.3075

 Normal termination of Gaussian 16 at Fri Dec  8 03:00:33 2023.
