 Gaussian 16, Revision B.01,
 Gaussian 16:  ES64L-G16RevB.01 20-Dec-2017

 -------------------------
 #P B3LYP/6-311+g(d) force
 -------------------------

 -----
 DPGEN
 -----
 Symbolic Z-matrix:
 Charge =  0 Multiplicity = 2

                         Standard orientation:
 ---------------------------------------------------------------------
 Center     Atomic      Atomic             Coordinates (Angstroms)
 Number     Number       Type             X           Y           Z
 ---------------------------------------------------------------------
      1         11           0        2.260220   -0.350364    1.986220
      2         11           0        2.809945    2.488982   -0.156835
      3         11           0       -3.520496    2.367570    0.158118
      4         11           0       -3.852866   -1.514319   -0.242806
      5         11           0        0.215645   -2.795568    0.289484
      6         11           0       -0.850929    0.665479   -0.392550
      7         11           0        2.938480   -0.861780   -1.641632
 ---------------------------------------------------------------------

 SCF Done:  E(UB3LYP) =  -1136.11470263     A.U. after   28 cycles

 The electronic state is 2-A.
 Alpha  occ. eigenvalues --  -38.46095 -38.44708 -38.44510 -38.44387 -38.43857
 Alpha  occ. eigenvalues --  -38.43722 -38.43103  -2.21819  -2.20483  -2.20341
 Alpha  occ. eigenvalues --   -2.20163  -2.19679  -2.19562  -2.18896  -1.15512
 Alpha  occ. eigenvalues --   -1.15472  -1.15444  -1.14194  -1.14152  -1.14114
 Alpha  occ. eigenvalues --   -1.14055  -1.13996  -1.13950  -1.13833  -1.13818
 Alpha  occ. eigenvalues --   -1.13806  -1.13350  -1.13308  -1.13296  -1.13231
 Alpha  occ. eigenvalues --   -1.13197  -1.13181  -1.12579  -1.12565  -1.12531
 Alpha  occ. eigenvalues --   -0.17049  -0.14079  -0.11447  -0.09948
 Alpha virt. eigenvalues --   -0.07235  -0.06370  -0.04432  -0.03200  -0.02737
 Alpha virt. eigenvalues --   -0.02406  -0.02236  -0.01600  -0.01561  -0.00592
 Alpha virt. eigenvalues --   -0.00363   0.00074   0.00124   0.00403   0.00457

  Beta  occ. eigenvalues --  -38.46100 -38.44723 -38.44509 -38.44369 -38.43771
  Beta  occ. eigenvalues --  -38.43643 -38.43093  -2.21828  -2.20512  -2.20340
  Beta  occ. eigenvalues --   -2.20133  -2.19520  -2.19419  -2.18880  -1.15517
  Beta  occ. eigenvalues --   -1.15479  -1.15452  -1.14213  -1.14171  -1.14132
  Beta  occ. eigenvalues --   -1.14037  -1.14004  -1.13954  -1.13814  -1.13791
  Beta  occ. eigenvalues --   -1.13771  -1.13239  -1.13203  -1.13177  -1.13128
  Beta  occ. eigenvalues --   -1.13100  -1.13072  -1.12571  -1.12534  -1.12520
  Beta  occ. eigenvalues --   -0.16530  -0.13815  -0.11300
  Beta virt. eigenvalues --   -0.07224  -0.06153  -0.05970  -0.04377  -0.02984
  Beta virt. eigenvalues --   -0.02607  -0.01998  -0.01733  -0.01381  -0.00988
  Beta virt. eigenvalues --   -0.00485   0.00081   0.00137   0.00200   0.00443

 Mulliken charges and spin densities:
               1          2
     1  Na   0.278103   0.353800
     2  Na   0.307909   0.243764
     3  Na   0.295769  -0.091866
     4  Na   0.583036  -0.065605
     5  Na   0.328919   0.070107
     6  Na  -2.239720   0.026030
     7  Na   0.445984   0.463770
 Sum of Mulliken charges =  -0.00000   1.00000

 Dipole moment (field-independent basis, Debye):
    X=             -2.2684    Y=              0.3639    Z=              0.2751  Tot=              2.3138
 Quadrupole moment (field-independent basis, Debye-Ang):
   XX=            -50.1757   YY=            -64.4326   ZZ=            -77.9620
   XY=              3.0852   XZ=              1.5698   YZ=              0.2819

 Normal termination of Gaussian 16 at Fri Dec  8 20:04:42 2023.
