 Gaussian 16, Revision B.01,
 Gaussian 16:  ES64L-G16RevB.01 20-Dec-2017

 -------------------------
 #P B3LYP/6-311+g(d) force
 -------------------------

 -----
 DPGEN
 -----
 Symbolic Z-matrix:
 Charge =  0 Multiplicity = 2

                         Standard orientation:
 ---------------------------------------------------------------------
 Center     Atomic      Atomic             Coordinates (Angstroms)
 Number     Number       Type             X           Y           Z
 ---------------------------------------------------------------------
      1         11           0       -0.294107    0.204190   -1.756385
      2         11           0        0.163992   -0.420639    1.871723
      3         11           0       -2.706960    1.681035    0.169669
      4         11           0       -2.271333   -1.994984   -0.000314
      5         11           0        0.801556    2.729715    0.051589
      6         11           0        3.260753    0.117824   -0.024611
      7         11           0        1.046100   -2.317141   -0.311671
 ---------------------------------------------------------------------

 SCF Done:  E(UB3LYP) =  -1136.13719434     A.U. after   19 cycles

 The electronic state is 2-A.
 Alpha  occ. eigenvalues --  -38.44045 -38.43989 -38.43598 -38.43443 -38.43429
 Alpha  occ. eigenvalues --  -38.43177 -38.43097  -2.19873  -2.19800  -2.19464
 Alpha  occ. eigenvalues --   -2.19379  -2.19285  -2.19155  -2.19064  -1.13547
 Alpha  occ. eigenvalues --   -1.13534  -1.13518  -1.13479  -1.13460  -1.13439
 Alpha  occ. eigenvalues --   -1.13162  -1.13136  -1.13107  -1.13099  -1.13021
 Alpha  occ. eigenvalues --   -1.12993  -1.12974  -1.12950  -1.12902  -1.12867
 Alpha  occ. eigenvalues --   -1.12796  -1.12766  -1.12725  -1.12698  -1.12662
 Alpha  occ. eigenvalues --   -0.18931  -0.13014  -0.12566  -0.10721
 Alpha virt. eigenvalues --   -0.05703  -0.05227  -0.04464  -0.03122  -0.02930
 Alpha virt. eigenvalues --   -0.02437  -0.01628  -0.01123  -0.00308  -0.00115
 Alpha virt. eigenvalues --   -0.00007   0.00351   0.00787   0.00888   0.00922

  Beta  occ. eigenvalues --  -38.44044 -38.43987 -38.43593 -38.43439 -38.43347
  Beta  occ. eigenvalues --  -38.43101 -38.43081  -2.19874  -2.19798  -2.19458
  Beta  occ. eigenvalues --   -2.19280  -2.19229  -2.19041  -2.19016  -1.13549
  Beta  occ. eigenvalues --   -1.13522  -1.13514  -1.13468  -1.13451  -1.13441
  Beta  occ. eigenvalues --   -1.13149  -1.13104  -1.13099  -1.13022  -1.12985
  Beta  occ. eigenvalues --   -1.12939  -1.12904  -1.12903  -1.12864  -1.12793
  Beta  occ. eigenvalues --   -1.12709  -1.12679  -1.12671  -1.12651  -1.12626
  Beta  occ. eigenvalues --   -0.18177  -0.12796  -0.12313
  Beta virt. eigenvalues --   -0.06778  -0.05672  -0.05226  -0.04428  -0.02359
  Beta virt. eigenvalues --   -0.02130  -0.01548  -0.01378  -0.01069  -0.00354
  Beta virt. eigenvalues --   -0.00156   0.00129   0.00373   0.00836   0.00883

 Mulliken charges and spin densities:
               1          2
     1  Na  -0.269026   0.594134
     2  Na  -0.557736   0.783925
     3  Na  -0.011673  -0.108414
     4  Na   0.269350  -0.075209
     5  Na   0.029029  -0.134616
     6  Na   0.054331  -0.075082
     7  Na   0.485725   0.015262
 Sum of Mulliken charges =  -0.00000   1.00000

 Dipole moment (field-independent basis, Debye):
    X=             -0.1202    Y=              0.2163    Z=              0.1133  Tot=              0.2722
 Quadrupole moment (field-independent basis, Debye-Ang):
   XX=            -54.2421   YY=            -64.3234   ZZ=            -74.3147
   XY=              0.6340   XZ=             -0.9601   YZ=              1.2828

 Normal termination of Gaussian 16 at Thu Dec  7 07:40:32 2023.
