 Gaussian 16, Revision B.01,
 Gaussian 16:  ES64L-G16RevB.01 20-Dec-2017

 -------------------------
 #P B3LYP/6-311+g(d) force
 -------------------------

 -----
 DPGEN
 -----
 Symbolic Z-matrix:
 Charge =  0 Multiplicity = 2

                         Standard orientation:
 ---------------------------------------------------------------------
 Center     Atomic      Atomic             Coordinates (Angstroms)
 Number     Number       Type             X           Y           Z
 ---------------------------------------------------------------------
      1         11           0        2.735382   -1.106660    0.070329
      2         11           0       -0.102041   -2.682245    0.243893
      3         11           0        0.332869    0.214114    1.919853
      4         11           0        1.699974    2.324745   -0.578620
      5         11           0       -1.715130    2.197816    0.510115
      6         11           0       -3.041456   -0.825511   -0.398414
      7         11           0        0.090402   -0.122260   -1.767156
 ---------------------------------------------------------------------

 SCF Done:  E(UB3LYP) =  -1136.13853296     A.U. after   19 cycles

 The electronic state is 2-A.
 Alpha  occ. eigenvalues --  -38.43639 -38.43623 -38.43582 -38.43418 -38.43398
 Alpha  occ. eigenvalues --  -38.43398 -38.43159  -2.19548  -2.19522  -2.19470
 Alpha  occ. eigenvalues --   -2.19394  -2.19292  -2.19275  -2.19068  -1.13263
 Alpha  occ. eigenvalues --   -1.13235  -1.13204  -1.13178  -1.13159  -1.13152
 Alpha  occ. eigenvalues --   -1.13141  -1.13127  -1.13124  -1.13098  -1.13063
 Alpha  occ. eigenvalues --   -1.13004  -1.12971  -1.12941  -1.12929  -1.12921
 Alpha  occ. eigenvalues --   -1.12909  -1.12881  -1.12748  -1.12736  -1.12680
 Alpha  occ. eigenvalues --   -0.19116  -0.12972  -0.12617  -0.11228
 Alpha virt. eigenvalues --   -0.05261  -0.04957  -0.04545  -0.03267  -0.03136
 Alpha virt. eigenvalues --   -0.02771  -0.01328  -0.01002  -0.00197   0.00056
 Alpha virt. eigenvalues --    0.00083   0.00365   0.00869   0.00934   0.00942

  Beta  occ. eigenvalues --  -38.43636 -38.43616 -38.43496 -38.43406 -38.43382
  Beta  occ. eigenvalues --  -38.43324 -38.43151  -2.19514  -2.19466  -2.19390
  Beta  occ. eigenvalues --   -2.19273  -2.19259  -2.19248  -2.19058  -1.13229
  Beta  occ. eigenvalues --   -1.13180  -1.13146  -1.13144  -1.13130  -1.13121
  Beta  occ. eigenvalues --   -1.13114  -1.13073  -1.13059  -1.13026  -1.12977
  Beta  occ. eigenvalues --   -1.12938  -1.12921  -1.12908  -1.12902  -1.12894
  Beta  occ. eigenvalues --   -1.12871  -1.12856  -1.12741  -1.12708  -1.12667
  Beta  occ. eigenvalues --   -0.18372  -0.12709  -0.12329
  Beta virt. eigenvalues --   -0.07273  -0.05226  -0.04922  -0.04513  -0.02480
  Beta virt. eigenvalues --   -0.02360  -0.01703  -0.01247  -0.00922  -0.00136
  Beta virt. eigenvalues --    0.00014   0.00135   0.00390   0.00924   0.00929

 Mulliken charges and spin densities:
               1          2
     1  Na   0.263366  -0.063617
     2  Na   0.079578  -0.005299
     3  Na  -0.223894   0.524330
     4  Na   0.131016  -0.014661
     5  Na   0.112861   0.019450
     6  Na  -0.043075  -0.058195
     7  Na  -0.319852   0.597992
 Sum of Mulliken charges =  -0.00000   1.00000

 Dipole moment (field-independent basis, Debye):
    X=              0.0872    Y=              0.0281    Z=              0.0304  Tot=              0.0965
 Quadrupole moment (field-independent basis, Debye-Ang):
   XX=            -58.2841   YY=            -64.0174   ZZ=            -72.0242
   XY=              0.1521   XZ=             -0.1995   YZ=             -0.6264

 Normal termination of Gaussian 16 at Thu Dec  7 13:27:42 2023.
