 Gaussian 16, Revision B.01,
 Gaussian 16:  ES64L-G16RevB.01 20-Dec-2017

 -------------------------
 #P B3LYP/6-311+g(d) force
 -------------------------

 -----
 DPGEN
 -----
 Symbolic Z-matrix:
 Charge =  0 Multiplicity = 2

                         Standard orientation:
 ---------------------------------------------------------------------
 Center     Atomic      Atomic             Coordinates (Angstroms)
 Number     Number       Type             X           Y           Z
 ---------------------------------------------------------------------
      1         11           0        1.976985   -1.893409   -0.243593
      2         11           0       -0.263417    2.791216   -0.155388
      3         11           0        2.811970    1.016486    0.097670
      4         11           0        0.111449    0.123259    1.705909
      5         11           0       -3.152255    0.468744    0.084447
      6         11           0       -1.227641   -2.513711    0.145011
      7         11           0       -0.257091    0.007416   -1.634056
 ---------------------------------------------------------------------

 SCF Done:  E(UB3LYP) =  -1136.13587948     A.U. after   20 cycles

 The electronic state is 2-A.
 Alpha  occ. eigenvalues --  -38.44236 -38.43779 -38.43325 -38.43264 -38.43226
 Alpha  occ. eigenvalues --  -38.42978 -38.42895  -2.20066  -2.19684  -2.19219
 Alpha  occ. eigenvalues --   -2.19216  -2.19136  -2.19004  -2.18946  -1.13743
 Alpha  occ. eigenvalues --   -1.13725  -1.13703  -1.13406  -1.13346  -1.13316
 Alpha  occ. eigenvalues --   -1.12948  -1.12936  -1.12898  -1.12881  -1.12867
 Alpha  occ. eigenvalues --   -1.12825  -1.12821  -1.12806  -1.12744  -1.12698
 Alpha  occ. eigenvalues --   -1.12616  -1.12614  -1.12604  -1.12561  -1.12548
 Alpha  occ. eigenvalues --   -0.19440  -0.13285  -0.12698  -0.10628
 Alpha virt. eigenvalues --   -0.05768  -0.04801  -0.04649  -0.03115  -0.02806
 Alpha virt. eigenvalues --   -0.02172  -0.01645  -0.01010  -0.00190  -0.00068
 Alpha virt. eigenvalues --    0.00051   0.00361   0.00842   0.00936   0.00960

  Beta  occ. eigenvalues --  -38.44233 -38.43773 -38.43317 -38.43253 -38.43218
  Beta  occ. eigenvalues --  -38.42899 -38.42819  -2.20064  -2.19677  -2.19205
  Beta  occ. eigenvalues --   -2.19203  -2.19126  -2.18860  -2.18809  -1.13732
  Beta  occ. eigenvalues --   -1.13714  -1.13704  -1.13405  -1.13328  -1.13296
  Beta  occ. eigenvalues --   -1.12935  -1.12924  -1.12874  -1.12858  -1.12821
  Beta  occ. eigenvalues --   -1.12819  -1.12817  -1.12766  -1.12740  -1.12609
  Beta  occ. eigenvalues --   -1.12518  -1.12515  -1.12503  -1.12465  -1.12449
  Beta  occ. eigenvalues --   -0.18703  -0.13021  -0.12407
  Beta virt. eigenvalues --   -0.06679  -0.05753  -0.04800  -0.04648  -0.02305
  Beta virt. eigenvalues --   -0.01985  -0.01568  -0.01133  -0.00947  -0.00241
  Beta virt. eigenvalues --   -0.00108   0.00164   0.00385   0.00867   0.00937

 Mulliken charges and spin densities:
               1          2
     1  Na   0.302685   0.024475
     2  Na   0.117540  -0.144186
     3  Na   0.286991  -0.015434
     4  Na  -0.493339   0.701232
     5  Na   0.049542  -0.118427
     6  Na   0.162792  -0.051053
     7  Na  -0.426211   0.603393
 Sum of Mulliken charges =  -0.00000   1.00000

 Dipole moment (field-independent basis, Debye):
    X=             -0.3714    Y=              0.2131    Z=              0.0693  Tot=              0.4338
 Quadrupole moment (field-independent basis, Debye-Ang):
   XX=            -54.4425   YY=            -62.5584   ZZ=            -75.2480
   XY=              0.2373   XZ=             -0.8182   YZ=             -0.1835

 Normal termination of Gaussian 16 at Thu Dec  7 22:39:59 2023.
