 Gaussian 16, Revision B.01,
 Gaussian 16:  ES64L-G16RevB.01 20-Dec-2017

 -------------------------
 #P B3LYP/6-311+g(d) force
 -------------------------

 -----
 DPGEN
 -----
 Symbolic Z-matrix:
 Charge =  0 Multiplicity = 2

                         Standard orientation:
 ---------------------------------------------------------------------
 Center     Atomic      Atomic             Coordinates (Angstroms)
 Number     Number       Type             X           Y           Z
 ---------------------------------------------------------------------
      1         11           0       -3.616983    0.106676   -1.395671
      2         11           0        0.953193    0.129969    1.797123
      3         11           0       -0.494268   -1.828578   -1.208106
      4         11           0       -0.483505    1.725950   -0.260071
      5         11           0        3.537188   -1.763187   -0.072664
      6         11           0       -2.770410   -0.309266    1.860426
      7         11           0        2.874784    1.938437   -0.721038
 ---------------------------------------------------------------------

 SCF Done:  E(UB3LYP) =  -1136.11713006     A.U. after   31 cycles

 The electronic state is 2-A.
 Alpha  occ. eigenvalues --  -38.44995 -38.44703 -38.44502 -38.44388 -38.43988
 Alpha  occ. eigenvalues --  -38.43699 -38.43067  -2.20822  -2.20526  -2.20275
 Alpha  occ. eigenvalues --   -2.20203  -2.19891  -2.19453  -2.18984  -1.14490
 Alpha  occ. eigenvalues --   -1.14459  -1.14456  -1.14191  -1.14172  -1.14150
 Alpha  occ. eigenvalues --   -1.13982  -1.13961  -1.13879  -1.13857  -1.13836
 Alpha  occ. eigenvalues --   -1.13827  -1.13653  -1.13521  -1.13492  -1.13142
 Alpha  occ. eigenvalues --   -1.13122  -1.13094  -1.12716  -1.12658  -1.12568
 Alpha  occ. eigenvalues --   -0.18094  -0.14016  -0.11304  -0.10769
 Alpha virt. eigenvalues --   -0.07136  -0.05602  -0.04745  -0.03123  -0.02770
 Alpha virt. eigenvalues --   -0.02445  -0.02220  -0.01573  -0.01149  -0.00094
 Alpha virt. eigenvalues --    0.00035   0.00196   0.00261   0.00423   0.00481

  Beta  occ. eigenvalues --  -38.44941 -38.44668 -38.44473 -38.44351 -38.43949
  Beta  occ. eigenvalues --  -38.43720 -38.43063  -2.20723  -2.20461  -2.20225
  Beta  occ. eigenvalues --   -2.20132  -2.19820  -2.19493  -2.18980  -1.14413
  Beta  occ. eigenvalues --   -1.14397  -1.14380  -1.14140  -1.14126  -1.14108
  Beta  occ. eigenvalues --   -1.13952  -1.13914  -1.13826  -1.13817  -1.13793
  Beta  occ. eigenvalues --   -1.13782  -1.13616  -1.13468  -1.13420  -1.13166
  Beta  occ. eigenvalues --   -1.13149  -1.13118  -1.12710  -1.12631  -1.12564
  Beta  occ. eigenvalues --   -0.17416  -0.13843  -0.10581
  Beta virt. eigenvalues --   -0.07472  -0.07003  -0.05056  -0.04468  -0.02863
  Beta virt. eigenvalues --   -0.02611  -0.01880  -0.01663  -0.01173  -0.00900
  Beta virt. eigenvalues --    0.00002   0.00080   0.00267   0.00369   0.00554

 Mulliken charges and spin densities:
               1          2
     1  Na   0.861473   0.143339
     2  Na  -0.155587   0.385518
     3  Na  -0.601468   0.153622
     4  Na  -0.656674   0.282859
     5  Na   0.130639  -0.210710
     6  Na   0.207166   0.146650
     7  Na   0.214451   0.098721
 Sum of Mulliken charges =  -0.00000   1.00000

 Dipole moment (field-independent basis, Debye):
    X=             -0.9663    Y=              0.3104    Z=              0.0738  Tot=              1.0176
 Quadrupole moment (field-independent basis, Debye-Ang):
   XX=            -47.7502   YY=            -78.7764   ZZ=            -68.6365
   XY=              2.5857   XZ=             -1.5506   YZ=             -4.0454

 Normal termination of Gaussian 16 at Fri Dec  8 01:34:10 2023.
