 Gaussian 16, Revision B.01,
 Gaussian 16:  ES64L-G16RevB.01 20-Dec-2017

 -------------------------
 #P B3LYP/6-311+g(d) force
 -------------------------

 -----
 DPGEN
 -----
 Symbolic Z-matrix:
 Charge =  0 Multiplicity = 2

                         Standard orientation:
 ---------------------------------------------------------------------
 Center     Atomic      Atomic             Coordinates (Angstroms)
 Number     Number       Type             X           Y           Z
 ---------------------------------------------------------------------
      1         11           0        2.460155    1.120458    0.367042
      2         11           0        2.404451   -1.846685   -0.068879
      3         11           0       -0.149700   -0.121859   -1.865104
      4         11           0       -0.516853    0.204007    2.303312
      5         11           0        0.095535    2.778795   -0.571166
      6         11           0       -1.094041   -2.528912   -0.142537
      7         11           0       -3.199545    0.394195   -0.022669
 ---------------------------------------------------------------------

 SCF Done:  E(UB3LYP) =  -1136.13250618     A.U. after   18 cycles

 The electronic state is 2-A.
 Alpha  occ. eigenvalues --  -38.44448 -38.44224 -38.43707 -38.43452 -38.43423
 Alpha  occ. eigenvalues --  -38.43416 -38.43220  -2.20293  -2.20029  -2.19678
 Alpha  occ. eigenvalues --   -2.19357  -2.19321  -2.19280  -2.19107  -1.13943
 Alpha  occ. eigenvalues --   -1.13922  -1.13918  -1.13704  -1.13684  -1.13672
 Alpha  occ. eigenvalues --   -1.13380  -1.13352  -1.13285  -1.13159  -1.13059
 Alpha  occ. eigenvalues --   -1.13014  -1.12999  -1.12986  -1.12935  -1.12927
 Alpha  occ. eigenvalues --   -1.12896  -1.12883  -1.12785  -1.12740  -1.12717
 Alpha  occ. eigenvalues --   -0.18762  -0.13047  -0.12303  -0.11513
 Alpha virt. eigenvalues --   -0.05687  -0.04757  -0.04364  -0.03578  -0.03298
 Alpha virt. eigenvalues --   -0.03049  -0.01458  -0.00826  -0.00155  -0.00029
 Alpha virt. eigenvalues --    0.00062   0.00384   0.00808   0.00851   0.00925

  Beta  occ. eigenvalues --  -38.44350 -38.44223 -38.43634 -38.43445 -38.43417
  Beta  occ. eigenvalues --  -38.43416 -38.43207  -2.20110  -2.20031  -2.19543
  Beta  occ. eigenvalues --   -2.19348  -2.19312  -2.19282  -2.19087  -1.13823
  Beta  occ. eigenvalues --   -1.13797  -1.13787  -1.13687  -1.13682  -1.13675
  Beta  occ. eigenvalues --   -1.13289  -1.13261  -1.13193  -1.13158  -1.13054
  Beta  occ. eigenvalues --   -1.12994  -1.12969  -1.12962  -1.12933  -1.12911
  Beta  occ. eigenvalues --   -1.12898  -1.12883  -1.12760  -1.12718  -1.12704
  Beta  occ. eigenvalues --   -0.18000  -0.12830  -0.12066
  Beta virt. eigenvalues --   -0.07543  -0.05621  -0.04682  -0.04319  -0.02762
  Beta virt. eigenvalues --   -0.02400  -0.02144  -0.01374  -0.00759  -0.00067
  Beta virt. eigenvalues --   -0.00037   0.00086   0.00409   0.00869   0.00956

 Mulliken charges and spin densities:
               1          2
     1  Na   0.102500   0.132466
     2  Na   0.010612  -0.030069
     3  Na  -0.208223   0.359116
     4  Na  -0.567555   0.592775
     5  Na   0.279781   0.006816
     6  Na   0.201455   0.009954
     7  Na   0.181429  -0.071057
 Sum of Mulliken charges =  -0.00000   1.00000

 Dipole moment (field-independent basis, Debye):
    X=             -0.6719    Y=             -0.0539    Z=              0.2837  Tot=              0.7313
 Quadrupole moment (field-independent basis, Debye-Ang):
   XX=            -59.8187   YY=            -66.5570   ZZ=            -69.8681
   XY=             -1.0303   XZ=              0.7244   YZ=             -0.5811

 Normal termination of Gaussian 16 at Thu Dec  7 07:14:33 2023.
