 Gaussian 16, Revision B.01,
 Gaussian 16:  ES64L-G16RevB.01 20-Dec-2017

 -------------------------
 #P B3LYP/6-311+g(d) force
 -------------------------

 -----
 DPGEN
 -----
 Symbolic Z-matrix:
 Charge =  0 Multiplicity = 2

                         Standard orientation:
 ---------------------------------------------------------------------
 Center     Atomic      Atomic             Coordinates (Angstroms)
 Number     Number       Type             X           Y           Z
 ---------------------------------------------------------------------
      1         11           0        0.913893   -0.049355    1.943354
      2         11           0       -2.183045   -1.107992   -1.184349
      3         11           0       -2.086849   -1.085831    1.417639
      4         11           0        1.054076   -1.867861   -1.231873
      5         11           0       -2.098738    2.267255    0.067436
      6         11           0        0.836019    1.643628   -1.335864
      7         11           0        3.564644    0.200155    0.323657
 ---------------------------------------------------------------------

 SCF Done:  E(UB3LYP) =  -1136.11953025     A.U. after   22 cycles

 The electronic state is 2-A.
 Alpha  occ. eigenvalues --  -38.44816 -38.44456 -38.44418 -38.44365 -38.43790
 Alpha  occ. eigenvalues --  -38.43272 -38.42768  -2.20665  -2.20407  -2.20372
 Alpha  occ. eigenvalues --   -2.20296  -2.19661  -2.19145  -2.18604  -1.14565
 Alpha  occ. eigenvalues --   -1.14385  -1.14305  -1.14298  -1.14095  -1.14019
 Alpha  occ. eigenvalues --   -1.14002  -1.13980  -1.13963  -1.13903  -1.13839
 Alpha  occ. eigenvalues --   -1.13734  -1.13359  -1.13306  -1.13267  -1.12833
 Alpha  occ. eigenvalues --   -1.12812  -1.12765  -1.12273  -1.12265  -1.12252
 Alpha  occ. eigenvalues --   -0.18914  -0.13991  -0.11977  -0.11293
 Alpha virt. eigenvalues --   -0.06300  -0.04855  -0.04739  -0.03535  -0.02858
 Alpha virt. eigenvalues --   -0.02785  -0.01952  -0.00655  -0.00507   0.00009
 Alpha virt. eigenvalues --    0.00256   0.00319   0.00433   0.00781   0.00865

  Beta  occ. eigenvalues --  -38.44812 -38.44400 -38.44378 -38.44335 -38.43741
  Beta  occ. eigenvalues --  -38.43245 -38.42769  -2.20659  -2.20371  -2.20249
  Beta  occ. eigenvalues --   -2.20231  -2.19574  -2.19097  -2.18608  -1.14536
  Beta  occ. eigenvalues --   -1.14363  -1.14301  -1.14291  -1.14029  -1.13958
  Beta  occ. eigenvalues --   -1.13938  -1.13907  -1.13885  -1.13847  -1.13805
  Beta  occ. eigenvalues --   -1.13700  -1.13294  -1.13236  -1.13208  -1.12803
  Beta  occ. eigenvalues --   -1.12762  -1.12735  -1.12270  -1.12266  -1.12252
  Beta  occ. eigenvalues --   -0.18127  -0.13842  -0.11103
  Beta virt. eigenvalues --   -0.07917  -0.06085  -0.04727  -0.04046  -0.03241
  Beta virt. eigenvalues --   -0.02218  -0.02045  -0.01868  -0.00565  -0.00177
  Beta virt. eigenvalues --    0.00114   0.00339   0.00363   0.00544   0.00832

 Mulliken charges and spin densities:
               1          2
     1  Na  -0.504547   0.345779
     2  Na   0.392207   0.234600
     3  Na   0.248381   0.027312
     4  Na  -0.491638   0.204264
     5  Na  -0.268333  -0.052333
     6  Na  -0.522844   0.186241
     7  Na   1.146773   0.054138
 Sum of Mulliken charges =  -0.00000   1.00000

 Dipole moment (field-independent basis, Debye):
    X=              1.1235    Y=             -0.1872    Z=              0.1125  Tot=              1.1445
 Quadrupole moment (field-independent basis, Debye-Ang):
   XX=            -52.5237   YY=            -77.3819   ZZ=            -66.7948
   XY=              0.3574   XZ=             -0.6008   YZ=              1.9533

 Normal termination of Gaussian 16 at Fri Dec  8 02:43:20 2023.
