 Gaussian 16, Revision B.01,
 Gaussian 16:  ES64L-G16RevB.01 20-Dec-2017

 -------------------------
 #P B3LYP/6-311+g(d) force
 -------------------------

 -----
 DPGEN
 -----
 Symbolic Z-matrix:
 Charge =  0 Multiplicity = 2

                         Standard orientation:
 ---------------------------------------------------------------------
 Center     Atomic      Atomic             Coordinates (Angstroms)
 Number     Number       Type             X           Y           Z
 ---------------------------------------------------------------------
      1         11           0        0.509698   -0.006947    1.297154
      2         11           0       -1.243470    2.606507   -0.263810
      3         11           0        3.564714   -0.673617   -0.227785
      4         11           0       -2.226150   -1.736187    0.730913
      5         11           0        1.011581   -3.082414   -0.766045
      6         11           0        2.394446    2.576152   -0.135078
      7         11           0       -4.010818    0.316506   -0.635349
 ---------------------------------------------------------------------

 SCF Done:  E(UB3LYP) =  -1136.12449902     A.U. after   21 cycles

 The electronic state is 2-A.
 Alpha  occ. eigenvalues --  -38.44671 -38.44582 -38.44209 -38.44117 -38.43681
 Alpha  occ. eigenvalues --  -38.43589 -38.43384  -2.20439  -2.20372  -2.20021
 Alpha  occ. eigenvalues --   -2.19983  -2.19604  -2.19436  -2.19246  -1.14125
 Alpha  occ. eigenvalues --   -1.14095  -1.14080  -1.14063  -1.14051  -1.13989
 Alpha  occ. eigenvalues --   -1.13702  -1.13692  -1.13688  -1.13660  -1.13657
 Alpha  occ. eigenvalues --   -1.13624  -1.13294  -1.13276  -1.13201  -1.13101
 Alpha  occ. eigenvalues --   -1.13082  -1.13056  -1.12909  -1.12877  -1.12855
 Alpha  occ. eigenvalues --   -0.17484  -0.14019  -0.12737  -0.10016
 Alpha virt. eigenvalues --   -0.06861  -0.05910  -0.04011  -0.03697  -0.02921
 Alpha virt. eigenvalues --   -0.02163  -0.01985  -0.01281  -0.01073  -0.00860
 Alpha virt. eigenvalues --   -0.00084   0.00363   0.00444   0.00621   0.00708

  Beta  occ. eigenvalues --  -38.44676 -38.44574 -38.44206 -38.44099 -38.43628
  Beta  occ. eigenvalues --  -38.43533 -38.43311  -2.20451  -2.20360  -2.20019
  Beta  occ. eigenvalues --   -2.19959  -2.19511  -2.19333  -2.19110  -1.14136
  Beta  occ. eigenvalues --   -1.14106  -1.14069  -1.14058  -1.14038  -1.13964
  Beta  occ. eigenvalues --   -1.13704  -1.13692  -1.13652  -1.13641  -1.13628
  Beta  occ. eigenvalues --   -1.13589  -1.13234  -1.13207  -1.13128  -1.13029
  Beta  occ. eigenvalues --   -1.13015  -1.12984  -1.12819  -1.12784  -1.12765
  Beta  occ. eigenvalues --   -0.16942  -0.13323  -0.12489
  Beta virt. eigenvalues --   -0.06715  -0.06602  -0.05782  -0.03898  -0.02976
  Beta virt. eigenvalues --   -0.02507  -0.01947  -0.01605  -0.01117  -0.00898
  Beta virt. eigenvalues --   -0.00671   0.00196   0.00477   0.00572   0.00719

 Mulliken charges and spin densities:
               1          2
     1  Na   0.058599   0.142950
     2  Na  -0.309508  -0.024040
     3  Na  -0.013462   0.405981
     4  Na  -0.032775   0.016506
     5  Na  -0.056087  -0.037478
     6  Na   0.287991   0.037870
     7  Na   0.065241   0.458210
 Sum of Mulliken charges =  -0.00000   1.00000

 Dipole moment (field-independent basis, Debye):
    X=              0.5498    Y=              0.0608    Z=             -0.2365  Tot=              0.6016
 Quadrupole moment (field-independent basis, Debye-Ang):
   XX=            -72.3561   YY=            -59.2705   ZZ=            -69.9779
   XY=              2.7342   XZ=             -0.5940   YZ=              0.2058

 Normal termination of Gaussian 16 at Wed Nov 29 02:03:35 2023.
