 Gaussian 16, Revision B.01,
 Gaussian 16:  ES64L-G16RevB.01 20-Dec-2017

 -------------------------
 #P B3LYP/6-311+g(d) force
 -------------------------

 -----
 DPGEN
 -----
 Symbolic Z-matrix:
 Charge =  0 Multiplicity = 2

                         Standard orientation:
 ---------------------------------------------------------------------
 Center     Atomic      Atomic             Coordinates (Angstroms)
 Number     Number       Type             X           Y           Z
 ---------------------------------------------------------------------
      1         11           0        2.925553    1.222506   -0.015610
      2         11           0       -0.437603    2.986530   -0.387816
      3         11           0       -3.188743    0.618893    0.219691
      4         11           0        2.169713   -2.059680    0.103008
      5         11           0        0.158235   -0.051847   -1.612623
      6         11           0       -0.062560   -0.045970    2.168778
      7         11           0       -1.564595   -2.670431   -0.475427
 ---------------------------------------------------------------------

 SCF Done:  E(UB3LYP) =  -1136.13793484     A.U. after   19 cycles

 The electronic state is 2-A.
 Alpha  occ. eigenvalues --  -38.44213 -38.43923 -38.43919 -38.43658 -38.43535
 Alpha  occ. eigenvalues --  -38.43420 -38.43169  -2.20001  -2.19767  -2.19751
 Alpha  occ. eigenvalues --   -2.19511  -2.19350  -2.19238  -2.19137  -1.13679
 Alpha  occ. eigenvalues --   -1.13657  -1.13643  -1.13436  -1.13429  -1.13414
 Alpha  occ. eigenvalues --   -1.13396  -1.13392  -1.13381  -1.13200  -1.13175
 Alpha  occ. eigenvalues --   -1.13136  -1.13048  -1.13004  -1.12981  -1.12946
 Alpha  occ. eigenvalues --   -1.12899  -1.12864  -1.12816  -1.12764  -1.12755
 Alpha  occ. eigenvalues --   -0.18315  -0.12897  -0.12302  -0.10786
 Alpha virt. eigenvalues --   -0.05686  -0.05248  -0.04761  -0.03218  -0.02836
 Alpha virt. eigenvalues --   -0.02675  -0.01550  -0.01188  -0.00530  -0.00426
 Alpha virt. eigenvalues --   -0.00028   0.00356   0.00772   0.00862   0.00865

  Beta  occ. eigenvalues --  -38.44211 -38.43921 -38.43820 -38.43653 -38.43526
  Beta  occ. eigenvalues --  -38.43414 -38.43109  -2.20000  -2.19750  -2.19583
  Beta  occ. eigenvalues --   -2.19505  -2.19335  -2.19229  -2.19028  -1.13661
  Beta  occ. eigenvalues --   -1.13656  -1.13646  -1.13432  -1.13403  -1.13389
  Beta  occ. eigenvalues --   -1.13306  -1.13270  -1.13249  -1.13193  -1.13152
  Beta  occ. eigenvalues --   -1.13131  -1.13026  -1.12986  -1.12972  -1.12928
  Beta  occ. eigenvalues --   -1.12884  -1.12858  -1.12742  -1.12690  -1.12674
  Beta  occ. eigenvalues --   -0.17598  -0.12704  -0.12044
  Beta virt. eigenvalues --   -0.06884  -0.05606  -0.05261  -0.04684  -0.02450
  Beta virt. eigenvalues --   -0.02121  -0.01616  -0.01448  -0.01103  -0.00568
  Beta virt. eigenvalues --   -0.00479   0.00118   0.00381   0.00826   0.00851

 Mulliken charges and spin densities:
               1          2
     1  Na   0.110663  -0.045626
     2  Na   0.055023  -0.058592
     3  Na   0.037921  -0.008672
     4  Na   0.221952   0.010922
     5  Na  -0.062462   0.392876
     6  Na  -0.458283   0.737035
     7  Na   0.095185  -0.027943
 Sum of Mulliken charges =  -0.00000   1.00000

 Dipole moment (field-independent basis, Debye):
    X=             -0.0343    Y=              0.0248    Z=              0.2187  Tot=              0.2227
 Quadrupole moment (field-independent basis, Debye-Ang):
   XX=            -56.2690   YY=            -62.6406   ZZ=            -74.4673
   XY=              0.1864   XZ=              0.3148   YZ=              0.0691

 Normal termination of Gaussian 16 at Thu Dec  7 10:56:46 2023.
