 Gaussian 16, Revision B.01,
 Gaussian 16:  ES64L-G16RevB.01 20-Dec-2017

 -------------------------
 #P B3LYP/6-311+g(d) force
 -------------------------

 -----
 DPGEN
 -----
 Symbolic Z-matrix:
 Charge =  0 Multiplicity = 2

                         Standard orientation:
 ---------------------------------------------------------------------
 Center     Atomic      Atomic             Coordinates (Angstroms)
 Number     Number       Type             X           Y           Z
 ---------------------------------------------------------------------
      1         11           0       -0.430512   -1.046686   -0.700127
      2         11           0       -1.653268   -0.223560    2.303137
      3         11           0        2.733306   -2.387191   -0.071400
      4         11           0       -3.971534   -1.019119   -1.043384
      5         11           0        2.689750    0.925886   -1.401551
      6         11           0       -0.965703    2.662825   -0.728634
      7         11           0        1.597961    1.087846    1.641961
 ---------------------------------------------------------------------

 SCF Done:  E(UB3LYP) =  -1136.12368908     A.U. after   24 cycles

 The electronic state is 2-A.
 Alpha  occ. eigenvalues --  -38.44549 -38.44502 -38.44487 -38.43973 -38.43875
 Alpha  occ. eigenvalues --  -38.43344 -38.43292  -2.20373  -2.20324  -2.20262
 Alpha  occ. eigenvalues --   -2.19831  -2.19647  -2.19227  -2.19091  -1.14064
 Alpha  occ. eigenvalues --   -1.14028  -1.14004  -1.13994  -1.13977  -1.13930
 Alpha  occ. eigenvalues --   -1.13920  -1.13911  -1.13879  -1.13513  -1.13498
 Alpha  occ. eigenvalues --   -1.13443  -1.13330  -1.13295  -1.13266  -1.12962
 Alpha  occ. eigenvalues --   -1.12902  -1.12837  -1.12758  -1.12752  -1.12725
 Alpha  occ. eigenvalues --   -0.17781  -0.13233  -0.11352  -0.11128
 Alpha virt. eigenvalues --   -0.06304  -0.05207  -0.04966  -0.03111  -0.02809
 Alpha virt. eigenvalues --   -0.02398  -0.02147  -0.01181  -0.00946  -0.00324
 Alpha virt. eigenvalues --    0.00027   0.00191   0.00282   0.00438   0.00717

  Beta  occ. eigenvalues --  -38.44476 -38.44474 -38.44463 -38.43946 -38.43847
  Beta  occ. eigenvalues --  -38.43335 -38.43295  -2.20278  -2.20240  -2.20211
  Beta  occ. eigenvalues --   -2.19785  -2.19595  -2.19215  -2.19098  -1.13999
  Beta  occ. eigenvalues --   -1.13972  -1.13960  -1.13918  -1.13892  -1.13883
  Beta  occ. eigenvalues --   -1.13875  -1.13871  -1.13848  -1.13482  -1.13440
  Beta  occ. eigenvalues --   -1.13413  -1.13289  -1.13258  -1.13233  -1.12924
  Beta  occ. eigenvalues --   -1.12896  -1.12834  -1.12759  -1.12755  -1.12729
  Beta  occ. eigenvalues --   -0.17115  -0.12971  -0.10965
  Beta virt. eigenvalues --   -0.07534  -0.06091  -0.04993  -0.04474  -0.02895
  Beta virt. eigenvalues --   -0.02211  -0.01983  -0.01838  -0.01065  -0.00493
  Beta virt. eigenvalues --   -0.00243   0.00187   0.00251   0.00337   0.00537

 Mulliken charges and spin densities:
               1          2
     1  Na  -1.447127   0.391131
     2  Na   0.026186   0.094817
     3  Na   0.545163  -0.139406
     4  Na   0.226963   0.150357
     5  Na   0.568444   0.093320
     6  Na  -0.320543   0.181177
     7  Na   0.400914   0.228603
 Sum of Mulliken charges =  -0.00000   1.00000

 Dipole moment (field-independent basis, Debye):
    X=             -0.3088    Y=              0.4613    Z=              0.1569  Tot=              0.5768
 Quadrupole moment (field-independent basis, Debye-Ang):
   XX=            -53.6554   YY=            -73.3918   ZZ=            -66.3056
   XY=             -0.1983   XZ=              0.1639   YZ=             -2.9386

 Normal termination of Gaussian 16 at Thu Dec  7 01:53:30 2023.
