 Gaussian 16, Revision B.01,
 Gaussian 16:  ES64L-G16RevB.01 20-Dec-2017

 -------------------------
 #P B3LYP/6-311+g(d) force
 -------------------------

 -----
 DPGEN
 -----
 Symbolic Z-matrix:
 Charge =  0 Multiplicity = 2

                         Standard orientation:
 ---------------------------------------------------------------------
 Center     Atomic      Atomic             Coordinates (Angstroms)
 Number     Number       Type             X           Y           Z
 ---------------------------------------------------------------------
      1         11           0       -3.006527   -1.584097   -0.566788
      2         11           0        2.211815   -2.135709   -0.032104
      3         11           0        0.245897    2.251601    0.447927
      4         11           0       -0.268719   -1.063087    1.725051
      5         11           0        3.884592    0.915124   -0.179432
      6         11           0       -3.054211    1.450760    0.197459
      7         11           0       -0.012847    0.165409   -1.592113
 ---------------------------------------------------------------------

 SCF Done:  E(UB3LYP) =  -1136.11835361     A.U. after   25 cycles

 The electronic state is 2-A.
 Alpha  occ. eigenvalues --  -38.45246 -38.45183 -38.44622 -38.43859 -38.43696
 Alpha  occ. eigenvalues --  -38.43051 -38.42591  -2.21086  -2.21014  -2.20475
 Alpha  occ. eigenvalues --   -2.19714  -2.19537  -2.18964  -2.18502  -1.14845
 Alpha  occ. eigenvalues --   -1.14738  -1.14684  -1.14681  -1.14669  -1.14632
 Alpha  occ. eigenvalues --   -1.14162  -1.14139  -1.14115  -1.13385  -1.13366
 Alpha  occ. eigenvalues --   -1.13339  -1.13227  -1.13213  -1.13166  -1.12639
 Alpha  occ. eigenvalues --   -1.12592  -1.12579  -1.12246  -1.12142  -1.12091
 Alpha  occ. eigenvalues --   -0.18465  -0.14003  -0.11477  -0.10415
 Alpha virt. eigenvalues --   -0.07325  -0.05673  -0.03672  -0.03254  -0.03013
 Alpha virt. eigenvalues --   -0.02558  -0.01938  -0.01603  -0.00577  -0.00329
 Alpha virt. eigenvalues --   -0.00056   0.00106   0.00493   0.00590   0.00669

  Beta  occ. eigenvalues --  -38.45217 -38.45168 -38.44614 -38.43827 -38.43691
  Beta  occ. eigenvalues --  -38.42971 -38.42570  -2.21060  -2.20959  -2.20466
  Beta  occ. eigenvalues --   -2.19658  -2.19533  -2.18817  -2.18466  -1.14811
  Beta  occ. eigenvalues --   -1.14725  -1.14661  -1.14643  -1.14631  -1.14597
  Beta  occ. eigenvalues --   -1.14155  -1.14124  -1.14090  -1.13351  -1.13323
  Beta  occ. eigenvalues --   -1.13289  -1.13217  -1.13205  -1.13151  -1.12542
  Beta  occ. eigenvalues --   -1.12494  -1.12466  -1.12227  -1.12098  -1.12064
  Beta  occ. eigenvalues --   -0.17868  -0.13563  -0.11264
  Beta virt. eigenvalues --   -0.07089  -0.06740  -0.05618  -0.03397  -0.02848
  Beta virt. eigenvalues --   -0.02736  -0.01948  -0.01584  -0.01197  -0.00506
  Beta virt. eigenvalues --   -0.00064   0.00017   0.00179   0.00628   0.00685

 Mulliken charges and spin densities:
               1          2
     1  Na   0.387567   0.233615
     2  Na   0.367220   0.013592
     3  Na  -0.198897   0.062950
     4  Na  -0.319375   0.259125
     5  Na  -0.050015   0.188503
     6  Na   0.181533   0.064279
     7  Na  -0.368033   0.177936
 Sum of Mulliken charges =  -0.00000   1.00000

 Dipole moment (field-independent basis, Debye):
    X=              0.2811    Y=              0.1655    Z=              0.2149  Tot=              0.3906
 Quadrupole moment (field-independent basis, Debye-Ang):
   XX=            -51.1723   YY=            -72.5334   ZZ=            -71.6370
   XY=             -0.9736   XZ=             -0.8815   YZ=              2.6204

 Normal termination of Gaussian 16 at Thu Dec  7 05:29:52 2023.
