 Gaussian 16, Revision B.01,
 Gaussian 16:  ES64L-G16RevB.01 20-Dec-2017

 -------------------------
 #P B3LYP/6-311+g(d) force
 -------------------------

 -----
 DPGEN
 -----
 Symbolic Z-matrix:
 Charge =  0 Multiplicity = 2

                         Standard orientation:
 ---------------------------------------------------------------------
 Center     Atomic      Atomic             Coordinates (Angstroms)
 Number     Number       Type             X           Y           Z
 ---------------------------------------------------------------------
      1         11           0       -0.405381   -2.760116   -0.463720
      2         11           0       -2.418293    2.281631   -0.185162
      3         11           0       -3.162808   -1.078475    0.191850
      4         11           0       -0.420108    0.285915    0.359968
      5         11           0        2.349023   -0.859023    1.679402
      6         11           0        2.421489   -0.457382   -1.570991
      7         11           0        1.636078    2.587450   -0.011348
 ---------------------------------------------------------------------

 SCF Done:  E(UB3LYP) =  -1136.12328287     A.U. after   20 cycles

 The electronic state is 2-A.
 Alpha  occ. eigenvalues --  -38.44304 -38.44272 -38.44258 -38.43641 -38.43563
 Alpha  occ. eigenvalues --  -38.43558 -38.42640  -2.20176  -2.20109  -2.20102
 Alpha  occ. eigenvalues --   -2.19522  -2.19449  -2.19414  -2.18820  -1.13903
 Alpha  occ. eigenvalues --   -1.13867  -1.13830  -1.13815  -1.13801  -1.13763
 Alpha  occ. eigenvalues --   -1.13754  -1.13718  -1.13698  -1.13208  -1.13189
 Alpha  occ. eigenvalues --   -1.13144  -1.13131  -1.13122  -1.13067  -1.13060
 Alpha  occ. eigenvalues --   -1.13055  -1.13032  -1.12495  -1.12478  -1.12475
 Alpha  occ. eigenvalues --   -0.18504  -0.13893  -0.12441  -0.09950
 Alpha virt. eigenvalues --   -0.06095  -0.05775  -0.04644  -0.03217  -0.02337
 Alpha virt. eigenvalues --   -0.02004  -0.01543  -0.01215  -0.00858  -0.00519
 Alpha virt. eigenvalues --   -0.00155   0.00324   0.00675   0.00741   0.00815

  Beta  occ. eigenvalues --  -38.44306 -38.44263 -38.44261 -38.43584 -38.43549
  Beta  occ. eigenvalues --  -38.43486 -38.42619  -2.20181  -2.20116  -2.20089
  Beta  occ. eigenvalues --   -2.19417  -2.19400  -2.19307  -2.18789  -1.13906
  Beta  occ. eigenvalues --   -1.13871  -1.13827  -1.13812  -1.13806  -1.13754
  Beta  occ. eigenvalues --   -1.13726  -1.13714  -1.13704  -1.13133  -1.13121
  Beta  occ. eigenvalues --   -1.13111  -1.13066  -1.13036  -1.13026  -1.13018
  Beta  occ. eigenvalues --   -1.12965  -1.12957  -1.12472  -1.12463  -1.12409
  Beta  occ. eigenvalues --   -0.17948  -0.13644  -0.12285
  Beta virt. eigenvalues --   -0.06082  -0.05941  -0.05630  -0.04507  -0.02736
  Beta virt. eigenvalues --   -0.01780  -0.01721  -0.01279  -0.00772  -0.00675
  Beta virt. eigenvalues --   -0.00503   0.00194   0.00428   0.00728   0.00821

 Mulliken charges and spin densities:
               1          2
     1  Na   0.532191   0.102627
     2  Na  -0.085531  -0.340654
     3  Na   0.196304  -0.236351
     4  Na  -2.396210   0.781235
     5  Na   0.512695   0.161921
     6  Na   0.093273   0.289718
     7  Na   1.147276   0.241505
 Sum of Mulliken charges =  -0.00000   1.00000

 Dipole moment (field-independent basis, Debye):
    X=             -0.6825    Y=              0.2923    Z=             -0.1564  Tot=              0.7587
 Quadrupole moment (field-independent basis, Debye-Ang):
   XX=            -53.5250   YY=            -60.8078   ZZ=            -76.9385
   XY=              0.9192   XZ=              0.2944   YZ=             -0.1419

 Normal termination of Gaussian 16 at Fri Dec  8 04:07:47 2023.
