 Gaussian 16, Revision B.01,
 Gaussian 16:  ES64L-G16RevB.01 20-Dec-2017

 -------------------------
 #P B3LYP/6-311+g(d) force
 -------------------------

 -----
 DPGEN
 -----
 Symbolic Z-matrix:
 Charge =  0 Multiplicity = 2

                         Standard orientation:
 ---------------------------------------------------------------------
 Center     Atomic      Atomic             Coordinates (Angstroms)
 Number     Number       Type             X           Y           Z
 ---------------------------------------------------------------------
      1         11           0       -0.205793   -0.249579    2.121005
      2         11           0        0.736050    0.339314   -1.437795
      3         11           0        2.383327   -2.102206    0.021009
      4         11           0       -1.059834   -2.400732   -0.854931
      5         11           0       -3.097967   -0.169133    0.393784
      6         11           0       -1.150847    2.632387   -0.660120
      7         11           0        2.395065    1.949950    0.417047
 ---------------------------------------------------------------------

 SCF Done:  E(UB3LYP) =  -1136.13333136     A.U. after   19 cycles

 The electronic state is 2-A.
 Alpha  occ. eigenvalues --  -38.44099 -38.43898 -38.43785 -38.43670 -38.43568
 Alpha  occ. eigenvalues --  -38.43492 -38.43031  -2.19946  -2.19771  -2.19609
 Alpha  occ. eigenvalues --   -2.19519  -2.19419  -2.19365  -2.19078  -1.13690
 Alpha  occ. eigenvalues --   -1.13600  -1.13550  -1.13437  -1.13400  -1.13397
 Alpha  occ. eigenvalues --   -1.13298  -1.13270  -1.13256  -1.13245  -1.13165
 Alpha  occ. eigenvalues --   -1.13135  -1.13120  -1.13088  -1.13063  -1.13048
 Alpha  occ. eigenvalues --   -1.13007  -1.12968  -1.12743  -1.12726  -1.12686
 Alpha  occ. eigenvalues --   -0.18637  -0.12906  -0.12511  -0.11012
 Alpha virt. eigenvalues --   -0.05530  -0.05192  -0.04467  -0.03399  -0.02997
 Alpha virt. eigenvalues --   -0.02685  -0.01367  -0.01220  -0.00346  -0.00052
 Alpha virt. eigenvalues --    0.00059   0.00372   0.00830   0.00846   0.00899

  Beta  occ. eigenvalues --  -38.44093 -38.43804 -38.43785 -38.43654 -38.43563
  Beta  occ. eigenvalues --  -38.43470 -38.42983  -2.19936  -2.19611  -2.19597
  Beta  occ. eigenvalues --   -2.19493  -2.19414  -2.19328  -2.18992  -1.13682
  Beta  occ. eigenvalues --   -1.13580  -1.13541  -1.13324  -1.13295  -1.13283
  Beta  occ. eigenvalues --   -1.13273  -1.13261  -1.13237  -1.13229  -1.13138
  Beta  occ. eigenvalues --   -1.13122  -1.13113  -1.13064  -1.13044  -1.13024
  Beta  occ. eigenvalues --   -1.12974  -1.12946  -1.12677  -1.12667  -1.12622
  Beta  occ. eigenvalues --   -0.17916  -0.12706  -0.12246
  Beta virt. eigenvalues --   -0.07096  -0.05504  -0.05086  -0.04390  -0.02643
  Beta virt. eigenvalues --   -0.02304  -0.01651  -0.01280  -0.01145  -0.00281
  Beta virt. eigenvalues --   -0.00064   0.00151   0.00408   0.00841   0.00921

 Mulliken charges and spin densities:
               1          2
     1  Na  -0.396839   0.657345
     2  Na   0.167752   0.086628
     3  Na   0.117662   0.031530
     4  Na  -0.061262   0.033909
     5  Na   0.218503   0.093906
     6  Na  -0.062685  -0.020943
     7  Na   0.016868   0.117625
 Sum of Mulliken charges =  -0.00000   1.00000

 Dipole moment (field-independent basis, Debye):
    X=              0.2748    Y=              0.0520    Z=              0.3565  Tot=              0.4531
 Quadrupole moment (field-independent basis, Debye-Ang):
   XX=            -58.0034   YY=            -63.1551   ZZ=            -72.6477
   XY=             -0.5285   XZ=              2.2004   YZ=              1.0746

 Normal termination of Gaussian 16 at Thu Dec  7 13:49:29 2023.
