 Gaussian 16, Revision B.01,
 Gaussian 16:  ES64L-G16RevB.01 20-Dec-2017

 -------------------------
 #P B3LYP/6-311+g(d) force
 -------------------------

 -----
 DPGEN
 -----
 Symbolic Z-matrix:
 Charge =  0 Multiplicity = 2

                         Standard orientation:
 ---------------------------------------------------------------------
 Center     Atomic      Atomic             Coordinates (Angstroms)
 Number     Number       Type             X           Y           Z
 ---------------------------------------------------------------------
      1         11           0       -4.129397    0.184851   -0.737398
      2         11           0       -2.574050   -2.423831   -0.498512
      3         11           0       -0.843662    2.808566    0.229066
      4         11           0        2.088714    1.483178   -1.680620
      5         11           0        4.293167   -0.729310   -0.044900
      6         11           0        1.537895   -1.866652    0.306929
      7         11           0       -0.372667    0.543200    2.425435
 ---------------------------------------------------------------------

 SCF Done:  E(UB3LYP) =  -1136.11231975     A.U. after   21 cycles

 The electronic state is 2-A.
 Alpha  occ. eigenvalues --  -38.44960 -38.44745 -38.44508 -38.44446 -38.44216
 Alpha  occ. eigenvalues --  -38.43708 -38.43071  -2.20749  -2.20576  -2.20313
 Alpha  occ. eigenvalues --   -2.20265  -2.20061  -2.19498  -2.18875  -1.14432
 Alpha  occ. eigenvalues --   -1.14396  -1.14357  -1.14298  -1.14223  -1.14204
 Alpha  occ. eigenvalues --   -1.13995  -1.13963  -1.13935  -1.13915  -1.13908
 Alpha  occ. eigenvalues --   -1.13896  -1.13728  -1.13710  -1.13685  -1.13172
 Alpha  occ. eigenvalues --   -1.13164  -1.13143  -1.12557  -1.12536  -1.12523
 Alpha  occ. eigenvalues --   -0.16829  -0.13788  -0.11811  -0.11188
 Alpha virt. eigenvalues --   -0.06853  -0.05423  -0.04312  -0.03712  -0.03167
 Alpha virt. eigenvalues --   -0.02675  -0.02197  -0.01480  -0.00632  -0.00464
 Alpha virt. eigenvalues --   -0.00272  -0.00003   0.00186   0.00477   0.00751

  Beta  occ. eigenvalues --  -38.44896 -38.44744 -38.44468 -38.44372 -38.44182
  Beta  occ. eigenvalues --  -38.43719 -38.43077  -2.20630  -2.20575  -2.20239
  Beta  occ. eigenvalues --   -2.20128  -2.19999  -2.19521  -2.18888  -1.14350
  Beta  occ. eigenvalues --   -1.14320  -1.14295  -1.14272  -1.14224  -1.14187
  Beta  occ. eigenvalues --   -1.13949  -1.13912  -1.13884  -1.13826  -1.13814
  Beta  occ. eigenvalues --   -1.13797  -1.13688  -1.13669  -1.13630  -1.13183
  Beta  occ. eigenvalues --   -1.13182  -1.13146  -1.12558  -1.12542  -1.12529
  Beta  occ. eigenvalues --   -0.16155  -0.13454  -0.11636
  Beta virt. eigenvalues --   -0.07652  -0.06527  -0.04876  -0.04142  -0.03332
  Beta virt. eigenvalues --   -0.02647  -0.02403  -0.01899  -0.01244  -0.00489
  Beta virt. eigenvalues --   -0.00407  -0.00049   0.00092   0.00368   0.00632

 Mulliken charges and spin densities:
               1          2
     1  Na  -0.046072   0.122817
     2  Na   0.054001  -0.056324
     3  Na  -0.068627   0.250665
     4  Na  -0.095152   0.224532
     5  Na   0.716471   0.068359
     6  Na  -0.671124   0.233697
     7  Na   0.110502   0.156253
 Sum of Mulliken charges =  -0.00000   1.00000

 Dipole moment (field-independent basis, Debye):
    X=              1.0716    Y=              0.2188    Z=              0.0456  Tot=              1.0947
 Quadrupole moment (field-independent basis, Debye-Ang):
   XX=            -58.7465   YY=            -71.7130   ZZ=            -69.4953
   XY=             -5.3495   XZ=             -0.0676   YZ=             -2.5460

 Normal termination of Gaussian 16 at Mon Dec  4 04:07:23 2023.
