 Gaussian 16, Revision B.01,
 Gaussian 16:  ES64L-G16RevB.01 20-Dec-2017

 -------------------------
 #P B3LYP/6-311+g(d) force
 -------------------------

 -----
 DPGEN
 -----
 Symbolic Z-matrix:
 Charge =  0 Multiplicity = 2

                         Standard orientation:
 ---------------------------------------------------------------------
 Center     Atomic      Atomic             Coordinates (Angstroms)
 Number     Number       Type             X           Y           Z
 ---------------------------------------------------------------------
      1         11           0        0.285346    2.722344   -0.516387
      2         11           0       -5.887732    0.019887   -0.144299
      3         11           0       -2.793438    0.691525    1.045395
      4         11           0       -2.791826   -2.110705   -0.373772
      5         11           0        0.338173   -0.553821    0.096366
      6         11           0        3.854505   -0.301652   -0.602613
      7         11           0        6.994973   -0.467578    0.495310
 ---------------------------------------------------------------------

 SCF Done:  E(UB3LYP) =  -1136.11568315     A.U. after   21 cycles

 The electronic state is 2-A.
 Alpha  occ. eigenvalues --  -38.44919 -38.44615 -38.44457 -38.44404 -38.43936
 Alpha  occ. eigenvalues --  -38.43691 -38.43596  -2.20789  -2.20480  -2.20255
 Alpha  occ. eigenvalues --   -2.20207  -2.19687  -2.19569  -2.19382  -1.14522
 Alpha  occ. eigenvalues --   -1.14479  -1.14388  -1.14150  -1.14141  -1.14067
 Alpha  occ. eigenvalues --   -1.13913  -1.13893  -1.13887  -1.13867  -1.13864
 Alpha  occ. eigenvalues --   -1.13818  -1.13357  -1.13356  -1.13338  -1.13258
 Alpha  occ. eigenvalues --   -1.13241  -1.13200  -1.13065  -1.13055  -1.12987
 Alpha  occ. eigenvalues --   -0.17213  -0.13832  -0.11781  -0.11180
 Alpha virt. eigenvalues --   -0.06969  -0.05866  -0.04093  -0.03752  -0.02977
 Alpha virt. eigenvalues --   -0.02489  -0.01830  -0.01751  -0.01419  -0.00764
 Alpha virt. eigenvalues --   -0.00356  -0.00181  -0.00029   0.00276   0.00559

  Beta  occ. eigenvalues --  -38.44905 -38.44551 -38.44402 -38.44360 -38.43952
  Beta  occ. eigenvalues --  -38.43667 -38.43591  -2.20767  -2.20365  -2.20152
  Beta  occ. eigenvalues --   -2.20125  -2.19717  -2.19530  -2.19370  -1.14487
  Beta  occ. eigenvalues --   -1.14452  -1.14370  -1.14075  -1.14066  -1.13965
  Beta  occ. eigenvalues --   -1.13843  -1.13825  -1.13817  -1.13808  -1.13804
  Beta  occ. eigenvalues --   -1.13769  -1.13377  -1.13377  -1.13357  -1.13237
  Beta  occ. eigenvalues --   -1.13215  -1.13131  -1.13055  -1.13045  -1.12989
  Beta  occ. eigenvalues --   -0.16460  -0.13675  -0.11620
  Beta virt. eigenvalues --   -0.07390  -0.06829  -0.05327  -0.03789  -0.03541
  Beta virt. eigenvalues --   -0.02397  -0.02305  -0.01693  -0.01551  -0.00975
  Beta virt. eigenvalues --   -0.00678  -0.00186   0.00115   0.00180   0.00380

 Mulliken charges and spin densities:
               1          2
     1  Na   0.298622   0.284908
     2  Na   0.173683   0.212357
     3  Na   0.160119   0.173378
     4  Na   0.329272   0.097062
     5  Na  -0.897357   0.297651
     6  Na  -0.260505   0.005524
     7  Na   0.196165  -0.070880
 Sum of Mulliken charges =  -0.00000   1.00000

 Dipole moment (field-independent basis, Debye):
    X=             -2.0186    Y=              0.2870    Z=             -0.2029  Tot=              2.0490
 Quadrupole moment (field-independent basis, Debye-Ang):
   XX=            -59.0144   YY=            -67.6712   ZZ=            -69.7538
   XY=              3.3827   XZ=              4.6100   YZ=              0.4415

 Normal termination of Gaussian 16 at Wed Nov 29 00:24:46 2023.
