 Gaussian 16, Revision B.01,
 Gaussian 16:  ES64L-G16RevB.01 20-Dec-2017

 -------------------------
 #P B3LYP/6-311+g(d) force
 -------------------------

 -----
 DPGEN
 -----
 Symbolic Z-matrix:
 Charge =  0 Multiplicity = 2

                         Standard orientation:
 ---------------------------------------------------------------------
 Center     Atomic      Atomic             Coordinates (Angstroms)
 Number     Number       Type             X           Y           Z
 ---------------------------------------------------------------------
      1         11           0       -2.543221    1.579977   -0.555629
      2         11           0        2.939784    0.610669    0.244153
      3         11           0       -0.560522   -0.330442    2.099447
      4         11           0        1.748029   -2.715100   -0.412456
      5         11           0        0.127670   -0.027380   -1.543962
      6         11           0        0.625022    2.987729    0.120761
      7         11           0       -2.336762   -2.105455    0.047687
 ---------------------------------------------------------------------

 SCF Done:  E(UB3LYP) =  -1136.13741282     A.U. after   19 cycles

 The electronic state is 2-A.
 Alpha  occ. eigenvalues --  -38.43980 -38.43819 -38.43769 -38.43722 -38.43669
 Alpha  occ. eigenvalues --  -38.43433 -38.43086  -2.19805  -2.19638  -2.19625
 Alpha  occ. eigenvalues --   -2.19568  -2.19514  -2.19278  -2.19067  -1.13513
 Alpha  occ. eigenvalues --   -1.13467  -1.13435  -1.13313  -1.13293  -1.13283
 Alpha  occ. eigenvalues --   -1.13266  -1.13262  -1.13258  -1.13255  -1.13222
 Alpha  occ. eigenvalues --   -1.13205  -1.13188  -1.13178  -1.13148  -1.12951
 Alpha  occ. eigenvalues --   -1.12937  -1.12918  -1.12752  -1.12702  -1.12693
 Alpha  occ. eigenvalues --   -0.18402  -0.12883  -0.12569  -0.10696
 Alpha virt. eigenvalues --   -0.05606  -0.05069  -0.04977  -0.03200  -0.02911
 Alpha virt. eigenvalues --   -0.02502  -0.01398  -0.01334  -0.00521  -0.00363
 Alpha virt. eigenvalues --   -0.00020   0.00343   0.00815   0.00835   0.00881

  Beta  occ. eigenvalues --  -38.43975 -38.43810 -38.43704 -38.43677 -38.43665
  Beta  occ. eigenvalues --  -38.43431 -38.43030  -2.19801  -2.19611  -2.19538
  Beta  occ. eigenvalues --   -2.19507  -2.19467  -2.19276  -2.18966  -1.13494
  Beta  occ. eigenvalues --   -1.13447  -1.13436  -1.13293  -1.13270  -1.13251
  Beta  occ. eigenvalues --   -1.13238  -1.13203  -1.13197  -1.13179  -1.13169
  Beta  occ. eigenvalues --   -1.13162  -1.13141  -1.13140  -1.13132  -1.12949
  Beta  occ. eigenvalues --   -1.12930  -1.12907  -1.12680  -1.12631  -1.12616
  Beta  occ. eigenvalues --   -0.17720  -0.12634  -0.12307
  Beta virt. eigenvalues --   -0.06862  -0.05531  -0.04982  -0.04939  -0.02431
  Beta virt. eigenvalues --   -0.02222  -0.01508  -0.01288  -0.01236  -0.00540
  Beta virt. eigenvalues --   -0.00400   0.00133   0.00387   0.00823   0.00870

 Mulliken charges and spin densities:
               1          2
     1  Na   0.271689   0.037114
     2  Na   0.029385   0.036206
     3  Na  -0.475978   0.689484
     4  Na   0.132624  -0.030738
     5  Na  -0.183331   0.307143
     6  Na   0.012084   0.016447
     7  Na   0.213527  -0.055657
 Sum of Mulliken charges =  -0.00000   1.00000

 Dipole moment (field-independent basis, Debye):
    X=             -0.1588    Y=             -0.2472    Z=              0.1556  Tot=              0.3325
 Quadrupole moment (field-independent basis, Debye-Ang):
   XX=            -59.4729   YY=            -59.5904   ZZ=            -74.5029
   XY=              0.0505   XZ=              1.8391   YZ=              0.9680

 Normal termination of Gaussian 16 at Thu Dec  7 11:55:27 2023.
