 Gaussian 16, Revision B.01,
 Gaussian 16:  ES64L-G16RevB.01 20-Dec-2017

 -------------------------
 #P B3LYP/6-311+g(d) force
 -------------------------

 -----
 DPGEN
 -----
 Symbolic Z-matrix:
 Charge =  0 Multiplicity = 2

                         Standard orientation:
 ---------------------------------------------------------------------
 Center     Atomic      Atomic             Coordinates (Angstroms)
 Number     Number       Type             X           Y           Z
 ---------------------------------------------------------------------
      1         11           0       -1.153211   -2.832314   -1.634669
      2         11           0       -2.920792   -0.439946    0.674736
      3         11           0        2.318187    0.619100    1.205266
      4         11           0       -2.693577    3.137956   -0.232939
      5         11           0        5.064053    0.465768   -0.665820
      6         11           0       -0.230701   -1.681854    1.871419
      7         11           0       -0.383959    0.731291   -1.217992
 ---------------------------------------------------------------------

 SCF Done:  E(UB3LYP) =  -1136.11595511     A.U. after   23 cycles

 The electronic state is 2-A.
 Alpha  occ. eigenvalues --  -38.45101 -38.45101 -38.44642 -38.43970 -38.43863
 Alpha  occ. eigenvalues --  -38.43532 -38.43065  -2.20954  -2.20859  -2.20489
 Alpha  occ. eigenvalues --   -2.19788  -2.19682  -2.19409  -2.18850  -1.14669
 Alpha  occ. eigenvalues --   -1.14640  -1.14543  -1.14518  -1.14518  -1.14491
 Alpha  occ. eigenvalues --   -1.14190  -1.14155  -1.14100  -1.13446  -1.13439
 Alpha  occ. eigenvalues --   -1.13389  -1.13370  -1.13349  -1.13313  -1.13090
 Alpha  occ. eigenvalues --   -1.13060  -1.13007  -1.12521  -1.12517  -1.12486
 Alpha  occ. eigenvalues --   -0.17593  -0.13245  -0.11793  -0.10984
 Alpha virt. eigenvalues --   -0.07429  -0.05206  -0.04179  -0.03228  -0.02791
 Alpha virt. eigenvalues --   -0.02623  -0.02458  -0.01354  -0.01029  -0.00757
 Alpha virt. eigenvalues --   -0.00256  -0.00044   0.00102   0.00584   0.00728

  Beta  occ. eigenvalues --  -38.45095 -38.45082 -38.44623 -38.43895 -38.43851
  Beta  occ. eigenvalues --  -38.43470 -38.43071  -2.20947  -2.20821  -2.20455
  Beta  occ. eigenvalues --   -2.19662  -2.19647  -2.19295  -2.18860  -1.14658
  Beta  occ. eigenvalues --   -1.14612  -1.14548  -1.14492  -1.14492  -1.14467
  Beta  occ. eigenvalues --   -1.14155  -1.14130  -1.14073  -1.13362  -1.13350
  Beta  occ. eigenvalues --   -1.13337  -1.13335  -1.13301  -1.13271  -1.13011
  Beta  occ. eigenvalues --   -1.12983  -1.12920  -1.12528  -1.12523  -1.12492
  Beta  occ. eigenvalues --   -0.16953  -0.13001  -0.11628
  Beta virt. eigenvalues --   -0.07289  -0.07003  -0.04934  -0.03892  -0.03072
  Beta virt. eigenvalues --   -0.02496  -0.02283  -0.01865  -0.01117  -0.00659
  Beta virt. eigenvalues --   -0.00573  -0.00132   0.00157   0.00197   0.00647

 Mulliken charges and spin densities:
               1          2
     1  Na  -0.155304   0.256251
     2  Na   0.231666   0.168198
     3  Na   0.071875  -0.069825
     4  Na   0.154088  -0.114045
     5  Na  -0.023198   0.148625
     6  Na   0.146027   0.215923
     7  Na  -0.425154   0.394873
 Sum of Mulliken charges =  -0.00000   1.00000

 Dipole moment (field-independent basis, Debye):
    X=              0.3899    Y=             -0.5836    Z=             -0.1665  Tot=              0.7214
 Quadrupole moment (field-independent basis, Debye-Ang):
   XX=            -53.9109   YY=            -68.9905   ZZ=            -70.9198
   XY=              1.0478   XZ=             -6.5473   YZ=              1.3139

 Normal termination of Gaussian 16 at Tue Nov 28 21:19:51 2023.
