 Gaussian 16, Revision B.01,
 Gaussian 16:  ES64L-G16RevB.01 20-Dec-2017

 -------------------------
 #P B3LYP/6-311+g(d) force
 -------------------------

 -----
 DPGEN
 -----
 Symbolic Z-matrix:
 Charge =  0 Multiplicity = 2

                         Standard orientation:
 ---------------------------------------------------------------------
 Center     Atomic      Atomic             Coordinates (Angstroms)
 Number     Number       Type             X           Y           Z
 ---------------------------------------------------------------------
      1         11           0       -0.488356    1.516708   -0.213278
      2         11           0        2.040833    3.416187    0.319558
      3         11           0        3.241335    0.329477   -0.463276
      4         11           0        0.135108   -1.478973   -0.886557
      5         11           0       -3.034073   -1.216915   -0.534953
      6         11           0        3.606933   -2.734935    0.991025
      7         11           0       -5.501781    0.168451    0.787482
 ---------------------------------------------------------------------

 SCF Done:  E(UB3LYP) =  -1136.12162058     A.U. after   21 cycles

 The electronic state is 2-A.
 Alpha  occ. eigenvalues --  -38.44825 -38.44290 -38.44087 -38.44065 -38.43883
 Alpha  occ. eigenvalues --  -38.43683 -38.43362  -2.20654  -2.20164  -2.19986
 Alpha  occ. eigenvalues --   -2.19910  -2.19661  -2.19558  -2.19198  -1.14305
 Alpha  occ. eigenvalues --   -1.14275  -1.14270  -1.13917  -1.13849  -1.13761
 Alpha  occ. eigenvalues --   -1.13669  -1.13650  -1.13617  -1.13595  -1.13572
 Alpha  occ. eigenvalues --   -1.13510  -1.13326  -1.13320  -1.13275  -1.13246
 Alpha  occ. eigenvalues --   -1.13222  -1.13202  -1.12864  -1.12851  -1.12836
 Alpha  occ. eigenvalues --   -0.17219  -0.14348  -0.12060  -0.11533
 Alpha virt. eigenvalues --   -0.05828  -0.05495  -0.04353  -0.04012  -0.02669
 Alpha virt. eigenvalues --   -0.02447  -0.02070  -0.01543  -0.00887  -0.00759
 Alpha virt. eigenvalues --   -0.00485  -0.00055   0.00299   0.00505   0.00767

  Beta  occ. eigenvalues --  -38.44715 -38.44274 -38.44048 -38.44030 -38.43859
  Beta  occ. eigenvalues --  -38.43673 -38.43354  -2.20451  -2.20138  -2.19886
  Beta  occ. eigenvalues --   -2.19879  -2.19614  -2.19552  -2.19183  -1.14170
  Beta  occ. eigenvalues --   -1.14137  -1.14133  -1.13877  -1.13832  -1.13744
  Beta  occ. eigenvalues --   -1.13614  -1.13589  -1.13585  -1.13570  -1.13491
  Beta  occ. eigenvalues --   -1.13481  -1.13294  -1.13285  -1.13248  -1.13230
  Beta  occ. eigenvalues --   -1.13225  -1.13141  -1.12852  -1.12840  -1.12827
  Beta  occ. eigenvalues --   -0.16622  -0.13460  -0.11882
  Beta virt. eigenvalues --   -0.07985  -0.05646  -0.05146  -0.03947  -0.03796
  Beta virt. eigenvalues --   -0.02357  -0.02105  -0.01737  -0.01207  -0.00708
  Beta virt. eigenvalues --   -0.00521  -0.00118   0.00087   0.00445   0.00577

 Mulliken charges and spin densities:
               1          2
     1  Na  -0.713551  -0.069611
     2  Na   0.349102   0.013380
     3  Na  -0.033894   0.364826
     4  Na  -0.389575   0.000384
     5  Na   0.164580   0.110400
     6  Na   0.497925   0.144850
     7  Na   0.125412   0.435771
 Sum of Mulliken charges =  -0.00000   1.00000

 Dipole moment (field-independent basis, Debye):
    X=             -0.2059    Y=              0.2196    Z=              0.4019  Tot=              0.5021
 Quadrupole moment (field-independent basis, Debye-Ang):
   XX=            -62.6561   YY=            -64.9686   ZZ=            -69.6100
   XY=             -0.6854   XZ=             -0.3582   YZ=              0.1648

 Normal termination of Gaussian 16 at Wed Nov 29 01:14:49 2023.
