 Gaussian 16, Revision B.01,
 Gaussian 16:  ES64L-G16RevB.01 20-Dec-2017

 -------------------------
 #P B3LYP/6-311+g(d) force
 -------------------------

 -----
 DPGEN
 -----
 Symbolic Z-matrix:
 Charge =  0 Multiplicity = 2

                         Standard orientation:
 ---------------------------------------------------------------------
 Center     Atomic      Atomic             Coordinates (Angstroms)
 Number     Number       Type             X           Y           Z
 ---------------------------------------------------------------------
      1         11           0       -1.177865    2.740139    0.046819
      2         11           0       -4.884255    0.922717    0.598405
      3         11           0       -5.129345   -2.174826   -0.412241
      4         11           0       -2.127176   -0.945705    0.123639
      5         11           0        1.035666    0.289322   -0.355003
      6         11           0        5.553241    0.115335   -1.279183
      7         11           0        6.729734   -0.946982    1.277564
 ---------------------------------------------------------------------

 SCF Done:  E(UB3LYP) =  -1136.11643284     A.U. after   21 cycles

 The electronic state is 2-A.
 Alpha  occ. eigenvalues --  -38.44633 -38.44416 -38.44063 -38.43976 -38.43887
 Alpha  occ. eigenvalues --  -38.43873 -38.43452  -2.20428  -2.20212  -2.19905
 Alpha  occ. eigenvalues --   -2.19780  -2.19770  -2.19713  -2.19277  -1.14156
 Alpha  occ. eigenvalues --   -1.14078  -1.14076  -1.13865  -1.13857  -1.13829
 Alpha  occ. eigenvalues --   -1.13597  -1.13575  -1.13533  -1.13473  -1.13456
 Alpha  occ. eigenvalues --   -1.13453  -1.13431  -1.13420  -1.13409  -1.13364
 Alpha  occ. eigenvalues --   -1.13345  -1.13307  -1.12944  -1.12938  -1.12893
 Alpha  occ. eigenvalues --   -0.16395  -0.13811  -0.12523  -0.10405
 Alpha virt. eigenvalues --   -0.06271  -0.05463  -0.04701  -0.03682  -0.02842
 Alpha virt. eigenvalues --   -0.02501  -0.02084  -0.01891  -0.00990  -0.00935
 Alpha virt. eigenvalues --   -0.00368   0.00060   0.00155   0.00446   0.00590

  Beta  occ. eigenvalues --  -38.44628 -38.44417 -38.44015 -38.43938 -38.43853
  Beta  occ. eigenvalues --  -38.43853 -38.43425  -2.20418  -2.20216  -2.19816
  Beta  occ. eigenvalues --   -2.19714  -2.19709  -2.19676  -2.19227  -1.14150
  Beta  occ. eigenvalues --   -1.14071  -1.14068  -1.13867  -1.13858  -1.13828
  Beta  occ. eigenvalues --   -1.13540  -1.13517  -1.13460  -1.13435  -1.13410
  Beta  occ. eigenvalues --   -1.13396  -1.13378  -1.13374  -1.13350  -1.13340
  Beta  occ. eigenvalues --   -1.13308  -1.13276  -1.12908  -1.12896  -1.12866
  Beta  occ. eigenvalues --   -0.15720  -0.13713  -0.12386
  Beta virt. eigenvalues --   -0.06774  -0.06017  -0.05066  -0.04262  -0.03472
  Beta virt. eigenvalues --   -0.02612  -0.02285  -0.01819  -0.01543  -0.00915
  Beta virt. eigenvalues --   -0.00633  -0.00099   0.00309   0.00353   0.00538

 Mulliken charges and spin densities:
               1          2
     1  Na   0.182019   0.475181
     2  Na   0.106930   0.084312
     3  Na   0.870615   0.086180
     4  Na  -0.584217   0.716799
     5  Na  -0.539073  -0.357199
     6  Na  -0.127672  -0.034784
     7  Na   0.091398   0.029510
 Sum of Mulliken charges =  -0.00000   1.00000

 Dipole moment (field-independent basis, Debye):
    X=              0.4108    Y=             -0.3386    Z=              0.1020  Tot=              0.5421
 Quadrupole moment (field-independent basis, Debye-Ang):
   XX=            -56.0219   YY=            -67.9650   ZZ=            -66.1032
   XY=              2.5078   XZ=              4.5284   YZ=             -2.6090

 Normal termination of Gaussian 16 at Tue Nov 28 20:51:36 2023.
