 Gaussian 16, Revision B.01,
 Gaussian 16:  ES64L-G16RevB.01 20-Dec-2017

 -------------------------
 #P B3LYP/6-311+g(d) force
 -------------------------

 -----
 DPGEN
 -----
 Symbolic Z-matrix:
 Charge =  0 Multiplicity = 2

                         Standard orientation:
 ---------------------------------------------------------------------
 Center     Atomic      Atomic             Coordinates (Angstroms)
 Number     Number       Type             X           Y           Z
 ---------------------------------------------------------------------
      1         11           0       -0.990570    1.406670   -1.744950
      2         11           0        2.033138    2.237792    0.608876
      3         11           0        3.997295   -0.276677   -0.708910
      4         11           0        1.831994   -2.061411    0.636620
      5         11           0       -0.925910    0.265055    1.957088
      6         11           0       -1.523823   -1.717391   -0.965342
      7         11           0       -4.422123    0.145963    0.216617
 ---------------------------------------------------------------------

 SCF Done:  E(UB3LYP) =  -1136.11068865     A.U. after   29 cycles

 The electronic state is 2-A.
 Alpha  occ. eigenvalues --  -38.45904 -38.44851 -38.44222 -38.44206 -38.44167
 Alpha  occ. eigenvalues --  -38.43638 -38.43393  -2.21643  -2.20674  -2.20063
 Alpha  occ. eigenvalues --   -2.20039  -2.20007  -2.19426  -2.19216  -1.15324
 Alpha  occ. eigenvalues --   -1.15313  -1.15271  -1.14360  -1.14324  -1.14296
 Alpha  occ. eigenvalues --   -1.13821  -1.13742  -1.13700  -1.13679  -1.13666
 Alpha  occ. eigenvalues --   -1.13663  -1.13638  -1.13624  -1.13623  -1.13098
 Alpha  occ. eigenvalues --   -1.13095  -1.13079  -1.12909  -1.12882  -1.12856
 Alpha  occ. eigenvalues --   -0.17631  -0.14053  -0.11204  -0.10823
 Alpha virt. eigenvalues --   -0.07765  -0.05163  -0.04280  -0.03564  -0.02997
 Alpha virt. eigenvalues --   -0.02612  -0.02447  -0.01297  -0.01038  -0.00464
 Alpha virt. eigenvalues --   -0.00238   0.00056   0.00223   0.00554   0.00763

  Beta  occ. eigenvalues --  -38.45910 -38.44822 -38.44224 -38.44113 -38.44076
  Beta  occ. eigenvalues --  -38.43637 -38.43404  -2.21656  -2.20621  -2.20068
  Beta  occ. eigenvalues --   -2.19870  -2.19838  -2.19426  -2.19237  -1.15331
  Beta  occ. eigenvalues --   -1.15308  -1.15282  -1.14317  -1.14288  -1.14268
  Beta  occ. eigenvalues --   -1.13796  -1.13717  -1.13696  -1.13596  -1.13563
  Beta  occ. eigenvalues --   -1.13554  -1.13534  -1.13502  -1.13485  -1.13097
  Beta  occ. eigenvalues --   -1.13087  -1.13069  -1.12912  -1.12891  -1.12881
  Beta  occ. eigenvalues --   -0.17002  -0.13753  -0.11012
  Beta virt. eigenvalues --   -0.07654  -0.06933  -0.05062  -0.04057  -0.03157
  Beta virt. eigenvalues --   -0.02797  -0.01916  -0.01696  -0.01260  -0.00725
  Beta virt. eigenvalues --   -0.00295  -0.00190   0.00055   0.00393   0.00628

 Mulliken charges and spin densities:
               1          2
     1  Na  -0.130534   0.337110
     2  Na  -0.060126  -0.050414
     3  Na   0.166069  -0.026483
     4  Na  -0.043596   0.157564
     5  Na  -0.349029   0.475523
     6  Na   0.131930   0.223032
     7  Na   0.285287  -0.116330
 Sum of Mulliken charges =  -0.00000   1.00000

 Dipole moment (field-independent basis, Debye):
    X=             -1.2742    Y=              0.1548    Z=             -0.2779  Tot=              1.3133
 Quadrupole moment (field-independent basis, Debye-Ang):
   XX=            -48.1524   YY=            -74.1264   ZZ=            -72.7219
   XY=              0.3546   XZ=             -2.0487   YZ=              1.3454

 Normal termination of Gaussian 16 at Sun Dec  3 12:55:51 2023.
