 Gaussian 16, Revision B.01,
 Gaussian 16:  ES64L-G16RevB.01 20-Dec-2017

 -------------------------
 #P B3LYP/6-311+g(d) force
 -------------------------

 -----
 DPGEN
 -----
 Symbolic Z-matrix:
 Charge =  0 Multiplicity = 2

                         Standard orientation:
 ---------------------------------------------------------------------
 Center     Atomic      Atomic             Coordinates (Angstroms)
 Number     Number       Type             X           Y           Z
 ---------------------------------------------------------------------
      1         11           0       -2.267032    1.832835   -0.156379
      2         11           0        3.408981   -0.639359   -0.775919
      3         11           0       -0.061199    0.647881    1.882369
      4         11           0       -3.467188   -1.493824   -0.468424
      5         11           0        1.500266    2.397212   -0.173018
      6         11           0        1.014592   -2.409422    0.876283
      7         11           0       -0.128420   -0.335324   -1.184912
 ---------------------------------------------------------------------

 SCF Done:  E(UB3LYP) =  -1136.12782040     A.U. after   21 cycles

 The electronic state is 2-A.
 Alpha  occ. eigenvalues --  -38.44256 -38.44174 -38.43910 -38.43488 -38.43350
 Alpha  occ. eigenvalues --  -38.43290 -38.43179  -2.20081  -2.19952  -2.19793
 Alpha  occ. eigenvalues --   -2.19508  -2.19339  -2.19172  -2.19065  -1.13749
 Alpha  occ. eigenvalues --   -1.13725  -1.13718  -1.13624  -1.13607  -1.13589
 Alpha  occ. eigenvalues --   -1.13515  -1.13494  -1.13373  -1.13275  -1.13188
 Alpha  occ. eigenvalues --   -1.13101  -1.13018  -1.12984  -1.12955  -1.12848
 Alpha  occ. eigenvalues --   -1.12813  -1.12781  -1.12740  -1.12733  -1.12665
 Alpha  occ. eigenvalues --   -0.18735  -0.13468  -0.11949  -0.10758
 Alpha virt. eigenvalues --   -0.06117  -0.05410  -0.04087  -0.03193  -0.02734
 Alpha virt. eigenvalues --   -0.02230  -0.02044  -0.01318  -0.00416  -0.00120
 Alpha virt. eigenvalues --    0.00016   0.00226   0.00678   0.00758   0.00840

  Beta  occ. eigenvalues --  -38.44226 -38.44165 -38.43903 -38.43467 -38.43263
  Beta  occ. eigenvalues --  -38.43257 -38.43170  -2.20027  -2.19935  -2.19783
  Beta  occ. eigenvalues --   -2.19472  -2.19181  -2.19114  -2.19051  -1.13705
  Beta  occ. eigenvalues --   -1.13687  -1.13681  -1.13611  -1.13590  -1.13580
  Beta  occ. eigenvalues --   -1.13509  -1.13470  -1.13363  -1.13222  -1.13168
  Beta  occ. eigenvalues --   -1.13073  -1.12929  -1.12882  -1.12845  -1.12804
  Beta  occ. eigenvalues --   -1.12757  -1.12736  -1.12724  -1.12706  -1.12638
  Beta  occ. eigenvalues --   -0.18072  -0.13107  -0.11718
  Beta virt. eigenvalues --   -0.07028  -0.05809  -0.05349  -0.03899  -0.02688
  Beta virt. eigenvalues --   -0.02134  -0.01931  -0.01370  -0.01190  -0.00256
  Beta virt. eigenvalues --   -0.00001   0.00080   0.00298   0.00754   0.00780

 Mulliken charges and spin densities:
               1          2
     1  Na   0.080456   0.053663
     2  Na   0.218640   0.089619
     3  Na   0.410599   0.207305
     4  Na   0.120414   0.071523
     5  Na  -0.206657   0.179956
     6  Na  -0.008924   0.275119
     7  Na  -0.614527   0.122815
 Sum of Mulliken charges =  -0.00000   1.00000

 Dipole moment (field-independent basis, Debye):
    X=             -0.0923    Y=              0.0625    Z=              0.2098  Tot=              0.2376
 Quadrupole moment (field-independent basis, Debye-Ang):
   XX=            -53.7298   YY=            -66.1031   ZZ=            -72.7487
   XY=             -0.0238   XZ=             -1.1936   YZ=             -1.3466

 Normal termination of Gaussian 16 at Fri Dec  8 04:08:08 2023.
