 Gaussian 16, Revision B.01,
 Gaussian 16:  ES64L-G16RevB.01 20-Dec-2017

 -------------------------
 #P B3LYP/6-311+g(d) force
 -------------------------

 -----
 DPGEN
 -----
 Symbolic Z-matrix:
 Charge =  0 Multiplicity = 2

                         Standard orientation:
 ---------------------------------------------------------------------
 Center     Atomic      Atomic             Coordinates (Angstroms)
 Number     Number       Type             X           Y           Z
 ---------------------------------------------------------------------
      1         11           0        0.369504   -0.209388    2.057010
      2         11           0       -1.906175   -2.563954    0.041236
      3         11           0        2.525890   -2.000331   -0.401606
      4         11           0       -0.372569    0.008534   -1.575741
      5         11           0       -3.313518    0.782254    0.017306
      6         11           0        0.082104    2.991507   -0.064986
      7         11           0        2.614764    0.991378   -0.073219
 ---------------------------------------------------------------------

 SCF Done:  E(UB3LYP) =  -1136.13211676     A.U. after   20 cycles

 The electronic state is 2-A.
 Alpha  occ. eigenvalues --  -38.44854 -38.44065 -38.43823 -38.43554 -38.43541
 Alpha  occ. eigenvalues --  -38.43265 -38.43057  -2.20634  -2.19862  -2.19671
 Alpha  occ. eigenvalues --   -2.19493  -2.19434  -2.19213  -2.18906  -1.14316
 Alpha  occ. eigenvalues --   -1.14290  -1.14266  -1.13546  -1.13525  -1.13492
 Alpha  occ. eigenvalues --   -1.13437  -1.13317  -1.13301  -1.13189  -1.13148
 Alpha  occ. eigenvalues --   -1.13112  -1.13090  -1.13050  -1.13044  -1.12907
 Alpha  occ. eigenvalues --   -1.12855  -1.12838  -1.12582  -1.12558  -1.12547
 Alpha  occ. eigenvalues --   -0.18469  -0.13361  -0.12104  -0.10537
 Alpha virt. eigenvalues --   -0.06141  -0.05300  -0.04543  -0.03312  -0.02655
 Alpha virt. eigenvalues --   -0.02399  -0.01837  -0.01189  -0.00609  -0.00356
 Alpha virt. eigenvalues --   -0.00023   0.00332   0.00727   0.00781   0.00884

  Beta  occ. eigenvalues --  -38.44855 -38.44063 -38.43813 -38.43531 -38.43456
  Beta  occ. eigenvalues --  -38.43211 -38.43054  -2.20637  -2.19860  -2.19655
  Beta  occ. eigenvalues --   -2.19479  -2.19253  -2.19114  -2.18904  -1.14305
  Beta  occ. eigenvalues --   -1.14292  -1.14272  -1.13539  -1.13512  -1.13494
  Beta  occ. eigenvalues --   -1.13429  -1.13295  -1.13281  -1.13168  -1.13113
  Beta  occ. eigenvalues --   -1.13092  -1.12976  -1.12929  -1.12915  -1.12837
  Beta  occ. eigenvalues --   -1.12786  -1.12762  -1.12580  -1.12549  -1.12536
  Beta  occ. eigenvalues --   -0.17746  -0.13150  -0.11887
  Beta virt. eigenvalues --   -0.06634  -0.06103  -0.05231  -0.04515  -0.02559
  Beta virt. eigenvalues --   -0.01937  -0.01733  -0.01370  -0.01106  -0.00651
  Beta virt. eigenvalues --   -0.00392   0.00142   0.00372   0.00747   0.00847

 Mulliken charges and spin densities:
               1          2
     1  Na  -0.488168   0.675702
     2  Na  -0.020363  -0.101348
     3  Na   0.124089  -0.003224
     4  Na  -0.076883   0.387753
     5  Na   0.044095  -0.077679
     6  Na  -0.005767  -0.061776
     7  Na   0.422997   0.180572
 Sum of Mulliken charges =  -0.00000   1.00000

 Dipole moment (field-independent basis, Debye):
    X=             -0.8345    Y=             -0.2670    Z=              0.1329  Tot=              0.8862
 Quadrupole moment (field-independent basis, Debye-Ang):
   XX=            -55.2048   YY=            -62.4205   ZZ=            -75.5287
   XY=             -1.3430   XZ=             -1.5447   YZ=              0.7530

 Normal termination of Gaussian 16 at Thu Dec  7 04:31:57 2023.
