 Gaussian 16, Revision B.01,
 Gaussian 16:  ES64L-G16RevB.01 20-Dec-2017

 -------------------------
 #P B3LYP/6-311+g(d) force
 -------------------------

 -----
 DPGEN
 -----
 Symbolic Z-matrix:
 Charge =  0 Multiplicity = 2

                         Standard orientation:
 ---------------------------------------------------------------------
 Center     Atomic      Atomic             Coordinates (Angstroms)
 Number     Number       Type             X           Y           Z
 ---------------------------------------------------------------------
      1         11           0        3.041094    1.045806    0.144218
      2         11           0        2.006708   -2.340096   -0.516257
      3         11           0        0.030125   -0.308724    2.102315
      4         11           0       -0.135205    3.158757   -0.168506
      5         11           0       -1.713752   -2.249015   -0.019111
      6         11           0       -3.198084    0.593890   -0.136046
      7         11           0       -0.030887    0.099383   -1.406613
 ---------------------------------------------------------------------

 SCF Done:  E(UB3LYP) =  -1136.13576147     A.U. after   19 cycles

 The electronic state is 2-A.
 Alpha  occ. eigenvalues --  -38.44330 -38.44185 -38.43583 -38.43549 -38.43549
 Alpha  occ. eigenvalues --  -38.43410 -38.42894  -2.20127  -2.20014  -2.19429
 Alpha  occ. eigenvalues --   -2.19386  -2.19380  -2.19317  -2.18911  -1.13805
 Alpha  occ. eigenvalues --   -1.13789  -1.13761  -1.13699  -1.13674  -1.13653
 Alpha  occ. eigenvalues --   -1.13116  -1.13081  -1.13074  -1.13063  -1.13047
 Alpha  occ. eigenvalues --   -1.13041  -1.13028  -1.13024  -1.13013  -1.13008
 Alpha  occ. eigenvalues --   -1.12965  -1.12936  -1.12606  -1.12548  -1.12531
 Alpha  occ. eigenvalues --   -0.18530  -0.13087  -0.12318  -0.10525
 Alpha virt. eigenvalues --   -0.05893  -0.05143  -0.04820  -0.03109  -0.02660
 Alpha virt. eigenvalues --   -0.02404  -0.01697  -0.01223  -0.00606  -0.00412
 Alpha virt. eigenvalues --   -0.00003   0.00331   0.00771   0.00834   0.00875

  Beta  occ. eigenvalues --  -38.44327 -38.44182 -38.43582 -38.43535 -38.43446
  Beta  occ. eigenvalues --  -38.43401 -38.42844  -2.20125  -2.20012  -2.19382
  Beta  occ. eigenvalues --   -2.19363  -2.19306  -2.19239  -2.18822  -1.13791
  Beta  occ. eigenvalues --   -1.13783  -1.13764  -1.13698  -1.13655  -1.13654
  Beta  occ. eigenvalues --   -1.13073  -1.13058  -1.13037  -1.13032  -1.13010
  Beta  occ. eigenvalues --   -1.13009  -1.13007  -1.12973  -1.12944  -1.12932
  Beta  occ. eigenvalues --   -1.12909  -1.12890  -1.12538  -1.12481  -1.12464
  Beta  occ. eigenvalues --   -0.17819  -0.12874  -0.12082
  Beta virt. eigenvalues --   -0.06595  -0.05864  -0.05112  -0.04764  -0.02349
  Beta virt. eigenvalues --   -0.01970  -0.01608  -0.01339  -0.01126  -0.00635
  Beta virt. eigenvalues --   -0.00455   0.00154   0.00374   0.00811   0.00854

 Mulliken charges and spin densities:
               1          2
     1  Na   0.074149  -0.005875
     2  Na   0.218987   0.045603
     3  Na  -0.484401   0.721653
     4  Na   0.013646  -0.065827
     5  Na   0.515076   0.103097
     6  Na   0.066696  -0.049372
     7  Na  -0.404152   0.250722
 Sum of Mulliken charges =  -0.00000   1.00000

 Dipole moment (field-independent basis, Debye):
    X=              0.0929    Y=              0.1693    Z=              0.2043  Tot=              0.2811
 Quadrupole moment (field-independent basis, Debye-Ang):
   XX=            -54.3184   YY=            -61.9033   ZZ=            -75.9477
   XY=             -0.3667   XZ=              0.0831   YZ=              1.1344

 Normal termination of Gaussian 16 at Tue Dec  5 17:00:38 2023.
