 Gaussian 16, Revision B.01,
 Gaussian 16:  ES64L-G16RevB.01 20-Dec-2017

 -------------------------
 #P B3LYP/6-311+g(d) force
 -------------------------

 -----
 DPGEN
 -----
 Symbolic Z-matrix:
 Charge =  0 Multiplicity = 2

                         Standard orientation:
 ---------------------------------------------------------------------
 Center     Atomic      Atomic             Coordinates (Angstroms)
 Number     Number       Type             X           Y           Z
 ---------------------------------------------------------------------
      1         11           0        3.306060   -0.396996    0.461414
      2         11           0       -0.150897   -0.355769    1.851757
      3         11           0        0.730446   -2.526267   -0.522506
      4         11           0       -0.226835    0.207632   -1.807881
      5         11           0        1.361462    2.301937   -0.377068
      6         11           0       -1.907664    2.001996    0.386862
      7         11           0       -3.112572   -1.232532    0.007421
 ---------------------------------------------------------------------

 SCF Done:  E(UB3LYP) =  -1136.13379628     A.U. after   19 cycles

 The electronic state is 2-A.
 Alpha  occ. eigenvalues --  -38.44341 -38.44326 -38.43691 -38.43382 -38.43315
 Alpha  occ. eigenvalues --  -38.43237 -38.42912  -2.20155  -2.20130  -2.19621
 Alpha  occ. eigenvalues --   -2.19388  -2.19225  -2.19114  -2.18824  -1.13823
 Alpha  occ. eigenvalues --   -1.13814  -1.13806  -1.13796  -1.13790  -1.13770
 Alpha  occ. eigenvalues --   -1.13312  -1.13280  -1.13225  -1.13101  -1.13064
 Alpha  occ. eigenvalues --   -1.13019  -1.12908  -1.12880  -1.12840  -1.12797
 Alpha  occ. eigenvalues --   -1.12778  -1.12713  -1.12519  -1.12466  -1.12437
 Alpha  occ. eigenvalues --   -0.18942  -0.13236  -0.12171  -0.11046
 Alpha virt. eigenvalues --   -0.06093  -0.04906  -0.04067  -0.03376  -0.02914
 Alpha virt. eigenvalues --   -0.02653  -0.01914  -0.00946  -0.00253  -0.00006
 Alpha virt. eigenvalues --    0.00083   0.00329   0.00805   0.00837   0.00911

  Beta  occ. eigenvalues --  -38.44333 -38.44326 -38.43621 -38.43303 -38.43296
  Beta  occ. eigenvalues --  -38.43220 -38.42903  -2.20143  -2.20134  -2.19492
  Beta  occ. eigenvalues --   -2.19232  -2.19209  -2.19088  -2.18811  -1.13810
  Beta  occ. eigenvalues --   -1.13802  -1.13797  -1.13790  -1.13785  -1.13770
  Beta  occ. eigenvalues --   -1.13228  -1.13186  -1.13129  -1.13001  -1.12962
  Beta  occ. eigenvalues --   -1.12928  -1.12880  -1.12845  -1.12820  -1.12771
  Beta  occ. eigenvalues --   -1.12734  -1.12696  -1.12496  -1.12442  -1.12429
  Beta  occ. eigenvalues --   -0.18199  -0.12994  -0.11900
  Beta virt. eigenvalues --   -0.07122  -0.06009  -0.04901  -0.04030  -0.02649
  Beta virt. eigenvalues --   -0.02134  -0.01822  -0.01570  -0.00897  -0.00209
  Beta virt. eigenvalues --    0.00024   0.00114   0.00348   0.00858   0.00892

 Mulliken charges and spin densities:
               1          2
     1  Na  -0.041419   0.025954
     2  Na  -0.362230   0.594780
     3  Na   0.064391  -0.038693
     4  Na  -0.075310   0.484234
     5  Na   0.233920   0.031660
     6  Na   0.158083   0.024816
     7  Na   0.022565  -0.122751
 Sum of Mulliken charges =  -0.00000   1.00000

 Dipole moment (field-independent basis, Debye):
    X=             -0.1602    Y=             -0.3047    Z=              0.2363  Tot=              0.4176
 Quadrupole moment (field-independent basis, Debye-Ang):
   XX=            -52.5298   YY=            -67.8684   ZZ=            -72.7496
   XY=              0.7532   XZ=              0.6646   YZ=              1.2118

 Normal termination of Gaussian 16 at Thu Dec  7 22:35:39 2023.
