 Gaussian 16, Revision B.01,
 Gaussian 16:  ES64L-G16RevB.01 20-Dec-2017

 -------------------------
 #P B3LYP/6-311+g(d) force
 -------------------------

 -----
 DPGEN
 -----
 Symbolic Z-matrix:
 Charge =  0 Multiplicity = 2

                         Standard orientation:
 ---------------------------------------------------------------------
 Center     Atomic      Atomic             Coordinates (Angstroms)
 Number     Number       Type             X           Y           Z
 ---------------------------------------------------------------------
      1         11           0        1.912444    2.469840    0.049613
      2         11           0        0.010332   -2.954476   -0.488999
      3         11           0        0.085616   -0.289764    1.844007
      4         11           0       -2.089248    2.370536   -0.214286
      5         11           0       -2.817689   -0.934672    0.446750
      6         11           0       -0.324367    0.061238   -1.646215
      7         11           0        3.222913   -0.722703    0.009130
 ---------------------------------------------------------------------

 SCF Done:  E(UB3LYP) =  -1136.13750626     A.U. after   19 cycles

 The electronic state is 2-A.
 Alpha  occ. eigenvalues --  -38.44278 -38.43843 -38.43838 -38.43596 -38.43418
 Alpha  occ. eigenvalues --  -38.43277 -38.43080  -2.20073  -2.19722  -2.19644
 Alpha  occ. eigenvalues --   -2.19430  -2.19335  -2.19133  -2.19054  -1.13750
 Alpha  occ. eigenvalues --   -1.13731  -1.13715  -1.13418  -1.13387  -1.13348
 Alpha  occ. eigenvalues --   -1.13324  -1.13310  -1.13276  -1.13128  -1.13081
 Alpha  occ. eigenvalues --   -1.13065  -1.13021  -1.12960  -1.12955  -1.12850
 Alpha  occ. eigenvalues --   -1.12783  -1.12760  -1.12729  -1.12675  -1.12663
 Alpha  occ. eigenvalues --   -0.18547  -0.13091  -0.12360  -0.10545
 Alpha virt. eigenvalues --   -0.05687  -0.05331  -0.04768  -0.03150  -0.02790
 Alpha virt. eigenvalues --   -0.02313  -0.01598  -0.01222  -0.00522  -0.00471
 Alpha virt. eigenvalues --    0.00019   0.00349   0.00789   0.00845   0.00865

  Beta  occ. eigenvalues --  -38.44278 -38.43842 -38.43822 -38.43592 -38.43339
  Beta  occ. eigenvalues --  -38.43262 -38.43010  -2.20075  -2.19696  -2.19645
  Beta  occ. eigenvalues --   -2.19424  -2.19191  -2.19108  -2.18928  -1.13741
  Beta  occ. eigenvalues --   -1.13733  -1.13714  -1.13397  -1.13341  -1.13335
  Beta  occ. eigenvalues --   -1.13314  -1.13310  -1.13276  -1.13114  -1.13068
  Beta  occ. eigenvalues --   -1.13061  -1.12926  -1.12865  -1.12843  -1.12814
  Beta  occ. eigenvalues --   -1.12752  -1.12742  -1.12645  -1.12589  -1.12572
  Beta  occ. eigenvalues --   -0.17838  -0.12873  -0.12096
  Beta virt. eigenvalues --   -0.06652  -0.05661  -0.05296  -0.04715  -0.02402
  Beta virt. eigenvalues --   -0.02067  -0.01515  -0.01310  -0.01108  -0.00559
  Beta virt. eigenvalues --   -0.00494   0.00147   0.00385   0.00813   0.00867

 Mulliken charges and spin densities:
               1          2
     1  Na  -0.106405  -0.112664
     2  Na   0.020035  -0.040215
     3  Na  -0.143260   0.623598
     4  Na  -0.006687  -0.103673
     5  Na   0.332528   0.099827
     6  Na  -0.079590   0.623846
     7  Na  -0.016621  -0.090718
 Sum of Mulliken charges =  -0.00000   1.00000

 Dipole moment (field-independent basis, Debye):
    X=              0.2459    Y=              0.0311    Z=              0.1159  Tot=              0.2737
 Quadrupole moment (field-independent basis, Debye-Ang):
   XX=            -55.7312   YY=            -61.1737   ZZ=            -75.6494
   XY=             -0.6409   XZ=             -0.9437   YZ=              0.7024

 Normal termination of Gaussian 16 at Tue Dec  5 15:08:31 2023.
