 Gaussian 16, Revision B.01,
 Gaussian 16:  ES64L-G16RevB.01 20-Dec-2017

 -------------------------
 #P B3LYP/6-311+g(d) force
 -------------------------

 -----
 DPGEN
 -----
 Symbolic Z-matrix:
 Charge =  0 Multiplicity = 2

                         Standard orientation:
 ---------------------------------------------------------------------
 Center     Atomic      Atomic             Coordinates (Angstroms)
 Number     Number       Type             X           Y           Z
 ---------------------------------------------------------------------
      1         11           0        1.954624    1.614306    0.697796
      2         11           0       -3.464467    0.982605    1.092382
      3         11           0       -0.922693   -1.083734   -0.236908
      4         11           0        2.408881   -1.742476    1.301950
      5         11           0       -1.544551    2.878518   -0.890486
      6         11           0       -3.323755   -2.538087   -0.888755
      7         11           0        4.891961   -0.111132   -1.075979
 ---------------------------------------------------------------------

 SCF Done:  E(UB3LYP) =  -1136.11330500     A.U. after   24 cycles

 The electronic state is 2-A.
 Alpha  occ. eigenvalues --  -38.45365 -38.44941 -38.44617 -38.43887 -38.43663
 Alpha  occ. eigenvalues --  -38.43545 -38.43388  -2.21153  -2.20715  -2.20417
 Alpha  occ. eigenvalues --   -2.19697  -2.19496  -2.19331  -2.19296  -1.14843
 Alpha  occ. eigenvalues --   -1.14814  -1.14762  -1.14416  -1.14394  -1.14324
 Alpha  occ. eigenvalues --   -1.14093  -1.14072  -1.14041  -1.13342  -1.13338
 Alpha  occ. eigenvalues --   -1.13316  -1.13291  -1.13139  -1.13114  -1.13007
 Alpha  occ. eigenvalues --   -1.12990  -1.12985  -1.12975  -1.12927  -1.12876
 Alpha  occ. eigenvalues --   -0.16786  -0.14255  -0.11650  -0.10367
 Alpha virt. eigenvalues --   -0.06872  -0.05726  -0.04802  -0.03417  -0.02860
 Alpha virt. eigenvalues --   -0.02168  -0.01996  -0.01484  -0.01144  -0.00624
 Alpha virt. eigenvalues --   -0.00452  -0.00315   0.00174   0.00343   0.00487

  Beta  occ. eigenvalues --  -38.45350 -38.44933 -38.44592 -38.43770 -38.43662
  Beta  occ. eigenvalues --  -38.43546 -38.43370  -2.21126  -2.20703  -2.20376
  Beta  occ. eigenvalues --   -2.19494  -2.19477  -2.19334  -2.19266  -1.14821
  Beta  occ. eigenvalues --   -1.14797  -1.14741  -1.14408  -1.14368  -1.14314
  Beta  occ. eigenvalues --   -1.14067  -1.14033  -1.13999  -1.13311  -1.13192
  Beta  occ. eigenvalues --   -1.13188  -1.13147  -1.13137  -1.13108  -1.13010
  Beta  occ. eigenvalues --   -1.12991  -1.12973  -1.12967  -1.12906  -1.12840
  Beta  occ. eigenvalues --   -0.16310  -0.13712  -0.11583
  Beta virt. eigenvalues --   -0.06786  -0.06482  -0.05519  -0.04509  -0.03150
  Beta virt. eigenvalues --   -0.02503  -0.02060  -0.01662  -0.01064  -0.00871
  Beta virt. eigenvalues --   -0.00386  -0.00267   0.00074   0.00298   0.00445

 Mulliken charges and spin densities:
               1          2
     1  Na   0.509434  -0.035125
     2  Na   0.301151   0.140408
     3  Na  -1.935409   0.068539
     4  Na   0.489255   0.075388
     5  Na   0.026694  -0.014647
     6  Na   0.467921   0.149884
     7  Na   0.140954   0.615553
 Sum of Mulliken charges =  -0.00000   1.00000

 Dipole moment (field-independent basis, Debye):
    X=             -1.1603    Y=              0.0499    Z=              0.9648  Tot=              1.5098
 Quadrupole moment (field-independent basis, Debye-Ang):
   XX=            -68.2814   YY=            -69.1929   ZZ=            -65.5821
   XY=             -1.4980   XZ=              1.1593   YZ=             -0.7776

 Normal termination of Gaussian 16 at Sun Dec  3 23:26:23 2023.
