 Gaussian 16, Revision B.01,
 Gaussian 16:  ES64L-G16RevB.01 20-Dec-2017

 -------------------------
 #P B3LYP/6-311+g(d) force
 -------------------------

 -----
 DPGEN
 -----
 Symbolic Z-matrix:
 Charge =  0 Multiplicity = 2

                         Standard orientation:
 ---------------------------------------------------------------------
 Center     Atomic      Atomic             Coordinates (Angstroms)
 Number     Number       Type             X           Y           Z
 ---------------------------------------------------------------------
      1         11           0        2.368601   -0.649251   -1.230783
      2         11           0        0.034861   -0.380078    0.982244
      3         11           0        3.233281   -0.334444    1.758413
      4         11           0       -0.574302   -3.217473   -1.218855
      5         11           0       -3.499501   -1.265009    0.572275
      6         11           0       -2.184868    2.593076    0.343758
      7         11           0        0.621929    3.253179   -1.207052
 ---------------------------------------------------------------------

 SCF Done:  E(UB3LYP) =  -1136.12262528     A.U. after   20 cycles

 The electronic state is 2-A.
 Alpha  occ. eigenvalues --  -38.44294 -38.44234 -38.44181 -38.44056 -38.43805
 Alpha  occ. eigenvalues --  -38.43801 -38.43783  -2.20155  -2.19996  -2.19962
 Alpha  occ. eigenvalues --   -2.19924  -2.19704  -2.19592  -2.19573  -1.13868
 Alpha  occ. eigenvalues --   -1.13842  -1.13781  -1.13676  -1.13647  -1.13632
 Alpha  occ. eigenvalues --   -1.13628  -1.13616  -1.13588  -1.13575  -1.13548
 Alpha  occ. eigenvalues --   -1.13537  -1.13425  -1.13355  -1.13315  -1.13296
 Alpha  occ. eigenvalues --   -1.13276  -1.13245  -1.13233  -1.13210  -1.13169
 Alpha  occ. eigenvalues --   -0.17211  -0.13202  -0.12443  -0.10623
 Alpha virt. eigenvalues --   -0.05913  -0.05555  -0.05334  -0.03165  -0.02874
 Alpha virt. eigenvalues --   -0.02225  -0.01912  -0.01102  -0.00848  -0.00744
 Alpha virt. eigenvalues --   -0.00465   0.00214   0.00360   0.00461   0.00748

  Beta  occ. eigenvalues --  -38.44279 -38.44221 -38.44131 -38.43999 -38.43812
  Beta  occ. eigenvalues --  -38.43783 -38.43749  -2.20131  -2.19971  -2.19869
  Beta  occ. eigenvalues --   -2.19816  -2.19673  -2.19608  -2.19509  -1.13854
  Beta  occ. eigenvalues --   -1.13803  -1.13756  -1.13658  -1.13629  -1.13611
  Beta  occ. eigenvalues --   -1.13569  -1.13552  -1.13510  -1.13509  -1.13477
  Beta  occ. eigenvalues --   -1.13472  -1.13381  -1.13339  -1.13295  -1.13287
  Beta  occ. eigenvalues --   -1.13286  -1.13242  -1.13187  -1.13167  -1.13143
  Beta  occ. eigenvalues --   -0.16677  -0.12875  -0.12105
  Beta virt. eigenvalues --   -0.07294  -0.05602  -0.05070  -0.04956  -0.02867
  Beta virt. eigenvalues --   -0.02617  -0.01886  -0.01523  -0.00995  -0.00644
  Beta virt. eigenvalues --   -0.00488  -0.00195   0.00311   0.00520   0.00641

 Mulliken charges and spin densities:
               1          2
     1  Na   0.188282   0.370856
     2  Na  -1.262163   0.188934
     3  Na   0.443259  -0.007998
     4  Na  -0.182457   0.220289
     5  Na   0.695512   0.046991
     6  Na   0.345030   0.033458
     7  Na  -0.227464   0.147471
 Sum of Mulliken charges =  -0.00000   1.00000

 Dipole moment (field-independent basis, Debye):
    X=              0.2758    Y=             -0.3654    Z=             -0.0679  Tot=              0.4628
 Quadrupole moment (field-independent basis, Debye-Ang):
   XX=            -56.4885   YY=            -68.0064   ZZ=            -70.0881
   XY=              1.4682   XZ=             -1.5126   YZ=              1.1587

 Normal termination of Gaussian 16 at Tue Dec  5 23:14:21 2023.
