 Gaussian 16, Revision B.01,
 Gaussian 16:  ES64L-G16RevB.01 20-Dec-2017

 -------------------------
 #P B3LYP/6-311+g(d) force
 -------------------------

 -----
 DPGEN
 -----
 Symbolic Z-matrix:
 Charge =  0 Multiplicity = 2

                         Standard orientation:
 ---------------------------------------------------------------------
 Center     Atomic      Atomic             Coordinates (Angstroms)
 Number     Number       Type             X           Y           Z
 ---------------------------------------------------------------------
      1         11           0       -0.585872    0.062081    1.574134
      2         11           0       -2.106126    1.972534   -0.681465
      3         11           0        1.452824    2.493339    0.334563
      4         11           0       -3.502102   -0.945175    0.130203
      5         11           0        1.463565   -0.139068   -1.542901
      6         11           0        3.488938   -0.882549    0.474093
      7         11           0       -0.211228   -2.561162   -0.288626
 ---------------------------------------------------------------------

 SCF Done:  E(UB3LYP) =  -1136.12397234     A.U. after   26 cycles

 The electronic state is 2-A.
 Alpha  occ. eigenvalues --  -38.45636 -38.44779 -38.43652 -38.43547 -38.43295
 Alpha  occ. eigenvalues --  -38.43270 -38.42980  -2.21443  -2.20597  -2.19494
 Alpha  occ. eigenvalues --   -2.19402  -2.19275  -2.19124  -2.18947  -1.15169
 Alpha  occ. eigenvalues --   -1.15079  -1.15067  -1.14267  -1.14266  -1.14232
 Alpha  occ. eigenvalues --   -1.13178  -1.13153  -1.13149  -1.13123  -1.13087
 Alpha  occ. eigenvalues --   -1.13002  -1.12955  -1.12932  -1.12897  -1.12803
 Alpha  occ. eigenvalues --   -1.12780  -1.12739  -1.12637  -1.12581  -1.12554
 Alpha  occ. eigenvalues --   -0.18466  -0.13884  -0.11991  -0.09921
 Alpha virt. eigenvalues --   -0.06957  -0.05398  -0.04202  -0.03481  -0.02636
 Alpha virt. eigenvalues --   -0.02288  -0.01749  -0.01284  -0.00553  -0.00212
 Alpha virt. eigenvalues --   -0.00116   0.00219   0.00562   0.00742   0.00798

  Beta  occ. eigenvalues --  -38.45637 -38.44778 -38.43630 -38.43534 -38.43260
  Beta  occ. eigenvalues --  -38.43243 -38.42911  -2.21448  -2.20597  -2.19455
  Beta  occ. eigenvalues --   -2.19383  -2.19180  -2.19109  -2.18823  -1.15166
  Beta  occ. eigenvalues --   -1.15076  -1.15064  -1.14269  -1.14251  -1.14231
  Beta  occ. eigenvalues --   -1.13151  -1.13134  -1.13114  -1.13097  -1.13039
  Beta  occ. eigenvalues --   -1.12992  -1.12894  -1.12872  -1.12841  -1.12776
  Beta  occ. eigenvalues --   -1.12741  -1.12727  -1.12553  -1.12492  -1.12461
  Beta  occ. eigenvalues --   -0.17819  -0.13673  -0.11731
  Beta virt. eigenvalues --   -0.06806  -0.06235  -0.05343  -0.04085  -0.02866
  Beta virt. eigenvalues --   -0.02379  -0.01745  -0.01220  -0.00889  -0.00525
  Beta virt. eigenvalues --   -0.00200   0.00085   0.00282   0.00696   0.00782

 Mulliken charges and spin densities:
               1          2
     1  Na  -0.165805   0.509006
     2  Na  -0.293108   0.129493
     3  Na   0.022825   0.007934
     4  Na   0.441987   0.032836
     5  Na   0.030099   0.497306
     6  Na   0.232970  -0.042881
     7  Na  -0.268968  -0.133694
 Sum of Mulliken charges =  -0.00000   1.00000

 Dipole moment (field-independent basis, Debye):
    X=              0.2359    Y=             -0.3917    Z=              0.3371  Tot=              0.5681
 Quadrupole moment (field-independent basis, Debye-Ang):
   XX=            -45.6837   YY=            -68.2398   ZZ=            -76.8440
   XY=              0.6850   XZ=              3.6182   YZ=             -0.8897

 Normal termination of Gaussian 16 at Sun Dec  3 18:03:19 2023.
