 Gaussian 16, Revision B.01,
 Gaussian 16:  ES64L-G16RevB.01 20-Dec-2017

 -------------------------
 #P B3LYP/6-311+g(d) force
 -------------------------

 -----
 DPGEN
 -----
 Symbolic Z-matrix:
 Charge =  0 Multiplicity = 2

                         Standard orientation:
 ---------------------------------------------------------------------
 Center     Atomic      Atomic             Coordinates (Angstroms)
 Number     Number       Type             X           Y           Z
 ---------------------------------------------------------------------
      1         11           0       -3.342043   -1.661077    0.463762
      2         11           0       -1.140012    1.795540    1.235873
      3         11           0       -2.412129    0.983798   -1.766895
      4         11           0        0.143548   -1.011066   -0.979865
      5         11           0        0.906362   -0.799944    1.843653
      6         11           0        2.179923    1.886047   -0.057425
      7         11           0        3.664352   -1.193299   -0.739103
 ---------------------------------------------------------------------

 SCF Done:  E(UB3LYP) =  -1136.12196749     A.U. after   27 cycles

 The electronic state is 2-A.
 Alpha  occ. eigenvalues --  -38.44710 -38.44285 -38.44281 -38.43944 -38.43931
 Alpha  occ. eigenvalues --  -38.43905 -38.42448  -2.20472  -2.20214  -2.20145
 Alpha  occ. eigenvalues --   -2.19839  -2.19773  -2.19758  -2.18330  -1.14146
 Alpha  occ. eigenvalues --   -1.14135  -1.14106  -1.14024  -1.13835  -1.13810
 Alpha  occ. eigenvalues --   -1.13804  -1.13792  -1.13737  -1.13568  -1.13496
 Alpha  occ. eigenvalues --   -1.13459  -1.13450  -1.13432  -1.13428  -1.13411
 Alpha  occ. eigenvalues --   -1.13379  -1.13361  -1.12019  -1.12002  -1.11952
 Alpha  occ. eigenvalues --   -0.18452  -0.13934  -0.11136  -0.10886
 Alpha virt. eigenvalues --   -0.06619  -0.05480  -0.04532  -0.02953  -0.02662
 Alpha virt. eigenvalues --   -0.02500  -0.02212  -0.01357  -0.00648  -0.00186
 Alpha virt. eigenvalues --    0.00115   0.00231   0.00444   0.00528   0.00648

  Beta  occ. eigenvalues --  -38.44706 -38.44226 -38.44203 -38.43935 -38.43922
  Beta  occ. eigenvalues --  -38.43885 -38.42435  -2.20465  -2.20071  -2.20035
  Beta  occ. eigenvalues --   -2.19810  -2.19756  -2.19743  -2.18311  -1.14143
  Beta  occ. eigenvalues --   -1.14116  -1.14103  -1.13934  -1.13756  -1.13721
  Beta  occ. eigenvalues --   -1.13709  -1.13695  -1.13662  -1.13503  -1.13470
  Beta  occ. eigenvalues --   -1.13444  -1.13435  -1.13418  -1.13411  -1.13397
  Beta  occ. eigenvalues --   -1.13366  -1.13351  -1.12002  -1.11961  -1.11945
  Beta  occ. eigenvalues --   -0.17723  -0.13673  -0.10719
  Beta virt. eigenvalues --   -0.07386  -0.06334  -0.05257  -0.04021  -0.02784
  Beta virt. eigenvalues --   -0.02406  -0.01850  -0.01657  -0.01185  -0.00319
  Beta virt. eigenvalues --   -0.00118   0.00190   0.00308   0.00581   0.00612

 Mulliken charges and spin densities:
               1          2
     1  Na  -0.021454   0.063106
     2  Na   0.113034   0.177102
     3  Na   0.277597   0.019774
     4  Na  -0.494507   0.356783
     5  Na  -0.092614   0.361254
     6  Na  -0.144788   0.003977
     7  Na   0.362733   0.018004
 Sum of Mulliken charges =  -0.00000   1.00000

 Dipole moment (field-independent basis, Debye):
    X=              0.0371    Y=              0.0434    Z=              0.1408  Tot=              0.1520
 Quadrupole moment (field-independent basis, Debye-Ang):
   XX=            -50.5016   YY=            -73.9868   ZZ=            -68.9562
   XY=              0.9364   XZ=             -1.7288   YZ=             -4.9217

 Normal termination of Gaussian 16 at Fri Dec  8 00:55:57 2023.
