 Gaussian 16, Revision B.01,
 Gaussian 16:  ES64L-G16RevB.01 20-Dec-2017

 -------------------------
 #P B3LYP/6-311+g(d) force
 -------------------------

 -----
 DPGEN
 -----
 Symbolic Z-matrix:
 Charge =  0 Multiplicity = 2

                         Standard orientation:
 ---------------------------------------------------------------------
 Center     Atomic      Atomic             Coordinates (Angstroms)
 Number     Number       Type             X           Y           Z
 ---------------------------------------------------------------------
      1         11           0        2.253354    1.321300   -0.004126
      2         11           0       -1.092596    0.817397   -0.510313
      3         11           0       -2.377886   -2.316336    0.158523
      4         11           0        1.282181   -1.717719    0.643111
      5         11           0        4.253923   -1.644195   -0.411732
      6         11           0       -4.339213   -0.351609   -0.172740
      7         11           0        0.020237    3.891162    0.297277
 ---------------------------------------------------------------------

 SCF Done:  E(UB3LYP) =  -1136.12559215     A.U. after   20 cycles

 The electronic state is 2-A.
 Alpha  occ. eigenvalues --  -38.44163 -38.44156 -38.43952 -38.43874 -38.43678
 Alpha  occ. eigenvalues --  -38.43523 -38.43110  -2.20072  -2.20035  -2.19781
 Alpha  occ. eigenvalues --   -2.19762  -2.19587  -2.19370  -2.19027  -1.13890
 Alpha  occ. eigenvalues --   -1.13769  -1.13741  -1.13721  -1.13705  -1.13615
 Alpha  occ. eigenvalues --   -1.13498  -1.13480  -1.13443  -1.13423  -1.13404
 Alpha  occ. eigenvalues --   -1.13343  -1.13213  -1.13194  -1.13181  -1.13046
 Alpha  occ. eigenvalues --   -1.13013  -1.12994  -1.12723  -1.12695  -1.12628
 Alpha  occ. eigenvalues --   -0.17584  -0.14402  -0.12852  -0.10162
 Alpha virt. eigenvalues --   -0.05938  -0.05582  -0.04671  -0.03535  -0.02551
 Alpha virt. eigenvalues --   -0.02126  -0.01947  -0.01482  -0.01091  -0.00682
 Alpha virt. eigenvalues --    0.00039   0.00096   0.00570   0.00641   0.00698

  Beta  occ. eigenvalues --  -38.44150 -38.44144 -38.43957 -38.43860 -38.43615
  Beta  occ. eigenvalues --  -38.43471 -38.43069  -2.20047  -2.20027  -2.19771
  Beta  occ. eigenvalues --   -2.19759  -2.19467  -2.19271  -2.18959  -1.13842
  Beta  occ. eigenvalues --   -1.13753  -1.13738  -1.13712  -1.13658  -1.13605
  Beta  occ. eigenvalues --   -1.13484  -1.13448  -1.13431  -1.13427  -1.13406
  Beta  occ. eigenvalues --   -1.13339  -1.13133  -1.13111  -1.13108  -1.12982
  Beta  occ. eigenvalues --   -1.12945  -1.12926  -1.12681  -1.12655  -1.12533
  Beta  occ. eigenvalues --   -0.16976  -0.13927  -0.12603
  Beta virt. eigenvalues --   -0.06541  -0.05721  -0.05390  -0.04392  -0.02961
  Beta virt. eigenvalues --   -0.02410  -0.01939  -0.01695  -0.01335  -0.00780
  Beta virt. eigenvalues --   -0.00252   0.00231   0.00401   0.00654   0.00725

 Mulliken charges and spin densities:
               1          2
     1  Na  -0.680729   0.229806
     2  Na  -1.457263  -0.080130
     3  Na  -0.162287   0.023460
     4  Na  -0.430500   0.122824
     5  Na   1.140115   0.279416
     6  Na   0.722820   0.375507
     7  Na   0.867844   0.049117
 Sum of Mulliken charges =  -0.00000   1.00000

 Dipole moment (field-independent basis, Debye):
    X=             -0.0104    Y=              0.4271    Z=              0.2151  Tot=              0.4783
 Quadrupole moment (field-independent basis, Debye-Ang):
   XX=            -69.1764   YY=            -57.8116   ZZ=            -71.0058
   XY=             -0.1505   XZ=             -1.4561   YZ=              1.1842

 Normal termination of Gaussian 16 at Wed Nov 29 00:53:37 2023.
