 Gaussian 16, Revision B.01,
 Gaussian 16:  ES64L-G16RevB.01 20-Dec-2017

 -------------------------
 #P B3LYP/6-311+g(d) force
 -------------------------

 -----
 DPGEN
 -----
 Symbolic Z-matrix:
 Charge =  0 Multiplicity = 2

                         Standard orientation:
 ---------------------------------------------------------------------
 Center     Atomic      Atomic             Coordinates (Angstroms)
 Number     Number       Type             X           Y           Z
 ---------------------------------------------------------------------
      1         11           0       -5.091395   -1.062038   -0.346034
      2         11           0        3.529490    2.203412   -0.199618
      3         11           0       -3.530350    1.824556   -0.162565
      4         11           0       -0.174573    1.973411    0.486407
      5         11           0        5.142889   -1.228372   -0.276504
      6         11           0        1.453525   -1.801950    0.193431
      7         11           0       -1.329588   -1.909018    0.304884
 ---------------------------------------------------------------------

 SCF Done:  E(UB3LYP) =  -1136.10815270     A.U. after   24 cycles

 The electronic state is 2-A.
 Alpha  occ. eigenvalues --  -38.45672 -38.45386 -38.44982 -38.44576 -38.44100
 Alpha  occ. eigenvalues --  -38.43263 -38.43098  -2.21444  -2.21190  -2.20703
 Alpha  occ. eigenvalues --   -2.20372  -2.19898  -2.19137  -2.18961  -1.15097
 Alpha  occ. eigenvalues --   -1.15079  -1.15055  -1.14836  -1.14833  -1.14811
 Alpha  occ. eigenvalues --   -1.14400  -1.14378  -1.14346  -1.14049  -1.14047
 Alpha  occ. eigenvalues --   -1.14020  -1.13571  -1.13538  -1.13522  -1.13038
 Alpha  occ. eigenvalues --   -1.12784  -1.12757  -1.12608  -1.12591  -1.12511
 Alpha  occ. eigenvalues --   -0.16535  -0.14473  -0.11887  -0.11496
 Alpha virt. eigenvalues --   -0.07358  -0.05013  -0.04339  -0.03894  -0.03366
 Alpha virt. eigenvalues --   -0.02716  -0.02011  -0.01745  -0.01002  -0.00660
 Alpha virt. eigenvalues --   -0.00535   0.00036   0.00234   0.00330   0.00560

  Beta  occ. eigenvalues --  -38.45592 -38.45309 -38.45009 -38.44573 -38.44038
  Beta  occ. eigenvalues --  -38.43238 -38.43088  -2.21293  -2.21047  -2.20756
  Beta  occ. eigenvalues --   -2.20373  -2.19783  -2.19097  -2.18949  -1.14994
  Beta  occ. eigenvalues --   -1.14978  -1.14955  -1.14738  -1.14733  -1.14717
  Beta  occ. eigenvalues --   -1.14439  -1.14415  -1.14364  -1.14054  -1.14041
  Beta  occ. eigenvalues --   -1.13993  -1.13493  -1.13457  -1.13451  -1.12989
  Beta  occ. eigenvalues --   -1.12759  -1.12732  -1.12603  -1.12580  -1.12474
  Beta  occ. eigenvalues --   -0.15843  -0.13690  -0.11255
  Beta virt. eigenvalues --   -0.08551  -0.07105  -0.04519  -0.03905  -0.03574
  Beta virt. eigenvalues --   -0.03139  -0.02473  -0.01483  -0.01381  -0.00872
  Beta virt. eigenvalues --   -0.00484  -0.00276   0.00051   0.00415   0.00430

 Mulliken charges and spin densities:
               1          2
     1  Na   0.423261   0.380110
     2  Na   0.172906  -0.049849
     3  Na   0.297212   0.071482
     4  Na  -0.656430   0.187157
     5  Na   0.389992   0.398569
     6  Na  -0.401122   0.001023
     7  Na  -0.225819   0.011509
 Sum of Mulliken charges =  -0.00000   1.00000

 Dipole moment (field-independent basis, Debye):
    X=              0.0725    Y=             -0.1165    Z=             -0.3756  Tot=              0.3999
 Quadrupole moment (field-independent basis, Debye-Ang):
   XX=            -43.0762   YY=            -72.1811   ZZ=            -73.8271
   XY=              0.9126   XZ=             -0.1129   YZ=              0.5705

 Normal termination of Gaussian 16 at Sun Dec  3 21:59:32 2023.
