 Gaussian 16, Revision B.01,
 Gaussian 16:  ES64L-G16RevB.01 20-Dec-2017

 -------------------------
 #P B3LYP/6-311+g(d) force
 -------------------------

 -----
 DPGEN
 -----
 Symbolic Z-matrix:
 Charge =  0 Multiplicity = 2

                         Standard orientation:
 ---------------------------------------------------------------------
 Center     Atomic      Atomic             Coordinates (Angstroms)
 Number     Number       Type             X           Y           Z
 ---------------------------------------------------------------------
      1         11           0       -0.688096   -0.411109    1.931262
      2         11           0       -4.344577   -0.706177    0.615012
      3         11           0        3.137158   -1.828566   -0.634115
      4         11           0        0.150637   -2.203246   -1.279947
      5         11           0        0.704476    3.406672   -0.735129
      6         11           0       -1.891098    0.993317   -1.326912
      7         11           0        2.931500    0.749109    1.429830
 ---------------------------------------------------------------------

 SCF Done:  E(UB3LYP) =  -1136.11406647     A.U. after   21 cycles

 The electronic state is 2-A.
 Alpha  occ. eigenvalues --  -38.45755 -38.45416 -38.44306 -38.44147 -38.43970
 Alpha  occ. eigenvalues --  -38.43966 -38.43223  -2.21525  -2.21173  -2.20101
 Alpha  occ. eigenvalues --   -2.19979  -2.19805  -2.19795  -2.18977  -1.15211
 Alpha  occ. eigenvalues --   -1.15192  -1.15121  -1.14844  -1.14837  -1.14790
 Alpha  occ. eigenvalues --   -1.13791  -1.13760  -1.13725  -1.13704  -1.13631
 Alpha  occ. eigenvalues --   -1.13612  -1.13490  -1.13467  -1.13457  -1.13453
 Alpha  occ. eigenvalues --   -1.13405  -1.13395  -1.12654  -1.12637  -1.12616
 Alpha  occ. eigenvalues --   -0.17154  -0.13590  -0.11623  -0.11086
 Alpha virt. eigenvalues --   -0.07291  -0.05361  -0.04674  -0.03395  -0.02981
 Alpha virt. eigenvalues --   -0.02822  -0.02453  -0.01132  -0.00997  -0.00227
 Alpha virt. eigenvalues --   -0.00118  -0.00030   0.00135   0.00373   0.00692

  Beta  occ. eigenvalues --  -38.45705 -38.45399 -38.44270 -38.44148 -38.43929
  Beta  occ. eigenvalues --  -38.43918 -38.43215  -2.21432  -2.21142  -2.20035
  Beta  occ. eigenvalues --   -2.19984  -2.19724  -2.19717  -2.18964  -1.15144
  Beta  occ. eigenvalues --   -1.15132  -1.15047  -1.14822  -1.14810  -1.14770
  Beta  occ. eigenvalues --   -1.13752  -1.13712  -1.13692  -1.13681  -1.13637
  Beta  occ. eigenvalues --   -1.13602  -1.13439  -1.13414  -1.13398  -1.13390
  Beta  occ. eigenvalues --   -1.13352  -1.13338  -1.12646  -1.12621  -1.12606
  Beta  occ. eigenvalues --   -0.16539  -0.13334  -0.11223
  Beta virt. eigenvalues --   -0.07686  -0.06990  -0.04845  -0.04453  -0.03052
  Beta virt. eigenvalues --   -0.02658  -0.02495  -0.01826  -0.00983  -0.00775
  Beta virt. eigenvalues --   -0.00122  -0.00048   0.00057   0.00256   0.00561

 Mulliken charges and spin densities:
               1          2
     1  Na  -0.193227   0.259212
     2  Na   0.380920  -0.016953
     3  Na   0.032300  -0.144740
     4  Na   0.028995   0.284869
     5  Na   0.010495  -0.080272
     6  Na  -0.264543   0.359454
     7  Na   0.005060   0.338431
 Sum of Mulliken charges =  -0.00000   1.00000

 Dipole moment (field-independent basis, Debye):
    X=             -1.0880    Y=             -0.7878    Z=              0.5004  Tot=              1.4335
 Quadrupole moment (field-independent basis, Debye-Ang):
   XX=            -49.2147   YY=            -75.7283   ZZ=            -71.3056
   XY=              2.4380   XZ=              0.0863   YZ=             -0.7954

 Normal termination of Gaussian 16 at Sun Dec  3 12:46:05 2023.
