 Gaussian 16, Revision B.01,
 Gaussian 16:  ES64L-G16RevB.01 20-Dec-2017

 -------------------------
 #P B3LYP/6-311+g(d) force
 -------------------------

 -----
 DPGEN
 -----
 Symbolic Z-matrix:
 Charge =  0 Multiplicity = 2

                         Standard orientation:
 ---------------------------------------------------------------------
 Center     Atomic      Atomic             Coordinates (Angstroms)
 Number     Number       Type             X           Y           Z
 ---------------------------------------------------------------------
      1         11           0       -2.122759   -2.109711   -0.226858
      2         11           0        0.027904    0.010480    1.805298
      3         11           0        1.641099   -2.412093    0.305719
      4         11           0       -2.794455    1.169153    0.093131
      5         11           0        0.001368   -0.132661   -1.732838
      6         11           0        2.912464    0.614875   -0.267366
      7         11           0        0.334379    2.859956    0.022913
 ---------------------------------------------------------------------

 SCF Done:  E(UB3LYP) =  -1136.14114175     A.U. after   19 cycles

 The electronic state is 2-A.
 Alpha  occ. eigenvalues --  -38.43785 -38.43723 -38.43576 -38.43405 -38.43186
 Alpha  occ. eigenvalues --  -38.43158 -38.43144  -2.19640  -2.19605  -2.19437
 Alpha  occ. eigenvalues --   -2.19283  -2.19158  -2.19132  -2.19030  -1.13319
 Alpha  occ. eigenvalues --   -1.13310  -1.13293  -1.13284  -1.13266  -1.13250
 Alpha  occ. eigenvalues --   -1.13133  -1.13094  -1.13064  -1.12988  -1.12946
 Alpha  occ. eigenvalues --   -1.12909  -1.12853  -1.12797  -1.12790  -1.12771
 Alpha  occ. eigenvalues --   -1.12762  -1.12750  -1.12691  -1.12686  -1.12661
 Alpha  occ. eigenvalues --   -0.19059  -0.13183  -0.12547  -0.10751
 Alpha virt. eigenvalues --   -0.05383  -0.05183  -0.04674  -0.03193  -0.02864
 Alpha virt. eigenvalues --   -0.02416  -0.01420  -0.01118  -0.00260  -0.00204
 Alpha virt. eigenvalues --    0.00026   0.00369   0.00839   0.00911   0.00922

  Beta  occ. eigenvalues --  -38.43781 -38.43715 -38.43569 -38.43396 -38.43154
  Beta  occ. eigenvalues --  -38.43103 -38.43069  -2.19637  -2.19594  -2.19428
  Beta  occ. eigenvalues --   -2.19269  -2.19025  -2.19007  -2.18994  -1.13317
  Beta  occ. eigenvalues --   -1.13293  -1.13283  -1.13276  -1.13248  -1.13232
  Beta  occ. eigenvalues --   -1.13117  -1.13074  -1.13059  -1.12967  -1.12913
  Beta  occ. eigenvalues --   -1.12903  -1.12769  -1.12716  -1.12704  -1.12686
  Beta  occ. eigenvalues --   -1.12667  -1.12661  -1.12650  -1.12642  -1.12634
  Beta  occ. eigenvalues --   -0.18327  -0.12919  -0.12276
  Beta virt. eigenvalues --   -0.06832  -0.05357  -0.05180  -0.04656  -0.02380
  Beta virt. eigenvalues --   -0.02077  -0.01372  -0.01320  -0.01043  -0.00306
  Beta virt. eigenvalues --   -0.00259   0.00142   0.00388   0.00896   0.00902

 Mulliken charges and spin densities:
               1          2
     1  Na   0.140950  -0.081725
     2  Na  -0.318469   0.713821
     3  Na   0.164106  -0.052533
     4  Na   0.058239  -0.092877
     5  Na  -0.289990   0.644354
     6  Na   0.194360  -0.027436
     7  Na   0.050804  -0.103603
 Sum of Mulliken charges =  -0.00000   1.00000

 Dipole moment (field-independent basis, Debye):
    X=             -0.0884    Y=             -0.0455    Z=              0.0131  Tot=              0.1003
 Quadrupole moment (field-independent basis, Debye-Ang):
   XX=            -56.8437   YY=            -61.7388   ZZ=            -74.4906
   XY=             -0.0872   XZ=             -0.2489   YZ=             -0.3249

 Normal termination of Gaussian 16 at Mon Dec  4 04:54:53 2023.
