 Gaussian 16, Revision B.01,
 Gaussian 16:  ES64L-G16RevB.01 20-Dec-2017

 -------------------------
 #P B3LYP/6-311+g(d) force
 -------------------------

 -----
 DPGEN
 -----
 Symbolic Z-matrix:
 Charge =  0 Multiplicity = 2

                         Standard orientation:
 ---------------------------------------------------------------------
 Center     Atomic      Atomic             Coordinates (Angstroms)
 Number     Number       Type             X           Y           Z
 ---------------------------------------------------------------------
      1         11           0       -4.205309   -1.151638   -0.186546
      2         11           0       -2.128007   -3.134182   -0.393691
      3         11           0        3.115540    2.047571   -0.650216
      4         11           0       -3.491441    2.513349    0.930606
      5         11           0        4.534735   -0.810533    0.786641
      6         11           0        2.134374   -2.608337    0.050128
      7         11           0        0.040107    3.143770   -0.536921
 ---------------------------------------------------------------------

 SCF Done:  E(UB3LYP) =  -1136.10471912     A.U. after   21 cycles

 The electronic state is 2-A.
 Alpha  occ. eigenvalues --  -38.45501 -38.44908 -38.44862 -38.44317 -38.44281
 Alpha  occ. eigenvalues --  -38.44119 -38.43995  -2.21280  -2.20723  -2.20689
 Alpha  occ. eigenvalues --   -2.20135  -2.20062  -2.19882  -2.19829  -1.14956
 Alpha  occ. eigenvalues --   -1.14937  -1.14932  -1.14475  -1.14378  -1.14352
 Alpha  occ. eigenvalues --   -1.14349  -1.14338  -1.14331  -1.13808  -1.13794
 Alpha  occ. eigenvalues --   -1.13758  -1.13711  -1.13693  -1.13683  -1.13566
 Alpha  occ. eigenvalues --   -1.13563  -1.13514  -1.13497  -1.13459  -1.13450
 Alpha  occ. eigenvalues --   -0.15748  -0.14341  -0.13089  -0.10986
 Alpha virt. eigenvalues --   -0.07615  -0.04697  -0.04594  -0.03726  -0.03494
 Alpha virt. eigenvalues --   -0.02514  -0.02436  -0.01707  -0.01189  -0.01039
 Alpha virt. eigenvalues --   -0.00612  -0.00218   0.00063   0.00413   0.00583

  Beta  occ. eigenvalues --  -38.45477 -38.44903 -38.44847 -38.44262 -38.44187
  Beta  occ. eigenvalues --  -38.44121 -38.43956  -2.21240  -2.20719  -2.20664
  Beta  occ. eigenvalues --   -2.20036  -2.19894  -2.19886  -2.19759  -1.14924
  Beta  occ. eigenvalues --   -1.14912  -1.14893  -1.14451  -1.14381  -1.14335
  Beta  occ. eigenvalues --   -1.14326  -1.14320  -1.14309  -1.13740  -1.13728
  Beta  occ. eigenvalues --   -1.13688  -1.13592  -1.13578  -1.13577  -1.13573
  Beta  occ. eigenvalues --   -1.13568  -1.13479  -1.13451  -1.13412  -1.13402
  Beta  occ. eigenvalues --   -0.15295  -0.13680  -0.12280
  Beta virt. eigenvalues --   -0.07802  -0.07696  -0.04357  -0.04051  -0.03557
  Beta virt. eigenvalues --   -0.03181  -0.02281  -0.02228  -0.01480  -0.00898
  Beta virt. eigenvalues --   -0.00748  -0.00413   0.00011   0.00230   0.00467

 Mulliken charges and spin densities:
               1          2
     1  Na  -0.443610   0.044623
     2  Na   0.363365   0.184696
     3  Na  -0.026697   0.199811
     4  Na   0.076887   0.466594
     5  Na   0.607952  -0.003201
     6  Na  -0.469698   0.174819
     7  Na  -0.108198  -0.067343
 Sum of Mulliken charges =  -0.00000   1.00000

 Dipole moment (field-independent basis, Debye):
    X=              1.2627    Y=             -0.8062    Z=              0.2079  Tot=              1.5125
 Quadrupole moment (field-independent basis, Debye-Ang):
   XX=            -55.1834   YY=            -73.0341   ZZ=            -72.9529
   XY=             -0.5693   XZ=              1.5041   YZ=              1.1204

 Normal termination of Gaussian 16 at Sun Dec  3 22:17:02 2023.
