 Gaussian 16, Revision B.01,
 Gaussian 16:  ES64L-G16RevB.01 20-Dec-2017

 -------------------------
 #P B3LYP/6-311+g(d) force
 -------------------------

 -----
 DPGEN
 -----
 Symbolic Z-matrix:
 Charge =  0 Multiplicity = 2

                         Standard orientation:
 ---------------------------------------------------------------------
 Center     Atomic      Atomic             Coordinates (Angstroms)
 Number     Number       Type             X           Y           Z
 ---------------------------------------------------------------------
      1         11           0        3.012860   -0.436715    0.033916
      2         11           0       -0.214862   -0.110509   -1.569567
      3         11           0       -3.120380   -1.106812   -0.394099
      4         11           0       -0.530017   -0.418541    2.205827
      5         11           0        1.512665    2.736582   -0.144030
      6         11           0       -1.602161    2.318187    0.062025
      7         11           0        0.941895   -2.982193   -0.194072
 ---------------------------------------------------------------------

 SCF Done:  E(UB3LYP) =  -1136.13545663     A.U. after   19 cycles

 The electronic state is 2-A.
 Alpha  occ. eigenvalues --  -38.44077 -38.43926 -38.43845 -38.43782 -38.43717
 Alpha  occ. eigenvalues --  -38.43351 -38.43195  -2.19888  -2.19755  -2.19675
 Alpha  occ. eigenvalues --   -2.19628  -2.19600  -2.19197  -2.19167  -1.13572
 Alpha  occ. eigenvalues --   -1.13537  -1.13529  -1.13450  -1.13424  -1.13401
 Alpha  occ. eigenvalues --   -1.13343  -1.13338  -1.13319  -1.13297  -1.13287
 Alpha  occ. eigenvalues --   -1.13266  -1.13252  -1.13247  -1.13226  -1.12864
 Alpha  occ. eigenvalues --   -1.12853  -1.12850  -1.12843  -1.12808  -1.12785
 Alpha  occ. eigenvalues --   -0.18387  -0.12936  -0.12576  -0.10720
 Alpha virt. eigenvalues --   -0.05778  -0.05107  -0.04902  -0.03134  -0.02963
 Alpha virt. eigenvalues --   -0.02616  -0.01543  -0.01241  -0.00488  -0.00350
 Alpha virt. eigenvalues --   -0.00032   0.00339   0.00807   0.00824   0.00869

  Beta  occ. eigenvalues --  -38.44069 -38.43923 -38.43844 -38.43709 -38.43679
  Beta  occ. eigenvalues --  -38.43351 -38.43138  -2.19875  -2.19752  -2.19675
  Beta  occ. eigenvalues --   -2.19591  -2.19437  -2.19199  -2.19064  -1.13553
  Beta  occ. eigenvalues --   -1.13525  -1.13516  -1.13450  -1.13410  -1.13393
  Beta  occ. eigenvalues --   -1.13341  -1.13326  -1.13311  -1.13300  -1.13238
  Beta  occ. eigenvalues --   -1.13227  -1.13151  -1.13120  -1.13110  -1.12861
  Beta  occ. eigenvalues --   -1.12851  -1.12839  -1.12777  -1.12734  -1.12709
  Beta  occ. eigenvalues --   -0.17691  -0.12736  -0.12366
  Beta virt. eigenvalues --   -0.06763  -0.05778  -0.04997  -0.04883  -0.02368
  Beta virt. eigenvalues --   -0.02222  -0.01561  -0.01464  -0.01168  -0.00531
  Beta virt. eigenvalues --   -0.00383   0.00142   0.00383   0.00815   0.00853

 Mulliken charges and spin densities:
               1          2
     1  Na   0.040095   0.040059
     2  Na  -0.173928   0.279932
     3  Na   0.244147  -0.041706
     4  Na  -0.545218   0.676178
     5  Na  -0.084864  -0.030130
     6  Na   0.312631   0.123012
     7  Na   0.207138  -0.047346
 Sum of Mulliken charges =  -0.00000   1.00000

 Dipole moment (field-independent basis, Debye):
    X=             -0.1973    Y=             -0.3868    Z=              0.1175  Tot=              0.4499
 Quadrupole moment (field-independent basis, Debye-Ang):
   XX=            -58.2390   YY=            -61.0437   ZZ=            -74.8876
   XY=              0.8779   XZ=              0.7066   YZ=              0.6047

 Normal termination of Gaussian 16 at Thu Dec  7 20:06:40 2023.
