 Gaussian 16, Revision B.01,
 Gaussian 16:  ES64L-G16RevB.01 20-Dec-2017

 -------------------------
 #P B3LYP/6-311+g(d) force
 -------------------------

 -----
 DPGEN
 -----
 Symbolic Z-matrix:
 Charge =  0 Multiplicity = 2

                         Standard orientation:
 ---------------------------------------------------------------------
 Center     Atomic      Atomic             Coordinates (Angstroms)
 Number     Number       Type             X           Y           Z
 ---------------------------------------------------------------------
      1         11           0        2.597580    1.593677    0.081481
      2         11           0        0.058390   -0.332614    1.848935
      3         11           0       -0.784298    2.960560   -0.199449
      4         11           0       -2.916374    0.534731    0.011336
      5         11           0       -1.814563   -2.620448   -0.123904
      6         11           0        0.155465   -0.306572   -1.455074
      7         11           0        2.703799   -1.829335   -0.163325
 ---------------------------------------------------------------------

 SCF Done:  E(UB3LYP) =  -1136.13641201     A.U. after   19 cycles

 The electronic state is 2-A.
 Alpha  occ. eigenvalues --  -38.44218 -38.44115 -38.43884 -38.43772 -38.43166
 Alpha  occ. eigenvalues --  -38.43098 -38.42892  -2.20055  -2.19954  -2.19765
 Alpha  occ. eigenvalues --   -2.19618  -2.19025  -2.19004  -2.18900  -1.13743
 Alpha  occ. eigenvalues --   -1.13711  -1.13699  -1.13629  -1.13621  -1.13576
 Alpha  occ. eigenvalues --   -1.13446  -1.13430  -1.13424  -1.13293  -1.13271
 Alpha  occ. eigenvalues --   -1.13254  -1.12740  -1.12679  -1.12666  -1.12652
 Alpha  occ. eigenvalues --   -1.12640  -1.12632  -1.12585  -1.12527  -1.12522
 Alpha  occ. eigenvalues --   -0.18730  -0.13403  -0.12384  -0.10209
 Alpha virt. eigenvalues --   -0.05812  -0.05529  -0.04722  -0.03151  -0.02535
 Alpha virt. eigenvalues --   -0.02066  -0.01689  -0.01389  -0.00581  -0.00405
 Alpha virt. eigenvalues --    0.00036   0.00341   0.00770   0.00789   0.00864

  Beta  occ. eigenvalues --  -38.44212 -38.44110 -38.43879 -38.43768 -38.43163
  Beta  occ. eigenvalues --  -38.43008 -38.42834  -2.20047  -2.19948  -2.19758
  Beta  occ. eigenvalues --   -2.19614  -2.19003  -2.18858  -2.18795  -1.13733
  Beta  occ. eigenvalues --   -1.13699  -1.13684  -1.13623  -1.13595  -1.13577
  Beta  occ. eigenvalues --   -1.13444  -1.13428  -1.13395  -1.13285  -1.13255
  Beta  occ. eigenvalues --   -1.13247  -1.12679  -1.12658  -1.12641  -1.12629
  Beta  occ. eigenvalues --   -1.12526  -1.12512  -1.12497  -1.12450  -1.12446
  Beta  occ. eigenvalues --   -0.18025  -0.13159  -0.12157
  Beta virt. eigenvalues --   -0.06331  -0.05802  -0.05478  -0.04702  -0.02340
  Beta virt. eigenvalues --   -0.01846  -0.01601  -0.01322  -0.01044  -0.00642
  Beta virt. eigenvalues --   -0.00424   0.00186   0.00381   0.00791   0.00832

 Mulliken charges and spin densities:
               1          2
     1  Na   0.133802   0.037792
     2  Na  -0.436590   0.645529
     3  Na  -0.073169  -0.027508
     4  Na   0.205633   0.063345
     5  Na   0.351287  -0.047238
     6  Na  -0.475494   0.392303
     7  Na   0.294531  -0.064223
 Sum of Mulliken charges =  -0.00000   1.00000

 Dipole moment (field-independent basis, Debye):
    X=              0.3546    Y=             -0.3567    Z=              0.1167  Tot=              0.5163
 Quadrupole moment (field-independent basis, Debye-Ang):
   XX=            -54.3048   YY=            -59.8992   ZZ=            -77.4449
   XY=              0.4662   XZ=              0.1698   YZ=              0.1714

 Normal termination of Gaussian 16 at Sat Dec  9 07:18:47 2023.
