 Gaussian 16, Revision B.01,
 Gaussian 16:  ES64L-G16RevB.01 20-Dec-2017

 -------------------------
 #P B3LYP/6-311+g(d) force
 -------------------------

 -----
 DPGEN
 -----
 Symbolic Z-matrix:
 Charge =  0 Multiplicity = 2

                         Standard orientation:
 ---------------------------------------------------------------------
 Center     Atomic      Atomic             Coordinates (Angstroms)
 Number     Number       Type             X           Y           Z
 ---------------------------------------------------------------------
      1         11           0       -1.607059   -2.615753   -0.588972
      2         11           0       -0.419585    0.104288   -1.662540
      3         11           0        2.695092    1.309315   -0.686580
      4         11           0        0.067650   -0.506146    1.830987
      5         11           0       -3.220539    0.501498    0.317928
      6         11           0        2.879604   -1.698569    0.433067
      7         11           0       -0.395163    2.905368    0.356109
 ---------------------------------------------------------------------

 SCF Done:  E(UB3LYP) =  -1136.13419412     A.U. after   19 cycles

 The electronic state is 2-A.
 Alpha  occ. eigenvalues --  -38.44680 -38.43942 -38.43786 -38.43633 -38.43564
 Alpha  occ. eigenvalues --  -38.43345 -38.43033  -2.20496  -2.19766  -2.19637
 Alpha  occ. eigenvalues --   -2.19524  -2.19410  -2.19304  -2.18862  -1.14179
 Alpha  occ. eigenvalues --   -1.14155  -1.14122  -1.13463  -1.13441  -1.13405
 Alpha  occ. eigenvalues --   -1.13315  -1.13283  -1.13257  -1.13210  -1.13160
 Alpha  occ. eigenvalues --   -1.13143  -1.13138  -1.13053  -1.13034  -1.12979
 Alpha  occ. eigenvalues --   -1.12937  -1.12907  -1.12538  -1.12532  -1.12497
 Alpha  occ. eigenvalues --   -0.18390  -0.13367  -0.12050  -0.10730
 Alpha virt. eigenvalues --   -0.06098  -0.05103  -0.04541  -0.03333  -0.02849
 Alpha virt. eigenvalues --   -0.02394  -0.01869  -0.01118  -0.00553  -0.00204
 Alpha virt. eigenvalues --   -0.00026   0.00327   0.00720   0.00768   0.00820

  Beta  occ. eigenvalues --  -38.44672 -38.43936 -38.43771 -38.43560 -38.43547
  Beta  occ. eigenvalues --  -38.43279 -38.43030  -2.20483  -2.19757  -2.19610
  Beta  occ. eigenvalues --   -2.19390  -2.19380  -2.19186  -2.18860  -1.14160
  Beta  occ. eigenvalues --   -1.14145  -1.14108  -1.13459  -1.13417  -1.13398
  Beta  occ. eigenvalues --   -1.13285  -1.13264  -1.13240  -1.13126  -1.13101
  Beta  occ. eigenvalues --   -1.13069  -1.13038  -1.13021  -1.13012  -1.12899
  Beta  occ. eigenvalues --   -1.12857  -1.12822  -1.12536  -1.12526  -1.12482
  Beta  occ. eigenvalues --   -0.17706  -0.13126  -0.11764
  Beta virt. eigenvalues --   -0.06940  -0.06025  -0.04997  -0.04418  -0.02685
  Beta virt. eigenvalues --   -0.02150  -0.01783  -0.01421  -0.01003  -0.00539
  Beta virt. eigenvalues --   -0.00213   0.00103   0.00370   0.00789   0.00847

 Mulliken charges and spin densities:
               1          2
     1  Na   0.033437  -0.028127
     2  Na   0.155691   0.338190
     3  Na   0.061091   0.047142
     4  Na  -0.159483   0.589240
     5  Na   0.089759   0.028579
     6  Na   0.043800  -0.025704
     7  Na  -0.224294   0.050679
 Sum of Mulliken charges =  -0.00000   1.00000

 Dipole moment (field-independent basis, Debye):
    X=             -0.4022    Y=             -0.1775    Z=              0.1301  Tot=              0.4585
 Quadrupole moment (field-independent basis, Debye-Ang):
   XX=            -54.0817   YY=            -64.9037   ZZ=            -74.2811
   XY=             -0.4533   XZ=             -1.6900   YZ=              0.8969

 Normal termination of Gaussian 16 at Mon Dec  4 02:15:31 2023.
