 Gaussian 16, Revision B.01,
 Gaussian 16:  ES64L-G16RevB.01 20-Dec-2017

 -------------------------
 #P B3LYP/6-311+g(d) force
 -------------------------

 -----
 DPGEN
 -----
 Symbolic Z-matrix:
 Charge =  0 Multiplicity = 2

                         Standard orientation:
 ---------------------------------------------------------------------
 Center     Atomic      Atomic             Coordinates (Angstroms)
 Number     Number       Type             X           Y           Z
 ---------------------------------------------------------------------
      1         11           0        0.147689   -0.052178    0.079446
      2         11           0        1.169305    3.171692   -0.738659
      3         11           0        3.776022    0.244575   -0.130012
      4         11           0        1.785893   -2.374914    0.849541
      5         11           0       -0.940068   -2.747230   -0.676296
      6         11           0       -3.727904   -0.607277   -0.363785
      7         11           0       -2.210937    2.365333    0.979765
 ---------------------------------------------------------------------

 SCF Done:  E(UB3LYP) =  -1136.11896519     A.U. after   25 cycles

 The electronic state is 2-A.
 Alpha  occ. eigenvalues --  -38.44831 -38.44262 -38.44039 -38.43734 -38.43546
 Alpha  occ. eigenvalues --  -38.43536 -38.43317  -2.20611  -2.20184  -2.19833
 Alpha  occ. eigenvalues --   -2.19654  -2.19564  -2.19355  -2.19152  -1.14314
 Alpha  occ. eigenvalues --   -1.14277  -1.14228  -1.13957  -1.13843  -1.13806
 Alpha  occ. eigenvalues --   -1.13508  -1.13481  -1.13460  -1.13428  -1.13299
 Alpha  occ. eigenvalues --   -1.13273  -1.13270  -1.13185  -1.13131  -1.13019
 Alpha  occ. eigenvalues --   -1.12997  -1.12983  -1.12808  -1.12794  -1.12773
 Alpha  occ. eigenvalues --   -0.17683  -0.13676  -0.13252  -0.09541
 Alpha virt. eigenvalues --   -0.06974  -0.05327  -0.04258  -0.03680  -0.02864
 Alpha virt. eigenvalues --   -0.02419  -0.01613  -0.01233  -0.00740  -0.00522
 Alpha virt. eigenvalues --   -0.00206   0.00165   0.00217   0.00503   0.00787

  Beta  occ. eigenvalues --  -38.44827 -38.44249 -38.44004 -38.43708 -38.43547
  Beta  occ. eigenvalues --  -38.43482 -38.43243  -2.20609  -2.20169  -2.19769
  Beta  occ. eigenvalues --   -2.19610  -2.19563  -2.19254  -2.19017  -1.14318
  Beta  occ. eigenvalues --   -1.14281  -1.14190  -1.13952  -1.13835  -1.13744
  Beta  occ. eigenvalues --   -1.13465  -1.13441  -1.13411  -1.13401  -1.13282
  Beta  occ. eigenvalues --   -1.13254  -1.13235  -1.13197  -1.13124  -1.12950
  Beta  occ. eigenvalues --   -1.12922  -1.12918  -1.12716  -1.12701  -1.12678
  Beta  occ. eigenvalues --   -0.17396  -0.12911  -0.12740
  Beta virt. eigenvalues --   -0.07003  -0.06253  -0.05103  -0.04137  -0.03175
  Beta virt. eigenvalues --   -0.02441  -0.02046  -0.01474  -0.00778  -0.00625
  Beta virt. eigenvalues --   -0.00421   0.00095   0.00272   0.00432   0.00650

 Mulliken charges and spin densities:
               1          2
     1  Na  -3.879203  -0.192317
     2  Na   0.331316   0.094112
     3  Na   0.549524   0.436352
     4  Na   1.081145   0.158215
     5  Na   0.739221  -0.043209
     6  Na   0.429546   0.424335
     7  Na   0.748452   0.122513
 Sum of Mulliken charges =  -0.00000   1.00000

 Dipole moment (field-independent basis, Debye):
    X=             -0.1862    Y=              0.0520    Z=             -0.0329  Tot=              0.1961
 Quadrupole moment (field-independent basis, Debye-Ang):
   XX=            -74.0592   YY=            -59.0220   ZZ=            -67.0787
   XY=              1.5178   XZ=             -1.1647   YZ=              0.4855

 Normal termination of Gaussian 16 at Fri Dec  8 20:22:14 2023.
