 Gaussian 16, Revision B.01,
 Gaussian 16:  ES64L-G16RevB.01 20-Dec-2017

 -------------------------
 #P B3LYP/6-311+g(d) force
 -------------------------

 -----
 DPGEN
 -----
 Symbolic Z-matrix:
 Charge =  0 Multiplicity = 2

                         Standard orientation:
 ---------------------------------------------------------------------
 Center     Atomic      Atomic             Coordinates (Angstroms)
 Number     Number       Type             X           Y           Z
 ---------------------------------------------------------------------
      1         11           0        1.576653   -1.539157   -0.582341
      2         11           0        1.431873    1.695268   -0.101780
      3         11           0       -1.597034    0.641703   -0.996575
      4         11           0       -1.799231   -3.035704   -0.710579
      5         11           0       -2.549326   -1.257418    1.714788
      6         11           0       -1.346246    4.017165    0.059014
      7         11           0        4.283310   -0.521857    0.617473
 ---------------------------------------------------------------------

 SCF Done:  E(UB3LYP) =  -1136.12592425     A.U. after   20 cycles

 The electronic state is 2-A.
 Alpha  occ. eigenvalues --  -38.44435 -38.44227 -38.44213 -38.44019 -38.43578
 Alpha  occ. eigenvalues --  -38.43533 -38.43333  -2.20209  -2.20071  -2.20069
 Alpha  occ. eigenvalues --   -2.19897  -2.19415  -2.19402  -2.19233  -1.13885
 Alpha  occ. eigenvalues --   -1.13874  -1.13836  -1.13822  -1.13767  -1.13764
 Alpha  occ. eigenvalues --   -1.13738  -1.13706  -1.13646  -1.13605  -1.13590
 Alpha  occ. eigenvalues --   -1.13469  -1.13111  -1.13061  -1.13045  -1.13042
 Alpha  occ. eigenvalues --   -1.13034  -1.13024  -1.12935  -1.12904  -1.12813
 Alpha  occ. eigenvalues --   -0.17524  -0.13701  -0.12929  -0.09784
 Alpha virt. eigenvalues --   -0.06366  -0.05462  -0.04981  -0.03462  -0.02601
 Alpha virt. eigenvalues --   -0.02099  -0.01965  -0.01484  -0.01106  -0.00604
 Alpha virt. eigenvalues --    0.00042   0.00133   0.00399   0.00608   0.00641

  Beta  occ. eigenvalues --  -38.44439 -38.44218 -38.44209 -38.43999 -38.43542
  Beta  occ. eigenvalues --  -38.43453 -38.43305  -2.20217  -2.20064  -2.20060
  Beta  occ. eigenvalues --   -2.19864  -2.19347  -2.19253  -2.19185  -1.13891
  Beta  occ. eigenvalues --   -1.13879  -1.13841  -1.13807  -1.13757  -1.13750
  Beta  occ. eigenvalues --   -1.13733  -1.13668  -1.13642  -1.13588  -1.13533
  Beta  occ. eigenvalues --   -1.13450  -1.13066  -1.13013  -1.12997  -1.12940
  Beta  occ. eigenvalues --   -1.12933  -1.12926  -1.12904  -1.12873  -1.12751
  Beta  occ. eigenvalues --   -0.16946  -0.13282  -0.12789
  Beta virt. eigenvalues --   -0.06315  -0.06005  -0.05302  -0.04757  -0.02927
  Beta virt. eigenvalues --   -0.02390  -0.01953  -0.01784  -0.01016  -0.00955
  Beta virt. eigenvalues --   -0.00268   0.00229   0.00310   0.00601   0.00669

 Mulliken charges and spin densities:
               1          2
     1  Na  -0.938950   0.017007
     2  Na  -0.581720  -0.095915
     3  Na  -0.814063   0.510753
     4  Na   0.743667   0.115821
     5  Na  -0.107375   0.268772
     6  Na   0.530797  -0.099545
     7  Na   1.167644   0.283108
 Sum of Mulliken charges =  -0.00000   1.00000

 Dipole moment (field-independent basis, Debye):
    X=              0.0168    Y=              0.5760    Z=             -0.3445  Tot=              0.6713
 Quadrupole moment (field-independent basis, Debye-Ang):
   XX=            -67.2117   YY=            -54.7454   ZZ=            -73.1113
   XY=             -2.4518   XZ=              4.6973   YZ=              3.2481

 Normal termination of Gaussian 16 at Tue Nov 28 23:34:33 2023.
