 Gaussian 16, Revision B.01,
 Gaussian 16:  ES64L-G16RevB.01 20-Dec-2017

 -------------------------
 #P B3LYP/6-311+g(d) force
 -------------------------

 -----
 DPGEN
 -----
 Symbolic Z-matrix:
 Charge =  0 Multiplicity = 2

                         Standard orientation:
 ---------------------------------------------------------------------
 Center     Atomic      Atomic             Coordinates (Angstroms)
 Number     Number       Type             X           Y           Z
 ---------------------------------------------------------------------
      1         11           0        3.495180    0.058162   -0.288837
      2         11           0       -0.375895    0.281735   -1.834968
      3         11           0        1.375225   -2.470723   -0.047874
      4         11           0        0.728901    2.819113    0.073014
      5         11           0       -2.818952   -1.707117   -0.095172
      6         11           0       -2.921346    1.190535    0.311163
      7         11           0        0.516887   -0.171704    1.882673
 ---------------------------------------------------------------------

 SCF Done:  E(UB3LYP) =  -1136.12812610     A.U. after   20 cycles

 The electronic state is 2-A.
 Alpha  occ. eigenvalues --  -38.45322 -38.44493 -38.44094 -38.43597 -38.43556
 Alpha  occ. eigenvalues --  -38.43256 -38.42747  -2.21113  -2.20357  -2.19941
 Alpha  occ. eigenvalues --   -2.19496  -2.19464  -2.19123  -2.18577  -1.14787
 Alpha  occ. eigenvalues --   -1.14770  -1.14748  -1.14117  -1.14011  -1.13983
 Alpha  occ. eigenvalues --   -1.13603  -1.13586  -1.13563  -1.13185  -1.13164
 Alpha  occ. eigenvalues --   -1.13134  -1.13115  -1.13103  -1.13077  -1.12805
 Alpha  occ. eigenvalues --   -1.12779  -1.12745  -1.12257  -1.12248  -1.12208
 Alpha  occ. eigenvalues --   -0.18370  -0.13726  -0.11756  -0.10521
 Alpha virt. eigenvalues --   -0.06655  -0.05176  -0.04159  -0.03608  -0.02585
 Alpha virt. eigenvalues --   -0.02426  -0.02252  -0.01096  -0.00430  -0.00339
 Alpha virt. eigenvalues --   -0.00084   0.00315   0.00621   0.00728   0.00844

  Beta  occ. eigenvalues --  -38.45318 -38.44488 -38.44093 -38.43526 -38.43475
  Beta  occ. eigenvalues --  -38.43249 -38.42743  -2.21109  -2.20350  -2.19942
  Beta  occ. eigenvalues --   -2.19365  -2.19315  -2.19112  -2.18573  -1.14774
  Beta  occ. eigenvalues --   -1.14762  -1.14747  -1.14118  -1.13990  -1.13975
  Beta  occ. eigenvalues --   -1.13604  -1.13573  -1.13560  -1.13095  -1.13067
  Beta  occ. eigenvalues --   -1.13039  -1.13019  -1.12999  -1.12972  -1.12790
  Beta  occ. eigenvalues --   -1.12747  -1.12739  -1.12257  -1.12222  -1.12207
  Beta  occ. eigenvalues --   -0.17652  -0.13547  -0.11524
  Beta virt. eigenvalues --   -0.06699  -0.06519  -0.05185  -0.04124  -0.02846
  Beta virt. eigenvalues --   -0.02148  -0.01843  -0.01408  -0.01038  -0.00464
  Beta virt. eigenvalues --   -0.00367   0.00086   0.00347   0.00778   0.00829

 Mulliken charges and spin densities:
               1          2
     1  Na   0.109022  -0.037053
     2  Na  -0.232321   0.650586
     3  Na   0.123424  -0.090786
     4  Na  -0.067810  -0.130645
     5  Na   0.106593  -0.069280
     6  Na   0.173990  -0.011793
     7  Na  -0.212898   0.688971
 Sum of Mulliken charges =  -0.00000   1.00000

 Dipole moment (field-independent basis, Debye):
    X=              0.3503    Y=              0.0050    Z=             -0.0724  Tot=              0.3577
 Quadrupole moment (field-independent basis, Debye-Ang):
   XX=            -50.1976   YY=            -68.0665   ZZ=            -75.1843
   XY=              0.8174   XZ=             -2.0190   YZ=              1.3430

 Normal termination of Gaussian 16 at Mon Dec  4 04:28:26 2023.
