 Gaussian 16, Revision B.01,
 Gaussian 16:  ES64L-G16RevB.01 20-Dec-2017

 -------------------------
 #P B3LYP/6-311+g(d) force
 -------------------------

 -----
 DPGEN
 -----
 Symbolic Z-matrix:
 Charge =  0 Multiplicity = 2

                         Standard orientation:
 ---------------------------------------------------------------------
 Center     Atomic      Atomic             Coordinates (Angstroms)
 Number     Number       Type             X           Y           Z
 ---------------------------------------------------------------------
      1         11           0        0.781989    2.794640   -0.102646
      2         11           0       -0.001580   -0.282405    1.909932
      3         11           0        3.431943    0.186911    0.143933
      4         11           0        1.156442   -2.470641   -0.342617
      5         11           0       -0.223116    0.027997   -1.766600
      6         11           0       -2.401573   -1.949493    0.072803
      7         11           0       -2.744104    1.692990    0.085195
 ---------------------------------------------------------------------

 SCF Done:  E(UB3LYP) =  -1136.13815044     A.U. after   19 cycles

 The electronic state is 2-A.
 Alpha  occ. eigenvalues --  -38.44360 -38.44014 -38.43742 -38.43514 -38.43414
 Alpha  occ. eigenvalues --  -38.43247 -38.43215  -2.20142  -2.19821  -2.19587
 Alpha  occ. eigenvalues --   -2.19418  -2.19235  -2.19172  -2.19137  -1.13814
 Alpha  occ. eigenvalues --   -1.13801  -1.13786  -1.13498  -1.13481  -1.13461
 Alpha  occ. eigenvalues --   -1.13265  -1.13259  -1.13221  -1.13103  -1.13055
 Alpha  occ. eigenvalues --   -1.13028  -1.12942  -1.12913  -1.12905  -1.12854
 Alpha  occ. eigenvalues --   -1.12824  -1.12800  -1.12787  -1.12756  -1.12739
 Alpha  occ. eigenvalues --   -0.18540  -0.12928  -0.12381  -0.10622
 Alpha virt. eigenvalues --   -0.05907  -0.05305  -0.04506  -0.03100  -0.02847
 Alpha virt. eigenvalues --   -0.02478  -0.01769  -0.01208  -0.00457  -0.00289
 Alpha virt. eigenvalues --   -0.00021   0.00338   0.00754   0.00854   0.00877

  Beta  occ. eigenvalues --  -38.44361 -38.44012 -38.43737 -38.43432 -38.43410
  Beta  occ. eigenvalues --  -38.43233 -38.43137  -2.20145  -2.19820  -2.19581
  Beta  occ. eigenvalues --   -2.19268  -2.19230  -2.19118  -2.19029  -1.13806
  Beta  occ. eigenvalues --   -1.13801  -1.13789  -1.13487  -1.13476  -1.13460
  Beta  occ. eigenvalues --   -1.13259  -1.13232  -1.13216  -1.13006  -1.12953
  Beta  occ. eigenvalues --   -1.12926  -1.12917  -1.12887  -1.12860  -1.12853
  Beta  occ. eigenvalues --   -1.12763  -1.12739  -1.12733  -1.12685  -1.12668
  Beta  occ. eigenvalues --   -0.17801  -0.12726  -0.12130
  Beta virt. eigenvalues --   -0.06714  -0.05854  -0.05319  -0.04463  -0.02364
  Beta virt. eigenvalues --   -0.02062  -0.01677  -0.01418  -0.01156  -0.00501
  Beta virt. eigenvalues --   -0.00329   0.00116   0.00360   0.00812   0.00848

 Mulliken charges and spin densities:
               1          2
     1  Na  -0.038391  -0.146381
     2  Na  -0.399666   0.826470
     3  Na  -0.035020  -0.073421
     4  Na   0.277821  -0.053890
     5  Na  -0.077366   0.633858
     6  Na   0.267345  -0.071957
     7  Na   0.005278  -0.114680
 Sum of Mulliken charges =  -0.00000   1.00000

 Dipole moment (field-independent basis, Debye):
    X=             -0.0236    Y=              0.0690    Z=              0.1289  Tot=              0.1481
 Quadrupole moment (field-independent basis, Debye-Ang):
   XX=            -53.2321   YY=            -64.1504   ZZ=            -75.0724
   XY=              0.3159   XZ=             -0.2779   YZ=              0.7056

 Normal termination of Gaussian 16 at Thu Dec  7 09:00:19 2023.
