 Gaussian 16, Revision B.01,
 Gaussian 16:  ES64L-G16RevB.01 20-Dec-2017

 -------------------------
 #P B3LYP/6-311+g(d) force
 -------------------------

 -----
 DPGEN
 -----
 Symbolic Z-matrix:
 Charge =  0 Multiplicity = 2

                         Standard orientation:
 ---------------------------------------------------------------------
 Center     Atomic      Atomic             Coordinates (Angstroms)
 Number     Number       Type             X           Y           Z
 ---------------------------------------------------------------------
      1         11           0        0.221990    1.662559   -1.456052
      2         11           0       -2.381668    1.891670    1.047237
      3         11           0       -3.191831   -0.806081   -1.491177
      4         11           0        0.519237   -1.971555   -0.594187
      5         11           0        2.064369   -0.000349    1.617897
      6         11           0        4.050501    0.298551   -0.721847
      7         11           0       -1.282598   -1.074795    1.598130
 ---------------------------------------------------------------------

 SCF Done:  E(UB3LYP) =  -1136.11744687     A.U. after   26 cycles

 The electronic state is 2-A.
 Alpha  occ. eigenvalues --  -38.45303 -38.44936 -38.44166 -38.44112 -38.43776
 Alpha  occ. eigenvalues --  -38.43475 -38.42634  -2.21086  -2.20731  -2.20005
 Alpha  occ. eigenvalues --   -2.19938  -2.19619  -2.19376  -2.18589  -1.14757
 Alpha  occ. eigenvalues --   -1.14722  -1.14706  -1.14444  -1.14381  -1.14357
 Alpha  occ. eigenvalues --   -1.13685  -1.13671  -1.13640  -1.13631  -1.13617
 Alpha  occ. eigenvalues --   -1.13530  -1.13306  -1.13265  -1.13229  -1.13112
 Alpha  occ. eigenvalues --   -1.13031  -1.12982  -1.12273  -1.12251  -1.12204
 Alpha  occ. eigenvalues --   -0.18186  -0.13921  -0.11337  -0.10871
 Alpha virt. eigenvalues --   -0.07107  -0.05318  -0.04300  -0.03075  -0.02763
 Alpha virt. eigenvalues --   -0.02715  -0.02416  -0.01428  -0.00628  -0.00106
 Alpha virt. eigenvalues --    0.00056   0.00151   0.00296   0.00583   0.00691

  Beta  occ. eigenvalues --  -38.45251 -38.44943 -38.44150 -38.44092 -38.43726
  Beta  occ. eigenvalues --  -38.43457 -38.42606  -2.20988  -2.20743  -2.19967
  Beta  occ. eigenvalues --   -2.19911  -2.19529  -2.19343  -2.18543  -1.14685
  Beta  occ. eigenvalues --   -1.14653  -1.14638  -1.14452  -1.14389  -1.14363
  Beta  occ. eigenvalues --   -1.13662  -1.13635  -1.13624  -1.13595  -1.13591
  Beta  occ. eigenvalues --   -1.13515  -1.13239  -1.13203  -1.13164  -1.13095
  Beta  occ. eigenvalues --   -1.13004  -1.12943  -1.12249  -1.12191  -1.12162
  Beta  occ. eigenvalues --   -0.17510  -0.13715  -0.10708
  Beta virt. eigenvalues --   -0.07504  -0.06924  -0.04705  -0.04174  -0.02890
  Beta virt. eigenvalues --   -0.02533  -0.02174  -0.01672  -0.01006  -0.00542
  Beta virt. eigenvalues --   -0.00029   0.00134   0.00268   0.00297   0.00704

 Mulliken charges and spin densities:
               1          2
     1  Na  -0.441286   0.065531
     2  Na  -0.053631   0.080551
     3  Na   0.015182   0.236237
     4  Na  -0.388091   0.395266
     5  Na   0.153840  -0.039549
     6  Na   0.173132  -0.007711
     7  Na   0.540854   0.269675
 Sum of Mulliken charges =  -0.00000   1.00000

 Dipole moment (field-independent basis, Debye):
    X=              0.4103    Y=             -0.2510    Z=             -0.4998  Tot=              0.6936
 Quadrupole moment (field-independent basis, Debye-Ang):
   XX=            -48.4649   YY=            -77.8734   ZZ=            -67.9774
   XY=              0.9773   XZ=              0.1869   YZ=              6.0540

 Normal termination of Gaussian 16 at Thu Dec  7 03:42:01 2023.
