 Gaussian 16, Revision B.01,
 Gaussian 16:  ES64L-G16RevB.01 20-Dec-2017

 -------------------------
 #P B3LYP/6-311+g(d) force
 -------------------------

 -----
 DPGEN
 -----
 Symbolic Z-matrix:
 Charge =  0 Multiplicity = 2

                         Standard orientation:
 ---------------------------------------------------------------------
 Center     Atomic      Atomic             Coordinates (Angstroms)
 Number     Number       Type             X           Y           Z
 ---------------------------------------------------------------------
      1         11           0        3.241737    0.308183   -0.293235
      2         11           0        0.695578    2.916021    0.359959
      3         11           0       -0.074059    0.087174    1.942907
      4         11           0       -2.481468   -1.615915    0.491008
      5         11           0       -2.332000    1.601767   -0.705529
      6         11           0       -0.237094   -0.434839   -1.789224
      7         11           0        1.187306   -2.862390   -0.005886
 ---------------------------------------------------------------------

 SCF Done:  E(UB3LYP) =  -1136.13700969     A.U. after   19 cycles

 The electronic state is 2-A.
 Alpha  occ. eigenvalues --  -38.44152 -38.43729 -38.43705 -38.43658 -38.43508
 Alpha  occ. eigenvalues --  -38.43444 -38.43350  -2.19925  -2.19575  -2.19572
 Alpha  occ. eigenvalues --   -2.19542  -2.19457  -2.19335  -2.19183  -1.13610
 Alpha  occ. eigenvalues --   -1.13580  -1.13563  -1.13309  -1.13255  -1.13250
 Alpha  occ. eigenvalues --   -1.13232  -1.13222  -1.13201  -1.13187  -1.13179
 Alpha  occ. eigenvalues --   -1.13172  -1.13165  -1.13099  -1.13069  -1.12984
 Alpha  occ. eigenvalues --   -1.12972  -1.12958  -1.12866  -1.12835  -1.12813
 Alpha  occ. eigenvalues --   -0.18556  -0.12739  -0.12520  -0.11052
 Alpha virt. eigenvalues --   -0.05603  -0.04942  -0.04777  -0.03219  -0.03106
 Alpha virt. eigenvalues --   -0.02730  -0.01375  -0.01164  -0.00351  -0.00290
 Alpha virt. eigenvalues --    0.00019   0.00366   0.00829   0.00861   0.00913

  Beta  occ. eigenvalues --  -38.44151 -38.43727 -38.43689 -38.43572 -38.43438
  Beta  occ. eigenvalues --  -38.43422 -38.43345  -2.19926  -2.19550  -2.19541
  Beta  occ. eigenvalues --   -2.19417  -2.19330  -2.19299  -2.19177  -1.13602
  Beta  occ. eigenvalues --   -1.13581  -1.13563  -1.13268  -1.13236  -1.13205
  Beta  occ. eigenvalues --   -1.13204  -1.13189  -1.13161  -1.13138  -1.13103
  Beta  occ. eigenvalues --   -1.13088  -1.13078  -1.13015  -1.12986  -1.12948
  Beta  occ. eigenvalues --   -1.12937  -1.12911  -1.12848  -1.12824  -1.12811
  Beta  occ. eigenvalues --   -0.17818  -0.12496  -0.12280
  Beta virt. eigenvalues --   -0.07119  -0.05597  -0.04859  -0.04718  -0.02479
  Beta virt. eigenvalues --   -0.02362  -0.01699  -0.01284  -0.01080  -0.00330
  Beta virt. eigenvalues --   -0.00321   0.00123   0.00403   0.00836   0.00903

 Mulliken charges and spin densities:
               1          2
     1  Na  -0.165838  -0.083371
     2  Na  -0.037605  -0.048107
     3  Na  -0.107191   0.635948
     4  Na   0.191773   0.024586
     5  Na   0.159662   0.077271
     6  Na   0.021554   0.505385
     7  Na  -0.062353  -0.111713
 Sum of Mulliken charges =  -0.00000   1.00000

 Dipole moment (field-independent basis, Debye):
    X=              0.1817    Y=             -0.2483    Z=              0.0493  Tot=              0.3116
 Quadrupole moment (field-independent basis, Debye-Ang):
   XX=            -59.1366   YY=            -61.9831   ZZ=            -72.9621
   XY=              0.2931   XZ=             -0.5387   YZ=             -1.3511

 Normal termination of Gaussian 16 at Fri Dec  8 01:54:08 2023.
