 Gaussian 16, Revision B.01,
 Gaussian 16:  ES64L-G16RevB.01 20-Dec-2017

 -------------------------
 #P B3LYP/6-311+g(d) force
 -------------------------

 -----
 DPGEN
 -----
 Symbolic Z-matrix:
 Charge =  0 Multiplicity = 2

                         Standard orientation:
 ---------------------------------------------------------------------
 Center     Atomic      Atomic             Coordinates (Angstroms)
 Number     Number       Type             X           Y           Z
 ---------------------------------------------------------------------
      1         11           0        3.835706    1.269142   -0.704333
      2         11           0        1.344887    0.716663    1.972407
      3         11           0       -0.114909    0.123286   -1.796205
      4         11           0       -3.414516   -0.443805    0.954389
      5         11           0       -1.404563   -2.627504   -0.811998
      6         11           0        2.110923   -1.959323    0.642330
      7         11           0       -2.357528    2.921540   -0.256590
 ---------------------------------------------------------------------

 SCF Done:  E(UB3LYP) =  -1136.11347027     A.U. after   25 cycles

 The electronic state is 2-A.
 Alpha  occ. eigenvalues --  -38.45333 -38.45270 -38.44579 -38.44348 -38.44306
 Alpha  occ. eigenvalues --  -38.43625 -38.42844  -2.21087  -2.21030  -2.20413
 Alpha  occ. eigenvalues --   -2.20184  -2.20144  -2.19366  -2.18683  -1.14760
 Alpha  occ. eigenvalues --   -1.14743  -1.14710  -1.14707  -1.14684  -1.14654
 Alpha  occ. eigenvalues --   -1.14145  -1.14051  -1.14023  -1.13866  -1.13835
 Alpha  occ. eigenvalues --   -1.13820  -1.13795  -1.13781  -1.13761  -1.13046
 Alpha  occ. eigenvalues --   -1.13034  -1.13014  -1.12377  -1.12340  -1.12317
 Alpha  occ. eigenvalues --   -0.17277  -0.13554  -0.11325  -0.10639
 Alpha virt. eigenvalues --   -0.07218  -0.05626  -0.04325  -0.03713  -0.02702
 Alpha virt. eigenvalues --   -0.02628  -0.02419  -0.01216  -0.00978  -0.00551
 Alpha virt. eigenvalues --   -0.00094   0.00131   0.00251   0.00413   0.00610

  Beta  occ. eigenvalues --  -38.45307 -38.45254 -38.44521 -38.44318 -38.44238
  Beta  occ. eigenvalues --  -38.43639 -38.42841  -2.21037  -2.21000  -2.20307
  Beta  occ. eigenvalues --   -2.20134  -2.20020  -2.19395  -2.18681  -1.14727
  Beta  occ. eigenvalues --   -1.14698  -1.14685  -1.14676  -1.14665  -1.14637
  Beta  occ. eigenvalues --   -1.14072  -1.13971  -1.13948  -1.13821  -1.13782
  Beta  occ. eigenvalues --   -1.13746  -1.13736  -1.13701  -1.13675  -1.13062
  Beta  occ. eigenvalues --   -1.13054  -1.13031  -1.12366  -1.12334  -1.12316
  Beta  occ. eigenvalues --   -0.16605  -0.13317  -0.11225
  Beta virt. eigenvalues --   -0.07072  -0.06804  -0.05459  -0.04158  -0.03243
  Beta virt. eigenvalues --   -0.02278  -0.02143  -0.01857  -0.01090  -0.00825
  Beta virt. eigenvalues --   -0.00382  -0.00061   0.00251   0.00360   0.00587

 Mulliken charges and spin densities:
               1          2
     1  Na  -0.017889   0.053105
     2  Na   0.020060   0.382204
     3  Na  -0.148321   0.572016
     4  Na  -0.117847   0.076481
     5  Na   0.238043  -0.062401
     6  Na   0.035695   0.102574
     7  Na  -0.009740  -0.123979
 Sum of Mulliken charges =  -0.00000   1.00000

 Dipole moment (field-independent basis, Debye):
    X=              0.8857    Y=             -0.0319    Z=              0.3745  Tot=              0.9622
 Quadrupole moment (field-independent basis, Debye-Ang):
   XX=            -54.2515   YY=            -68.8551   ZZ=            -72.9933
   XY=              3.5625   XZ=             -3.9746   YZ=             -1.4288

 Normal termination of Gaussian 16 at Sun Dec  3 13:23:37 2023.
