 Gaussian 16, Revision B.01,
 Gaussian 16:  ES64L-G16RevB.01 20-Dec-2017

 -------------------------
 #P B3LYP/6-311+g(d) force
 -------------------------

 -----
 DPGEN
 -----
 Symbolic Z-matrix:
 Charge =  0 Multiplicity = 2

                         Standard orientation:
 ---------------------------------------------------------------------
 Center     Atomic      Atomic             Coordinates (Angstroms)
 Number     Number       Type             X           Y           Z
 ---------------------------------------------------------------------
      1         11           0        2.243619   -1.144414   -0.813320
      2         11           0        4.807568   -1.087433    1.650854
      3         11           0        4.373763    1.692549   -0.098299
      4         11           0        0.780165    1.778726   -1.105436
      5         11           0       -1.306827   -1.460974   -0.282693
      6         11           0       -4.701957   -1.024797   -0.781684
      7         11           0       -6.196331    1.246344    1.430577
 ---------------------------------------------------------------------

 SCF Done:  E(UB3LYP) =  -1136.11389251     A.U. after   21 cycles

 The electronic state is 2-A.
 Alpha  occ. eigenvalues --  -38.44714 -38.44475 -38.44466 -38.44228 -38.44212
 Alpha  occ. eigenvalues --  -38.43744 -38.43625  -2.20467  -2.20321  -2.20295
 Alpha  occ. eigenvalues --   -2.20055  -2.19979  -2.19568  -2.19429  -1.14127
 Alpha  occ. eigenvalues --   -1.14126  -1.14085  -1.14039  -1.14022  -1.13981
 Alpha  occ. eigenvalues --   -1.13958  -1.13929  -1.13908  -1.13725  -1.13715
 Alpha  occ. eigenvalues --   -1.13662  -1.13657  -1.13650  -1.13615  -1.13222
 Alpha  occ. eigenvalues --   -1.13221  -1.13192  -1.13106  -1.13094  -1.13036
 Alpha  occ. eigenvalues --   -0.16610  -0.13910  -0.11773  -0.10931
 Alpha virt. eigenvalues --   -0.07156  -0.05180  -0.04593  -0.03535  -0.02919
 Alpha virt. eigenvalues --   -0.02627  -0.02112  -0.01593  -0.01005  -0.00834
 Alpha virt. eigenvalues --   -0.00355  -0.00191  -0.00141   0.00276   0.00443

  Beta  occ. eigenvalues --  -38.44674 -38.44461 -38.44458 -38.44226 -38.44170
  Beta  occ. eigenvalues --  -38.43703 -38.43591  -2.20392  -2.20309  -2.20271
  Beta  occ. eigenvalues --   -2.20008  -2.19949  -2.19491  -2.19364  -1.14076
  Beta  occ. eigenvalues --   -1.14074  -1.14037  -1.14018  -1.13997  -1.13970
  Beta  occ. eigenvalues --   -1.13946  -1.13905  -1.13881  -1.13681  -1.13677
  Beta  occ. eigenvalues --   -1.13655  -1.13647  -1.13620  -1.13561  -1.13169
  Beta  occ. eigenvalues --   -1.13164  -1.13147  -1.13061  -1.13046  -1.13005
  Beta  occ. eigenvalues --   -0.16017  -0.13675  -0.11472
  Beta virt. eigenvalues --   -0.07522  -0.06597  -0.04932  -0.04180  -0.03380
  Beta virt. eigenvalues --   -0.02531  -0.02386  -0.01768  -0.01431  -0.00872
  Beta virt. eigenvalues --   -0.00480  -0.00141   0.00015   0.00058   0.00330

 Mulliken charges and spin densities:
               1          2
     1  Na  -0.095499   0.027078
     2  Na   0.166825   0.229625
     3  Na   0.252580  -0.014683
     4  Na  -0.143375   0.408101
     5  Na  -0.444137   0.168965
     6  Na   0.226628  -0.029476
     7  Na   0.036978   0.210390
 Sum of Mulliken charges =  -0.00000   1.00000

 Dipole moment (field-independent basis, Debye):
    X=              0.4650    Y=              0.7891    Z=              0.3221  Tot=              0.9709
 Quadrupole moment (field-independent basis, Debye-Ang):
   XX=            -66.7285   YY=            -64.8925   ZZ=            -67.4318
   XY=             -1.5887   XZ=             -1.2016   YZ=              2.5752

 Normal termination of Gaussian 16 at Wed Nov 29 03:26:39 2023.
