 Gaussian 16, Revision B.01,
 Gaussian 16:  ES64L-G16RevB.01 20-Dec-2017

 -------------------------
 #P B3LYP/6-311+g(d) force
 -------------------------

 -----
 DPGEN
 -----
 Symbolic Z-matrix:
 Charge =  0 Multiplicity = 2

                         Standard orientation:
 ---------------------------------------------------------------------
 Center     Atomic      Atomic             Coordinates (Angstroms)
 Number     Number       Type             X           Y           Z
 ---------------------------------------------------------------------
      1         11           0        0.033769   -0.184495   -1.530203
      2         11           0        0.042103   -0.126569    1.643980
      3         11           0        2.175537   -1.660025   -0.030919
      4         11           0        2.303748    1.247698   -0.026267
      5         11           0       -0.422230    2.345764   -0.024864
      6         11           0       -1.389742   -2.003329    0.009386
      7         11           0       -2.743185    0.380956   -0.041113
 ---------------------------------------------------------------------

 SCF Done:  E(UB3LYP) =  -1136.10034158     A.U. after   18 cycles

 The electronic state is 2-A.
 Alpha  occ. eigenvalues --  -38.44120 -38.43735 -38.43705 -38.43634 -38.43350
 Alpha  occ. eigenvalues --  -38.43315 -38.42956  -2.20163  -2.19808  -2.19798
 Alpha  occ. eigenvalues --   -2.19642  -2.19614  -2.19525  -2.19027  -1.14068
 Alpha  occ. eigenvalues --   -1.13845  -1.13780  -1.13691  -1.13652  -1.13554
 Alpha  occ. eigenvalues --   -1.13536  -1.13443  -1.13376  -1.13318  -1.13305
 Alpha  occ. eigenvalues --   -1.13290  -1.13203  -1.13180  -1.13138  -1.13135
 Alpha  occ. eigenvalues --   -1.13097  -1.13085  -1.12697  -1.12645  -1.12641
 Alpha  occ. eigenvalues --   -0.21049  -0.14138  -0.12815  -0.11364
 Alpha virt. eigenvalues --   -0.05541  -0.04789  -0.04075  -0.03549  -0.02735
 Alpha virt. eigenvalues --   -0.02205  -0.01417  -0.00732   0.00030   0.00331
 Alpha virt. eigenvalues --    0.00438   0.00511   0.00900   0.01052   0.01072

  Beta  occ. eigenvalues --  -38.44111 -38.43724 -38.43690 -38.43625 -38.43270
  Beta  occ. eigenvalues --  -38.43228 -38.42944  -2.20152  -2.19787  -2.19784
  Beta  occ. eigenvalues --   -2.19628  -2.19474  -2.19368  -2.19010  -1.14062
  Beta  occ. eigenvalues --   -1.13840  -1.13728  -1.13659  -1.13633  -1.13545
  Beta  occ. eigenvalues --   -1.13461  -1.13384  -1.13351  -1.13302  -1.13257
  Beta  occ. eigenvalues --   -1.13216  -1.13200  -1.13079  -1.13054  -1.13048
  Beta  occ. eigenvalues --   -1.13001  -1.12979  -1.12683  -1.12642  -1.12578
  Beta  occ. eigenvalues --   -0.20270  -0.13773  -0.12482
  Beta virt. eigenvalues --   -0.07249  -0.05561  -0.04773  -0.04072  -0.02584
  Beta virt. eigenvalues --   -0.01880  -0.01331  -0.01149  -0.00690   0.00161
  Beta virt. eigenvalues --    0.00349   0.00398   0.00494   0.00930   0.01055

 Mulliken charges and spin densities:
               1          2
     1  Na  -0.736504   0.329767
     2  Na  -0.647668   0.450015
     3  Na   0.316576   0.009032
     4  Na   0.176345   0.040252
     5  Na   0.358508   0.081061
     6  Na   0.409241   0.077398
     7  Na   0.123502   0.012475
 Sum of Mulliken charges =  -0.00000   1.00000

 Dipole moment (field-independent basis, Debye):
    X=              0.0693    Y=             -0.0601    Z=              0.1069  Tot=              0.1409
 Quadrupole moment (field-independent basis, Debye-Ang):
   XX=            -55.8471   YY=            -66.4172   ZZ=            -72.9149
   XY=             -0.8471   XZ=              0.0091   YZ=             -0.1206

 Normal termination of Gaussian 16 at Sat Dec  9 07:08:13 2023.
