 Gaussian 16, Revision B.01,
 Gaussian 16:  ES64L-G16RevB.01 20-Dec-2017

 -------------------------
 #P B3LYP/6-311+g(d) force
 -------------------------

 -----
 DPGEN
 -----
 Symbolic Z-matrix:
 Charge =  0 Multiplicity = 2

                         Standard orientation:
 ---------------------------------------------------------------------
 Center     Atomic      Atomic             Coordinates (Angstroms)
 Number     Number       Type             X           Y           Z
 ---------------------------------------------------------------------
      1         11           0       -2.884765    1.620715    0.107660
      2         11           0        1.265024    2.626138   -0.356262
      3         11           0        4.826798   -0.182133    0.510669
      4         11           0        2.274786   -1.706094   -0.498999
      5         11           0       -0.124960   -0.078350    0.060000
      6         11           0       -2.707301   -1.070845    1.598040
      7         11           0       -2.649582   -1.209430   -1.421108
 ---------------------------------------------------------------------

 SCF Done:  E(UB3LYP) =  -1136.09783432     A.U. after   28 cycles

 The electronic state is 2-A.
 Alpha  occ. eigenvalues --  -38.45438 -38.45275 -38.44170 -38.44167 -38.43772
 Alpha  occ. eigenvalues --  -38.43264 -38.42951  -2.21367  -2.21216  -2.20095
 Alpha  occ. eigenvalues --   -2.19988  -2.19632  -2.19084  -2.19060  -1.15105
 Alpha  occ. eigenvalues --   -1.15036  -1.14996  -1.14906  -1.14849  -1.14803
 Alpha  occ. eigenvalues --   -1.13790  -1.13784  -1.13670  -1.13656  -1.13626
 Alpha  occ. eigenvalues --   -1.13608  -1.13398  -1.13280  -1.13247  -1.12846
 Alpha  occ. eigenvalues --   -1.12772  -1.12739  -1.12723  -1.12669  -1.12606
 Alpha  occ. eigenvalues --   -0.18678  -0.14488  -0.11043  -0.10567
 Alpha virt. eigenvalues --   -0.07342  -0.05661  -0.04453  -0.03017  -0.02953
 Alpha virt. eigenvalues --   -0.02020  -0.01708  -0.01536  -0.00751  -0.00690
 Alpha virt. eigenvalues --   -0.00159   0.00074   0.00190   0.00513   0.00701

  Beta  occ. eigenvalues --  -38.45408 -38.45256 -38.44135 -38.44087 -38.43773
  Beta  occ. eigenvalues --  -38.43261 -38.42906  -2.21315  -2.21187  -2.20040
  Beta  occ. eigenvalues --   -2.19833  -2.19641  -2.19059  -2.19002  -1.15081
  Beta  occ. eigenvalues --   -1.15007  -1.14925  -1.14889  -1.14803  -1.14770
  Beta  occ. eigenvalues --   -1.13758  -1.13743  -1.13614  -1.13558  -1.13520
  Beta  occ. eigenvalues --   -1.13502  -1.13381  -1.13290  -1.13222  -1.12823
  Beta  occ. eigenvalues --   -1.12730  -1.12710  -1.12687  -1.12669  -1.12551
  Beta  occ. eigenvalues --   -0.18111  -0.13884  -0.10805
  Beta virt. eigenvalues --   -0.07127  -0.06904  -0.05549  -0.03887  -0.02821
  Beta virt. eigenvalues --   -0.02735  -0.01574  -0.01431  -0.01187  -0.00668
  Beta virt. eigenvalues --   -0.00313   0.00031   0.00167   0.00370   0.00575

 Mulliken charges and spin densities:
               1          2
     1  Na   0.942786   0.294816
     2  Na   0.574514  -0.119091
     3  Na  -0.080849   0.437157
     4  Na   0.780905   0.190665
     5  Na  -3.691846  -0.286090
     6  Na   0.696007   0.392484
     7  Na   0.778484   0.090059
 Sum of Mulliken charges =  -0.00000   1.00000

 Dipole moment (field-independent basis, Debye):
    X=             -1.6700    Y=             -0.0723    Z=             -0.2116  Tot=              1.6849
 Quadrupole moment (field-independent basis, Debye-Ang):
   XX=            -61.7605   YY=            -73.6854   ZZ=            -63.4745
   XY=              5.6904   XZ=              3.6398   YZ=             -1.2238

 Normal termination of Gaussian 16 at Tue Dec  5 12:45:12 2023.
