 Gaussian 16, Revision B.01,
 Gaussian 16:  ES64L-G16RevB.01 20-Dec-2017

 -------------------------
 #P B3LYP/6-311+g(d) force
 -------------------------

 -----
 DPGEN
 -----
 Symbolic Z-matrix:
 Charge =  0 Multiplicity = 2

                         Standard orientation:
 ---------------------------------------------------------------------
 Center     Atomic      Atomic             Coordinates (Angstroms)
 Number     Number       Type             X           Y           Z
 ---------------------------------------------------------------------
      1         11           0       -0.772743   -2.646329    0.209664
      2         11           0       -1.236972    2.871666    0.215137
      3         11           0        0.038990    0.251602    1.754302
      4         11           0        1.874499   -1.778830   -0.120900
      5         11           0       -3.199692   -0.250763   -0.306557
      6         11           0        3.451257    1.184127   -0.184835
      7         11           0       -0.155339    0.368528   -1.566811
 ---------------------------------------------------------------------

 SCF Done:  E(UB3LYP) =  -1136.12663509     A.U. after   20 cycles

 The electronic state is 2-A.
 Alpha  occ. eigenvalues --  -38.44579 -38.44562 -38.43740 -38.43435 -38.43334
 Alpha  occ. eigenvalues --  -38.43116 -38.42997  -2.20410  -2.20337  -2.19585
 Alpha  occ. eigenvalues --   -2.19420  -2.19318  -2.19087  -2.18949  -1.14090
 Alpha  occ. eigenvalues --   -1.14070  -1.14036  -1.14008  -1.14002  -1.13969
 Alpha  occ. eigenvalues --   -1.13282  -1.13260  -1.13244  -1.13205  -1.13095
 Alpha  occ. eigenvalues --   -1.13065  -1.13015  -1.12948  -1.12916  -1.12773
 Alpha  occ. eigenvalues --   -1.12711  -1.12696  -1.12593  -1.12575  -1.12559
 Alpha  occ. eigenvalues --   -0.18978  -0.13303  -0.12388  -0.10464
 Alpha virt. eigenvalues --   -0.06418  -0.05102  -0.04310  -0.03134  -0.02706
 Alpha virt. eigenvalues --   -0.02188  -0.02048  -0.01160  -0.00559  -0.00085
 Alpha virt. eigenvalues --    0.00030   0.00270   0.00751   0.00839   0.00859

  Beta  occ. eigenvalues --  -38.44565 -38.44560 -38.43731 -38.43424 -38.43278
  Beta  occ. eigenvalues --  -38.43029 -38.42989  -2.20387  -2.20335  -2.19572
  Beta  occ. eigenvalues --   -2.19407  -2.19216  -2.18938  -2.18928  -1.14065
  Beta  occ. eigenvalues --   -1.14044  -1.14022  -1.14009  -1.13989  -1.13969
  Beta  occ. eigenvalues --   -1.13274  -1.13238  -1.13226  -1.13198  -1.13077
  Beta  occ. eigenvalues --   -1.13020  -1.12949  -1.12880  -1.12838  -1.12671
  Beta  occ. eigenvalues --   -1.12607  -1.12588  -1.12587  -1.12554  -1.12514
  Beta  occ. eigenvalues --   -0.18260  -0.13024  -0.12127
  Beta virt. eigenvalues --   -0.06673  -0.06261  -0.05067  -0.04298  -0.02393
  Beta virt. eigenvalues --   -0.02111  -0.01883  -0.01150  -0.01041  -0.00590
  Beta virt. eigenvalues --   -0.00056   0.00132   0.00314   0.00764   0.00898

 Mulliken charges and spin densities:
               1          2
     1  Na   0.102394   0.101287
     2  Na  -0.052404  -0.084640
     3  Na  -0.222245   0.427127
     4  Na   0.133300   0.109851
     5  Na   0.252938   0.076721
     6  Na   0.109043  -0.030180
     7  Na  -0.323026   0.399834
 Sum of Mulliken charges =  -0.00000   1.00000

 Dipole moment (field-independent basis, Debye):
    X=             -0.1833    Y=              0.6790    Z=              0.0556  Tot=              0.7055
 Quadrupole moment (field-independent basis, Debye-Ang):
   XX=            -52.8844   YY=            -63.2570   ZZ=            -75.7938
   XY=              1.7201   XZ=             -0.2432   YZ=             -0.0003

 Normal termination of Gaussian 16 at Tue Dec  5 12:15:48 2023.
