 Gaussian 16, Revision B.01,
 Gaussian 16:  ES64L-G16RevB.01 20-Dec-2017

 -------------------------
 #P B3LYP/6-311+g(d) force
 -------------------------

 -----
 DPGEN
 -----
 Symbolic Z-matrix:
 Charge =  0 Multiplicity = 2

                         Standard orientation:
 ---------------------------------------------------------------------
 Center     Atomic      Atomic             Coordinates (Angstroms)
 Number     Number       Type             X           Y           Z
 ---------------------------------------------------------------------
      1         11           0       -1.149607    2.769211    0.166470
      2         11           0       -3.250067   -0.423038   -0.277259
      3         11           0       -1.030254   -2.670203    0.213691
      4         11           0        0.271777    0.435359    1.639595
      5         11           0        2.681816   -1.890878    0.152667
      6         11           0        0.388369   -0.173358   -1.537088
      7         11           0        2.087966    1.952908   -0.358076
 ---------------------------------------------------------------------

 SCF Done:  E(UB3LYP) =  -1136.13184991     A.U. after   20 cycles

 The electronic state is 2-A.
 Alpha  occ. eigenvalues --  -38.43954 -38.43879 -38.43846 -38.43715 -38.43653
 Alpha  occ. eigenvalues --  -38.43001 -38.42982  -2.19789  -2.19774  -2.19693
 Alpha  occ. eigenvalues --   -2.19584  -2.19517  -2.19017  -2.19012  -1.13549
 Alpha  occ. eigenvalues --   -1.13468  -1.13452  -1.13430  -1.13418  -1.13393
 Alpha  occ. eigenvalues --   -1.13385  -1.13356  -1.13334  -1.13296  -1.13232
 Alpha  occ. eigenvalues --   -1.13204  -1.13200  -1.13184  -1.13129  -1.12769
 Alpha  occ. eigenvalues --   -1.12662  -1.12652  -1.12636  -1.12613  -1.12601
 Alpha  occ. eigenvalues --   -0.18950  -0.13134  -0.12756  -0.10257
 Alpha virt. eigenvalues --   -0.05533  -0.05392  -0.04955  -0.02958  -0.02779
 Alpha virt. eigenvalues --   -0.01939  -0.01610  -0.01311  -0.00501  -0.00302
 Alpha virt. eigenvalues --    0.00049   0.00330   0.00824   0.00836   0.00876

  Beta  occ. eigenvalues --  -38.43950 -38.43877 -38.43826 -38.43707 -38.43648
  Beta  occ. eigenvalues --  -38.42927 -38.42915  -2.19770  -2.19758  -2.19691
  Beta  occ. eigenvalues --   -2.19574  -2.19510  -2.18893  -2.18879  -1.13528
  Beta  occ. eigenvalues --   -1.13441  -1.13424  -1.13408  -1.13404  -1.13394
  Beta  occ. eigenvalues --   -1.13372  -1.13342  -1.13332  -1.13279  -1.13205
  Beta  occ. eigenvalues --   -1.13201  -1.13195  -1.13163  -1.13123  -1.12683
  Beta  occ. eigenvalues --   -1.12574  -1.12556  -1.12540  -1.12519  -1.12507
  Beta  occ. eigenvalues --   -0.18254  -0.12874  -0.12510
  Beta virt. eigenvalues --   -0.06370  -0.05522  -0.05323  -0.04921  -0.02194
  Beta virt. eigenvalues --   -0.02063  -0.01535  -0.01254  -0.00950  -0.00526
  Beta virt. eigenvalues --   -0.00327   0.00181   0.00376   0.00836   0.00869

 Mulliken charges and spin densities:
               1          2
     1  Na   0.195158  -0.014512
     2  Na  -0.101751  -0.033761
     3  Na  -0.004182  -0.019780
     4  Na  -0.295648   0.650802
     5  Na   0.099754  -0.078676
     6  Na  -0.267206   0.553558
     7  Na   0.373875  -0.057630
 Sum of Mulliken charges =  -0.00000   1.00000

 Dipole moment (field-independent basis, Debye):
    X=              0.0797    Y=             -0.0414    Z=              0.0528  Tot=              0.1041
 Quadrupole moment (field-independent basis, Debye-Ang):
   XX=            -55.7563   YY=            -58.9584   ZZ=            -77.0273
   XY=             -1.9280   XZ=              0.6345   YZ=             -1.3988

 Normal termination of Gaussian 16 at Wed Nov 29 02:58:39 2023.
