 Gaussian 16, Revision B.01,
 Gaussian 16:  ES64L-G16RevB.01 20-Dec-2017

 -------------------------
 #P B3LYP/6-311+g(d) force
 -------------------------

 -----
 DPGEN
 -----
 Symbolic Z-matrix:
 Charge =  0 Multiplicity = 2

                         Standard orientation:
 ---------------------------------------------------------------------
 Center     Atomic      Atomic             Coordinates (Angstroms)
 Number     Number       Type             X           Y           Z
 ---------------------------------------------------------------------
      1         11           0       -3.529869   -1.362572   -0.569386
      2         11           0       -1.002129    0.194827    1.931357
      3         11           0        1.897150   -1.703732    1.280107
      4         11           0        3.805471   -0.061908   -1.022182
      5         11           0       -0.171664   -0.940646   -1.393625
      6         11           0        1.368440    2.104820    0.163827
      7         11           0       -2.367399    1.769211   -0.390098
 ---------------------------------------------------------------------

 SCF Done:  E(UB3LYP) =  -1136.12564968     A.U. after   25 cycles

 The electronic state is 2-A.
 Alpha  occ. eigenvalues --  -38.44710 -38.44506 -38.43985 -38.43859 -38.43777
 Alpha  occ. eigenvalues --  -38.43650 -38.42822  -2.20526  -2.20354  -2.19847
 Alpha  occ. eigenvalues --   -2.19750  -2.19599  -2.19579  -2.18669  -1.14192
 Alpha  occ. eigenvalues --   -1.14179  -1.14150  -1.14070  -1.14035  -1.13953
 Alpha  occ. eigenvalues --   -1.13526  -1.13492  -1.13485  -1.13468  -1.13428
 Alpha  occ. eigenvalues --   -1.13360  -1.13264  -1.13256  -1.13252  -1.13231
 Alpha  occ. eigenvalues --   -1.13211  -1.13172  -1.12366  -1.12345  -1.12280
 Alpha  occ. eigenvalues --   -0.18458  -0.14230  -0.11334  -0.10848
 Alpha virt. eigenvalues --   -0.06787  -0.05311  -0.04640  -0.03020  -0.02749
 Alpha virt. eigenvalues --   -0.02421  -0.02331  -0.01115  -0.00915  -0.00190
 Alpha virt. eigenvalues --    0.00094   0.00216   0.00387   0.00664   0.00671

  Beta  occ. eigenvalues --  -38.44674 -38.44493 -38.43930 -38.43847 -38.43777
  Beta  occ. eigenvalues --  -38.43585 -38.42810  -2.20460  -2.20331  -2.19748
  Beta  occ. eigenvalues --   -2.19729  -2.19600  -2.19461  -2.18648  -1.14147
  Beta  occ. eigenvalues --   -1.14125  -1.14109  -1.14040  -1.14012  -1.13941
  Beta  occ. eigenvalues --   -1.13466  -1.13455  -1.13423  -1.13410  -1.13382
  Beta  occ. eigenvalues --   -1.13345  -1.13260  -1.13250  -1.13230  -1.13174
  Beta  occ. eigenvalues --   -1.13126  -1.13086  -1.12354  -1.12320  -1.12259
  Beta  occ. eigenvalues --   -0.17792  -0.13917  -0.10743
  Beta virt. eigenvalues --   -0.07399  -0.06556  -0.05115  -0.04137  -0.02852
  Beta virt. eigenvalues --   -0.02490  -0.01849  -0.01648  -0.01024  -0.00473
  Beta virt. eigenvalues --   -0.00110   0.00151   0.00261   0.00489   0.00708

 Mulliken charges and spin densities:
               1          2
     1  Na   0.200599  -0.076008
     2  Na   0.186615   0.364867
     3  Na  -0.062515   0.021721
     4  Na   0.588977   0.208594
     5  Na  -0.637531   0.295575
     6  Na  -0.546259   0.073604
     7  Na   0.270113   0.111648
 Sum of Mulliken charges =  -0.00000   1.00000

 Dipole moment (field-independent basis, Debye):
    X=              0.2151    Y=             -0.0431    Z=             -0.0250  Tot=              0.2208
 Quadrupole moment (field-independent basis, Debye-Ang):
   XX=            -50.6750   YY=            -75.5773   ZZ=            -69.0978
   XY=             -1.3226   XZ=             -2.0911   YZ=             -4.3430

 Normal termination of Gaussian 16 at Tue Dec  5 13:52:32 2023.
