 Gaussian 16, Revision B.01,
 Gaussian 16:  ES64L-G16RevB.01 20-Dec-2017

 -------------------------
 #P B3LYP/6-311+g(d) force
 -------------------------

 -----
 DPGEN
 -----
 Symbolic Z-matrix:
 Charge =  0 Multiplicity = 2

                         Standard orientation:
 ---------------------------------------------------------------------
 Center     Atomic      Atomic             Coordinates (Angstroms)
 Number     Number       Type             X           Y           Z
 ---------------------------------------------------------------------
      1         11           0        0.954545   -0.126822   -1.401284
      2         11           0       -3.640250    1.038365   -0.177225
      3         11           0       -2.257254   -1.611943   -1.078959
      4         11           0        3.164559   -2.007825   -0.081226
      5         11           0        0.086626   -1.757391    1.694379
      6         11           0       -0.889126    1.370823    1.247266
      7         11           0        2.580900    3.094793   -0.202951
 ---------------------------------------------------------------------

 SCF Done:  E(UB3LYP) =  -1136.11489327     A.U. after   26 cycles

 The electronic state is 2-A.
 Alpha  occ. eigenvalues --  -38.45332 -38.45188 -38.44256 -38.43773 -38.43633
 Alpha  occ. eigenvalues --  -38.43615 -38.43478  -2.21116  -2.21029  -2.20120
 Alpha  occ. eigenvalues --   -2.19665  -2.19516  -2.19376  -2.19345  -1.14806
 Alpha  occ. eigenvalues --   -1.14771  -1.14745  -1.14717  -1.14694  -1.14667
 Alpha  occ. eigenvalues --   -1.13792  -1.13762  -1.13755  -1.13370  -1.13338
 Alpha  occ. eigenvalues --   -1.13261  -1.13215  -1.13161  -1.13117  -1.13056
 Alpha  occ. eigenvalues --   -1.13040  -1.13026  -1.13011  -1.12981  -1.12962
 Alpha  occ. eigenvalues --   -0.18144  -0.13591  -0.11379  -0.10868
 Alpha virt. eigenvalues --   -0.07169  -0.05819  -0.03587  -0.03415  -0.03126
 Alpha virt. eigenvalues --   -0.02553  -0.02263  -0.01419  -0.00548  -0.00249
 Alpha virt. eigenvalues --   -0.00058   0.00057   0.00134   0.00515   0.00659

  Beta  occ. eigenvalues --  -38.45335 -38.45182 -38.44213 -38.43739 -38.43627
  Beta  occ. eigenvalues --  -38.43558 -38.43423  -2.21123  -2.21021  -2.20043
  Beta  occ. eigenvalues --   -2.19604  -2.19380  -2.19367  -2.19278  -1.14801
  Beta  occ. eigenvalues --   -1.14775  -1.14748  -1.14700  -1.14684  -1.14657
  Beta  occ. eigenvalues --   -1.13737  -1.13707  -1.13692  -1.13321  -1.13293
  Beta  occ. eigenvalues --   -1.13216  -1.13117  -1.13068  -1.13041  -1.13024
  Beta  occ. eigenvalues --   -1.13020  -1.12996  -1.12983  -1.12968  -1.12888
  Beta  occ. eigenvalues --   -0.17400  -0.13346  -0.11281
  Beta virt. eigenvalues --   -0.07015  -0.07012  -0.05573  -0.03225  -0.02997
  Beta virt. eigenvalues --   -0.02809  -0.02159  -0.01707  -0.01123  -0.00343
  Beta virt. eigenvalues --   -0.00069  -0.00016   0.00078   0.00275   0.00556

 Mulliken charges and spin densities:
               1          2
     1  Na  -0.251388   0.269296
     2  Na  -0.143515  -0.008088
     3  Na   0.334496   0.296959
     4  Na   0.073727   0.010512
     5  Na   0.004808   0.167519
     6  Na  -0.207787   0.384631
     7  Na   0.189660  -0.120830
 Sum of Mulliken charges =  -0.00000   1.00000

 Dipole moment (field-independent basis, Debye):
    X=             -0.0939    Y=             -0.8160    Z=              0.1147  Tot=              0.8293
 Quadrupole moment (field-independent basis, Debye-Ang):
   XX=            -50.5907   YY=            -68.2388   ZZ=            -74.0352
   XY=             -5.9545   XZ=              1.0701   YZ=              0.3179

 Normal termination of Gaussian 16 at Mon Dec  4 04:02:49 2023.
