 Gaussian 16, Revision B.01,
 Gaussian 16:  ES64L-G16RevB.01 20-Dec-2017

 -------------------------
 #P B3LYP/6-311+g(d) force
 -------------------------

 -----
 DPGEN
 -----
 Symbolic Z-matrix:
 Charge =  0 Multiplicity = 2

                         Standard orientation:
 ---------------------------------------------------------------------
 Center     Atomic      Atomic             Coordinates (Angstroms)
 Number     Number       Type             X           Y           Z
 ---------------------------------------------------------------------
      1         11           0        0.543994   -0.498296    1.439283
      2         11           0        2.973004    1.215449    0.275859
      3         11           0        3.518548   -1.797130   -0.077372
      4         11           0        0.625303   -0.450086   -1.405459
      5         11           0        0.166153    2.498371   -0.206761
      6         11           0       -2.453781   -0.806930   -0.190090
      7         11           0       -5.373221   -0.161378    0.164539
 ---------------------------------------------------------------------

 SCF Done:  E(UB3LYP) =  -1136.10870167     A.U. after   27 cycles

 The electronic state is 2-A.
 Alpha  occ. eigenvalues --  -38.45842 -38.44903 -38.43992 -38.43642 -38.43067
 Alpha  occ. eigenvalues --  -38.42765 -38.42671  -2.21834  -2.20954  -2.19835
 Alpha  occ. eigenvalues --   -2.19660  -2.18955  -2.18671  -2.18592  -1.15635
 Alpha  occ. eigenvalues --   -1.15489  -1.15407  -1.14664  -1.14588  -1.14536
 Alpha  occ. eigenvalues --   -1.13509  -1.13450  -1.13449  -1.13351  -1.13332
 Alpha  occ. eigenvalues --   -1.13274  -1.12627  -1.12611  -1.12581  -1.12369
 Alpha  occ. eigenvalues --   -1.12355  -1.12307  -1.12273  -1.12256  -1.12219
 Alpha  occ. eigenvalues --   -0.19274  -0.14188  -0.11780  -0.11105
 Alpha virt. eigenvalues --   -0.07472  -0.04477  -0.04312  -0.03207  -0.03021
 Alpha virt. eigenvalues --   -0.01831  -0.01740  -0.01370  -0.01277  -0.00851
 Alpha virt. eigenvalues --   -0.00371   0.00200   0.00301   0.00594   0.00831

  Beta  occ. eigenvalues --  -38.45817 -38.44857 -38.43892 -38.43594 -38.43057
  Beta  occ. eigenvalues --  -38.42753 -38.42671  -2.21796  -2.20875  -2.19649
  Beta  occ. eigenvalues --   -2.19572  -2.18938  -2.18662  -2.18593  -1.15599
  Beta  occ. eigenvalues --   -1.15435  -1.15386  -1.14610  -1.14510  -1.14487
  Beta  occ. eigenvalues --   -1.13388  -1.13323  -1.13323  -1.13295  -1.13275
  Beta  occ. eigenvalues --   -1.13206  -1.12612  -1.12595  -1.12566  -1.12363
  Beta  occ. eigenvalues --   -1.12317  -1.12283  -1.12265  -1.12252  -1.12205
  Beta  occ. eigenvalues --   -0.18749  -0.13357  -0.11394
  Beta virt. eigenvalues --   -0.07564  -0.07345  -0.04338  -0.03696  -0.02924
  Beta virt. eigenvalues --   -0.02809  -0.01735  -0.01482  -0.01111  -0.00716
  Beta virt. eigenvalues --   -0.00428  -0.00156   0.00351   0.00392   0.00637

 Mulliken charges and spin densities:
               1          2
     1  Na   0.130724   0.008435
     2  Na   0.254788   0.394129
     3  Na   0.179827   0.027678
     4  Na   0.305275   0.065336
     5  Na  -0.472419  -0.038246
     6  Na  -0.698237   0.266945
     7  Na   0.300043   0.275724
 Sum of Mulliken charges =  -0.00000   1.00000

 Dipole moment (field-independent basis, Debye):
    X=              1.0253    Y=              0.3052    Z=              0.1062  Tot=              1.0750
 Quadrupole moment (field-independent basis, Debye-Ang):
   XX=            -69.3156   YY=            -74.2994   ZZ=            -61.5664
   XY=             -4.0274   XZ=             -1.1017   YZ=             -0.1608

 Normal termination of Gaussian 16 at Fri Dec  8 18:29:06 2023.
