 Gaussian 16, Revision B.01,
 Gaussian 16:  ES64L-G16RevB.01 20-Dec-2017

 -------------------------
 #P B3LYP/6-311+g(d) force
 -------------------------

 -----
 DPGEN
 -----
 Symbolic Z-matrix:
 Charge =  0 Multiplicity = 2

                         Standard orientation:
 ---------------------------------------------------------------------
 Center     Atomic      Atomic             Coordinates (Angstroms)
 Number     Number       Type             X           Y           Z
 ---------------------------------------------------------------------
      1         11           0       -4.148796   -1.264487   -0.436667
      2         11           0        1.368232    1.121862    1.245735
      3         11           0       -0.364965    2.429333   -1.141546
      4         11           0       -0.353447   -1.524415   -1.110799
      5         11           0        3.015351    0.219122   -1.272143
      6         11           0       -2.060185    0.998577    1.606623
      7         11           0        2.543810   -1.979992    1.108797
 ---------------------------------------------------------------------

 SCF Done:  E(UB3LYP) =  -1136.12444473     A.U. after   22 cycles

 The electronic state is 2-A.
 Alpha  occ. eigenvalues --  -38.44778 -38.44396 -38.44239 -38.43975 -38.43788
 Alpha  occ. eigenvalues --  -38.43366 -38.43117  -2.20652  -2.20186  -2.19984
 Alpha  occ. eigenvalues --   -2.19802  -2.19654  -2.19207  -2.19089  -1.14354
 Alpha  occ. eigenvalues --   -1.14302  -1.14265  -1.13887  -1.13868  -1.13779
 Alpha  occ. eigenvalues --   -1.13661  -1.13654  -1.13617  -1.13494  -1.13462
 Alpha  occ. eigenvalues --   -1.13405  -1.13326  -1.13304  -1.13282  -1.12905
 Alpha  occ. eigenvalues --   -1.12870  -1.12840  -1.12778  -1.12757  -1.12680
 Alpha  occ. eigenvalues --   -0.18197  -0.13559  -0.11528  -0.10903
 Alpha virt. eigenvalues --   -0.06696  -0.05115  -0.04872  -0.03146  -0.02790
 Alpha virt. eigenvalues --   -0.02468  -0.02140  -0.01145  -0.00808  -0.00292
 Alpha virt. eigenvalues --    0.00082   0.00189   0.00246   0.00541   0.00732

  Beta  occ. eigenvalues --  -38.44749 -38.44365 -38.44246 -38.43940 -38.43755
  Beta  occ. eigenvalues --  -38.43349 -38.43080  -2.20599  -2.20130  -2.19999
  Beta  occ. eigenvalues --   -2.19739  -2.19595  -2.19178  -2.19026  -1.14319
  Beta  occ. eigenvalues --   -1.14260  -1.14214  -1.13843  -1.13820  -1.13742
  Beta  occ. eigenvalues --   -1.13670  -1.13663  -1.13626  -1.13446  -1.13421
  Beta  occ. eigenvalues --   -1.13359  -1.13278  -1.13265  -1.13236  -1.12885
  Beta  occ. eigenvalues --   -1.12848  -1.12800  -1.12727  -1.12702  -1.12629
  Beta  occ. eigenvalues --   -0.17465  -0.13408  -0.11333
  Beta virt. eigenvalues --   -0.07134  -0.06553  -0.04874  -0.04335  -0.02909
  Beta virt. eigenvalues --   -0.02398  -0.02207  -0.01427  -0.01000  -0.00441
  Beta virt. eigenvalues --   -0.00233   0.00186   0.00226   0.00348   0.00693

 Mulliken charges and spin densities:
               1          2
     1  Na   0.110307  -0.062890
     2  Na   0.031863   0.385769
     3  Na  -0.054717   0.171817
     4  Na  -0.699003   0.240879
     5  Na   0.296995   0.311631
     6  Na  -0.019909  -0.002336
     7  Na   0.334464  -0.044871
 Sum of Mulliken charges =  -0.00000   1.00000

 Dipole moment (field-independent basis, Debye):
    X=              0.2550    Y=              0.0131    Z=             -0.3658  Tot=              0.4461
 Quadrupole moment (field-independent basis, Debye-Ang):
   XX=            -53.7568   YY=            -72.1344   ZZ=            -68.9205
   XY=             -1.8464   XZ=             -1.7312   YZ=             -2.6230

 Normal termination of Gaussian 16 at Tue Dec  5 14:15:25 2023.
