 Gaussian 16, Revision B.01,
 Gaussian 16:  ES64L-G16RevB.01 20-Dec-2017

 -------------------------
 #P B3LYP/6-311+g(d) force
 -------------------------

 -----
 DPGEN
 -----
 Symbolic Z-matrix:
 Charge =  0 Multiplicity = 2

                         Standard orientation:
 ---------------------------------------------------------------------
 Center     Atomic      Atomic             Coordinates (Angstroms)
 Number     Number       Type             X           Y           Z
 ---------------------------------------------------------------------
      1         11           0        1.875728    2.121518   -0.079143
      2         11           0       -3.165245   -0.624804    0.113023
      3         11           0       -0.506323   -2.790449   -0.249093
      4         11           0        0.190891    0.007009   -1.783609
      5         11           0       -1.252831    2.526875   -0.169283
      6         11           0       -0.111372    0.169880    1.924661
      7         11           0        2.969151   -1.410029    0.243443
 ---------------------------------------------------------------------

 SCF Done:  E(UB3LYP) =  -1136.13857746     A.U. after   19 cycles

 The electronic state is 2-A.
 Alpha  occ. eigenvalues --  -38.43890 -38.43858 -38.43520 -38.43510 -38.43476
 Alpha  occ. eigenvalues --  -38.43304 -38.43296  -2.19683  -2.19673  -2.19430
 Alpha  occ. eigenvalues --   -2.19388  -2.19370  -2.19275  -2.19204  -1.13356
 Alpha  occ. eigenvalues --   -1.13345  -1.13338  -1.13331  -1.13330  -1.13326
 Alpha  occ. eigenvalues --   -1.13153  -1.13110  -1.13086  -1.13079  -1.13056
 Alpha  occ. eigenvalues --   -1.13041  -1.13028  -1.13013  -1.12982  -1.12949
 Alpha  occ. eigenvalues --   -1.12908  -1.12886  -1.12859  -1.12840  -1.12817
 Alpha  occ. eigenvalues --   -0.18813  -0.12871  -0.12610  -0.10818
 Alpha virt. eigenvalues --   -0.05529  -0.05078  -0.04763  -0.03112  -0.02995
 Alpha virt. eigenvalues --   -0.02566  -0.01514  -0.01119  -0.00306  -0.00196
 Alpha virt. eigenvalues --   -0.00011   0.00356   0.00828   0.00895   0.00901

  Beta  occ. eigenvalues --  -38.43888 -38.43858 -38.43512 -38.43467 -38.43426
  Beta  occ. eigenvalues --  -38.43288 -38.43226  -2.19681  -2.19674  -2.19377
  Beta  occ. eigenvalues --   -2.19360  -2.19275  -2.19193  -2.19133  -1.13343
  Beta  occ. eigenvalues --   -1.13339  -1.13335  -1.13330  -1.13330  -1.13321
  Beta  occ. eigenvalues --   -1.13124  -1.13072  -1.13042  -1.13019  -1.13016
  Beta  occ. eigenvalues --   -1.12992  -1.12980  -1.12951  -1.12926  -1.12888
  Beta  occ. eigenvalues --   -1.12836  -1.12827  -1.12808  -1.12791  -1.12766
  Beta  occ. eigenvalues --   -0.18059  -0.12619  -0.12376
  Beta virt. eigenvalues --   -0.06898  -0.05489  -0.05078  -0.04720  -0.02310
  Beta virt. eigenvalues --   -0.02231  -0.01516  -0.01426  -0.01046  -0.00342
  Beta virt. eigenvalues --   -0.00260   0.00118   0.00371   0.00879   0.00886

 Mulliken charges and spin densities:
               1          2
     1  Na   0.308362  -0.040670
     2  Na   0.038029  -0.091441
     3  Na   0.057881  -0.112253
     4  Na  -0.182352   0.566077
     5  Na   0.263577  -0.056885
     6  Na  -0.451666   0.819940
     7  Na  -0.033832  -0.084768
 Sum of Mulliken charges =  -0.00000   1.00000

 Dipole moment (field-independent basis, Debye):
    X=             -0.0016    Y=             -0.1383    Z=              0.1148  Tot=              0.1797
 Quadrupole moment (field-independent basis, Debye-Ang):
   XX=            -56.7220   YY=            -62.7267   ZZ=            -73.9876
   XY=             -0.4692   XZ=              0.6990   YZ=             -0.4646

 Normal termination of Gaussian 16 at Thu Dec  7 09:32:43 2023.
