 Gaussian 16, Revision B.01,
 Gaussian 16:  ES64L-G16RevB.01 20-Dec-2017

 -------------------------
 #P B3LYP/6-311+g(d) force
 -------------------------

 -----
 DPGEN
 -----
 Symbolic Z-matrix:
 Charge =  0 Multiplicity = 2

                         Standard orientation:
 ---------------------------------------------------------------------
 Center     Atomic      Atomic             Coordinates (Angstroms)
 Number     Number       Type             X           Y           Z
 ---------------------------------------------------------------------
      1         11           0       -0.409369    2.315244   -0.297332
      2         11           0       -1.148590   -1.126252   -1.239217
      3         11           0       -3.900521   -0.906981    2.109363
      4         11           0       -4.230854    0.472304   -0.882604
      5         11           0        2.883217    2.034466    0.072202
      6         11           0        4.367215   -0.492401    1.120540
      7         11           0        2.438902   -2.296381   -0.882953
 ---------------------------------------------------------------------

 SCF Done:  E(UB3LYP) =  -1136.11098606     A.U. after   24 cycles

 The electronic state is 2-A.
 Alpha  occ. eigenvalues --  -38.45614 -38.45340 -38.44913 -38.43856 -38.43808
 Alpha  occ. eigenvalues --  -38.43636 -38.42630  -2.21409  -2.21130  -2.20728
 Alpha  occ. eigenvalues --   -2.19695  -2.19605  -2.19474  -2.18426  -1.15097
 Alpha  occ. eigenvalues --   -1.15066  -1.15049  -1.14780  -1.14776  -1.14737
 Alpha  occ. eigenvalues --   -1.14412  -1.14371  -1.14338  -1.13416  -1.13353
 Alpha  occ. eigenvalues --   -1.13346  -1.13276  -1.13264  -1.13210  -1.13145
 Alpha  occ. eigenvalues --   -1.13125  -1.13090  -1.12112  -1.12105  -1.12058
 Alpha  occ. eigenvalues --   -0.16602  -0.14584  -0.11595  -0.10951
 Alpha virt. eigenvalues --   -0.07031  -0.05615  -0.04763  -0.03237  -0.02894
 Alpha virt. eigenvalues --   -0.02533  -0.02453  -0.01437  -0.00893  -0.00424
 Alpha virt. eigenvalues --   -0.00246  -0.00170  -0.00029   0.00187   0.00505

  Beta  occ. eigenvalues --  -38.45616 -38.45272 -38.44837 -38.43846 -38.43770
  Beta  occ. eigenvalues --  -38.43613 -38.42643  -2.21416  -2.21004  -2.20590
  Beta  occ. eigenvalues --   -2.19676  -2.19536  -2.19431  -2.18449  -1.15098
  Beta  occ. eigenvalues --   -1.15073  -1.15034  -1.14693  -1.14685  -1.14658
  Beta  occ. eigenvalues --   -1.14321  -1.14277  -1.14221  -1.13389  -1.13338
  Beta  occ. eigenvalues --   -1.13336  -1.13232  -1.13216  -1.13157  -1.13114
  Beta  occ. eigenvalues --   -1.13098  -1.13067  -1.12128  -1.12120  -1.12074
  Beta  occ. eigenvalues --   -0.15967  -0.14182  -0.10965
  Beta virt. eigenvalues --   -0.07805  -0.06573  -0.05192  -0.04476  -0.02902
  Beta virt. eigenvalues --   -0.02784  -0.02187  -0.01944  -0.01047  -0.00678
  Beta virt. eigenvalues --   -0.00382  -0.00173  -0.00017   0.00139   0.00374

 Mulliken charges and spin densities:
               1          2
     1  Na  -0.123250  -0.214669
     2  Na  -1.290030   0.486377
     3  Na   0.212846   0.237884
     4  Na   1.325742   0.363864
     5  Na  -0.120004   0.266672
     6  Na   0.015016  -0.005656
     7  Na  -0.020318  -0.134471
 Sum of Mulliken charges =  -0.00000   1.00000

 Dipole moment (field-independent basis, Debye):
    X=             -2.0583    Y=             -0.3360    Z=              0.4318  Tot=              2.1298
 Quadrupole moment (field-independent basis, Debye-Ang):
   XX=            -58.6756   YY=            -76.0355   ZZ=            -64.2907
   XY=             -1.9199   XZ=              5.3444   YZ=             -1.3323

 Normal termination of Gaussian 16 at Sun Dec  3 18:49:36 2023.
