 Gaussian 16, Revision B.01,
 Gaussian 16:  ES64L-G16RevB.01 20-Dec-2017

 -------------------------
 #P B3LYP/6-311+g(d) force
 -------------------------

 -----
 DPGEN
 -----
 Symbolic Z-matrix:
 Charge =  0 Multiplicity = 2

                         Standard orientation:
 ---------------------------------------------------------------------
 Center     Atomic      Atomic             Coordinates (Angstroms)
 Number     Number       Type             X           Y           Z
 ---------------------------------------------------------------------
      1         11           0       -2.192873    1.948776    0.038215
      2         11           0        3.228041    0.042436    0.490550
      3         11           0        0.138246   -0.485188    2.076634
      4         11           0        1.130820    2.649889   -0.439257
      5         11           0       -3.244397   -1.526468    0.242026
      6         11           0        1.515266   -2.515207   -0.904049
      7         11           0       -0.575103   -0.114237   -1.504118
 ---------------------------------------------------------------------

 SCF Done:  E(UB3LYP) =  -1136.13099090     A.U. after   20 cycles

 The electronic state is 2-A.
 Alpha  occ. eigenvalues --  -38.44457 -38.44308 -38.44206 -38.43828 -38.43582
 Alpha  occ. eigenvalues --  -38.43218 -38.42902  -2.20239  -2.20140  -2.20044
 Alpha  occ. eigenvalues --   -2.19703  -2.19427  -2.19208  -2.18746  -1.13912
 Alpha  occ. eigenvalues --   -1.13895  -1.13883  -1.13816  -1.13797  -1.13789
 Alpha  occ. eigenvalues --   -1.13715  -1.13681  -1.13652  -1.13451  -1.13367
 Alpha  occ. eigenvalues --   -1.13301  -1.13131  -1.13064  -1.13054  -1.12884
 Alpha  occ. eigenvalues --   -1.12852  -1.12817  -1.12427  -1.12404  -1.12388
 Alpha  occ. eigenvalues --   -0.18336  -0.13381  -0.11956  -0.10848
 Alpha virt. eigenvalues --   -0.06202  -0.05298  -0.04361  -0.03404  -0.02732
 Alpha virt. eigenvalues --   -0.02540  -0.01942  -0.01152  -0.00579  -0.00118
 Alpha virt. eigenvalues --   -0.00034   0.00316   0.00611   0.00755   0.00801

  Beta  occ. eigenvalues --  -38.44457 -38.44300 -38.44123 -38.43824 -38.43549
  Beta  occ. eigenvalues --  -38.43159 -38.42898  -2.20240  -2.20128  -2.19892
  Beta  occ. eigenvalues --   -2.19699  -2.19368  -2.19103  -2.18743  -1.13902
  Beta  occ. eigenvalues --   -1.13897  -1.13881  -1.13793  -1.13789  -1.13776
  Beta  occ. eigenvalues --   -1.13613  -1.13577  -1.13540  -1.13440  -1.13354
  Beta  occ. eigenvalues --   -1.13296  -1.13079  -1.13025  -1.13009  -1.12811
  Beta  occ. eigenvalues --   -1.12772  -1.12743  -1.12421  -1.12400  -1.12376
  Beta  occ. eigenvalues --   -0.17650  -0.13186  -0.11686
  Beta virt. eigenvalues --   -0.07001  -0.06045  -0.05273  -0.04178  -0.02779
  Beta virt. eigenvalues --   -0.02115  -0.01801  -0.01531  -0.01081  -0.00535
  Beta virt. eigenvalues --   -0.00105   0.00096   0.00347   0.00760   0.00788

 Mulliken charges and spin densities:
               1          2
     1  Na   0.262370   0.115123
     2  Na   0.263426   0.159756
     3  Na  -0.382098   0.554894
     4  Na  -0.219265   0.000582
     5  Na  -0.008869   0.027758
     6  Na  -0.093573   0.049015
     7  Na   0.178010   0.092873
 Sum of Mulliken charges =  -0.00000   1.00000

 Dipole moment (field-independent basis, Debye):
    X=             -0.3220    Y=             -0.3079    Z=              0.4070  Tot=              0.6034
 Quadrupole moment (field-independent basis, Debye-Ang):
   XX=            -52.9414   YY=            -66.8393   ZZ=            -73.7790
   XY=              1.0893   XZ=             -0.9647   YZ=              0.8432

 Normal termination of Gaussian 16 at Fri Dec  8 00:46:36 2023.
