 Gaussian 16, Revision B.01,
 Gaussian 16:  ES64L-G16RevB.01 20-Dec-2017

 -------------------------
 #P B3LYP/6-311+g(d) force
 -------------------------

 -----
 DPGEN
 -----
 Symbolic Z-matrix:
 Charge =  0 Multiplicity = 2

                         Standard orientation:
 ---------------------------------------------------------------------
 Center     Atomic      Atomic             Coordinates (Angstroms)
 Number     Number       Type             X           Y           Z
 ---------------------------------------------------------------------
      1         11           0        0.745621   -2.642829   -0.781229
      2         11           0        2.720634    2.148586   -0.403764
      3         11           0       -3.533029    1.375586   -0.272124
      4         11           0       -0.444786   -0.838358    1.456138
      5         11           0        3.559277   -1.616156    0.190548
      6         11           0       -2.955732   -2.272960   -0.234516
      7         11           0       -0.091985    3.846131    0.044947
 ---------------------------------------------------------------------

 SCF Done:  E(UB3LYP) =  -1136.11487656     A.U. after   22 cycles

 The electronic state is 2-A.
 Alpha  occ. eigenvalues --  -38.45873 -38.44610 -38.44464 -38.44346 -38.43875
 Alpha  occ. eigenvalues --  -38.43342 -38.43263  -2.21695  -2.20422  -2.20343
 Alpha  occ. eigenvalues --   -2.20123  -2.19645  -2.19143  -2.19106  -1.15408
 Alpha  occ. eigenvalues --   -1.15340  -1.15309  -1.14109  -1.14077  -1.14058
 Alpha  occ. eigenvalues --   -1.14046  -1.14012  -1.13964  -1.13804  -1.13787
 Alpha  occ. eigenvalues --   -1.13753  -1.13321  -1.13301  -1.13286  -1.12799
 Alpha  occ. eigenvalues --   -1.12774  -1.12771  -1.12763  -1.12749  -1.12730
 Alpha  occ. eigenvalues --   -0.16934  -0.13535  -0.13062  -0.09726
 Alpha virt. eigenvalues --   -0.06661  -0.06307  -0.04597  -0.02971  -0.02805
 Alpha virt. eigenvalues --   -0.02352  -0.02270  -0.01825  -0.01365  -0.00844
 Alpha virt. eigenvalues --    0.00125   0.00158   0.00300   0.00456   0.00629

  Beta  occ. eigenvalues --  -38.45865 -38.44602 -38.44454 -38.44326 -38.43865
  Beta  occ. eigenvalues --  -38.43245 -38.43212  -2.21682  -2.20412  -2.20330
  Beta  occ. eigenvalues --   -2.20089  -2.19631  -2.19009  -2.18962  -1.15398
  Beta  occ. eigenvalues --   -1.15329  -1.15303  -1.14107  -1.14076  -1.14045
  Beta  occ. eigenvalues --   -1.14012  -1.14008  -1.13911  -1.13784  -1.13766
  Beta  occ. eigenvalues --   -1.13710  -1.13314  -1.13294  -1.13254  -1.12707
  Beta  occ. eigenvalues --   -1.12683  -1.12675  -1.12666  -1.12651  -1.12644
  Beta  occ. eigenvalues --   -0.16593  -0.12903  -0.12383
  Beta virt. eigenvalues --   -0.06614  -0.06403  -0.06274  -0.04380  -0.02710
  Beta virt. eigenvalues --   -0.02346  -0.02053  -0.01796  -0.01559  -0.01275
  Beta virt. eigenvalues --   -0.00740   0.00275   0.00411   0.00488   0.00630

 Mulliken charges and spin densities:
               1          2
     1  Na  -0.063564   0.118320
     2  Na  -0.136048   0.057122
     3  Na  -0.200661   0.555421
     4  Na  -0.182676  -0.198777
     5  Na   0.218808   0.309619
     6  Na   0.305780   0.115350
     7  Na   0.058361   0.042946
 Sum of Mulliken charges =  -0.00000   1.00000

 Dipole moment (field-independent basis, Debye):
    X=             -0.0042    Y=             -1.4752    Z=              0.1391  Tot=              1.4817
 Quadrupole moment (field-independent basis, Debye-Ang):
   XX=            -71.2901   YY=            -68.0615   ZZ=            -66.7039
   XY=              6.0647   XZ=              0.7428   YZ=              2.7571

 Normal termination of Gaussian 16 at Sun Dec  3 13:15:50 2023.
