 Gaussian 16, Revision B.01,
 Gaussian 16:  ES64L-G16RevB.01 20-Dec-2017

 -------------------------
 #P B3LYP/6-311+g(d) force
 -------------------------

 -----
 DPGEN
 -----
 Symbolic Z-matrix:
 Charge =  0 Multiplicity = 2

                         Standard orientation:
 ---------------------------------------------------------------------
 Center     Atomic      Atomic             Coordinates (Angstroms)
 Number     Number       Type             X           Y           Z
 ---------------------------------------------------------------------
      1         11           0        3.075130   -2.657844   -0.794515
      2         11           0        0.310202   -0.464011    0.083983
      3         11           0       -2.977701   -1.328151   -1.083396
      4         11           0       -2.123786    2.182591   -0.854570
      5         11           0       -2.404684   -1.599586    1.857818
      6         11           0        0.841919    3.089211    0.307297
      7         11           0        3.278920    0.777789    0.483384
 ---------------------------------------------------------------------

 SCF Done:  E(UB3LYP) =  -1136.12373484     A.U. after   20 cycles

 The electronic state is 2-A.
 Alpha  occ. eigenvalues --  -38.44825 -38.44347 -38.44092 -38.43778 -38.43728
 Alpha  occ. eigenvalues --  -38.43458 -38.43084  -2.20681  -2.20189  -2.19966
 Alpha  occ. eigenvalues --   -2.19687  -2.19522  -2.19297  -2.18934  -1.14390
 Alpha  occ. eigenvalues --   -1.14344  -1.14316  -1.13892  -1.13864  -1.13799
 Alpha  occ. eigenvalues --   -1.13620  -1.13595  -1.13586  -1.13419  -1.13345
 Alpha  occ. eigenvalues --   -1.13309  -1.13178  -1.13177  -1.13130  -1.12963
 Alpha  occ. eigenvalues --   -1.12955  -1.12928  -1.12602  -1.12596  -1.12580
 Alpha  occ. eigenvalues --   -0.17485  -0.14173  -0.12346  -0.10160
 Alpha virt. eigenvalues --   -0.06380  -0.05723  -0.04711  -0.03229  -0.02824
 Alpha virt. eigenvalues --   -0.02191  -0.01830  -0.01389  -0.00922  -0.00530
 Alpha virt. eigenvalues --   -0.00317   0.00186   0.00430   0.00587   0.00641

  Beta  occ. eigenvalues --  -38.44822 -38.44333 -38.44027 -38.43776 -38.43675
  Beta  occ. eigenvalues --  -38.43415 -38.43078  -2.20680  -2.20169  -2.19843
  Beta  occ. eigenvalues --   -2.19685  -2.19422  -2.19217  -2.18925  -1.14376
  Beta  occ. eigenvalues --   -1.14349  -1.14291  -1.13880  -1.13854  -1.13758
  Beta  occ. eigenvalues --   -1.13535  -1.13519  -1.13501  -1.13390  -1.13344
  Beta  occ. eigenvalues --   -1.13317  -1.13109  -1.13109  -1.13069  -1.12909
  Beta  occ. eigenvalues --   -1.12901  -1.12875  -1.12599  -1.12592  -1.12556
  Beta  occ. eigenvalues --   -0.17082  -0.13683  -0.11966
  Beta virt. eigenvalues --   -0.06897  -0.06009  -0.05289  -0.04507  -0.02915
  Beta virt. eigenvalues --   -0.02439  -0.02090  -0.01330  -0.01203  -0.00760
  Beta virt. eigenvalues --   -0.00304  -0.00015   0.00310   0.00573   0.00690

 Mulliken charges and spin densities:
               1          2
     1  Na   0.257634   0.242967
     2  Na  -2.878116   0.222844
     3  Na   1.297988  -0.008967
     4  Na   0.066467   0.271013
     5  Na   0.773153   0.179023
     6  Na   0.573293  -0.031252
     7  Na  -0.090418   0.124372
 Sum of Mulliken charges =  -0.00000   1.00000

 Dipole moment (field-independent basis, Debye):
    X=             -0.3420    Y=             -0.3461    Z=              0.0791  Tot=              0.4929
 Quadrupole moment (field-independent basis, Debye-Ang):
   XX=            -58.0857   YY=            -67.6445   ZZ=            -70.0487
   XY=              3.7752   XZ=              2.1583   YZ=              3.9929

 Normal termination of Gaussian 16 at Tue Dec  5 17:14:42 2023.
