 Gaussian 16, Revision B.01,
 Gaussian 16:  ES64L-G16RevB.01 20-Dec-2017

 -------------------------
 #P B3LYP/6-311+g(d) force
 -------------------------

 -----
 DPGEN
 -----
 Symbolic Z-matrix:
 Charge =  0 Multiplicity = 2

                         Standard orientation:
 ---------------------------------------------------------------------
 Center     Atomic      Atomic             Coordinates (Angstroms)
 Number     Number       Type             X           Y           Z
 ---------------------------------------------------------------------
      1         11           0        3.221646    1.654586   -0.575715
      2         11           0       -3.053616    1.916234    0.907554
      3         11           0        4.035541   -0.927807    0.874111
      4         11           0        1.608777   -2.618407   -0.693078
      5         11           0       -4.194340   -0.872148   -0.856444
      6         11           0       -1.871698   -2.166421    0.689665
      7         11           0        0.253690    3.013963   -0.346093
 ---------------------------------------------------------------------

 SCF Done:  E(UB3LYP) =  -1136.11012881     A.U. after   25 cycles

 The electronic state is 2-A.
 Alpha  occ. eigenvalues --  -38.45618 -38.44806 -38.44327 -38.44247 -38.44163
 Alpha  occ. eigenvalues --  -38.43868 -38.43174  -2.21383  -2.20615  -2.20174
 Alpha  occ. eigenvalues --   -2.20087  -2.20017  -2.19662  -2.18964  -1.15075
 Alpha  occ. eigenvalues --   -1.15044  -1.14999  -1.14330  -1.14278  -1.14240
 Alpha  occ. eigenvalues --   -1.13927  -1.13824  -1.13812  -1.13749  -1.13743
 Alpha  occ. eigenvalues --   -1.13685  -1.13680  -1.13651  -1.13632  -1.13335
 Alpha  occ. eigenvalues --   -1.13320  -1.13287  -1.12633  -1.12632  -1.12604
 Alpha  occ. eigenvalues --   -0.16221  -0.14582  -0.12541  -0.10223
 Alpha virt. eigenvalues --   -0.07306  -0.05455  -0.04147  -0.03523  -0.03065
 Alpha virt. eigenvalues --   -0.02658  -0.02217  -0.01587  -0.00662  -0.00571
 Alpha virt. eigenvalues --   -0.00510  -0.00060   0.00131   0.00457   0.00531

  Beta  occ. eigenvalues --  -38.45591 -38.44778 -38.44299 -38.44234 -38.44110
  Beta  occ. eigenvalues --  -38.43832 -38.43162  -2.21337  -2.20569  -2.20126
  Beta  occ. eigenvalues --   -2.20066  -2.19919  -2.19597  -2.18940  -1.15046
  Beta  occ. eigenvalues --   -1.15017  -1.14936  -1.14297  -1.14251  -1.14173
  Beta  occ. eigenvalues --   -1.13884  -1.13797  -1.13775  -1.13738  -1.13725
  Beta  occ. eigenvalues --   -1.13657  -1.13612  -1.13583  -1.13566  -1.13295
  Beta  occ. eigenvalues --   -1.13276  -1.13227  -1.12619  -1.12617  -1.12585
  Beta  occ. eigenvalues --   -0.15710  -0.14099  -0.11979
  Beta virt. eigenvalues --   -0.07434  -0.06820  -0.05047  -0.03884  -0.03348
  Beta virt. eigenvalues --   -0.02543  -0.02283  -0.01877  -0.01476  -0.00577
  Beta virt. eigenvalues --   -0.00395  -0.00204   0.00064   0.00332   0.00488

 Mulliken charges and spin densities:
               1          2
     1  Na  -0.010741   0.183238
     2  Na   0.117866   0.085921
     3  Na   0.303988   0.142846
     4  Na  -0.211714   0.108126
     5  Na   0.459279   0.337440
     6  Na  -0.411679   0.121312
     7  Na  -0.247000   0.021118
 Sum of Mulliken charges =  -0.00000   1.00000

 Dipole moment (field-independent basis, Debye):
    X=             -0.8695    Y=             -0.2923    Z=              0.3141  Tot=              0.9696
 Quadrupole moment (field-independent basis, Debye-Ang):
   XX=            -62.1416   YY=            -73.4040   ZZ=            -65.4179
   XY=             -3.8481   XZ=              0.0439   YZ=              0.2750

 Normal termination of Gaussian 16 at Sun Dec  3 23:32:54 2023.
