 Gaussian 16, Revision B.01,
 Gaussian 16:  ES64L-G16RevB.01 20-Dec-2017

 -------------------------
 #P B3LYP/6-311+g(d) force
 -------------------------

 -----
 DPGEN
 -----
 Symbolic Z-matrix:
 Charge =  0 Multiplicity = 2

                         Standard orientation:
 ---------------------------------------------------------------------
 Center     Atomic      Atomic             Coordinates (Angstroms)
 Number     Number       Type             X           Y           Z
 ---------------------------------------------------------------------
      1         11           0       -2.293016   -1.144125    0.295108
      2         11           0       -5.812225   -1.155447   -0.257616
      3         11           0       -3.937817    1.635248    0.224480
      4         11           0       -0.856533    1.677912   -0.315597
      5         11           0        1.147109   -0.977467   -0.169411
      6         11           0        4.430127    0.026610    0.569041
      7         11           0        7.322355   -0.062732   -0.346006
 ---------------------------------------------------------------------

 SCF Done:  E(UB3LYP) =  -1136.11822989     A.U. after   20 cycles

 The electronic state is 2-A.
 Alpha  occ. eigenvalues --  -38.44663 -38.44188 -38.44149 -38.44125 -38.44119
 Alpha  occ. eigenvalues --  -38.43688 -38.43625  -2.20567  -2.20074  -2.20043
 Alpha  occ. eigenvalues --   -2.19986  -2.19934  -2.19510  -2.19480  -1.14302
 Alpha  occ. eigenvalues --   -1.14262  -1.14150  -1.13835  -1.13730  -1.13705
 Alpha  occ. eigenvalues --   -1.13701  -1.13681  -1.13680  -1.13632  -1.13631
 Alpha  occ. eigenvalues --   -1.13631  -1.13590  -1.13587  -1.13541  -1.13182
 Alpha  occ. eigenvalues --   -1.13169  -1.13161  -1.13141  -1.13128  -1.13097
 Alpha  occ. eigenvalues --   -0.17527  -0.14173  -0.12314  -0.11224
 Alpha virt. eigenvalues --   -0.06871  -0.05073  -0.04291  -0.03745  -0.02940
 Alpha virt. eigenvalues --   -0.02669  -0.02191  -0.01436  -0.01292  -0.00600
 Alpha virt. eigenvalues --   -0.00441   0.00020   0.00108   0.00469   0.00590

  Beta  occ. eigenvalues --  -38.44641 -38.44175 -38.44092 -38.44082 -38.44073
  Beta  occ. eigenvalues --  -38.43690 -38.43596  -2.20528  -2.19976  -2.19961
  Beta  occ. eigenvalues --   -2.19953  -2.19864  -2.19515  -2.19424  -1.14252
  Beta  occ. eigenvalues --   -1.14239  -1.14121  -1.13749  -1.13669  -1.13665
  Beta  occ. eigenvalues --   -1.13648  -1.13642  -1.13615  -1.13614  -1.13607
  Beta  occ. eigenvalues --   -1.13548  -1.13542  -1.13523  -1.13480  -1.13178
  Beta  occ. eigenvalues --   -1.13174  -1.13153  -1.13102  -1.13095  -1.13067
  Beta  occ. eigenvalues --   -0.16813  -0.13945  -0.12018
  Beta virt. eigenvalues --   -0.07525  -0.06469  -0.04811  -0.03939  -0.03536
  Beta virt. eigenvalues --   -0.02635  -0.02218  -0.01855  -0.01337  -0.01124
  Beta virt. eigenvalues --   -0.00227  -0.00045   0.00125   0.00262   0.00534

 Mulliken charges and spin densities:
               1          2
     1  Na  -0.907507   0.333775
     2  Na   1.014577   0.049519
     3  Na   0.324824   0.057380
     4  Na  -0.223670   0.337881
     5  Na  -0.551603   0.216017
     6  Na  -0.147225  -0.023655
     7  Na   0.490604   0.029083
 Sum of Mulliken charges =  -0.00000   1.00000

 Dipole moment (field-independent basis, Debye):
    X=             -1.1087    Y=              0.1116    Z=             -0.3201  Tot=              1.1593
 Quadrupole moment (field-independent basis, Debye-Ang):
   XX=            -53.9358   YY=            -69.2597   ZZ=            -71.6827
   XY=              0.7944   XZ=             -2.2447   YZ=              0.2233

 Normal termination of Gaussian 16 at Tue Nov 28 22:18:36 2023.
