 Gaussian 16, Revision B.01,
 Gaussian 16:  ES64L-G16RevB.01 20-Dec-2017

 -------------------------
 #P B3LYP/6-311+g(d) force
 -------------------------

 -----
 DPGEN
 -----
 Symbolic Z-matrix:
 Charge =  0 Multiplicity = 2

                         Standard orientation:
 ---------------------------------------------------------------------
 Center     Atomic      Atomic             Coordinates (Angstroms)
 Number     Number       Type             X           Y           Z
 ---------------------------------------------------------------------
      1         11           0        3.808949    1.075363    0.081204
      2         11           0        2.990068   -1.305892    2.139602
      3         11           0        1.555227   -0.641799   -1.727681
      4         11           0       -3.097866    2.473191    0.488936
      5         11           0       -0.032060    2.476207   -0.848878
      6         11           0       -1.444171   -2.938422   -1.299640
      7         11           0       -3.780148   -1.138649    1.166457
 ---------------------------------------------------------------------

 SCF Done:  E(UB3LYP) =  -1136.11040633     A.U. after   23 cycles

 The electronic state is 2-A.
 Alpha  occ. eigenvalues --  -38.45566 -38.45222 -38.44772 -38.44681 -38.43665
 Alpha  occ. eigenvalues --  -38.43615 -38.43534  -2.21365  -2.21041  -2.20508
 Alpha  occ. eigenvalues --   -2.20506  -2.19442  -2.19402  -2.19284  -1.15017
 Alpha  occ. eigenvalues --   -1.15005  -1.14985  -1.14722  -1.14696  -1.14676
 Alpha  occ. eigenvalues --   -1.14191  -1.14185  -1.14162  -1.14158  -1.14133
 Alpha  occ. eigenvalues --   -1.14125  -1.13128  -1.13118  -1.13091  -1.13084
 Alpha  occ. eigenvalues --   -1.13077  -1.13000  -1.12960  -1.12949  -1.12915
 Alpha  occ. eigenvalues --   -0.16618  -0.13692  -0.11556  -0.11479
 Alpha virt. eigenvalues --   -0.06901  -0.05606  -0.04923  -0.03519  -0.03040
 Alpha virt. eigenvalues --   -0.02584  -0.01921  -0.01444  -0.00897  -0.00814
 Alpha virt. eigenvalues --   -0.00421  -0.00187  -0.00042   0.00274   0.00468

  Beta  occ. eigenvalues --  -38.45481 -38.45216 -38.44755 -38.44619 -38.43662
  Beta  occ. eigenvalues --  -38.43607 -38.43515  -2.21208  -2.21034  -2.20476
  Beta  occ. eigenvalues --   -2.20397  -2.19436  -2.19388  -2.19250  -1.14909
  Beta  occ. eigenvalues --   -1.14898  -1.14880  -1.14719  -1.14695  -1.14632
  Beta  occ. eigenvalues --   -1.14171  -1.14142  -1.14111  -1.14110  -1.14079
  Beta  occ. eigenvalues --   -1.14034  -1.13130  -1.13114  -1.13077  -1.13074
  Beta  occ. eigenvalues --   -1.13069  -1.12990  -1.12938  -1.12923  -1.12887
  Beta  occ. eigenvalues --   -0.15868  -0.13251  -0.11427
  Beta virt. eigenvalues --   -0.07995  -0.06503  -0.05264  -0.04521  -0.03062
  Beta virt. eigenvalues --   -0.02785  -0.02172  -0.01859  -0.01130  -0.00729
  Beta virt. eigenvalues --   -0.00574  -0.00268  -0.00070   0.00193   0.00382

 Mulliken charges and spin densities:
               1          2
     1  Na   0.802718   0.182988
     2  Na  -0.219319   0.350443
     3  Na  -0.162202   0.291856
     4  Na   0.420921   0.183301
     5  Na  -0.478811  -0.103726
     6  Na  -0.129692   0.022435
     7  Na  -0.233616   0.072702
 Sum of Mulliken charges =  -0.00000   1.00000

 Dipole moment (field-independent basis, Debye):
    X=              1.7694    Y=             -0.0261    Z=              0.9703  Tot=              2.0182
 Quadrupole moment (field-independent basis, Debye-Ang):
   XX=            -59.1414   YY=            -72.6350   ZZ=            -67.5279
   XY=              2.5955   XZ=             -3.6812   YZ=             -2.3850

 Normal termination of Gaussian 16 at Sun Dec  3 14:23:38 2023.
