 Gaussian 16, Revision B.01,
 Gaussian 16:  ES64L-G16RevB.01 20-Dec-2017

 -------------------------
 #P B3LYP/6-311+g(d) force
 -------------------------

 -----
 DPGEN
 -----
 Symbolic Z-matrix:
 Charge =  0 Multiplicity = 2

                         Standard orientation:
 ---------------------------------------------------------------------
 Center     Atomic      Atomic             Coordinates (Angstroms)
 Number     Number       Type             X           Y           Z
 ---------------------------------------------------------------------
      1         11           0        0.292328    0.279837   -1.858317
      2         11           0       -0.183524   -0.142209    1.866920
      3         11           0        1.363168    2.642823    0.268752
      4         11           0       -2.167128    2.076071   -0.171641
      5         11           0       -2.769515   -1.532655   -0.009221
      6         11           0        2.870108   -0.650334    0.078827
      7         11           0        0.594563   -2.673533   -0.175321
 ---------------------------------------------------------------------

 SCF Done:  E(UB3LYP) =  -1136.14004523     A.U. after   19 cycles

 The electronic state is 2-A.
 Alpha  occ. eigenvalues --  -38.43805 -38.43701 -38.43561 -38.43524 -38.43355
 Alpha  occ. eigenvalues --  -38.43353 -38.43275  -2.19635  -2.19517  -2.19462
 Alpha  occ. eigenvalues --   -2.19375  -2.19304  -2.19292  -2.19194  -1.13319
 Alpha  occ. eigenvalues --   -1.13307  -1.13266  -1.13199  -1.13193  -1.13179
 Alpha  occ. eigenvalues --   -1.13159  -1.13126  -1.13113  -1.13061  -1.13047
 Alpha  occ. eigenvalues --   -1.13003  -1.12987  -1.12964  -1.12930  -1.12927
 Alpha  occ. eigenvalues --   -1.12920  -1.12905  -1.12845  -1.12840  -1.12807
 Alpha  occ. eigenvalues --   -0.18894  -0.12930  -0.12657  -0.10842
 Alpha virt. eigenvalues --   -0.05388  -0.05141  -0.04760  -0.03169  -0.03037
 Alpha virt. eigenvalues --   -0.02554  -0.01305  -0.01168  -0.00302  -0.00174
 Alpha virt. eigenvalues --   -0.00011   0.00377   0.00843   0.00899   0.00931

  Beta  occ. eigenvalues --  -38.43800 -38.43700 -38.43554 -38.43517 -38.43276
  Beta  occ. eigenvalues --  -38.43273 -38.43267  -2.19629  -2.19519  -2.19455
  Beta  occ. eigenvalues --   -2.19365  -2.19182  -2.19159  -2.19145  -1.13310
  Beta  occ. eigenvalues --   -1.13286  -1.13267  -1.13195  -1.13185  -1.13173
  Beta  occ. eigenvalues --   -1.13161  -1.13118  -1.13078  -1.13049  -1.13016
  Beta  occ. eigenvalues --   -1.12998  -1.12912  -1.12872  -1.12853  -1.12835
  Beta  occ. eigenvalues --   -1.12818  -1.12811  -1.12801  -1.12794  -1.12778
  Beta  occ. eigenvalues --   -0.18137  -0.12680  -0.12426
  Beta virt. eigenvalues --   -0.06915  -0.05399  -0.05089  -0.04728  -0.02346
  Beta virt. eigenvalues --   -0.02263  -0.01511  -0.01221  -0.01096  -0.00354
  Beta virt. eigenvalues --   -0.00229   0.00122   0.00392   0.00867   0.00911

 Mulliken charges and spin densities:
               1          2
     1  Na  -0.323128   0.657947
     2  Na  -0.372777   0.715882
     3  Na   0.144515  -0.078781
     4  Na   0.040642  -0.124166
     5  Na   0.034761  -0.108207
     6  Na   0.289123  -0.019339
     7  Na   0.186865  -0.043336
 Sum of Mulliken charges =  -0.00000   1.00000

 Dipole moment (field-independent basis, Debye):
    X=             -0.1786    Y=              0.2139    Z=              0.0105  Tot=              0.2789
 Quadrupole moment (field-independent basis, Debye-Ang):
   XX=            -58.4822   YY=            -61.7111   ZZ=            -73.6290
   XY=              0.3775   XZ=              1.1396   YZ=              0.9253

 Normal termination of Gaussian 16 at Thu Dec  7 16:56:31 2023.
