 Gaussian 16, Revision B.01,
 Gaussian 16:  ES64L-G16RevB.01 20-Dec-2017

 -------------------------
 #P B3LYP/6-311+g(d) force
 -------------------------

 -----
 DPGEN
 -----
 Symbolic Z-matrix:
 Charge =  0 Multiplicity = 2

                         Standard orientation:
 ---------------------------------------------------------------------
 Center     Atomic      Atomic             Coordinates (Angstroms)
 Number     Number       Type             X           Y           Z
 ---------------------------------------------------------------------
      1         11           0       -0.797292   -0.414871    1.977190
      2         11           0        3.252812    1.321793   -0.901921
      3         11           0       -0.063729   -0.832400   -1.672689
      4         11           0        0.085350    2.654783    0.899057
      5         11           0       -2.657471    1.496690   -0.650181
      6         11           0       -3.430471   -2.034673   -0.190375
      7         11           0        3.610800   -2.191322    0.538920
 ---------------------------------------------------------------------

 SCF Done:  E(UB3LYP) =  -1136.11561989     A.U. after   24 cycles

 The electronic state is 2-A.
 Alpha  occ. eigenvalues --  -38.45068 -38.45026 -38.44930 -38.44608 -38.44196
 Alpha  occ. eigenvalues --  -38.43952 -38.42502  -2.20847  -2.20769  -2.20651
 Alpha  occ. eigenvalues --   -2.20442  -2.19969  -2.19805  -2.18342  -1.14549
 Alpha  occ. eigenvalues --   -1.14516  -1.14454  -1.14442  -1.14423  -1.14395
 Alpha  occ. eigenvalues --   -1.14326  -1.14315  -1.14278  -1.14128  -1.14104
 Alpha  occ. eigenvalues --   -1.14061  -1.13647  -1.13639  -1.13603  -1.13478
 Alpha  occ. eigenvalues --   -1.13429  -1.13421  -1.12023  -1.12006  -1.11984
 Alpha  occ. eigenvalues --   -0.17427  -0.13236  -0.11428  -0.10515
 Alpha virt. eigenvalues --   -0.06731  -0.06559  -0.04256  -0.03242  -0.02718
 Alpha virt. eigenvalues --   -0.02621  -0.02355  -0.01726  -0.00989  -0.00556
 Alpha virt. eigenvalues --   -0.00047   0.00130   0.00167   0.00433   0.00517

  Beta  occ. eigenvalues --  -38.45028 -38.45013 -38.44921 -38.44592 -38.44202
  Beta  occ. eigenvalues --  -38.43859 -38.42494  -2.20774  -2.20744  -2.20633
  Beta  occ. eigenvalues --   -2.20414  -2.19983  -2.19634  -2.18332  -1.14497
  Beta  occ. eigenvalues --   -1.14454  -1.14430  -1.14410  -1.14389  -1.14378
  Beta  occ. eigenvalues --   -1.14313  -1.14301  -1.14267  -1.14103  -1.14077
  Beta  occ. eigenvalues --   -1.14042  -1.13659  -1.13633  -1.13611  -1.13363
  Beta  occ. eigenvalues --   -1.13310  -1.13297  -1.12011  -1.12000  -1.11962
  Beta  occ. eigenvalues --   -0.16741  -0.13080  -0.11268
  Beta virt. eigenvalues --   -0.06960  -0.06365  -0.06315  -0.04100  -0.02913
  Beta virt. eigenvalues --   -0.02262  -0.02097  -0.01863  -0.01356  -0.00981
  Beta virt. eigenvalues --   -0.00348   0.00023   0.00204   0.00278   0.00579

 Mulliken charges and spin densities:
               1          2
     1  Na  -0.312287   0.690575
     2  Na   0.154090   0.049777
     3  Na  -0.333112   0.302532
     4  Na  -0.019050   0.007687
     5  Na   0.253210   0.067564
     6  Na   0.235545  -0.082384
     7  Na   0.021604  -0.035751
 Sum of Mulliken charges =  -0.00000   1.00000

 Dipole moment (field-independent basis, Debye):
    X=             -0.0261    Y=             -0.3055    Z=             -0.4038  Tot=              0.5071
 Quadrupole moment (field-independent basis, Debye-Ang):
   XX=            -53.2491   YY=            -67.5479   ZZ=            -74.3344
   XY=              1.1416   XZ=              1.1595   YZ=             -2.9454

 Normal termination of Gaussian 16 at Thu Dec  7 23:44:50 2023.
