 Gaussian 16, Revision B.01,
 Gaussian 16:  ES64L-G16RevB.01 20-Dec-2017

 -------------------------
 #P B3LYP/6-311+g(d) force
 -------------------------

 -----
 DPGEN
 -----
 Symbolic Z-matrix:
 Charge =  0 Multiplicity = 2

                         Standard orientation:
 ---------------------------------------------------------------------
 Center     Atomic      Atomic             Coordinates (Angstroms)
 Number     Number       Type             X           Y           Z
 ---------------------------------------------------------------------
      1         11           0        0.609534    2.644783   -0.513722
      2         11           0       -2.159050   -2.049111    0.250186
      3         11           0       -3.069461    1.315287   -0.296733
      4         11           0        1.769582   -2.168661    0.071201
      5         11           0        0.210108   -0.786344   -1.851759
      6         11           0        3.175630    0.690688    0.393604
      7         11           0       -0.536344    0.353358    1.947223
 ---------------------------------------------------------------------

 SCF Done:  E(UB3LYP) =  -1136.13103288     A.U. after   19 cycles

 The electronic state is 2-A.
 Alpha  occ. eigenvalues --  -38.44512 -38.44202 -38.43785 -38.43765 -38.43589
 Alpha  occ. eigenvalues --  -38.43522 -38.43214  -2.20304  -2.20041  -2.19649
 Alpha  occ. eigenvalues --   -2.19634  -2.19537  -2.19431  -2.19047  -1.13977
 Alpha  occ. eigenvalues --   -1.13959  -1.13950  -1.13724  -1.13696  -1.13688
 Alpha  occ. eigenvalues --   -1.13431  -1.13359  -1.13318  -1.13306  -1.13277
 Alpha  occ. eigenvalues --   -1.13263  -1.13245  -1.13169  -1.13131  -1.13063
 Alpha  occ. eigenvalues --   -1.13035  -1.12999  -1.12726  -1.12714  -1.12678
 Alpha  occ. eigenvalues --   -0.18511  -0.13385  -0.12122  -0.10789
 Alpha virt. eigenvalues --   -0.06062  -0.05425  -0.04116  -0.03544  -0.03012
 Alpha virt. eigenvalues --   -0.02488  -0.01767  -0.01128  -0.00356  -0.00149
 Alpha virt. eigenvalues --   -0.00050   0.00351   0.00727   0.00815   0.00853

  Beta  occ. eigenvalues --  -38.44510 -38.44196 -38.43776 -38.43692 -38.43518
  Beta  occ. eigenvalues --  -38.43515 -38.43202  -2.20303  -2.20032  -2.19622
  Beta  occ. eigenvalues --   -2.19516  -2.19436  -2.19392  -2.19026  -1.13965
  Beta  occ. eigenvalues --   -1.13961  -1.13945  -1.13718  -1.13688  -1.13671
  Beta  occ. eigenvalues --   -1.13373  -1.13324  -1.13283  -1.13251  -1.13228
  Beta  occ. eigenvalues --   -1.13185  -1.13165  -1.13087  -1.13065  -1.13031
  Beta  occ. eigenvalues --   -1.13010  -1.12945  -1.12713  -1.12681  -1.12665
  Beta  occ. eigenvalues --   -0.17790  -0.13174  -0.11898
  Beta virt. eigenvalues --   -0.06959  -0.05939  -0.05412  -0.04016  -0.02786
  Beta virt. eigenvalues --   -0.02289  -0.01659  -0.01505  -0.01077  -0.00375
  Beta virt. eigenvalues --   -0.00158   0.00101   0.00382   0.00802   0.00849

 Mulliken charges and spin densities:
               1          2
     1  Na  -0.019286   0.020126
     2  Na   0.202422  -0.130025
     3  Na   0.019908  -0.068703
     4  Na   0.491533   0.011183
     5  Na  -0.293364   0.575394
     6  Na  -0.071100   0.003841
     7  Na  -0.330113   0.588183
 Sum of Mulliken charges =  -0.00000   1.00000

 Dipole moment (field-independent basis, Debye):
    X=             -0.4204    Y=              0.0995    Z=              0.1163  Tot=              0.4474
 Quadrupole moment (field-independent basis, Debye-Ang):
   XX=            -53.7383   YY=            -67.6814   ZZ=            -73.0486
   XY=             -0.1689   XZ=              2.1238   YZ=             -2.1988

 Normal termination of Gaussian 16 at Tue Dec  5 10:12:14 2023.
