 Gaussian 16, Revision B.01,
 Gaussian 16:  ES64L-G16RevB.01 20-Dec-2017

 -------------------------
 #P B3LYP/6-311+g(d) force
 -------------------------

 -----
 DPGEN
 -----
 Symbolic Z-matrix:
 Charge =  0 Multiplicity = 2

                         Standard orientation:
 ---------------------------------------------------------------------
 Center     Atomic      Atomic             Coordinates (Angstroms)
 Number     Number       Type             X           Y           Z
 ---------------------------------------------------------------------
      1         11           0       -0.037826   -0.964278   -0.585036
      2         11           0       -2.868597    0.708812    0.482762
      3         11           0       -0.886861    3.270047   -0.268108
      4         11           0        2.776978   -1.274769    1.694614
      5         11           0        3.047951   -1.351318   -1.357967
      6         11           0       -4.468360   -1.955417   -0.068914
      7         11           0        2.436715    1.566924    0.102649
 ---------------------------------------------------------------------

 SCF Done:  E(UB3LYP) =  -1136.11419374     A.U. after   26 cycles

 The electronic state is 2-A.
 Alpha  occ. eigenvalues --  -38.44809 -38.44664 -38.44602 -38.44484 -38.44025
 Alpha  occ. eigenvalues --  -38.43644 -38.43132  -2.20671  -2.20602  -2.20476
 Alpha  occ. eigenvalues --   -2.20395  -2.19815  -2.19517  -2.18926  -1.14379
 Alpha  occ. eigenvalues --   -1.14377  -1.14307  -1.14288  -1.14273  -1.14225
 Alpha  occ. eigenvalues --   -1.14175  -1.14118  -1.14074  -1.14045  -1.14018
 Alpha  occ. eigenvalues --   -1.13991  -1.13503  -1.13470  -1.13451  -1.13210
 Alpha  occ. eigenvalues --   -1.13193  -1.13125  -1.12604  -1.12591  -1.12560
 Alpha  occ. eigenvalues --   -0.18191  -0.14399  -0.11677  -0.10393
 Alpha virt. eigenvalues --   -0.07064  -0.06207  -0.04466  -0.03290  -0.02905
 Alpha virt. eigenvalues --   -0.02034  -0.01916  -0.01686  -0.01220  -0.00501
 Alpha virt. eigenvalues --   -0.00262   0.00010   0.00054   0.00461   0.00548

  Beta  occ. eigenvalues --  -38.44785 -38.44620 -38.44554 -38.44418 -38.44013
  Beta  occ. eigenvalues --  -38.43643 -38.43137  -2.20632  -2.20528  -2.20391
  Beta  occ. eigenvalues --   -2.20275  -2.19792  -2.19516  -2.18936  -1.14354
  Beta  occ. eigenvalues --   -1.14337  -1.14256  -1.14236  -1.14198  -1.14162
  Beta  occ. eigenvalues --   -1.14108  -1.14060  -1.14005  -1.13965  -1.13928
  Beta  occ. eigenvalues --   -1.13903  -1.13487  -1.13455  -1.13437  -1.13208
  Beta  occ. eigenvalues --   -1.13191  -1.13123  -1.12612  -1.12596  -1.12565
  Beta  occ. eigenvalues --   -0.17496  -0.14212  -0.11526
  Beta virt. eigenvalues --   -0.06897  -0.06296  -0.06058  -0.04377  -0.02938
  Beta virt. eigenvalues --   -0.02801  -0.01612  -0.01499  -0.01301  -0.01009
  Beta virt. eigenvalues --   -0.00204  -0.00019   0.00123   0.00315   0.00518

 Mulliken charges and spin densities:
               1          2
     1  Na  -2.452401   0.321877
     2  Na  -0.298262   0.150622
     3  Na   0.406897  -0.142015
     4  Na   0.227512   0.382475
     5  Na   1.765559  -0.104214
     6  Na   0.453475   0.070752
     7  Na  -0.102780   0.320503
 Sum of Mulliken charges =  -0.00000   1.00000

 Dipole moment (field-independent basis, Debye):
    X=              0.9991    Y=             -0.7108    Z=             -0.4170  Tot=              1.2951
 Quadrupole moment (field-independent basis, Debye-Ang):
   XX=            -58.4346   YY=            -66.2037   ZZ=            -73.2963
   XY=             -0.8381   XZ=             -4.5873   YZ=             -2.2403

 Normal termination of Gaussian 16 at Tue Dec  5 18:41:23 2023.
