 Gaussian 16, Revision B.01,
 Gaussian 16:  ES64L-G16RevB.01 20-Dec-2017

 -------------------------
 #P B3LYP/6-311+g(d) force
 -------------------------

 -----
 DPGEN
 -----
 Symbolic Z-matrix:
 Charge =  0 Multiplicity = 2

                         Standard orientation:
 ---------------------------------------------------------------------
 Center     Atomic      Atomic             Coordinates (Angstroms)
 Number     Number       Type             X           Y           Z
 ---------------------------------------------------------------------
      1         11           0        0.872743   -2.178760   -0.244514
      2         11           0        2.181756    1.161794    0.258676
      3         11           0       -1.216735    1.118723    0.682638
      4         11           0       -2.319143   -2.283361    0.457799
      5         11           0       -4.232948   -0.009583   -0.646729
      6         11           0        0.605756    3.885653   -0.254187
      7         11           0        4.108571   -1.694465   -0.253683
 ---------------------------------------------------------------------

 SCF Done:  E(UB3LYP) =  -1136.13019832     A.U. after   20 cycles

 The electronic state is 2-A.
 Alpha  occ. eigenvalues --  -38.44357 -38.44232 -38.43923 -38.43831 -38.43527
 Alpha  occ. eigenvalues --  -38.43243 -38.43229  -2.20218  -2.20057  -2.19810
 Alpha  occ. eigenvalues --   -2.19721  -2.19391  -2.19117  -2.19088  -1.13937
 Alpha  occ. eigenvalues --   -1.13928  -1.13815  -1.13747  -1.13712  -1.13683
 Alpha  occ. eigenvalues --   -1.13525  -1.13506  -1.13408  -1.13391  -1.13383
 Alpha  occ. eigenvalues --   -1.13368  -1.13038  -1.13023  -1.13002  -1.12806
 Alpha  occ. eigenvalues --   -1.12790  -1.12786  -1.12731  -1.12731  -1.12672
 Alpha  occ. eigenvalues --   -0.17400  -0.14132  -0.13143  -0.10222
 Alpha virt. eigenvalues --   -0.06175  -0.05360  -0.04730  -0.03506  -0.02452
 Alpha virt. eigenvalues --   -0.02216  -0.01724  -0.01600  -0.01254  -0.00777
 Alpha virt. eigenvalues --   -0.00040   0.00150   0.00608   0.00615   0.00676

  Beta  occ. eigenvalues --  -38.44350 -38.44238 -38.43917 -38.43800 -38.43447
  Beta  occ. eigenvalues --  -38.43194 -38.43190  -2.20209  -2.20068  -2.19801
  Beta  occ. eigenvalues --   -2.19673  -2.19241  -2.19053  -2.18995  -1.13927
  Beta  occ. eigenvalues --   -1.13901  -1.13816  -1.13755  -1.13719  -1.13688
  Beta  occ. eigenvalues --   -1.13514  -1.13502  -1.13367  -1.13366  -1.13347
  Beta  occ. eigenvalues --   -1.13307  -1.12933  -1.12919  -1.12908  -1.12761
  Beta  occ. eigenvalues --   -1.12752  -1.12722  -1.12668  -1.12662  -1.12602
  Beta  occ. eigenvalues --   -0.16935  -0.13581  -0.12765
  Beta virt. eigenvalues --   -0.06586  -0.05978  -0.05277  -0.04463  -0.02961
  Beta virt. eigenvalues --   -0.02270  -0.01974  -0.01669  -0.01169  -0.00975
  Beta virt. eigenvalues --   -0.00388   0.00230   0.00434   0.00642   0.00733

 Mulliken charges and spin densities:
               1          2
     1  Na  -0.559605   0.216253
     2  Na  -0.959582   0.059965
     3  Na  -1.026125   0.053728
     4  Na   0.250816  -0.050517
     5  Na   0.561926   0.383439
     6  Na   0.987884  -0.020734
     7  Na   0.744687   0.357866
 Sum of Mulliken charges =  -0.00000   1.00000

 Dipole moment (field-independent basis, Debye):
    X=              0.0697    Y=              0.8854    Z=             -0.1646  Tot=              0.9033
 Quadrupole moment (field-independent basis, Debye-Ang):
   XX=            -69.4706   YY=            -58.0078   ZZ=            -70.3686
   XY=              3.2954   XZ=             -0.0230   YZ=             -1.4604

 Normal termination of Gaussian 16 at Tue Nov 28 23:10:22 2023.
