 Gaussian 16, Revision B.01,
 Gaussian 16:  ES64L-G16RevB.01 20-Dec-2017

 -------------------------
 #P B3LYP/6-311+g(d) force
 -------------------------

 -----
 DPGEN
 -----
 Symbolic Z-matrix:
 Charge =  0 Multiplicity = 2

                         Standard orientation:
 ---------------------------------------------------------------------
 Center     Atomic      Atomic             Coordinates (Angstroms)
 Number     Number       Type             X           Y           Z
 ---------------------------------------------------------------------
      1         11           0        0.066014   -0.183872    2.262308
      2         11           0        3.211628    1.055693   -0.020844
      3         11           0        2.160023   -2.069543   -0.162891
      4         11           0       -3.360090    0.600605    0.081594
      5         11           0       -1.721030   -2.321993   -0.264617
      6         11           0       -0.322234    2.730146   -0.080430
      7         11           0       -0.034310    0.188963   -1.815120
 ---------------------------------------------------------------------

 SCF Done:  E(UB3LYP) =  -1136.13343520     A.U. after   19 cycles

 The electronic state is 2-A.
 Alpha  occ. eigenvalues --  -38.44723 -38.44546 -38.44170 -38.43676 -38.43517
 Alpha  occ. eigenvalues --  -38.43210 -38.42918  -2.20516  -2.20341  -2.20003
 Alpha  occ. eigenvalues --   -2.19606  -2.19351  -2.19051  -2.18766  -1.14187
 Alpha  occ. eigenvalues --   -1.14178  -1.14155  -1.14016  -1.14008  -1.13978
 Alpha  occ. eigenvalues --   -1.13659  -1.13631  -1.13621  -1.13304  -1.13265
 Alpha  occ. eigenvalues --   -1.13215  -1.13025  -1.13017  -1.12989  -1.12735
 Alpha  occ. eigenvalues --   -1.12713  -1.12683  -1.12477  -1.12427  -1.12374
 Alpha  occ. eigenvalues --   -0.18267  -0.13204  -0.11851  -0.10981
 Alpha virt. eigenvalues --   -0.06340  -0.05165  -0.04102  -0.03418  -0.02989
 Alpha virt. eigenvalues --   -0.02753  -0.02003  -0.01097  -0.00330  -0.00260
 Alpha virt. eigenvalues --   -0.00101   0.00334   0.00675   0.00711   0.00874

  Beta  occ. eigenvalues --  -38.44724 -38.44547 -38.44067 -38.43609 -38.43513
  Beta  occ. eigenvalues --  -38.43204 -38.42912  -2.20519  -2.20344  -2.19813
  Beta  occ. eigenvalues --   -2.19483  -2.19347  -2.19043  -2.18760  -1.14184
  Beta  occ. eigenvalues --   -1.14173  -1.14159  -1.14018  -1.13996  -1.13982
  Beta  occ. eigenvalues --   -1.13532  -1.13496  -1.13487  -1.13220  -1.13177
  Beta  occ. eigenvalues --   -1.13127  -1.13021  -1.12992  -1.12990  -1.12726
  Beta  occ. eigenvalues --   -1.12689  -1.12681  -1.12468  -1.12403  -1.12374
  Beta  occ. eigenvalues --   -0.17519  -0.13052  -0.11620
  Beta virt. eigenvalues --   -0.07033  -0.06240  -0.05201  -0.04039  -0.02672
  Beta virt. eigenvalues --   -0.02061  -0.01892  -0.01820  -0.01048  -0.00383
  Beta virt. eigenvalues --   -0.00298   0.00064   0.00356   0.00790   0.00865

 Mulliken charges and spin densities:
               1          2
     1  Na  -0.546512   0.772954
     2  Na   0.129349  -0.059126
     3  Na   0.150367  -0.048363
     4  Na   0.115422  -0.032611
     5  Na   0.123494  -0.052673
     6  Na   0.085282  -0.081880
     7  Na  -0.057403   0.501699
 Sum of Mulliken charges =  -0.00000   1.00000

 Dipole moment (field-independent basis, Debye):
    X=             -0.0216    Y=              0.1427    Z=              0.2044  Tot=              0.2502
 Quadrupole moment (field-independent basis, Debye-Ang):
   XX=            -52.1348   YY=            -68.8504   ZZ=            -73.0074
   XY=              0.1275   XZ=             -0.3883   YZ=              1.0421

 Normal termination of Gaussian 16 at Thu Dec  7 11:20:55 2023.
