 Gaussian 16, Revision B.01,
 Gaussian 16:  ES64L-G16RevB.01 20-Dec-2017

 -------------------------
 #P B3LYP/6-311+g(d) force
 -------------------------

 -----
 DPGEN
 -----
 Symbolic Z-matrix:
 Charge =  0 Multiplicity = 2

                         Standard orientation:
 ---------------------------------------------------------------------
 Center     Atomic      Atomic             Coordinates (Angstroms)
 Number     Number       Type             X           Y           Z
 ---------------------------------------------------------------------
      1         11           0       -1.475907   -1.815703   -1.140120
      2         11           0       -4.849611   -1.222515   -0.466577
      3         11           0       -4.874955    2.028132   -0.448268
      4         11           0       -2.076256    1.533158    0.935939
      5         11           0        0.725183   -1.148148    1.673257
      6         11           0        5.166722   -0.305796    0.589687
      7         11           0        7.384824    0.930872   -1.143918
 ---------------------------------------------------------------------

 SCF Done:  E(UB3LYP) =  -1136.11174090     A.U. after   20 cycles

 The electronic state is 2-A.
 Alpha  occ. eigenvalues --  -38.45016 -38.44862 -38.44712 -38.44060 -38.43964
 Alpha  occ. eigenvalues --  -38.43882 -38.43827  -2.20843  -2.20659  -2.20547
 Alpha  occ. eigenvalues --   -2.19912  -2.19726  -2.19672  -2.19609  -1.14528
 Alpha  occ. eigenvalues --   -1.14495  -1.14454  -1.14338  -1.14329  -1.14267
 Alpha  occ. eigenvalues --   -1.14210  -1.14190  -1.14177  -1.13584  -1.13560
 Alpha  occ. eigenvalues --   -1.13548  -1.13409  -1.13396  -1.13393  -1.13355
 Alpha  occ. eigenvalues --   -1.13327  -1.13326  -1.13269  -1.13265  -1.13190
 Alpha  occ. eigenvalues --   -0.16768  -0.13212  -0.12180  -0.11605
 Alpha virt. eigenvalues --   -0.06699  -0.05465  -0.04628  -0.03608  -0.03168
 Alpha virt. eigenvalues --   -0.02548  -0.02073  -0.01745  -0.01426  -0.01271
 Alpha virt. eigenvalues --   -0.00521  -0.00160   0.00202   0.00299   0.00361

  Beta  occ. eigenvalues --  -38.44946 -38.44813 -38.44655 -38.44040 -38.43956
  Beta  occ. eigenvalues --  -38.43880 -38.43828  -2.20716  -2.20571  -2.20443
  Beta  occ. eigenvalues --   -2.19880  -2.19710  -2.19667  -2.19611  -1.14444
  Beta  occ. eigenvalues --   -1.14413  -1.14349  -1.14278  -1.14269  -1.14188
  Beta  occ. eigenvalues --   -1.14142  -1.14120  -1.14092  -1.13548  -1.13541
  Beta  occ. eigenvalues --   -1.13519  -1.13407  -1.13386  -1.13377  -1.13348
  Beta  occ. eigenvalues --   -1.13324  -1.13323  -1.13270  -1.13266  -1.13189
  Beta  occ. eigenvalues --   -0.15935  -0.13148  -0.12023
  Beta virt. eigenvalues --   -0.07656  -0.06466  -0.05032  -0.04459  -0.03175
  Beta virt. eigenvalues --   -0.02493  -0.02425  -0.01982  -0.01590  -0.01274
  Beta virt. eigenvalues --   -0.00843  -0.00242  -0.00037   0.00356   0.00373

 Mulliken charges and spin densities:
               1          2
     1  Na  -0.016959   0.297114
     2  Na   0.020888   0.252492
     3  Na   0.433495  -0.085571
     4  Na  -0.212512   0.482601
     5  Na  -0.288524   0.061645
     6  Na  -0.560872  -0.017433
     7  Na   0.624484   0.009151
 Sum of Mulliken charges =  -0.00000   1.00000

 Dipole moment (field-independent basis, Debye):
    X=             -1.6865    Y=              0.1365    Z=             -0.3705  Tot=              1.7321
 Quadrupole moment (field-independent basis, Debye-Ang):
   XX=            -63.7204   YY=            -69.0316   ZZ=            -66.9535
   XY=              1.8318   XZ=             -2.5921   YZ=             -2.8889

 Normal termination of Gaussian 16 at Wed Nov 29 02:19:37 2023.
