 Gaussian 16, Revision B.01,
 Gaussian 16:  ES64L-G16RevB.01 20-Dec-2017

 -------------------------
 #P B3LYP/6-311+g(d) force
 -------------------------

 -----
 DPGEN
 -----
 Symbolic Z-matrix:
 Charge =  0 Multiplicity = 2

                         Standard orientation:
 ---------------------------------------------------------------------
 Center     Atomic      Atomic             Coordinates (Angstroms)
 Number     Number       Type             X           Y           Z
 ---------------------------------------------------------------------
      1         11           0       -3.108308   -2.135820    0.155245
      2         11           0        0.887776   -1.959115   -0.513301
      3         11           0        3.375599   -0.875143    0.656858
      4         11           0       -1.165271    3.518814    0.440027
      5         11           0       -0.678692   -0.048470    1.725235
      6         11           0       -1.538491    0.323541   -1.564849
      7         11           0        2.227386    1.176195   -0.899216
 ---------------------------------------------------------------------

 SCF Done:  E(UB3LYP) =  -1136.12154549     A.U. after   21 cycles

 The electronic state is 2-A.
 Alpha  occ. eigenvalues --  -38.44471 -38.44446 -38.44440 -38.44077 -38.43578
 Alpha  occ. eigenvalues --  -38.43350 -38.43346  -2.20407  -2.20332  -2.20234
 Alpha  occ. eigenvalues --   -2.20017  -2.19464  -2.19240  -2.19107  -1.14312
 Alpha  occ. eigenvalues --   -1.14127  -1.14009  -1.13992  -1.13946  -1.13913
 Alpha  occ. eigenvalues --   -1.13901  -1.13860  -1.13848  -1.13723  -1.13687
 Alpha  occ. eigenvalues --   -1.13597  -1.13171  -1.13104  -1.13060  -1.12941
 Alpha  occ. eigenvalues --   -1.12896  -1.12830  -1.12781  -1.12775  -1.12737
 Alpha  occ. eigenvalues --   -0.18441  -0.13784  -0.11776  -0.10395
 Alpha virt. eigenvalues --   -0.06411  -0.05468  -0.04476  -0.03481  -0.02621
 Alpha virt. eigenvalues --   -0.02283  -0.02089  -0.01297  -0.00588  -0.00257
 Alpha virt. eigenvalues --    0.00150   0.00239   0.00660   0.00734   0.00784

  Beta  occ. eigenvalues --  -38.44464 -38.44441 -38.44425 -38.44056 -38.43509
  Beta  occ. eigenvalues --  -38.43349 -38.43295  -2.20395  -2.20298  -2.20239
  Beta  occ. eigenvalues --   -2.19985  -2.19337  -2.19147  -2.19106  -1.14299
  Beta  occ. eigenvalues --   -1.14117  -1.13987  -1.13960  -1.13916  -1.13914
  Beta  occ. eigenvalues --   -1.13889  -1.13866  -1.13832  -1.13707  -1.13613
  Beta  occ. eigenvalues --   -1.13582  -1.13084  -1.13012  -1.12967  -1.12878
  Beta  occ. eigenvalues --   -1.12817  -1.12783  -1.12767  -1.12762  -1.12734
  Beta  occ. eigenvalues --   -0.17708  -0.13611  -0.11594
  Beta virt. eigenvalues --   -0.06586  -0.06270  -0.05315  -0.04302  -0.02941
  Beta virt. eigenvalues --   -0.02124  -0.02068  -0.01355  -0.01141  -0.00327
  Beta virt. eigenvalues --   -0.00212   0.00204   0.00298   0.00714   0.00781

 Mulliken charges and spin densities:
               1          2
     1  Na   0.274878  -0.061024
     2  Na  -0.077727   0.198941
     3  Na   0.775795   0.019939
     4  Na  -0.093644  -0.141172
     5  Na  -0.521132   0.623530
     6  Na   0.026182   0.334745
     7  Na  -0.384353   0.025041
 Sum of Mulliken charges =  -0.00000   1.00000

 Dipole moment (field-independent basis, Debye):
    X=              0.1565    Y=             -0.6079    Z=              0.0851  Tot=              0.6335
 Quadrupole moment (field-independent basis, Debye-Ang):
   XX=            -53.2535   YY=            -65.0267   ZZ=            -74.3380
   XY=              2.7479   XZ=              1.2045   YZ=             -0.6542

 Normal termination of Gaussian 16 at Tue Dec  5 21:00:52 2023.
