 Gaussian 16, Revision B.01,
 Gaussian 16:  ES64L-G16RevB.01 20-Dec-2017

 -------------------------
 #P B3LYP/6-311+g(d) force
 -------------------------

 -----
 DPGEN
 -----
 Symbolic Z-matrix:
 Charge =  0 Multiplicity = 2

                         Standard orientation:
 ---------------------------------------------------------------------
 Center     Atomic      Atomic             Coordinates (Angstroms)
 Number     Number       Type             X           Y           Z
 ---------------------------------------------------------------------
      1         11           0       -0.575282   -1.952077   -0.806874
      2         11           0        2.707199   -1.311566   -0.901329
      3         11           0        1.276799    1.834634   -0.968193
      4         11           0       -2.003422    2.104409   -0.652495
      5         11           0        2.884985    0.156847    1.238153
      6         11           0       -3.795021   -1.041456    0.191449
      7         11           0       -0.495258    0.209210    1.899288
 ---------------------------------------------------------------------

 SCF Done:  E(UB3LYP) =  -1136.11518549     A.U. after   23 cycles

 The electronic state is 2-A.
 Alpha  occ. eigenvalues --  -38.45141 -38.45064 -38.44365 -38.44185 -38.43800
 Alpha  occ. eigenvalues --  -38.43478 -38.43098  -2.21046  -2.20917  -2.20321
 Alpha  occ. eigenvalues --   -2.20064  -2.19634  -2.19311  -2.19000  -1.15012
 Alpha  occ. eigenvalues --   -1.14655  -1.14642  -1.14594  -1.14576  -1.14550
 Alpha  occ. eigenvalues --   -1.13943  -1.13914  -1.13899  -1.13764  -1.13693
 Alpha  occ. eigenvalues --   -1.13675  -1.13331  -1.13301  -1.13247  -1.12996
 Alpha  occ. eigenvalues --   -1.12975  -1.12942  -1.12676  -1.12673  -1.12617
 Alpha  occ. eigenvalues --   -0.18721  -0.14311  -0.11519  -0.10995
 Alpha virt. eigenvalues --   -0.07099  -0.05452  -0.04499  -0.03376  -0.02774
 Alpha virt. eigenvalues --   -0.02518  -0.02172  -0.01113  -0.00612  -0.00242
 Alpha virt. eigenvalues --    0.00165   0.00214   0.00386   0.00602   0.00764

  Beta  occ. eigenvalues --  -38.45148 -38.45030 -38.44344 -38.44111 -38.43779
  Beta  occ. eigenvalues --  -38.43466 -38.43071  -2.20987  -2.20929  -2.20286
  Beta  occ. eigenvalues --   -2.19930  -2.19597  -2.19290  -2.18951  -1.14971
  Beta  occ. eigenvalues --   -1.14619  -1.14597  -1.14587  -1.14580  -1.14558
  Beta  occ. eigenvalues --   -1.13906  -1.13885  -1.13869  -1.13677  -1.13600
  Beta  occ. eigenvalues --   -1.13568  -1.13306  -1.13265  -1.13215  -1.12977
  Beta  occ. eigenvalues --   -1.12957  -1.12927  -1.12644  -1.12625  -1.12580
  Beta  occ. eigenvalues --   -0.18010  -0.14215  -0.11230
  Beta virt. eigenvalues --   -0.07098  -0.06927  -0.05420  -0.03790  -0.03161
  Beta virt. eigenvalues --   -0.02628  -0.01939  -0.01349  -0.01066  -0.00304
  Beta virt. eigenvalues --   -0.00150   0.00197   0.00225   0.00546   0.00686

 Mulliken charges and spin densities:
               1          2
     1  Na  -0.494699   0.148375
     2  Na   0.276393   0.001852
     3  Na  -0.439810   0.268551
     4  Na  -0.058268   0.016852
     5  Na   0.557798   0.230374
     6  Na   0.628228   0.031926
     7  Na  -0.469641   0.302070
 Sum of Mulliken charges =  -0.00000   1.00000

 Dipole moment (field-independent basis, Debye):
    X=             -0.9227    Y=             -0.1004    Z=              0.2170  Tot=              0.9532
 Quadrupole moment (field-independent basis, Debye-Ang):
   XX=            -46.3928   YY=            -77.0811   ZZ=            -71.9498
   XY=              0.1793   XZ=             -0.0108   YZ=              0.0767

 Normal termination of Gaussian 16 at Thu Dec  7 07:06:28 2023.
