 Gaussian 16, Revision B.01,
 Gaussian 16:  ES64L-G16RevB.01 20-Dec-2017

 -------------------------
 #P B3LYP/6-311+g(d) force
 -------------------------

 -----
 DPGEN
 -----
 Symbolic Z-matrix:
 Charge =  0 Multiplicity = 2

                         Standard orientation:
 ---------------------------------------------------------------------
 Center     Atomic      Atomic             Coordinates (Angstroms)
 Number     Number       Type             X           Y           Z
 ---------------------------------------------------------------------
      1         11           0       -2.215347    2.003299    0.310804
      2         11           0        0.064841    0.472567    1.981033
      3         11           0       -2.949318   -1.136042   -0.369123
      4         11           0        1.467850    2.715694   -0.784323
      5         11           0        0.700009   -2.840225    0.400587
      6         11           0        3.221068   -0.368238   -0.029241
      7         11           0       -0.289103   -0.847054   -1.509738
 ---------------------------------------------------------------------

 SCF Done:  E(UB3LYP) =  -1136.13000952     A.U. after   21 cycles

 The electronic state is 2-A.
 Alpha  occ. eigenvalues --  -38.44353 -38.44050 -38.43712 -38.43685 -38.43645
 Alpha  occ. eigenvalues --  -38.43584 -38.43483  -2.20151  -2.19930  -2.19567
 Alpha  occ. eigenvalues --   -2.19522  -2.19478  -2.19474  -2.19469  -1.13831
 Alpha  occ. eigenvalues --   -1.13809  -1.13792  -1.13711  -1.13566  -1.13556
 Alpha  occ. eigenvalues --   -1.13367  -1.13291  -1.13219  -1.13200  -1.13177
 Alpha  occ. eigenvalues --   -1.13149  -1.13136  -1.13130  -1.13125  -1.13114
 Alpha  occ. eigenvalues --   -1.13106  -1.13087  -1.13083  -1.13074  -1.13033
 Alpha  occ. eigenvalues --   -0.18428  -0.13176  -0.12480  -0.10638
 Alpha virt. eigenvalues --   -0.05796  -0.05219  -0.04775  -0.03241  -0.03172
 Alpha virt. eigenvalues --   -0.02275  -0.01618  -0.01079  -0.00523  -0.00376
 Alpha virt. eigenvalues --   -0.00004   0.00340   0.00781   0.00846   0.00866

  Beta  occ. eigenvalues --  -38.44351 -38.44039 -38.43704 -38.43660 -38.43635
  Beta  occ. eigenvalues --  -38.43499 -38.43439  -2.20150  -2.19913  -2.19556
  Beta  occ. eigenvalues --   -2.19505  -2.19431  -2.19394  -2.19316  -1.13820
  Beta  occ. eigenvalues --   -1.13811  -1.13782  -1.13688  -1.13553  -1.13535
  Beta  occ. eigenvalues --   -1.13340  -1.13260  -1.13197  -1.13195  -1.13146
  Beta  occ. eigenvalues --   -1.13118  -1.13110  -1.13099  -1.13079  -1.13062
  Beta  occ. eigenvalues --   -1.13032  -1.13014  -1.12988  -1.12981  -1.12974
  Beta  occ. eigenvalues --   -0.17771  -0.12911  -0.12199
  Beta virt. eigenvalues --   -0.06886  -0.05777  -0.05102  -0.04608  -0.02512
  Beta virt. eigenvalues --   -0.02471  -0.01553  -0.01366  -0.00999  -0.00489
  Beta virt. eigenvalues --   -0.00381   0.00140   0.00392   0.00822   0.00871

 Mulliken charges and spin densities:
               1          2
     1  Na   0.106522   0.052101
     2  Na  -0.194706   0.475260
     3  Na   0.254686  -0.047033
     4  Na  -0.204065   0.135495
     5  Na   0.011170  -0.007938
     6  Na   0.056516  -0.004166
     7  Na  -0.030123   0.396282
 Sum of Mulliken charges =  -0.00000   1.00000

 Dipole moment (field-independent basis, Debye):
    X=              0.1298    Y=             -0.1236    Z=              0.1826  Tot=              0.2559
 Quadrupole moment (field-independent basis, Debye-Ang):
   XX=            -56.4322   YY=            -63.6441   ZZ=            -74.2742
   XY=             -1.1376   XZ=             -0.2226   YZ=             -2.6727

 Normal termination of Gaussian 16 at Thu Dec  7 20:02:13 2023.
