 Gaussian 16, Revision B.01,
 Gaussian 16:  ES64L-G16RevB.01 20-Dec-2017

 -------------------------
 #P B3LYP/6-311+g(d) force
 -------------------------

 -----
 DPGEN
 -----
 Symbolic Z-matrix:
 Charge =  0 Multiplicity = 2

                         Standard orientation:
 ---------------------------------------------------------------------
 Center     Atomic      Atomic             Coordinates (Angstroms)
 Number     Number       Type             X           Y           Z
 ---------------------------------------------------------------------
      1         11           0        0.867021    1.134538   -1.497194
      2         11           0       -0.611138    2.192260    1.437268
      3         11           0        0.016835   -2.127114   -0.016909
      4         11           0        3.659192   -0.625005   -0.663677
      5         11           0       -2.479214    0.868624   -1.284183
      6         11           0        2.123873   -0.057827    1.519701
      7         11           0       -3.576570   -1.385476    0.504994
 ---------------------------------------------------------------------

 SCF Done:  E(UB3LYP) =  -1136.11663748     A.U. after   24 cycles

 The electronic state is 2-A.
 Alpha  occ. eigenvalues --  -38.45247 -38.44651 -38.44185 -38.44114 -38.44048
 Alpha  occ. eigenvalues --  -38.43188 -38.43076  -2.21145  -2.20450  -2.20171
 Alpha  occ. eigenvalues --   -2.19932  -2.19919  -2.19115  -2.18920  -1.14979
 Alpha  occ. eigenvalues --   -1.14766  -1.14739  -1.14165  -1.14149  -1.14036
 Alpha  occ. eigenvalues --   -1.13845  -1.13804  -1.13747  -1.13714  -1.13614
 Alpha  occ. eigenvalues --   -1.13584  -1.13560  -1.13548  -1.13490  -1.12812
 Alpha  occ. eigenvalues --   -1.12775  -1.12723  -1.12586  -1.12574  -1.12541
 Alpha  occ. eigenvalues --   -0.18551  -0.14267  -0.11432  -0.10987
 Alpha virt. eigenvalues --   -0.07129  -0.05235  -0.04521  -0.03302  -0.02707
 Alpha virt. eigenvalues --   -0.02609  -0.02300  -0.01066  -0.00722  -0.00087
 Alpha virt. eigenvalues --    0.00102   0.00124   0.00392   0.00681   0.00778

  Beta  occ. eigenvalues --  -38.45229 -38.44636 -38.44138 -38.44121 -38.44030
  Beta  occ. eigenvalues --  -38.43140 -38.43037  -2.21115  -2.20425  -2.20086
  Beta  occ. eigenvalues --   -2.19935  -2.19896  -2.19027  -2.18849  -1.14956
  Beta  occ. eigenvalues --   -1.14729  -1.14720  -1.14146  -1.14110  -1.14022
  Beta  occ. eigenvalues --   -1.13774  -1.13747  -1.13707  -1.13683  -1.13588
  Beta  occ. eigenvalues --   -1.13585  -1.13557  -1.13543  -1.13480  -1.12755
  Beta  occ. eigenvalues --   -1.12705  -1.12655  -1.12533  -1.12526  -1.12484
  Beta  occ. eigenvalues --   -0.17865  -0.14147  -0.11192
  Beta virt. eigenvalues --   -0.07126  -0.06968  -0.04907  -0.04071  -0.03107
  Beta virt. eigenvalues --   -0.02613  -0.02125  -0.01454  -0.00864  -0.00361
  Beta virt. eigenvalues --   -0.00009   0.00143   0.00165   0.00500   0.00797

 Mulliken charges and spin densities:
               1          2
     1  Na  -0.635214   0.322587
     2  Na  -0.063055   0.258561
     3  Na  -0.675815   0.179657
     4  Na   1.177017   0.126711
     5  Na   0.044037   0.096580
     6  Na  -0.005451   0.111070
     7  Na   0.158482  -0.095165
 Sum of Mulliken charges =  -0.00000   1.00000

 Dipole moment (field-independent basis, Debye):
    X=              0.4618    Y=             -0.1260    Z=              0.0217  Tot=              0.4792
 Quadrupole moment (field-independent basis, Debye-Ang):
   XX=            -50.5496   YY=            -75.6030   ZZ=            -70.1339
   XY=             -2.9083   XZ=             -2.3609   YZ=              0.9987

 Normal termination of Gaussian 16 at Tue Dec  5 14:03:23 2023.
