 Gaussian 16, Revision B.01,
 Gaussian 16:  ES64L-G16RevB.01 20-Dec-2017

 -------------------------
 #P B3LYP/6-311+g(d) force
 -------------------------

 -----
 DPGEN
 -----
 Symbolic Z-matrix:
 Charge =  0 Multiplicity = 2

                         Standard orientation:
 ---------------------------------------------------------------------
 Center     Atomic      Atomic             Coordinates (Angstroms)
 Number     Number       Type             X           Y           Z
 ---------------------------------------------------------------------
      1         11           0        0.107385   -0.101591    2.138345
      2         11           0        0.708313    2.847094    0.072803
      3         11           0       -2.898232   -1.618608    0.131836
      4         11           0        2.998605    0.545106   -0.396937
      5         11           0       -2.575607    1.351001   -0.314507
      6         11           0        1.988421   -2.522738   -0.023943
      7         11           0       -0.328886   -0.500263   -1.607598
 ---------------------------------------------------------------------

 SCF Done:  E(UB3LYP) =  -1136.13232295     A.U. after   20 cycles

 The electronic state is 2-A.
 Alpha  occ. eigenvalues --  -38.44357 -38.44228 -38.44032 -38.43801 -38.43612
 Alpha  occ. eigenvalues --  -38.43485 -38.42695  -2.20218  -2.20087  -2.19935
 Alpha  occ. eigenvalues --   -2.19659  -2.19554  -2.19319  -2.18539  -1.13954
 Alpha  occ. eigenvalues --   -1.13879  -1.13851  -1.13759  -1.13748  -1.13737
 Alpha  occ. eigenvalues --   -1.13637  -1.13579  -1.13543  -1.13323  -1.13282
 Alpha  occ. eigenvalues --   -1.13279  -1.13237  -1.13199  -1.13176  -1.12980
 Alpha  occ. eigenvalues --   -1.12977  -1.12967  -1.12213  -1.12198  -1.12190
 Alpha  occ. eigenvalues --   -0.18555  -0.13728  -0.11928  -0.10798
 Alpha virt. eigenvalues --   -0.05992  -0.05442  -0.04279  -0.03603  -0.02694
 Alpha virt. eigenvalues --   -0.02620  -0.01778  -0.01115  -0.00522  -0.00202
 Alpha virt. eigenvalues --   -0.00012   0.00339   0.00700   0.00815   0.00890

  Beta  occ. eigenvalues --  -38.44355 -38.44220 -38.44023 -38.43697 -38.43560
  Beta  occ. eigenvalues --  -38.43484 -38.42693  -2.20217  -2.20075  -2.19922
  Beta  occ. eigenvalues --   -2.19467  -2.19458  -2.19320  -2.18538  -1.13956
  Beta  occ. eigenvalues --   -1.13875  -1.13830  -1.13747  -1.13738  -1.13722
  Beta  occ. eigenvalues --   -1.13619  -1.13557  -1.13532  -1.13199  -1.13166
  Beta  occ. eigenvalues --   -1.13148  -1.13140  -1.13130  -1.13107  -1.12983
  Beta  occ. eigenvalues --   -1.12972  -1.12951  -1.12215  -1.12194  -1.12175
  Beta  occ. eigenvalues --   -0.17832  -0.13505  -0.11739
  Beta virt. eigenvalues --   -0.06867  -0.05905  -0.05415  -0.04263  -0.02802
  Beta virt. eigenvalues --   -0.01921  -0.01675  -0.01605  -0.01032  -0.00575
  Beta virt. eigenvalues --   -0.00201   0.00140   0.00381   0.00795   0.00817

 Mulliken charges and spin densities:
               1          2
     1  Na  -0.458748   0.679803
     2  Na  -0.083998  -0.003591
     3  Na   0.245750   0.018372
     4  Na   0.069177   0.035179
     5  Na   0.144859   0.090005
     6  Na   0.151193  -0.003889
     7  Na  -0.068234   0.184121
 Sum of Mulliken charges =  -0.00000   1.00000

 Dipole moment (field-independent basis, Debye):
    X=             -0.3340    Y=             -0.4267    Z=              0.0820  Tot=              0.5480
 Quadrupole moment (field-independent basis, Debye-Ang):
   XX=            -55.1696   YY=            -65.5574   ZZ=            -74.1897
   XY=              0.7481   XZ=             -0.9544   YZ=             -1.1689

 Normal termination of Gaussian 16 at Wed Dec  6 01:17:10 2023.
