 Gaussian 16, Revision B.01,
 Gaussian 16:  ES64L-G16RevB.01 20-Dec-2017

 -------------------------
 #P B3LYP/6-311+g(d) force
 -------------------------

 -----
 DPGEN
 -----
 Symbolic Z-matrix:
 Charge =  0 Multiplicity = 2

                         Standard orientation:
 ---------------------------------------------------------------------
 Center     Atomic      Atomic             Coordinates (Angstroms)
 Number     Number       Type             X           Y           Z
 ---------------------------------------------------------------------
      1         11           0        4.110558   -0.877513    0.463118
      2         11           0       -4.078268    0.243287    0.793500
      3         11           0       -1.254285    1.878682   -1.099947
      4         11           0        2.115996    1.730621    0.243179
      5         11           0        1.362238   -0.608846   -1.281520
      6         11           0       -0.264242   -0.341749    1.701768
      7         11           0       -1.991996   -2.024482   -0.820099
 ---------------------------------------------------------------------

 SCF Done:  E(UB3LYP) =  -1136.11415159     A.U. after   28 cycles

 The electronic state is 2-A.
 Alpha  occ. eigenvalues --  -38.46513 -38.44609 -38.43839 -38.43717 -38.43544
 Alpha  occ. eigenvalues --  -38.43512 -38.42616  -2.22328  -2.20417  -2.19722
 Alpha  occ. eigenvalues --   -2.19679  -2.19466  -2.19391  -2.18460  -1.16043
 Alpha  occ. eigenvalues --   -1.15973  -1.15948  -1.14083  -1.14058  -1.14033
 Alpha  occ. eigenvalues --   -1.13540  -1.13408  -1.13378  -1.13345  -1.13322
 Alpha  occ. eigenvalues --   -1.13267  -1.13150  -1.13112  -1.13070  -1.13048
 Alpha  occ. eigenvalues --   -1.13016  -1.13013  -1.12142  -1.12125  -1.12089
 Alpha  occ. eigenvalues --   -0.18565  -0.14476  -0.10983  -0.10618
 Alpha virt. eigenvalues --   -0.07660  -0.05063  -0.04619  -0.03324  -0.02883
 Alpha virt. eigenvalues --   -0.02179  -0.01936  -0.01372  -0.01272  -0.00324
 Alpha virt. eigenvalues --   -0.00166   0.00175   0.00251   0.00667   0.00697

  Beta  occ. eigenvalues --  -38.46506 -38.44552 -38.43827 -38.43667 -38.43505
  Beta  occ. eigenvalues --  -38.43501 -38.42607  -2.22318  -2.20309  -2.19657
  Beta  occ. eigenvalues --   -2.19635  -2.19447  -2.19324  -2.18446  -1.16012
  Beta  occ. eigenvalues --   -1.15969  -1.15943  -1.14009  -1.13981  -1.13965
  Beta  occ. eigenvalues --   -1.13488  -1.13362  -1.13337  -1.13320  -1.13303
  Beta  occ. eigenvalues --   -1.13211  -1.13135  -1.13082  -1.13027  -1.13004
  Beta  occ. eigenvalues --   -1.12989  -1.12942  -1.12120  -1.12111  -1.12079
  Beta  occ. eigenvalues --   -0.17944  -0.14083  -0.10506
  Beta virt. eigenvalues --   -0.07405  -0.07169  -0.04883  -0.04118  -0.03108
  Beta virt. eigenvalues --   -0.02663  -0.01680  -0.01456  -0.01169  -0.00827
  Beta virt. eigenvalues --   -0.00177  -0.00091   0.00247   0.00377   0.00730

 Mulliken charges and spin densities:
               1          2
     1  Na   0.311307   0.109790
     2  Na   0.286525   0.354238
     3  Na  -0.501954   0.022940
     4  Na   0.510007   0.201177
     5  Na  -0.153613   0.144026
     6  Na  -0.318871   0.091302
     7  Na  -0.133401   0.076527
 Sum of Mulliken charges =  -0.00000   1.00000

 Dipole moment (field-independent basis, Debye):
    X=             -0.1794    Y=              0.2304    Z=              0.4389  Tot=              0.5272
 Quadrupole moment (field-independent basis, Debye-Ang):
   XX=            -57.3502   YY=            -76.9545   ZZ=            -65.4553
   XY=             -0.8265   XZ=              2.2044   YZ=              1.3458

 Normal termination of Gaussian 16 at Tue Dec  5 19:55:13 2023.
