 Gaussian 16, Revision B.01,
 Gaussian 16:  ES64L-G16RevB.01 20-Dec-2017

 -------------------------
 #P B3LYP/6-311+g(d) force
 -------------------------

 -----
 DPGEN
 -----
 Symbolic Z-matrix:
 Charge =  0 Multiplicity = 2

                         Standard orientation:
 ---------------------------------------------------------------------
 Center     Atomic      Atomic             Coordinates (Angstroms)
 Number     Number       Type             X           Y           Z
 ---------------------------------------------------------------------
      1         11           0       -3.040965    1.662574   -0.596756
      2         11           0        1.168977    2.429299    0.577854
      3         11           0       -1.686757   -0.144109    1.884155
      4         11           0        1.552244   -1.456620    1.328583
      5         11           0        4.233216   -0.288815   -0.550026
      6         11           0       -2.644442   -2.082372   -0.672199
      7         11           0        0.417727   -0.119958   -1.971610
 ---------------------------------------------------------------------

 SCF Done:  E(UB3LYP) =  -1136.11704397     A.U. after   29 cycles

 The electronic state is 2-A.
 Alpha  occ. eigenvalues --  -38.45527 -38.45091 -38.44626 -38.43895 -38.43831
 Alpha  occ. eigenvalues --  -38.43593 -38.43438  -2.21275  -2.20885  -2.20417
 Alpha  occ. eigenvalues --   -2.19720  -2.19711  -2.19397  -2.19195  -1.14954
 Alpha  occ. eigenvalues --   -1.14937  -1.14905  -1.14575  -1.14523  -1.14499
 Alpha  occ. eigenvalues --   -1.14106  -1.14062  -1.14032  -1.13421  -1.13390
 Alpha  occ. eigenvalues --   -1.13373  -1.13367  -1.13334  -1.13326  -1.13064
 Alpha  occ. eigenvalues --   -1.13052  -1.13046  -1.12885  -1.12880  -1.12822
 Alpha  occ. eigenvalues --   -0.17696  -0.13679  -0.11240  -0.10655
 Alpha virt. eigenvalues --   -0.07181  -0.05386  -0.04801  -0.03061  -0.02866
 Alpha virt. eigenvalues --   -0.02690  -0.02411  -0.01208  -0.01022  -0.00460
 Alpha virt. eigenvalues --    0.00023   0.00124   0.00177   0.00467   0.00646

  Beta  occ. eigenvalues --  -38.45538 -38.45032 -38.44593 -38.43854 -38.43771
  Beta  occ. eigenvalues --  -38.43584 -38.43452  -2.21294  -2.20775  -2.20356
  Beta  occ. eigenvalues --   -2.19648  -2.19604  -2.19383  -2.19222  -1.14964
  Beta  occ. eigenvalues --   -1.14955  -1.14918  -1.14498  -1.14450  -1.14413
  Beta  occ. eigenvalues --   -1.14057  -1.14018  -1.13994  -1.13366  -1.13322
  Beta  occ. eigenvalues --   -1.13310  -1.13292  -1.13271  -1.13246  -1.13048
  Beta  occ. eigenvalues --   -1.13041  -1.13026  -1.12905  -1.12886  -1.12841
  Beta  occ. eigenvalues --   -0.16928  -0.13642  -0.10479
  Beta virt. eigenvalues --   -0.07370  -0.06928  -0.05310  -0.04217  -0.02817
  Beta virt. eigenvalues --   -0.02617  -0.02029  -0.01764  -0.01054  -0.00775
  Beta virt. eigenvalues --   -0.00365   0.00057   0.00163   0.00309   0.00556

 Mulliken charges and spin densities:
               1          2
     1  Na   0.173365   0.085112
     2  Na  -0.296626  -0.096053
     3  Na   0.230902   0.364557
     4  Na  -0.062459   0.067537
     5  Na   0.281368  -0.003762
     6  Na  -0.045731   0.111305
     7  Na  -0.280819   0.471304
 Sum of Mulliken charges =  -0.00000   1.00000

 Dipole moment (field-independent basis, Debye):
    X=              0.9430    Y=              0.1520    Z=             -0.6279  Tot=              1.1431
 Quadrupole moment (field-independent basis, Debye-Ang):
   XX=            -47.2213   YY=            -77.2495   ZZ=            -69.3593
   XY=             -0.3436   XZ=             -0.3261   YZ=              0.7600

 Normal termination of Gaussian 16 at Thu Dec  7 07:14:15 2023.
