 Gaussian 16, Revision B.01,
 Gaussian 16:  ES64L-G16RevB.01 20-Dec-2017

 -------------------------
 #P B3LYP/6-311+g(d) force
 -------------------------

 -----
 DPGEN
 -----
 Symbolic Z-matrix:
 Charge =  0 Multiplicity = 2

                         Standard orientation:
 ---------------------------------------------------------------------
 Center     Atomic      Atomic             Coordinates (Angstroms)
 Number     Number       Type             X           Y           Z
 ---------------------------------------------------------------------
      1         11           0       -3.830691   -1.466878   -0.238080
      2         11           0        3.258544   -2.323005   -0.177135
      3         11           0       -0.903351    0.159555   -1.421634
      4         11           0       -1.260364    1.533891    1.588660
      5         11           0        2.283315    0.552164    0.455023
      6         11           0        0.716548    3.237755   -0.724410
      7         11           0       -0.264001   -1.693482    0.517576
 ---------------------------------------------------------------------

 SCF Done:  E(UB3LYP) =  -1136.12366505     A.U. after   22 cycles

 The electronic state is 2-A.
 Alpha  occ. eigenvalues --  -38.44750 -38.43975 -38.43925 -38.43913 -38.43544
 Alpha  occ. eigenvalues --  -38.43375 -38.43283  -2.20522  -2.19957  -2.19859
 Alpha  occ. eigenvalues --   -2.19743  -2.19468  -2.19265  -2.19137  -1.14199
 Alpha  occ. eigenvalues --   -1.14186  -1.14142  -1.13981  -1.13603  -1.13527
 Alpha  occ. eigenvalues --   -1.13503  -1.13469  -1.13455  -1.13394  -1.13389
 Alpha  occ. eigenvalues --   -1.13351  -1.13163  -1.13142  -1.13076  -1.12938
 Alpha  occ. eigenvalues --   -1.12920  -1.12866  -1.12807  -1.12786  -1.12757
 Alpha  occ. eigenvalues --   -0.18501  -0.13222  -0.12601  -0.10053
 Alpha virt. eigenvalues --   -0.06509  -0.05342  -0.04469  -0.02928  -0.02617
 Alpha virt. eigenvalues --   -0.02406  -0.01912  -0.01470  -0.00653  -0.00359
 Alpha virt. eigenvalues --    0.00105   0.00237   0.00648   0.00693   0.00791

  Beta  occ. eigenvalues --  -38.44746 -38.43931 -38.43929 -38.43891 -38.43535
  Beta  occ. eigenvalues --  -38.43299 -38.43262  -2.20517  -2.19885  -2.19819
  Beta  occ. eigenvalues --   -2.19751  -2.19455  -2.19126  -2.19101  -1.14196
  Beta  occ. eigenvalues --   -1.14171  -1.14140  -1.13938  -1.13541  -1.13475
  Beta  occ. eigenvalues --   -1.13462  -1.13457  -1.13420  -1.13395  -1.13381
  Beta  occ. eigenvalues --   -1.13328  -1.13156  -1.13100  -1.13074  -1.12847
  Beta  occ. eigenvalues --   -1.12810  -1.12787  -1.12779  -1.12747  -1.12719
  Beta  occ. eigenvalues --   -0.17808  -0.13050  -0.12399
  Beta virt. eigenvalues --   -0.06432  -0.06113  -0.05186  -0.04392  -0.02387
  Beta virt. eigenvalues --   -0.02275  -0.02131  -0.01594  -0.00895  -0.00578
  Beta virt. eigenvalues --   -0.00070   0.00175   0.00367   0.00709   0.00747

 Mulliken charges and spin densities:
               1          2
     1  Na   0.377606   0.017136
     2  Na   0.331374  -0.101069
     3  Na  -0.477119   0.270312
     4  Na  -0.404497   0.254218
     5  Na  -0.197714   0.217432
     6  Na   0.388487   0.071078
     7  Na  -0.018137   0.270894
 Sum of Mulliken charges =  -0.00000   1.00000

 Dipole moment (field-independent basis, Debye):
    X=             -0.6317    Y=             -0.3628    Z=              0.1352  Tot=              0.7409
 Quadrupole moment (field-independent basis, Debye-Ang):
   XX=            -51.6026   YY=            -61.4701   ZZ=            -76.2414
   XY=              0.5325   XZ=             -1.6245   YZ=              0.2413

 Normal termination of Gaussian 16 at Tue Dec  5 10:18:37 2023.
