 Gaussian 16, Revision B.01,
 Gaussian 16:  ES64L-G16RevB.01 20-Dec-2017

 -------------------------
 #P B3LYP/6-311+g(d) force
 -------------------------

 -----
 DPGEN
 -----
 Symbolic Z-matrix:
 Charge =  0 Multiplicity = 2

                         Standard orientation:
 ---------------------------------------------------------------------
 Center     Atomic      Atomic             Coordinates (Angstroms)
 Number     Number       Type             X           Y           Z
 ---------------------------------------------------------------------
      1         11           0       -1.001424    2.130451    1.777592
      2         11           0       -2.777023    0.721679   -0.728587
      3         11           0        1.552787   -0.742804   -1.092922
      4         11           0       -2.730941   -2.591911   -0.651402
      5         11           0        4.503664   -1.001107    0.260916
      6         11           0        0.798682    2.826125   -1.179570
      7         11           0       -0.345745   -1.342434    1.613973
 ---------------------------------------------------------------------

 SCF Done:  E(UB3LYP) =  -1136.11945794     A.U. after   22 cycles

 The electronic state is 2-A.
 Alpha  occ. eigenvalues --  -38.45080 -38.44660 -38.44058 -38.44052 -38.43876
 Alpha  occ. eigenvalues --  -38.43556 -38.43549  -2.20827  -2.20487  -2.19910
 Alpha  occ. eigenvalues --   -2.19839  -2.19713  -2.19399  -2.19371  -1.14497
 Alpha  occ. eigenvalues --   -1.14488  -1.14476  -1.14181  -1.14152  -1.14103
 Alpha  occ. eigenvalues --   -1.13616  -1.13554  -1.13516  -1.13514  -1.13501
 Alpha  occ. eigenvalues --   -1.13455  -1.13403  -1.13359  -1.13338  -1.13077
 Alpha  occ. eigenvalues --   -1.13056  -1.13038  -1.13027  -1.13007  -1.13006
 Alpha  occ. eigenvalues --   -0.17432  -0.12972  -0.12143  -0.10756
 Alpha virt. eigenvalues --   -0.07018  -0.05291  -0.03846  -0.03572  -0.03158
 Alpha virt. eigenvalues --   -0.02638  -0.02161  -0.01278  -0.00737  -0.00403
 Alpha virt. eigenvalues --   -0.00096   0.00053   0.00230   0.00627   0.00727

  Beta  occ. eigenvalues --  -38.45094 -38.44634 -38.44018 -38.43997 -38.43861
  Beta  occ. eigenvalues --  -38.43539 -38.43503  -2.20852  -2.20440  -2.19800
  Beta  occ. eigenvalues --   -2.19777  -2.19687  -2.19341  -2.19316  -1.14513
  Beta  occ. eigenvalues --   -1.14504  -1.14492  -1.14132  -1.14121  -1.14068
  Beta  occ. eigenvalues --   -1.13546  -1.13466  -1.13462  -1.13457  -1.13442
  Beta  occ. eigenvalues --   -1.13415  -1.13374  -1.13336  -1.13321  -1.13024
  Beta  occ. eigenvalues --   -1.13010  -1.13002  -1.12996  -1.12989  -1.12935
  Beta  occ. eigenvalues --   -0.16746  -0.12794  -0.11992
  Beta virt. eigenvalues --   -0.06961  -0.06804  -0.05140  -0.03441  -0.03231
  Beta virt. eigenvalues --   -0.02759  -0.02350  -0.01476  -0.01130  -0.00669
  Beta virt. eigenvalues --   -0.00183   0.00067   0.00176   0.00267   0.00663

 Mulliken charges and spin densities:
               1          2
     1  Na   0.153078   0.137378
     2  Na   0.050043   0.283876
     3  Na  -0.116862   0.164775
     4  Na   0.183062   0.060376
     5  Na   0.173801  -0.109023
     6  Na  -0.090414   0.128437
     7  Na  -0.352709   0.334181
 Sum of Mulliken charges =  -0.00000   1.00000

 Dipole moment (field-independent basis, Debye):
    X=              0.8048    Y=              0.0799    Z=              0.2625  Tot=              0.8503
 Quadrupole moment (field-independent basis, Debye-Ang):
   XX=            -55.2294   YY=            -66.8864   ZZ=            -71.2032
   XY=             -0.0408   XZ=              3.0823   YZ=             -0.2418

 Normal termination of Gaussian 16 at Tue Nov 28 23:27:17 2023.
