 Gaussian 16, Revision B.01,
 Gaussian 16:  ES64L-G16RevB.01 20-Dec-2017

 -------------------------
 #P B3LYP/6-311+g(d) force
 -------------------------

 -----
 DPGEN
 -----
 Symbolic Z-matrix:
 Charge =  0 Multiplicity = 2

                         Standard orientation:
 ---------------------------------------------------------------------
 Center     Atomic      Atomic             Coordinates (Angstroms)
 Number     Number       Type             X           Y           Z
 ---------------------------------------------------------------------
      1         11           0        0.610521    1.665912   -1.748167
      2         11           0        0.871134   -1.316402    2.264686
      3         11           0       -1.207715    2.057234    0.763418
      4         11           0        3.083633    1.119313    0.531625
      5         11           0       -4.136802    0.074201    0.237632
      6         11           0        2.182970   -1.556909   -0.980396
      7         11           0       -1.403741   -2.043349   -1.068798
 ---------------------------------------------------------------------

 SCF Done:  E(UB3LYP) =  -1136.12207451     A.U. after   22 cycles

 The electronic state is 2-A.
 Alpha  occ. eigenvalues --  -38.45110 -38.44749 -38.44344 -38.43690 -38.43648
 Alpha  occ. eigenvalues --  -38.43644 -38.43507  -2.20859  -2.20586  -2.20152
 Alpha  occ. eigenvalues --   -2.19520  -2.19472  -2.19461  -2.19375  -1.14534
 Alpha  occ. eigenvalues --   -1.14516  -1.14497  -1.14282  -1.14240  -1.14213
 Alpha  occ. eigenvalues --   -1.13811  -1.13784  -1.13777  -1.13219  -1.13196
 Alpha  occ. eigenvalues --   -1.13190  -1.13158  -1.13149  -1.13135  -1.13131
 Alpha  occ. eigenvalues --   -1.13089  -1.13077  -1.13027  -1.13003  -1.12990
 Alpha  occ. eigenvalues --   -0.17767  -0.13297  -0.11549  -0.11228
 Alpha virt. eigenvalues --   -0.06940  -0.05179  -0.04004  -0.03527  -0.03302
 Alpha virt. eigenvalues --   -0.02638  -0.02256  -0.01122  -0.00359  -0.00289
 Alpha virt. eigenvalues --   -0.00138   0.00042   0.00180   0.00694   0.00835

  Beta  occ. eigenvalues --  -38.45113 -38.44736 -38.44268 -38.43661 -38.43636
  Beta  occ. eigenvalues --  -38.43630 -38.43473  -2.20865  -2.20565  -2.20011
  Beta  occ. eigenvalues --   -2.19490  -2.19446  -2.19419  -2.19313  -1.14535
  Beta  occ. eigenvalues --   -1.14519  -1.14502  -1.14269  -1.14220  -1.14183
  Beta  occ. eigenvalues --   -1.13715  -1.13691  -1.13670  -1.13200  -1.13177
  Beta  occ. eigenvalues --   -1.13157  -1.13118  -1.13115  -1.13111  -1.13097
  Beta  occ. eigenvalues --   -1.13066  -1.13052  -1.12990  -1.12961  -1.12942
  Beta  occ. eigenvalues --   -0.17036  -0.13169  -0.11344
  Beta virt. eigenvalues --   -0.07391  -0.06796  -0.04990  -0.03338  -0.03209
  Beta virt. eigenvalues --   -0.02967  -0.02177  -0.01717  -0.01005  -0.00285
  Beta virt. eigenvalues --   -0.00130  -0.00023   0.00174   0.00260   0.00786

 Mulliken charges and spin densities:
               1          2
     1  Na  -0.002976   0.264915
     2  Na  -0.336494   0.496294
     3  Na  -0.074621   0.043780
     4  Na   0.414005   0.119637
     5  Na   0.098970  -0.090171
     6  Na   0.046183   0.092698
     7  Na  -0.145067   0.072846
 Sum of Mulliken charges =  -0.00000   1.00000

 Dipole moment (field-independent basis, Debye):
    X=             -0.2750    Y=              0.0908    Z=              0.3427  Tot=              0.4486
 Quadrupole moment (field-independent basis, Debye-Ang):
   XX=            -50.8848   YY=            -76.1752   ZZ=            -68.2426
   XY=              1.5362   XZ=             -0.6894   YZ=              1.5871

 Normal termination of Gaussian 16 at Sun Dec  3 22:20:25 2023.
