 Gaussian 16, Revision B.01,
 Gaussian 16:  ES64L-G16RevB.01 20-Dec-2017

 -------------------------
 #P B3LYP/6-311+g(d) force
 -------------------------

 -----
 DPGEN
 -----
 Symbolic Z-matrix:
 Charge =  0 Multiplicity = 2

                         Standard orientation:
 ---------------------------------------------------------------------
 Center     Atomic      Atomic             Coordinates (Angstroms)
 Number     Number       Type             X           Y           Z
 ---------------------------------------------------------------------
      1         11           0        2.982128    1.231559    0.228114
      2         11           0       -0.310388    2.877974   -0.269126
      3         11           0       -3.374301    0.586098   -0.241142
      4         11           0        2.458754   -2.157029   -0.154952
      5         11           0       -0.439973   -0.096888    2.012915
      6         11           0       -1.818326   -2.450091   -0.207011
      7         11           0        0.502105    0.008376   -1.368798
 ---------------------------------------------------------------------

 SCF Done:  E(UB3LYP) =  -1136.13198449     A.U. after   20 cycles

 The electronic state is 2-A.
 Alpha  occ. eigenvalues --  -38.44734 -38.44486 -38.43919 -38.43753 -38.43263
 Alpha  occ. eigenvalues --  -38.43075 -38.43064  -2.20526  -2.20323  -2.19746
 Alpha  occ. eigenvalues --   -2.19575  -2.19143  -2.19076  -2.18917  -1.14200
 Alpha  occ. eigenvalues --   -1.14180  -1.14168  -1.14018  -1.13982  -1.13950
 Alpha  occ. eigenvalues --   -1.13449  -1.13398  -1.13376  -1.13252  -1.13246
 Alpha  occ. eigenvalues --   -1.13208  -1.12834  -1.12776  -1.12763  -1.12754
 Alpha  occ. eigenvalues --   -1.12744  -1.12704  -1.12586  -1.12571  -1.12536
 Alpha  occ. eigenvalues --   -0.18373  -0.13450  -0.12073  -0.10163
 Alpha virt. eigenvalues --   -0.06223  -0.05614  -0.04452  -0.03264  -0.02447
 Alpha virt. eigenvalues --   -0.02146  -0.01982  -0.01331  -0.00702  -0.00497
 Alpha virt. eigenvalues --   -0.00017   0.00294   0.00697   0.00783   0.00830

  Beta  occ. eigenvalues --  -38.44728 -38.44483 -38.43916 -38.43747 -38.43163
  Beta  occ. eigenvalues --  -38.43068 -38.43019  -2.20517  -2.20320  -2.19743
  Beta  occ. eigenvalues --   -2.19568  -2.18996  -2.18959  -2.18908  -1.14181
  Beta  occ. eigenvalues --   -1.14171  -1.14163  -1.14014  -1.13965  -1.13950
  Beta  occ. eigenvalues --   -1.13442  -1.13386  -1.13374  -1.13248  -1.13216
  Beta  occ. eigenvalues --   -1.13207  -1.12743  -1.12704  -1.12668  -1.12647
  Beta  occ. eigenvalues --   -1.12635  -1.12623  -1.12564  -1.12546  -1.12532
  Beta  occ. eigenvalues --   -0.17693  -0.13248  -0.11844
  Beta virt. eigenvalues --   -0.06321  -0.06127  -0.05594  -0.04430  -0.02515
  Beta virt. eigenvalues --   -0.01889  -0.01763  -0.01290  -0.01083  -0.00746
  Beta virt. eigenvalues --   -0.00510   0.00155   0.00351   0.00765   0.00792

 Mulliken charges and spin densities:
               1          2
     1  Na   0.229482   0.033467
     2  Na   0.077886  -0.033311
     3  Na   0.099281   0.019019
     4  Na   0.228631  -0.055313
     5  Na  -0.433235   0.742730
     6  Na   0.109341  -0.047927
     7  Na  -0.311386   0.341335
 Sum of Mulliken charges =  -0.00000   1.00000

 Dipole moment (field-independent basis, Debye):
    X=              0.0147    Y=             -0.0344    Z=              0.1752  Tot=              0.1792
 Quadrupole moment (field-independent basis, Debye-Ang):
   XX=            -50.6407   YY=            -63.3739   ZZ=            -77.4427
   XY=             -0.2890   XZ=              2.1376   YZ=              0.5419

 Normal termination of Gaussian 16 at Thu Dec  7 17:29:19 2023.
