 Gaussian 16, Revision B.01,
 Gaussian 16:  ES64L-G16RevB.01 20-Dec-2017

 -------------------------
 #P B3LYP/6-311+g(d) force
 -------------------------

 -----
 DPGEN
 -----
 Symbolic Z-matrix:
 Charge =  0 Multiplicity = 2

                         Standard orientation:
 ---------------------------------------------------------------------
 Center     Atomic      Atomic             Coordinates (Angstroms)
 Number     Number       Type             X           Y           Z
 ---------------------------------------------------------------------
      1         11           0        2.784748   -1.504828   -0.175516
      2         11           0       -0.950611    2.576577    0.164526
      3         11           0       -3.251916    0.029150    0.044354
      4         11           0        2.375499    1.809014   -0.151555
      5         11           0       -1.001781   -2.587841   -0.308145
      6         11           0       -0.209855    0.158044   -1.579391
      7         11           0        0.253915   -0.480115    2.005729
 ---------------------------------------------------------------------

 SCF Done:  E(UB3LYP) =  -1136.13686613     A.U. after   19 cycles

 The electronic state is 2-A.
 Alpha  occ. eigenvalues --  -38.44338 -38.44044 -38.43606 -38.43422 -38.43304
 Alpha  occ. eigenvalues --  -38.43091 -38.43048  -2.20171  -2.19874  -2.19472
 Alpha  occ. eigenvalues --   -2.19324  -2.19187  -2.19118  -2.18942  -1.13841
 Alpha  occ. eigenvalues --   -1.13830  -1.13818  -1.13548  -1.13543  -1.13514
 Alpha  occ. eigenvalues --   -1.13156  -1.13133  -1.13112  -1.13007  -1.12961
 Alpha  occ. eigenvalues --   -1.12942  -1.12938  -1.12852  -1.12836  -1.12795
 Alpha  occ. eigenvalues --   -1.12752  -1.12715  -1.12598  -1.12591  -1.12561
 Alpha  occ. eigenvalues --   -0.18885  -0.13277  -0.12381  -0.10656
 Alpha virt. eigenvalues --   -0.05927  -0.05162  -0.04364  -0.03220  -0.02841
 Alpha virt. eigenvalues --   -0.02393  -0.01766  -0.01045  -0.00324  -0.00180
 Alpha virt. eigenvalues --   -0.00012   0.00346   0.00781   0.00881   0.00913

  Beta  occ. eigenvalues --  -38.44337 -38.44040 -38.43601 -38.43331 -38.43293
  Beta  occ. eigenvalues --  -38.43041 -38.43028  -2.20171  -2.19870  -2.19466
  Beta  occ. eigenvalues --   -2.19171  -2.19155  -2.19004  -2.18933  -1.13837
  Beta  occ. eigenvalues --   -1.13823  -1.13815  -1.13548  -1.13516  -1.13515
  Beta  occ. eigenvalues --   -1.13148  -1.13114  -1.13105  -1.12934  -1.12881
  Beta  occ. eigenvalues --   -1.12849  -1.12819  -1.12798  -1.12783  -1.12778
  Beta  occ. eigenvalues --   -1.12686  -1.12636  -1.12577  -1.12560  -1.12550
  Beta  occ. eigenvalues --   -0.18157  -0.13051  -0.12132
  Beta virt. eigenvalues --   -0.06730  -0.05880  -0.05170  -0.04332  -0.02443
  Beta virt. eigenvalues --   -0.02045  -0.01678  -0.01335  -0.00991  -0.00375
  Beta virt. eigenvalues --   -0.00216   0.00139   0.00375   0.00837   0.00877

 Mulliken charges and spin densities:
               1          2
     1  Na   0.257668  -0.065134
     2  Na   0.167570   0.005219
     3  Na   0.180702  -0.011107
     4  Na   0.161097  -0.012162
     5  Na   0.269849  -0.100491
     6  Na  -0.410444   0.429504
     7  Na  -0.626442   0.754172
 Sum of Mulliken charges =  -0.00000   1.00000

 Dipole moment (field-independent basis, Debye):
    X=             -0.0620    Y=             -0.1882    Z=              0.1650  Tot=              0.2579
 Quadrupole moment (field-independent basis, Debye-Ang):
   XX=            -53.1320   YY=            -64.9221   ZZ=            -74.7299
   XY=             -0.3593   XZ=             -1.1520   YZ=              1.3272

 Normal termination of Gaussian 16 at Thu Dec  7 10:23:26 2023.
