 Gaussian 16, Revision B.01,
 Gaussian 16:  ES64L-G16RevB.01 20-Dec-2017

 -------------------------
 #P B3LYP/6-311+g(d) force
 -------------------------

 -----
 DPGEN
 -----
 Symbolic Z-matrix:
 Charge =  0 Multiplicity = 2

                         Standard orientation:
 ---------------------------------------------------------------------
 Center     Atomic      Atomic             Coordinates (Angstroms)
 Number     Number       Type             X           Y           Z
 ---------------------------------------------------------------------
      1         11           0        1.793586    1.369149   -0.768587
      2         11           0       -1.097119    2.569304    0.146893
      3         11           0       -3.819551    0.506666   -0.155637
      4         11           0        4.650173   -0.757694   -1.235526
      5         11           0       -3.649787   -2.294135   -0.837577
      6         11           0       -0.600225   -0.373894    1.242153
      7         11           0        2.722922   -1.019396    1.608282
 ---------------------------------------------------------------------

 SCF Done:  E(UB3LYP) =  -1136.12047096     A.U. after   22 cycles

 The electronic state is 2-A.
 Alpha  occ. eigenvalues --  -38.44364 -38.44220 -38.44113 -38.43990 -38.43950
 Alpha  occ. eigenvalues --  -38.43896 -38.42983  -2.20228  -2.20114  -2.19967
 Alpha  occ. eigenvalues --   -2.19905  -2.19764  -2.19723  -2.18878  -1.13931
 Alpha  occ. eigenvalues --   -1.13916  -1.13878  -1.13834  -1.13768  -1.13747
 Alpha  occ. eigenvalues --   -1.13654  -1.13638  -1.13594  -1.13591  -1.13555
 Alpha  occ. eigenvalues --   -1.13512  -1.13419  -1.13415  -1.13378  -1.13369
 Alpha  occ. eigenvalues --   -1.13364  -1.13348  -1.12540  -1.12532  -1.12523
 Alpha  occ. eigenvalues --   -0.17564  -0.14598  -0.11712  -0.11070
 Alpha virt. eigenvalues --   -0.06684  -0.05247  -0.04089  -0.03986  -0.02804
 Alpha virt. eigenvalues --   -0.02328  -0.02207  -0.01566  -0.00732  -0.00504
 Alpha virt. eigenvalues --    0.00003   0.00193   0.00367   0.00387   0.00617

  Beta  occ. eigenvalues --  -38.44344 -38.44208 -38.44069 -38.43925 -38.43902
  Beta  occ. eigenvalues --  -38.43902 -38.42970  -2.20193  -2.20092  -2.19892
  Beta  occ. eigenvalues --   -2.19791  -2.19735  -2.19674  -2.18854  -1.13910
  Beta  occ. eigenvalues --   -1.13877  -1.13866  -1.13805  -1.13751  -1.13733
  Beta  occ. eigenvalues --   -1.13592  -1.13590  -1.13525  -1.13508  -1.13476
  Beta  occ. eigenvalues --   -1.13409  -1.13375  -1.13369  -1.13357  -1.13354
  Beta  occ. eigenvalues --   -1.13348  -1.13323  -1.12524  -1.12517  -1.12502
  Beta  occ. eigenvalues --   -0.16980  -0.14269  -0.11560
  Beta virt. eigenvalues --   -0.07189  -0.06467  -0.04811  -0.03871  -0.03777
  Beta virt. eigenvalues --   -0.02375  -0.02061  -0.01644  -0.01375  -0.00505
  Beta virt. eigenvalues --   -0.00301   0.00130   0.00303   0.00471   0.00557

 Mulliken charges and spin densities:
               1          2
     1  Na  -0.745486   0.254492
     2  Na   0.797841   0.120316
     3  Na   0.505676   0.143665
     4  Na   0.350611   0.138204
     5  Na   0.245825  -0.072054
     6  Na  -1.230993   0.408953
     7  Na   0.076526   0.006425
 Sum of Mulliken charges =  -0.00000   1.00000

 Dipole moment (field-independent basis, Debye):
    X=              0.2079    Y=             -0.1163    Z=             -0.1485  Tot=              0.2807
 Quadrupole moment (field-independent basis, Debye-Ang):
   XX=            -63.9805   YY=            -66.4943   ZZ=            -68.9686
   XY=             -5.0578   XZ=             -0.1771   YZ=              1.7083

 Normal termination of Gaussian 16 at Tue Nov 28 22:27:34 2023.
