 Gaussian 16, Revision B.01,
 Gaussian 16:  ES64L-G16RevB.01 20-Dec-2017

 -------------------------
 #P B3LYP/6-311+g(d) force
 -------------------------

 -----
 DPGEN
 -----
 Symbolic Z-matrix:
 Charge =  0 Multiplicity = 2

                         Standard orientation:
 ---------------------------------------------------------------------
 Center     Atomic      Atomic             Coordinates (Angstroms)
 Number     Number       Type             X           Y           Z
 ---------------------------------------------------------------------
      1         11           0        1.892200   -2.023220    1.624472
      2         11           0        0.081999   -1.040924   -1.490266
      3         11           0        4.325024   -0.049725   -0.425273
      4         11           0       -2.628475   -2.769319   -0.550047
      5         11           0       -3.973875    0.586620    0.903840
      6         11           0       -2.059191    3.015115   -0.267290
      7         11           0        2.362317    2.281452    0.204566
 ---------------------------------------------------------------------

 SCF Done:  E(UB3LYP) =  -1136.10610910     A.U. after   21 cycles

 The electronic state is 2-A.
 Alpha  occ. eigenvalues --  -38.45533 -38.44764 -38.44494 -38.44458 -38.44326
 Alpha  occ. eigenvalues --  -38.44044 -38.43808  -2.21331  -2.20548  -2.20277
 Alpha  occ. eigenvalues --   -2.20261  -2.20125  -2.19822  -2.19562  -1.15029
 Alpha  occ. eigenvalues --   -1.14994  -1.14960  -1.14230  -1.14211  -1.14164
 Alpha  occ. eigenvalues --   -1.13944  -1.13927  -1.13919  -1.13907  -1.13906
 Alpha  occ. eigenvalues --   -1.13902  -1.13781  -1.13759  -1.13733  -1.13488
 Alpha  occ. eigenvalues --   -1.13476  -1.13466  -1.13242  -1.13234  -1.13211
 Alpha  occ. eigenvalues --   -0.16448  -0.13926  -0.12056  -0.10081
 Alpha virt. eigenvalues --   -0.07391  -0.06029  -0.04637  -0.03276  -0.02745
 Alpha virt. eigenvalues --   -0.02651  -0.02508  -0.01786  -0.01312  -0.00711
 Alpha virt. eigenvalues --   -0.00227  -0.00059   0.00217   0.00335   0.00413

  Beta  occ. eigenvalues --  -38.45531 -38.44735 -38.44457 -38.44418 -38.44227
  Beta  occ. eigenvalues --  -38.44034 -38.43825  -2.21332  -2.20495  -2.20208
  Beta  occ. eigenvalues --   -2.20188  -2.19942  -2.19805  -2.19596  -1.15027
  Beta  occ. eigenvalues --   -1.14993  -1.14936  -1.14195  -1.14173  -1.14123
  Beta  occ. eigenvalues --   -1.13897  -1.13883  -1.13865  -1.13857  -1.13856
  Beta  occ. eigenvalues --   -1.13855  -1.13655  -1.13634  -1.13605  -1.13471
  Beta  occ. eigenvalues --   -1.13466  -1.13453  -1.13267  -1.13259  -1.13217
  Beta  occ. eigenvalues --   -0.15931  -0.13514  -0.11573
  Beta virt. eigenvalues --   -0.07331  -0.06716  -0.05677  -0.04484  -0.02992
  Beta virt. eigenvalues --   -0.02562  -0.02400  -0.01965  -0.01531  -0.00886
  Beta virt. eigenvalues --   -0.00559  -0.00133   0.00077   0.00349   0.00456

 Mulliken charges and spin densities:
               1          2
     1  Na  -0.098070   0.432365
     2  Na  -0.327966   0.306664
     3  Na   0.542643   0.075185
     4  Na   0.196136  -0.083818
     5  Na  -0.192890   0.213322
     6  Na   0.111220  -0.134414
     7  Na  -0.231073   0.190698
 Sum of Mulliken charges =  -0.00000   1.00000

 Dipole moment (field-independent basis, Debye):
    X=              0.9071    Y=             -0.5571    Z=             -0.1434  Tot=              1.0742
 Quadrupole moment (field-independent basis, Debye-Ang):
   XX=            -55.7131   YY=            -74.3444   ZZ=            -71.5119
   XY=              7.0652   XZ=             -5.5857   YZ=             -0.9281

 Normal termination of Gaussian 16 at Sun Dec  3 14:05:21 2023.
