 Gaussian 16, Revision B.01,
 Gaussian 16:  ES64L-G16RevB.01 20-Dec-2017

 -------------------------
 #P B3LYP/6-311+g(d) force
 -------------------------

 -----
 DPGEN
 -----
 Symbolic Z-matrix:
 Charge =  0 Multiplicity = 2

                         Standard orientation:
 ---------------------------------------------------------------------
 Center     Atomic      Atomic             Coordinates (Angstroms)
 Number     Number       Type             X           Y           Z
 ---------------------------------------------------------------------
      1         11           0        0.016593    3.249085   -0.097026
      2         11           0       -2.055187   -2.520495   -0.288586
      3         11           0       -2.961971    1.031613    0.020343
      4         11           0        0.163717    0.079990    2.128650
      5         11           0        3.128090    0.593431   -0.483022
      6         11           0        1.806084   -2.251039    0.266152
      7         11           0       -0.097326   -0.182583   -1.546511
 ---------------------------------------------------------------------

 SCF Done:  E(UB3LYP) =  -1136.13649911     A.U. after   20 cycles

 The electronic state is 2-A.
 Alpha  occ. eigenvalues --  -38.44184 -38.43965 -38.43717 -38.43699 -38.43625
 Alpha  occ. eigenvalues --  -38.43563 -38.43191  -2.19987  -2.19797  -2.19563
 Alpha  occ. eigenvalues --   -2.19496  -2.19445  -2.19437  -2.19151  -1.13673
 Alpha  occ. eigenvalues --   -1.13657  -1.13609  -1.13478  -1.13460  -1.13434
 Alpha  occ. eigenvalues --   -1.13239  -1.13193  -1.13186  -1.13173  -1.13152
 Alpha  occ. eigenvalues --   -1.13138  -1.13134  -1.13121  -1.13100  -1.13091
 Alpha  occ. eigenvalues --   -1.13079  -1.13063  -1.12842  -1.12785  -1.12771
 Alpha  occ. eigenvalues --   -0.18296  -0.12993  -0.12255  -0.10649
 Alpha virt. eigenvalues --   -0.05647  -0.05202  -0.05021  -0.03177  -0.02768
 Alpha virt. eigenvalues --   -0.02534  -0.01543  -0.01304  -0.00594  -0.00494
 Alpha virt. eigenvalues --   -0.00019   0.00338   0.00766   0.00828   0.00863

  Beta  occ. eigenvalues --  -38.44182 -38.43953 -38.43717 -38.43622 -38.43597
  Beta  occ. eigenvalues --  -38.43553 -38.43139  -2.19986  -2.19776  -2.19499
  Beta  occ. eigenvalues --   -2.19435  -2.19429  -2.19374  -2.19056  -1.13664
  Beta  occ. eigenvalues --   -1.13651  -1.13611  -1.13467  -1.13431  -1.13420
  Beta  occ. eigenvalues --   -1.13163  -1.13158  -1.13145  -1.13140  -1.13118
  Beta  occ. eigenvalues --   -1.13094  -1.13083  -1.13077  -1.13070  -1.13059
  Beta  occ. eigenvalues --   -1.13052  -1.13025  -1.12774  -1.12719  -1.12699
  Beta  occ. eigenvalues --   -0.17582  -0.12770  -0.12049
  Beta virt. eigenvalues --   -0.06727  -0.05639  -0.05158  -0.04934  -0.02410
  Beta virt. eigenvalues --   -0.02077  -0.01509  -0.01416  -0.01242  -0.00628
  Beta virt. eigenvalues --   -0.00514   0.00130   0.00377   0.00799   0.00852

 Mulliken charges and spin densities:
               1          2
     1  Na  -0.069185  -0.081006
     2  Na   0.144445  -0.033407
     3  Na   0.051576  -0.063908
     4  Na  -0.372131   0.695343
     5  Na   0.051963  -0.010968
     6  Na   0.346006   0.104356
     7  Na  -0.152674   0.389590
 Sum of Mulliken charges =  -0.00000   1.00000

 Dipole moment (field-independent basis, Debye):
    X=             -0.1133    Y=              0.1154    Z=              0.1122  Tot=              0.1968
 Quadrupole moment (field-independent basis, Debye-Ang):
   XX=            -57.1533   YY=            -60.7567   ZZ=            -75.2217
   XY=              0.5891   XZ=             -0.9259   YZ=             -0.6458

 Normal termination of Gaussian 16 at Fri Dec  8 03:47:24 2023.
