 Gaussian 16, Revision B.01,
 Gaussian 16:  ES64L-G16RevB.01 20-Dec-2017

 -------------------------
 #P B3LYP/6-311+g(d) force
 -------------------------

 -----
 DPGEN
 -----
 Symbolic Z-matrix:
 Charge =  0 Multiplicity = 2

                         Standard orientation:
 ---------------------------------------------------------------------
 Center     Atomic      Atomic             Coordinates (Angstroms)
 Number     Number       Type             X           Y           Z
 ---------------------------------------------------------------------
      1         11           0        2.586283   -1.401482   -0.299182
      2         11           0       -0.155904   -0.129434   -1.604466
      3         11           0        0.044125    0.126181    1.728370
      4         11           0       -0.500208   -2.718329    0.146389
      5         11           0       -1.335340    2.573524   -0.311066
      6         11           0        2.387586    1.914514    0.209470
      7         11           0       -3.026541   -0.364975    0.130485
 ---------------------------------------------------------------------

 SCF Done:  E(UB3LYP) =  -1136.13864277     A.U. after   19 cycles

 The electronic state is 2-A.
 Alpha  occ. eigenvalues --  -38.43890 -38.43677 -38.43617 -38.43446 -38.43093
 Alpha  occ. eigenvalues --  -38.43005 -38.42920  -2.19766  -2.19527  -2.19506
 Alpha  occ. eigenvalues --   -2.19320  -2.19017  -2.19007  -2.18969  -1.13443
 Alpha  occ. eigenvalues --   -1.13433  -1.13406  -1.13230  -1.13205  -1.13185
 Alpha  occ. eigenvalues --   -1.13169  -1.13163  -1.13115  -1.13026  -1.12983
 Alpha  occ. eigenvalues --   -1.12938  -1.12790  -1.12716  -1.12689  -1.12637
 Alpha  occ. eigenvalues --   -1.12622  -1.12616  -1.12606  -1.12579  -1.12563
 Alpha  occ. eigenvalues --   -0.19261  -0.13250  -0.12642  -0.10597
 Alpha virt. eigenvalues --   -0.05496  -0.05143  -0.04635  -0.03103  -0.02806
 Alpha virt. eigenvalues --   -0.02181  -0.01518  -0.01117  -0.00275  -0.00138
 Alpha virt. eigenvalues --    0.00049   0.00360   0.00838   0.00909   0.00926

  Beta  occ. eigenvalues --  -38.43884 -38.43672 -38.43609 -38.43437 -38.43084
  Beta  occ. eigenvalues --  -38.42925 -38.42848  -2.19759  -2.19520  -2.19493
  Beta  occ. eigenvalues --   -2.19306  -2.19005  -2.18862  -2.18839  -1.13440
  Beta  occ. eigenvalues --   -1.13414  -1.13390  -1.13226  -1.13184  -1.13175
  Beta  occ. eigenvalues --   -1.13159  -1.13137  -1.13108  -1.13010  -1.12955
  Beta  occ. eigenvalues --   -1.12930  -1.12756  -1.12662  -1.12626  -1.12613
  Beta  occ. eigenvalues --   -1.12531  -1.12519  -1.12507  -1.12484  -1.12481
  Beta  occ. eigenvalues --   -0.18540  -0.12977  -0.12355
  Beta virt. eigenvalues --   -0.06677  -0.05476  -0.05125  -0.04628  -0.02303
  Beta virt. eigenvalues --   -0.02016  -0.01433  -0.01156  -0.01035  -0.00312
  Beta virt. eigenvalues --   -0.00190   0.00165   0.00385   0.00883   0.00903

 Mulliken charges and spin densities:
               1          2
     1  Na   0.174971  -0.023065
     2  Na  -0.347379   0.561933
     3  Na  -0.378050   0.700030
     4  Na   0.216486  -0.037257
     5  Na   0.068618  -0.080631
     6  Na   0.077090  -0.070606
     7  Na   0.188264  -0.050404
 Sum of Mulliken charges =  -0.00000   1.00000

 Dipole moment (field-independent basis, Debye):
    X=             -0.0538    Y=              0.1379    Z=              0.0659  Tot=              0.1620
 Quadrupole moment (field-independent basis, Debye-Ang):
   XX=            -55.3418   YY=            -61.5082   ZZ=            -75.3319
   XY=              0.2794   XZ=             -0.6262   YZ=             -0.4931

 Normal termination of Gaussian 16 at Fri Dec  8 04:54:22 2023.
