 Gaussian 16, Revision B.01,
 Gaussian 16:  ES64L-G16RevB.01 20-Dec-2017

 -------------------------
 #P B3LYP/6-311+g(d) force
 -------------------------

 -----
 DPGEN
 -----
 Symbolic Z-matrix:
 Charge =  0 Multiplicity = 2

                         Standard orientation:
 ---------------------------------------------------------------------
 Center     Atomic      Atomic             Coordinates (Angstroms)
 Number     Number       Type             X           Y           Z
 ---------------------------------------------------------------------
      1         11           0        2.792650    1.339681    0.053649
      2         11           0       -0.121170    0.282742    1.811989
      3         11           0       -2.933885   -0.183928    0.252249
      4         11           0       -1.421127   -2.946110   -0.190158
      5         11           0       -1.182079    3.053337   -0.270664
      6         11           0       -0.043738    0.110763   -1.706892
      7         11           0        2.909348   -1.656484    0.049828
 ---------------------------------------------------------------------

 SCF Done:  E(UB3LYP) =  -1136.13260454     A.U. after   19 cycles

 The electronic state is 2-A.
 Alpha  occ. eigenvalues --  -38.44336 -38.44205 -38.43967 -38.43485 -38.43463
 Alpha  occ. eigenvalues --  -38.43424 -38.43259  -2.20161  -2.20070  -2.19863
 Alpha  occ. eigenvalues --   -2.19375  -2.19303  -2.19238  -2.19182  -1.13942
 Alpha  occ. eigenvalues --   -1.13815  -1.13799  -1.13725  -1.13715  -1.13658
 Alpha  occ. eigenvalues --   -1.13567  -1.13532  -1.13489  -1.13061  -1.13011
 Alpha  occ. eigenvalues --   -1.12986  -1.12969  -1.12961  -1.12951  -1.12916
 Alpha  occ. eigenvalues --   -1.12893  -1.12886  -1.12865  -1.12814  -1.12786
 Alpha  occ. eigenvalues --   -0.18412  -0.13530  -0.12082  -0.10395
 Alpha virt. eigenvalues --   -0.05726  -0.05405  -0.04960  -0.03340  -0.02588
 Alpha virt. eigenvalues --   -0.02277  -0.01644  -0.01377  -0.00677  -0.00432
 Alpha virt. eigenvalues --    0.00003   0.00352   0.00763   0.00787   0.00845

  Beta  occ. eigenvalues --  -38.44336 -38.44200 -38.43956 -38.43484 -38.43419
  Beta  occ. eigenvalues --  -38.43384 -38.43185  -2.20163  -2.20064  -2.19847
  Beta  occ. eigenvalues --   -2.19304  -2.19232  -2.19228  -2.19046  -1.13946
  Beta  occ. eigenvalues --   -1.13805  -1.13796  -1.13714  -1.13695  -1.13659
  Beta  occ. eigenvalues --   -1.13553  -1.13494  -1.13483  -1.12972  -1.12965
  Beta  occ. eigenvalues --   -1.12952  -1.12943  -1.12904  -1.12901  -1.12893
  Beta  occ. eigenvalues --   -1.12884  -1.12860  -1.12774  -1.12719  -1.12688
  Beta  occ. eigenvalues --   -0.17697  -0.13312  -0.11870
  Beta virt. eigenvalues --   -0.06531  -0.05629  -0.05407  -0.04916  -0.02548
  Beta virt. eigenvalues --   -0.01926  -0.01545  -0.01285  -0.01267  -0.00727
  Beta virt. eigenvalues --   -0.00453   0.00150   0.00379   0.00784   0.00835

 Mulliken charges and spin densities:
               1          2
     1  Na   0.239909  -0.057740
     2  Na  -0.103478   0.567226
     3  Na   0.333553   0.053066
     4  Na  -0.169498  -0.113324
     5  Na   0.026168  -0.107971
     6  Na  -0.202719   0.734687
     7  Na  -0.123936  -0.075944
 Sum of Mulliken charges =  -0.00000   1.00000

 Dipole moment (field-independent basis, Debye):
    X=              0.3822    Y=              0.0024    Z=              0.0487  Tot=              0.3853
 Quadrupole moment (field-independent basis, Debye-Ang):
   XX=            -57.1040   YY=            -59.7503   ZZ=            -76.6381
   XY=             -1.3685   XZ=              0.0581   YZ=             -0.2853

 Normal termination of Gaussian 16 at Tue Dec  5 20:50:07 2023.
