 Gaussian 16, Revision B.01,
 Gaussian 16:  ES64L-G16RevB.01 20-Dec-2017

 -------------------------
 #P B3LYP/6-311+g(d) force
 -------------------------

 -----
 DPGEN
 -----
 Symbolic Z-matrix:
 Charge =  0 Multiplicity = 2

                         Standard orientation:
 ---------------------------------------------------------------------
 Center     Atomic      Atomic             Coordinates (Angstroms)
 Number     Number       Type             X           Y           Z
 ---------------------------------------------------------------------
      1         11           0       -0.223511    0.020561   -1.818749
      2         11           0       -2.751129    1.027129    0.352875
      3         11           0       -1.915436   -2.174397   -0.331109
      4         11           0        1.654801   -2.479131    0.217644
      5         11           0        0.092389    2.897295   -0.032784
      6         11           0        3.017556    0.833763   -0.217515
      7         11           0        0.125330   -0.125219    1.829639
 ---------------------------------------------------------------------

 SCF Done:  E(UB3LYP) =  -1136.14098515     A.U. after   18 cycles

 The electronic state is 2-A.
 Alpha  occ. eigenvalues --  -38.43872 -38.43544 -38.43535 -38.43422 -38.43335
 Alpha  occ. eigenvalues --  -38.43322 -38.43322  -2.19688  -2.19426  -2.19385
 Alpha  occ. eigenvalues --   -2.19312  -2.19297  -2.19276  -2.19184  -1.13364
 Alpha  occ. eigenvalues --   -1.13350  -1.13330  -1.13127  -1.13109  -1.13095
 Alpha  occ. eigenvalues --   -1.13082  -1.13064  -1.13041  -1.13013  -1.12979
 Alpha  occ. eigenvalues --   -1.12955  -1.12938  -1.12927  -1.12913  -1.12899
 Alpha  occ. eigenvalues --   -1.12893  -1.12887  -1.12846  -1.12840  -1.12811
 Alpha  occ. eigenvalues --   -0.18911  -0.12929  -0.12653  -0.10859
 Alpha virt. eigenvalues --   -0.05370  -0.05061  -0.04783  -0.03170  -0.03001
 Alpha virt. eigenvalues --   -0.02544  -0.01351  -0.01125  -0.00278  -0.00216
 Alpha virt. eigenvalues --    0.00018   0.00372   0.00859   0.00905   0.00928

  Beta  occ. eigenvalues --  -38.43869 -38.43534 -38.43529 -38.43412 -38.43318
  Beta  occ. eigenvalues --  -38.43256 -38.43242  -2.19685  -2.19412  -2.19378
  Beta  occ. eigenvalues --   -2.19294  -2.19180  -2.19154  -2.19130  -1.13349
  Beta  occ. eigenvalues --   -1.13348  -1.13325  -1.13112  -1.13086  -1.13076
  Beta  occ. eigenvalues --   -1.13054  -1.13030  -1.13020  -1.13005  -1.12933
  Beta  occ. eigenvalues --   -1.12918  -1.12897  -1.12853  -1.12847  -1.12833
  Beta  occ. eigenvalues --   -1.12809  -1.12805  -1.12787  -1.12785  -1.12782
  Beta  occ. eigenvalues --   -0.18174  -0.12679  -0.12382
  Beta virt. eigenvalues --   -0.06944  -0.05357  -0.05038  -0.04747  -0.02380
  Beta virt. eigenvalues --   -0.02206  -0.01500  -0.01259  -0.01044  -0.00316
  Beta virt. eigenvalues --   -0.00267   0.00130   0.00390   0.00884   0.00912

 Mulliken charges and spin densities:
               1          2
     1  Na  -0.264876   0.671587
     2  Na   0.188541  -0.005856
     3  Na   0.249587  -0.024076
     4  Na   0.092644  -0.098043
     5  Na   0.027596  -0.100675
     6  Na  -0.050312  -0.104018
     7  Na  -0.243181   0.661081
 Sum of Mulliken charges =  -0.00000   1.00000

 Dipole moment (field-independent basis, Debye):
    X=              0.1631    Y=             -0.0031    Z=              0.0071  Tot=              0.1633
 Quadrupole moment (field-independent basis, Debye-Ang):
   XX=            -58.0941   YY=            -61.6134   ZZ=            -73.8061
   XY=              0.0246   XZ=             -0.9895   YZ=              0.3441

 Normal termination of Gaussian 16 at Thu Dec  7 03:41:16 2023.
