 Gaussian 16, Revision B.01,
 Gaussian 16:  ES64L-G16RevB.01 20-Dec-2017

 -------------------------
 #P B3LYP/6-311+g(d) force
 -------------------------

 -----
 DPGEN
 -----
 Symbolic Z-matrix:
 Charge =  0 Multiplicity = 2

                         Standard orientation:
 ---------------------------------------------------------------------
 Center     Atomic      Atomic             Coordinates (Angstroms)
 Number     Number       Type             X           Y           Z
 ---------------------------------------------------------------------
      1         11           0        0.620056   -2.587929   -0.169054
      2         11           0        1.357641    2.346336    0.367032
      3         11           0        0.157192   -0.350540    1.920343
      4         11           0       -2.303099    2.047905   -0.061098
      5         11           0        3.339546   -0.266977   -0.389208
      6         11           0       -2.811123   -1.490947    0.055945
      7         11           0       -0.360214    0.302152   -1.723959
 ---------------------------------------------------------------------

 SCF Done:  E(UB3LYP) =  -1136.13647475     A.U. after   20 cycles

 The electronic state is 2-A.
 Alpha  occ. eigenvalues --  -38.44347 -38.44103 -38.43651 -38.43416 -38.43357
 Alpha  occ. eigenvalues --  -38.43213 -38.43091  -2.20158  -2.19928  -2.19504
 Alpha  occ. eigenvalues --   -2.19355  -2.19324  -2.19092  -2.18982  -1.13823
 Alpha  occ. eigenvalues --   -1.13821  -1.13799  -1.13605  -1.13591  -1.13565
 Alpha  occ. eigenvalues --   -1.13246  -1.13156  -1.13129  -1.13061  -1.13018
 Alpha  occ. eigenvalues --   -1.12993  -1.12960  -1.12956  -1.12934  -1.12771
 Alpha  occ. eigenvalues --   -1.12757  -1.12709  -1.12668  -1.12652  -1.12582
 Alpha  occ. eigenvalues --   -0.18788  -0.13193  -0.12315  -0.10738
 Alpha virt. eigenvalues --   -0.05938  -0.05235  -0.04236  -0.03268  -0.02883
 Alpha virt. eigenvalues --   -0.02447  -0.01808  -0.01111  -0.00275  -0.00141
 Alpha virt. eigenvalues --   -0.00016   0.00333   0.00771   0.00874   0.00915

  Beta  occ. eigenvalues --  -38.44340 -38.44100 -38.43648 -38.43327 -38.43293
  Beta  occ. eigenvalues --  -38.43200 -38.43082  -2.20147  -2.19926  -2.19502
  Beta  occ. eigenvalues --   -2.19207  -2.19193  -2.19074  -2.18970  -1.13818
  Beta  occ. eigenvalues --   -1.13797  -1.13794  -1.13593  -1.13587  -1.13561
  Beta  occ. eigenvalues --   -1.13230  -1.13143  -1.13126  -1.12962  -1.12922
  Beta  occ. eigenvalues --   -1.12897  -1.12878  -1.12852  -1.12845  -1.12752
  Beta  occ. eigenvalues --   -1.12713  -1.12702  -1.12654  -1.12612  -1.12574
  Beta  occ. eigenvalues --   -0.18057  -0.12964  -0.12059
  Beta virt. eigenvalues --   -0.06848  -0.05864  -0.05222  -0.04208  -0.02521
  Beta virt. eigenvalues --   -0.02092  -0.01713  -0.01408  -0.01056  -0.00314
  Beta virt. eigenvalues --   -0.00161   0.00111   0.00358   0.00833   0.00868

 Mulliken charges and spin densities:
               1          2
     1  Na   0.166563  -0.055095
     2  Na   0.191782  -0.014436
     3  Na  -0.333401   0.649954
     4  Na   0.223682  -0.093036
     5  Na  -0.025961  -0.003794
     6  Na   0.132839  -0.114770
     7  Na  -0.355503   0.631177
 Sum of Mulliken charges =  -0.00000   1.00000

 Dipole moment (field-independent basis, Debye):
    X=             -0.0849    Y=             -0.0799    Z=              0.0104  Tot=              0.1170
 Quadrupole moment (field-independent basis, Debye-Ang):
   XX=            -52.7742   YY=            -66.0250   ZZ=            -74.0780
   XY=              0.1159   XZ=             -1.5922   YZ=              1.4019

 Normal termination of Gaussian 16 at Fri Dec  8 03:56:29 2023.
