 Gaussian 16, Revision B.01,
 Gaussian 16:  ES64L-G16RevB.01 20-Dec-2017

 -------------------------
 #P B3LYP/6-311+g(d) force
 -------------------------

 -----
 DPGEN
 -----
 Symbolic Z-matrix:
 Charge =  0 Multiplicity = 2

                         Standard orientation:
 ---------------------------------------------------------------------
 Center     Atomic      Atomic             Coordinates (Angstroms)
 Number     Number       Type             X           Y           Z
 ---------------------------------------------------------------------
      1         11           0       -0.019984    0.116808    1.997076
      2         11           0       -0.034601   -0.064916   -1.902362
      3         11           0       -1.306696   -2.418381    0.029915
      4         11           0        2.239372   -2.148391    0.220950
      5         11           0       -3.166464    0.328591   -0.235836
      6         11           0       -0.380910    2.781093    0.306685
      7         11           0        2.669283    1.405195   -0.416427
 ---------------------------------------------------------------------

 SCF Done:  E(UB3LYP) =  -1136.14023153     A.U. after   18 cycles

 The electronic state is 2-A.
 Alpha  occ. eigenvalues --  -38.43857 -38.43723 -38.43709 -38.43659 -38.43520
 Alpha  occ. eigenvalues --  -38.43273 -38.43194  -2.19688  -2.19629  -2.19586
 Alpha  occ. eigenvalues --   -2.19565  -2.19340  -2.19161  -2.19067  -1.13362
 Alpha  occ. eigenvalues --   -1.13358  -1.13332  -1.13308  -1.13280  -1.13275
 Alpha  occ. eigenvalues --   -1.13259  -1.13244  -1.13221  -1.13214  -1.13203
 Alpha  occ. eigenvalues --   -1.13185  -1.13012  -1.12997  -1.12986  -1.12844
 Alpha  occ. eigenvalues --   -1.12834  -1.12774  -1.12761  -1.12723  -1.12685
 Alpha  occ. eigenvalues --   -0.18722  -0.12900  -0.12452  -0.11114
 Alpha virt. eigenvalues --   -0.05418  -0.05072  -0.04577  -0.03276  -0.03082
 Alpha virt. eigenvalues --   -0.02840  -0.01451  -0.01031  -0.00235  -0.00124
 Alpha virt. eigenvalues --   -0.00019   0.00372   0.00813   0.00916   0.00924

  Beta  occ. eigenvalues --  -38.43854 -38.43714 -38.43620 -38.43582 -38.43518
  Beta  occ. eigenvalues --  -38.43266 -38.43185  -2.19684  -2.19552  -2.19465
  Beta  occ. eigenvalues --   -2.19445  -2.19338  -2.19153  -2.19055  -1.13359
  Beta  occ. eigenvalues --   -1.13345  -1.13321  -1.13245  -1.13208  -1.13200
  Beta  occ. eigenvalues --   -1.13193  -1.13170  -1.13154  -1.13127  -1.13125
  Beta  occ. eigenvalues --   -1.13092  -1.12998  -1.12997  -1.12979  -1.12839
  Beta  occ. eigenvalues --   -1.12805  -1.12767  -1.12743  -1.12695  -1.12682
  Beta  occ. eigenvalues --   -0.17964  -0.12654  -0.12199
  Beta virt. eigenvalues --   -0.07196  -0.05367  -0.05076  -0.04519  -0.02489
  Beta virt. eigenvalues --   -0.02280  -0.01798  -0.01359  -0.00957  -0.00254
  Beta virt. eigenvalues --   -0.00180   0.00093   0.00387   0.00882   0.00905

 Mulliken charges and spin densities:
               1          2
     1  Na  -0.324211   0.672554
     2  Na  -0.285215   0.628838
     3  Na   0.160834  -0.067515
     4  Na   0.025077  -0.080606
     5  Na   0.127505  -0.073278
     6  Na   0.192597  -0.047878
     7  Na   0.103414  -0.032114
 Sum of Mulliken charges =  -0.00000   1.00000

 Dipole moment (field-independent basis, Debye):
    X=             -0.0177    Y=              0.0279    Z=             -0.0323  Tot=              0.0463
 Quadrupole moment (field-independent basis, Debye-Ang):
   XX=            -57.6162   YY=            -64.5325   ZZ=            -72.2357
   XY=             -0.6252   XZ=              0.0131   YZ=             -0.6942

 Normal termination of Gaussian 16 at Tue Dec  5 22:54:38 2023.
