 Gaussian 16, Revision B.01,
 Gaussian 16:  ES64L-G16RevB.01 20-Dec-2017

 -------------------------
 #P B3LYP/6-311+g(d) force
 -------------------------

 -----
 DPGEN
 -----
 Symbolic Z-matrix:
 Charge =  0 Multiplicity = 2

                         Standard orientation:
 ---------------------------------------------------------------------
 Center     Atomic      Atomic             Coordinates (Angstroms)
 Number     Number       Type             X           Y           Z
 ---------------------------------------------------------------------
      1         11           0       -0.412748   -0.311837    2.125235
      2         11           0       -3.308777   -1.744750    0.143572
      3         11           0        0.835799    2.829021    0.056882
      4         11           0        3.426297    0.446478    0.181535
      5         11           0       -2.683214    1.447753   -0.470971
      6         11           0        2.411009   -2.473327   -0.420799
      7         11           0       -0.268366   -0.193337   -1.615455
 ---------------------------------------------------------------------

 SCF Done:  E(UB3LYP) =  -1136.12514843     A.U. after   23 cycles

 The electronic state is 2-A.
 Alpha  occ. eigenvalues --  -38.44838 -38.44577 -38.44307 -38.44304 -38.44115
 Alpha  occ. eigenvalues --  -38.43480 -38.42614  -2.20651  -2.20372  -2.20178
 Alpha  occ. eigenvalues --   -2.20125  -2.20003  -2.19295  -2.18430  -1.14325
 Alpha  occ. eigenvalues --   -1.14321  -1.14294  -1.14057  -1.14030  -1.14019
 Alpha  occ. eigenvalues --   -1.13914  -1.13831  -1.13792  -1.13780  -1.13760
 Alpha  occ. eigenvalues --   -1.13728  -1.13688  -1.13633  -1.13616  -1.12965
 Alpha  occ. eigenvalues --   -1.12951  -1.12940  -1.12108  -1.12094  -1.12078
 Alpha  occ. eigenvalues --   -0.17960  -0.13802  -0.11510  -0.10661
 Alpha virt. eigenvalues --   -0.06671  -0.05689  -0.04245  -0.03461  -0.02755
 Alpha virt. eigenvalues --   -0.02369  -0.02260  -0.01442  -0.00755  -0.00307
 Alpha virt. eigenvalues --   -0.00166   0.00228   0.00549   0.00573   0.00730

  Beta  occ. eigenvalues --  -38.44840 -38.44577 -38.44285 -38.44207 -38.44059
  Beta  occ. eigenvalues --  -38.43476 -38.42615  -2.20656  -2.20374  -2.20146
  Beta  occ. eigenvalues --   -2.19940  -2.19902  -2.19287  -2.18433  -1.14330
  Beta  occ. eigenvalues --   -1.14316  -1.14296  -1.14062  -1.14024  -1.14007
  Beta  occ. eigenvalues --   -1.13878  -1.13790  -1.13765  -1.13669  -1.13634
  Beta  occ. eigenvalues --   -1.13613  -1.13593  -1.13558  -1.13545  -1.12963
  Beta  occ. eigenvalues --   -1.12939  -1.12931  -1.12112  -1.12090  -1.12072
  Beta  occ. eigenvalues --   -0.17264  -0.13646  -0.11305
  Beta virt. eigenvalues --   -0.06839  -0.06459  -0.05606  -0.04149  -0.02865
  Beta virt. eigenvalues --   -0.02162  -0.01855  -0.01660  -0.01254  -0.00757
  Beta virt. eigenvalues --   -0.00315   0.00025   0.00271   0.00658   0.00732

 Mulliken charges and spin densities:
               1          2
     1  Na  -0.398653   0.643025
     2  Na   0.060510   0.042854
     3  Na  -0.182149  -0.017345
     4  Na  -0.013445  -0.021063
     5  Na   0.434301   0.155353
     6  Na   0.198587   0.028799
     7  Na  -0.099152   0.168378
 Sum of Mulliken charges =  -0.00000   1.00000

 Dipole moment (field-independent basis, Debye):
    X=             -0.4936    Y=             -0.2241    Z=              0.1137  Tot=              0.5539
 Quadrupole moment (field-independent basis, Debye-Ang):
   XX=            -52.3032   YY=            -67.5611   ZZ=            -75.3541
   XY=              2.4081   XZ=              1.2820   YZ=              0.4162

 Normal termination of Gaussian 16 at Thu Dec  7 23:35:14 2023.
