 Gaussian 16, Revision B.01,
 Gaussian 16:  ES64L-G16RevB.01 20-Dec-2017

 -------------------------
 #P B3LYP/6-311+g(d) force
 -------------------------

 -----
 DPGEN
 -----
 Symbolic Z-matrix:
 Charge =  0 Multiplicity = 2

                         Standard orientation:
 ---------------------------------------------------------------------
 Center     Atomic      Atomic             Coordinates (Angstroms)
 Number     Number       Type             X           Y           Z
 ---------------------------------------------------------------------
      1         11           0       -2.547590    1.784406    0.769375
      2         11           0       -1.174151    0.290910   -1.564719
      3         11           0        1.430885    1.778273   -0.696038
      4         11           0        3.761215   -0.056983    0.452193
      5         11           0        0.030505   -0.505320    1.815134
      6         11           0        1.375606   -1.621454   -0.674814
      7         11           0       -2.876470   -1.669833   -0.101131
 ---------------------------------------------------------------------

 SCF Done:  E(UB3LYP) =  -1136.11562018     A.U. after   26 cycles

 The electronic state is 2-A.
 Alpha  occ. eigenvalues --  -38.45493 -38.44330 -38.44268 -38.43866 -38.43455
 Alpha  occ. eigenvalues --  -38.43083 -38.42890  -2.21351  -2.20190  -2.20173
 Alpha  occ. eigenvalues --   -2.19728  -2.19429  -2.19149  -2.18815  -1.15038
 Alpha  occ. eigenvalues --   -1.15008  -1.14979  -1.13931  -1.13916  -1.13832
 Alpha  occ. eigenvalues --   -1.13811  -1.13802  -1.13765  -1.13428  -1.13385
 Alpha  occ. eigenvalues --   -1.13345  -1.13151  -1.13092  -1.13032  -1.12869
 Alpha  occ. eigenvalues --   -1.12785  -1.12743  -1.12512  -1.12473  -1.12423
 Alpha  occ. eigenvalues --   -0.19260  -0.14537  -0.11138  -0.10922
 Alpha virt. eigenvalues --   -0.07137  -0.05220  -0.04247  -0.02994  -0.02743
 Alpha virt. eigenvalues --   -0.02270  -0.02171  -0.01125  -0.00652   0.00003
 Alpha virt. eigenvalues --    0.00154   0.00260   0.00451   0.00700   0.00782

  Beta  occ. eigenvalues --  -38.45489 -38.44317 -38.44217 -38.43843 -38.43435
  Beta  occ. eigenvalues --  -38.43019 -38.42870  -2.21343  -2.20168  -2.20080
  Beta  occ. eigenvalues --   -2.19687  -2.19396  -2.19036  -2.18784  -1.15033
  Beta  occ. eigenvalues --   -1.15006  -1.14965  -1.13909  -1.13852  -1.13801
  Beta  occ. eigenvalues --   -1.13788  -1.13740  -1.13701  -1.13403  -1.13344
  Beta  occ. eigenvalues --   -1.13312  -1.13132  -1.13023  -1.13018  -1.12784
  Beta  occ. eigenvalues --   -1.12707  -1.12653  -1.12483  -1.12427  -1.12403
  Beta  occ. eigenvalues --   -0.18508  -0.14325  -0.10698
  Beta virt. eigenvalues --   -0.07159  -0.06934  -0.05193  -0.03602  -0.02839
  Beta virt. eigenvalues --   -0.02527  -0.01687  -0.01343  -0.01001  -0.00331
  Beta virt. eigenvalues --    0.00041   0.00185   0.00255   0.00632   0.00750

 Mulliken charges and spin densities:
               1          2
     1  Na  -0.186281   0.213242
     2  Na   0.251296   0.164203
     3  Na  -0.491626  -0.006109
     4  Na   0.621994   0.093574
     5  Na  -0.371411   0.477891
     6  Na  -0.066233   0.066754
     7  Na   0.242262  -0.009556
 Sum of Mulliken charges =  -0.00000   1.00000

 Dipole moment (field-independent basis, Debye):
    X=              0.6343    Y=             -0.1813    Z=              0.5955  Tot=              0.8887
 Quadrupole moment (field-independent basis, Debye-Ang):
   XX=            -43.9092   YY=            -76.4373   ZZ=            -71.5104
   XY=              0.8733   XZ=              0.4580   YZ=              2.8643

 Normal termination of Gaussian 16 at Thu Dec  7 17:35:09 2023.
