 Gaussian 16, Revision B.01,
 Gaussian 16:  ES64L-G16RevB.01 20-Dec-2017

 -------------------------
 #P B3LYP/6-311+g(d) force
 -------------------------

 -----
 DPGEN
 -----
 Symbolic Z-matrix:
 Charge =  0 Multiplicity = 2

                         Standard orientation:
 ---------------------------------------------------------------------
 Center     Atomic      Atomic             Coordinates (Angstroms)
 Number     Number       Type             X           Y           Z
 ---------------------------------------------------------------------
      1         11           0       -0.470570    2.704254   -0.487603
      2         11           0        2.444663   -1.734469    0.238046
      3         11           0       -0.293728    0.327840    1.852375
      4         11           0       -3.265757    0.069911    0.218643
      5         11           0        2.538442    1.336188    0.136693
      6         11           0        0.052789   -0.258833   -1.766286
      7         11           0       -1.005840   -2.444891   -0.191868
 ---------------------------------------------------------------------

 SCF Done:  E(UB3LYP) =  -1136.13506820     A.U. after   19 cycles

 The electronic state is 2-A.
 Alpha  occ. eigenvalues --  -38.44312 -38.43595 -38.43514 -38.43500 -38.43345
 Alpha  occ. eigenvalues --  -38.43237 -38.43094  -2.20136  -2.19507  -2.19446
 Alpha  occ. eigenvalues --   -2.19396  -2.19364  -2.19163  -2.18982  -1.13814
 Alpha  occ. eigenvalues --   -1.13789  -1.13778  -1.13259  -1.13190  -1.13178
 Alpha  occ. eigenvalues --   -1.13166  -1.13120  -1.13085  -1.13059  -1.13050
 Alpha  occ. eigenvalues --   -1.13040  -1.13015  -1.13012  -1.12950  -1.12808
 Alpha  occ. eigenvalues --   -1.12797  -1.12750  -1.12661  -1.12640  -1.12599
 Alpha  occ. eigenvalues --   -0.19176  -0.13288  -0.12456  -0.10988
 Alpha virt. eigenvalues --   -0.05803  -0.04796  -0.04401  -0.03327  -0.02984
 Alpha virt. eigenvalues --   -0.02536  -0.01690  -0.00892  -0.00142   0.00001
 Alpha virt. eigenvalues --    0.00015   0.00356   0.00835   0.00934   0.00962

  Beta  occ. eigenvalues --  -38.44307 -38.43589 -38.43509 -38.43426 -38.43262
  Beta  occ. eigenvalues --  -38.43227 -38.43080  -2.20130  -2.19499  -2.19390
  Beta  occ. eigenvalues --   -2.19311  -2.19216  -2.19146  -2.18958  -1.13797
  Beta  occ. eigenvalues --   -1.13783  -1.13773  -1.13256  -1.13168  -1.13130
  Beta  occ. eigenvalues --   -1.13111  -1.13037  -1.13036  -1.13030  -1.13003
  Beta  occ. eigenvalues --   -1.12989  -1.12958  -1.12912  -1.12853  -1.12783
  Beta  occ. eigenvalues --   -1.12751  -1.12731  -1.12641  -1.12601  -1.12585
  Beta  occ. eigenvalues --   -0.18440  -0.13018  -0.12184
  Beta virt. eigenvalues --   -0.07063  -0.05736  -0.04802  -0.04372  -0.02539
  Beta virt. eigenvalues --   -0.02181  -0.01596  -0.01472  -0.00834  -0.00148
  Beta virt. eigenvalues --   -0.00044   0.00121   0.00380   0.00872   0.00928

 Mulliken charges and spin densities:
               1          2
     1  Na   0.150367  -0.042594
     2  Na   0.023172  -0.033818
     3  Na  -0.501495   0.671862
     4  Na   0.101152  -0.071236
     5  Na   0.219790   0.004269
     6  Na  -0.317860   0.520172
     7  Na   0.324874  -0.048654
 Sum of Mulliken charges =  -0.00000   1.00000

 Dipole moment (field-independent basis, Debye):
    X=             -0.3722    Y=              0.0792    Z=              0.1713  Tot=              0.4173
 Quadrupole moment (field-independent basis, Debye-Ang):
   XX=            -55.1669   YY=            -65.5573   ZZ=            -73.1227
   XY=             -0.7011   XZ=              0.6461   YZ=             -1.3067

 Normal termination of Gaussian 16 at Fri Dec  8 01:08:51 2023.
