 Gaussian 16, Revision B.01,
 Gaussian 16:  ES64L-G16RevB.01 20-Dec-2017

 -------------------------
 #P B3LYP/6-311+g(d) force
 -------------------------

 -----
 DPGEN
 -----
 Symbolic Z-matrix:
 Charge =  0 Multiplicity = 2

                         Standard orientation:
 ---------------------------------------------------------------------
 Center     Atomic      Atomic             Coordinates (Angstroms)
 Number     Number       Type             X           Y           Z
 ---------------------------------------------------------------------
      1         11           0       -0.042974    0.139149   -1.805526
      2         11           0       -0.567183   -1.939237   -0.152240
      3         11           0       -2.682470   -0.218878    0.064414
      4         11           0       -0.967134    1.888226    0.080166
      5         11           0        0.180333   -0.152141    1.935268
      6         11           0        1.894500    1.534048   -0.014210
      7         11           0        2.184927   -1.251167   -0.107872
 ---------------------------------------------------------------------

 SCF Done:  E(UB3LYP) =  -1136.07932553     A.U. after   19 cycles

 The electronic state is 2-A.
 Alpha  occ. eigenvalues --  -38.44494 -38.44349 -38.44229 -38.43673 -38.43469
 Alpha  occ. eigenvalues --  -38.43411 -38.43377  -2.20752  -2.20510  -2.20309
 Alpha  occ. eigenvalues --   -2.19782  -2.19631  -2.19590  -2.19555  -1.14572
 Alpha  occ. eigenvalues --   -1.14505  -1.14360  -1.14275  -1.14172  -1.14152
 Alpha  occ. eigenvalues --   -1.14113  -1.14075  -1.13881  -1.13615  -1.13577
 Alpha  occ. eigenvalues --   -1.13400  -1.13390  -1.13248  -1.13227  -1.13203
 Alpha  occ. eigenvalues --   -1.13184  -1.13159  -1.13136  -1.13110  -1.13020
 Alpha  occ. eigenvalues --   -0.21746  -0.14039  -0.12690  -0.12529
 Alpha virt. eigenvalues --   -0.05298  -0.04205  -0.03921  -0.03868  -0.03183
 Alpha virt. eigenvalues --   -0.03019  -0.01149  -0.00384  -0.00150   0.00334
 Alpha virt. eigenvalues --    0.00770   0.00852   0.01046   0.01169   0.01248

  Beta  occ. eigenvalues --  -38.44397 -38.44249 -38.44222 -38.43662 -38.43457
  Beta  occ. eigenvalues --  -38.43391 -38.43361  -2.20578  -2.20330  -2.20301
  Beta  occ. eigenvalues --   -2.19768  -2.19604  -2.19573  -2.19535  -1.14475
  Beta  occ. eigenvalues --   -1.14378  -1.14244  -1.14173  -1.14115  -1.14089
  Beta  occ. eigenvalues --   -1.14038  -1.13985  -1.13832  -1.13612  -1.13566
  Beta  occ. eigenvalues --   -1.13392  -1.13329  -1.13224  -1.13167  -1.13148
  Beta  occ. eigenvalues --   -1.13135  -1.13130  -1.13105  -1.13086  -1.13015
  Beta  occ. eigenvalues --   -0.20877  -0.13660  -0.12303
  Beta virt. eigenvalues --   -0.08326  -0.05323  -0.04199  -0.03783  -0.02920
  Beta virt. eigenvalues --   -0.02261  -0.01995  -0.01067  -0.00350   0.00012
  Beta virt. eigenvalues --    0.00357   0.00778   0.00827   0.01079   0.01164

 Mulliken charges and spin densities:
               1          2
     1  Na  -0.051439   0.452671
     2  Na   0.092737   0.031976
     3  Na  -0.120387  -0.059938
     4  Na   0.103691   0.056181
     5  Na  -0.187126   0.525698
     6  Na   0.073077   0.011533
     7  Na   0.089447  -0.018120
 Sum of Mulliken charges =  -0.00000   1.00000

 Dipole moment (field-independent basis, Debye):
    X=              0.0246    Y=              0.0127    Z=              0.2531  Tot=              0.2546
 Quadrupole moment (field-independent basis, Debye-Ang):
   XX=            -59.3520   YY=            -72.1332   ZZ=            -66.8356
   XY=              0.0447   XZ=             -0.4564   YZ=              0.4554

 Normal termination of Gaussian 16 at Sat Dec  9 06:15:19 2023.
