 Gaussian 16, Revision B.01,
 Gaussian 16:  ES64L-G16RevB.01 20-Dec-2017

 -------------------------
 #P B3LYP/6-311+g(d) force
 -------------------------

 -----
 DPGEN
 -----
 Symbolic Z-matrix:
 Charge =  0 Multiplicity = 2

                         Standard orientation:
 ---------------------------------------------------------------------
 Center     Atomic      Atomic             Coordinates (Angstroms)
 Number     Number       Type             X           Y           Z
 ---------------------------------------------------------------------
      1         11           0        1.887051    2.491733   -0.059213
      2         11           0        3.146545   -0.796155    0.266809
      3         11           0        0.372483   -2.625057   -0.449755
      4         11           0        0.017389    0.249597   -1.555645
      5         11           0       -3.002132   -1.273627    0.190443
      6         11           0        0.019045   -0.113737    1.610578
      7         11           0       -2.440382    2.067247   -0.003217
 ---------------------------------------------------------------------

 SCF Done:  E(UB3LYP) =  -1136.13371164     A.U. after   20 cycles

 The electronic state is 2-A.
 Alpha  occ. eigenvalues --  -38.44363 -38.44268 -38.44087 -38.43643 -38.43200
 Alpha  occ. eigenvalues --  -38.42800 -38.42743  -2.20206  -2.20096  -2.19908
 Alpha  occ. eigenvalues --   -2.19473  -2.19180  -2.18768  -2.18720  -1.13877
 Alpha  occ. eigenvalues --   -1.13861  -1.13849  -1.13768  -1.13759  -1.13740
 Alpha  occ. eigenvalues --   -1.13584  -1.13567  -1.13539  -1.13163  -1.13136
 Alpha  occ. eigenvalues --   -1.13105  -1.12922  -1.12812  -1.12781  -1.12530
 Alpha  occ. eigenvalues --   -1.12442  -1.12375  -1.12371  -1.12329  -1.12323
 Alpha  occ. eigenvalues --   -0.18857  -0.13481  -0.12190  -0.10182
 Alpha virt. eigenvalues --   -0.06024  -0.05658  -0.04263  -0.03133  -0.02506
 Alpha virt. eigenvalues --   -0.01996  -0.01900  -0.01350  -0.00555  -0.00275
 Alpha virt. eigenvalues --    0.00040   0.00316   0.00711   0.00795   0.00891

  Beta  occ. eigenvalues --  -38.44353 -38.44262 -38.44085 -38.43640 -38.43137
  Beta  occ. eigenvalues --  -38.42783 -38.42665  -2.20192  -2.20088  -2.19905
  Beta  occ. eigenvalues --   -2.19470  -2.19066  -2.18694  -2.18626  -1.13860
  Beta  occ. eigenvalues --   -1.13844  -1.13836  -1.13757  -1.13750  -1.13728
  Beta  occ. eigenvalues --   -1.13574  -1.13561  -1.13534  -1.13155  -1.13123
  Beta  occ. eigenvalues --   -1.13099  -1.12839  -1.12734  -1.12693  -1.12469
  Beta  occ. eigenvalues --   -1.12347  -1.12332  -1.12322  -1.12268  -1.12240
  Beta  occ. eigenvalues --   -0.18163  -0.13220  -0.11925
  Beta virt. eigenvalues --   -0.06351  -0.05925  -0.05661  -0.04254  -0.02386
  Beta virt. eigenvalues --   -0.01866  -0.01772  -0.01325  -0.00912  -0.00602
  Beta virt. eigenvalues --   -0.00278   0.00171   0.00357   0.00762   0.00791

 Mulliken charges and spin densities:
               1          2
     1  Na  -0.011392  -0.113906
     2  Na   0.194015   0.056886
     3  Na   0.175739   0.035682
     4  Na  -0.163755   0.500719
     5  Na   0.141460   0.012766
     6  Na  -0.351786   0.617576
     7  Na   0.015719  -0.109723
 Sum of Mulliken charges =  -0.00000   1.00000

 Dipole moment (field-independent basis, Debye):
    X=             -0.1216    Y=              0.1672    Z=              0.1068  Tot=              0.2327
 Quadrupole moment (field-independent basis, Debye-Ang):
   XX=            -50.2396   YY=            -62.8782   ZZ=            -77.3134
   XY=             -0.0127   XZ=              0.1326   YZ=              0.5923

 Normal termination of Gaussian 16 at Tue Nov 28 21:23:40 2023.
