 Gaussian 16, Revision B.01,
 Gaussian 16:  ES64L-G16RevB.01 20-Dec-2017

 -------------------------
 #P B3LYP/6-311+g(d) force
 -------------------------

 -----
 DPGEN
 -----
 Symbolic Z-matrix:
 Charge =  0 Multiplicity = 2

                         Standard orientation:
 ---------------------------------------------------------------------
 Center     Atomic      Atomic             Coordinates (Angstroms)
 Number     Number       Type             X           Y           Z
 ---------------------------------------------------------------------
      1         11           0        2.844469    0.241621    0.315799
      2         11           0       -0.230097   -0.472929    1.899189
      3         11           0        0.030426    0.335074   -1.686201
      4         11           0        1.383549   -2.800555   -0.640155
      5         11           0       -2.360932   -1.670887    0.276803
      6         11           0       -2.644641    1.420441   -0.356415
      7         11           0        0.977225    2.947235    0.190980
 ---------------------------------------------------------------------

 SCF Done:  E(UB3LYP) =  -1136.13529621     A.U. after   19 cycles

 The electronic state is 2-A.
 Alpha  occ. eigenvalues --  -38.43747 -38.43740 -38.43669 -38.43665 -38.43532
 Alpha  occ. eigenvalues --  -38.43497 -38.43263  -2.19656  -2.19623  -2.19604
 Alpha  occ. eigenvalues --   -2.19541  -2.19351  -2.19336  -2.19235  -1.13511
 Alpha  occ. eigenvalues --   -1.13373  -1.13312  -1.13287  -1.13266  -1.13254
 Alpha  occ. eigenvalues --   -1.13223  -1.13218  -1.13205  -1.13192  -1.13180
 Alpha  occ. eigenvalues --   -1.13170  -1.13026  -1.13018  -1.13000  -1.12992
 Alpha  occ. eigenvalues --   -1.12990  -1.12972  -1.12909  -1.12867  -1.12842
 Alpha  occ. eigenvalues --   -0.18792  -0.13231  -0.12450  -0.10880
 Alpha virt. eigenvalues --   -0.05234  -0.05124  -0.04932  -0.03335  -0.03038
 Alpha virt. eigenvalues --   -0.02440  -0.01321  -0.01203  -0.00316  -0.00176
 Alpha virt. eigenvalues --    0.00025   0.00361   0.00853   0.00885   0.00911

  Beta  occ. eigenvalues --  -38.43738 -38.43729 -38.43657 -38.43588 -38.43515
  Beta  occ. eigenvalues --  -38.43494 -38.43197  -2.19637  -2.19608  -2.19530
  Beta  occ. eigenvalues --   -2.19459  -2.19334  -2.19321  -2.19116  -1.13460
  Beta  occ. eigenvalues --   -1.13360  -1.13289  -1.13253  -1.13245  -1.13230
  Beta  occ. eigenvalues --   -1.13196  -1.13193  -1.13167  -1.13146  -1.13100
  Beta  occ. eigenvalues --   -1.13088  -1.13011  -1.12990  -1.12986  -1.12982
  Beta  occ. eigenvalues --   -1.12966  -1.12963  -1.12831  -1.12782  -1.12756
  Beta  occ. eigenvalues --   -0.18091  -0.12950  -0.12184
  Beta virt. eigenvalues --   -0.07030  -0.05200  -0.05040  -0.04852  -0.02539
  Beta virt. eigenvalues --   -0.02330  -0.01471  -0.01207  -0.01110  -0.00325
  Beta virt. eigenvalues --   -0.00197   0.00135   0.00393   0.00877   0.00911

 Mulliken charges and spin densities:
               1          2
     1  Na   0.122314   0.014783
     2  Na  -0.235362   0.516968
     3  Na  -0.149041   0.545685
     4  Na  -0.054651   0.025362
     5  Na   0.362947   0.031859
     6  Na   0.046431  -0.075487
     7  Na  -0.092638  -0.059171
 Sum of Mulliken charges =  -0.00000   1.00000

 Dipole moment (field-independent basis, Debye):
    X=             -0.0593    Y=              0.0466    Z=              0.0641  Tot=              0.0990
 Quadrupole moment (field-independent basis, Debye-Ang):
   XX=            -59.8381   YY=            -60.8152   ZZ=            -73.5989
   XY=             -0.4909   XZ=              0.8204   YZ=              1.9127

 Normal termination of Gaussian 16 at Thu Dec  7 13:14:02 2023.
