 Gaussian 16, Revision B.01,
 Gaussian 16:  ES64L-G16RevB.01 20-Dec-2017

 -------------------------
 #P B3LYP/6-311+g(d) force
 -------------------------

 -----
 DPGEN
 -----
 Symbolic Z-matrix:
 Charge =  0 Multiplicity = 2

                         Standard orientation:
 ---------------------------------------------------------------------
 Center     Atomic      Atomic             Coordinates (Angstroms)
 Number     Number       Type             X           Y           Z
 ---------------------------------------------------------------------
      1         11           0       -0.205551    2.815495    0.600017
      2         11           0        2.327379   -2.135272   -0.599657
      3         11           0        0.832626   -0.374329    1.927369
      4         11           0       -4.112278    0.042205   -0.348705
      5         11           0       -1.323757   -1.996636    0.465738
      6         11           0       -0.455745    0.427872   -1.503910
      7         11           0        2.937326    1.220665   -0.540852
 ---------------------------------------------------------------------

 SCF Done:  E(UB3LYP) =  -1136.12837517     A.U. after   20 cycles

 The electronic state is 2-A.
 Alpha  occ. eigenvalues --  -38.44957 -38.44212 -38.44026 -38.43440 -38.43396
 Alpha  occ. eigenvalues --  -38.43258 -38.43161  -2.20711  -2.20052  -2.19934
 Alpha  occ. eigenvalues --   -2.19347  -2.19284  -2.19158  -2.18999  -1.14383
 Alpha  occ. eigenvalues --   -1.14371  -1.14333  -1.13733  -1.13720  -1.13670
 Alpha  occ. eigenvalues --   -1.13652  -1.13614  -1.13528  -1.13098  -1.12995
 Alpha  occ. eigenvalues --   -1.12961  -1.12949  -1.12937  -1.12901  -1.12853
 Alpha  occ. eigenvalues --   -1.12824  -1.12727  -1.12685  -1.12657  -1.12614
 Alpha  occ. eigenvalues --   -0.18421  -0.13203  -0.11940  -0.10796
 Alpha virt. eigenvalues --   -0.06709  -0.04849  -0.04157  -0.03172  -0.02872
 Alpha virt. eigenvalues --   -0.02522  -0.02249  -0.01100  -0.00572  -0.00203
 Alpha virt. eigenvalues --    0.00037   0.00197   0.00542   0.00738   0.00807

  Beta  occ. eigenvalues --  -38.44948 -38.44189 -38.44000 -38.43423 -38.43309
  Beta  occ. eigenvalues --  -38.43240 -38.43146  -2.20694  -2.20013  -2.19887
  Beta  occ. eigenvalues --   -2.19256  -2.19188  -2.19130  -2.18973  -1.14368
  Beta  occ. eigenvalues --   -1.14360  -1.14322  -1.13700  -1.13692  -1.13633
  Beta  occ. eigenvalues --   -1.13614  -1.13580  -1.13490  -1.13002  -1.12950
  Beta  occ. eigenvalues --   -1.12926  -1.12887  -1.12858  -1.12836  -1.12818
  Beta  occ. eigenvalues --   -1.12771  -1.12699  -1.12670  -1.12619  -1.12600
  Beta  occ. eigenvalues --   -0.17740  -0.12885  -0.11728
  Beta virt. eigenvalues --   -0.07053  -0.06432  -0.04764  -0.04069  -0.02651
  Beta virt. eigenvalues --   -0.02320  -0.02176  -0.01375  -0.01076  -0.00433
  Beta virt. eigenvalues --   -0.00022   0.00056   0.00264   0.00658   0.00798

 Mulliken charges and spin densities:
               1          2
     1  Na  -0.161917  -0.085441
     2  Na  -0.152676   0.093715
     3  Na   0.157001   0.499688
     4  Na   0.165631   0.025911
     5  Na  -0.039016  -0.150018
     6  Na  -0.147164   0.473268
     7  Na   0.178141   0.142876
 Sum of Mulliken charges =  -0.00000   1.00000

 Dipole moment (field-independent basis, Debye):
    X=             -0.4292    Y=              0.2910    Z=              0.0234  Tot=              0.5191
 Quadrupole moment (field-independent basis, Debye-Ang):
   XX=            -51.4839   YY=            -68.7988   ZZ=            -72.2227
   XY=             -1.1253   XZ=             -1.0912   YZ=              1.8118

 Normal termination of Gaussian 16 at Tue Dec  5 15:36:57 2023.
