 Gaussian 16, Revision B.01,
 Gaussian 16:  ES64L-G16RevB.01 20-Dec-2017

 -------------------------
 #P B3LYP/6-311+g(d) force
 -------------------------

 -----
 DPGEN
 -----
 Symbolic Z-matrix:
 Charge =  0 Multiplicity = 2

                         Standard orientation:
 ---------------------------------------------------------------------
 Center     Atomic      Atomic             Coordinates (Angstroms)
 Number     Number       Type             X           Y           Z
 ---------------------------------------------------------------------
      1         11           0        1.439281    1.981271    0.602647
      2         11           0       -1.954745    2.134117   -0.137210
      3         11           0       -3.330272   -0.532882   -1.354784
      4         11           0       -1.479936   -0.348831    1.749979
      5         11           0        1.894677   -1.280164    1.327972
      6         11           0       -0.020520   -2.360931   -0.570384
      7         11           0        3.451516    0.407418   -1.618220
 ---------------------------------------------------------------------

 SCF Done:  E(UB3LYP) =  -1136.12559276     A.U. after   21 cycles

 The electronic state is 2-A.
 Alpha  occ. eigenvalues --  -38.44532 -38.44402 -38.44165 -38.43756 -38.43438
 Alpha  occ. eigenvalues --  -38.43392 -38.43192  -2.20336  -2.20239  -2.20082
 Alpha  occ. eigenvalues --   -2.19681  -2.19312  -2.19261  -2.19043  -1.13991
 Alpha  occ. eigenvalues --   -1.13974  -1.13957  -1.13905  -1.13882  -1.13863
 Alpha  occ. eigenvalues --   -1.13776  -1.13727  -1.13717  -1.13459  -1.13349
 Alpha  occ. eigenvalues --   -1.13282  -1.12998  -1.12976  -1.12946  -1.12927
 Alpha  occ. eigenvalues --   -1.12902  -1.12883  -1.12730  -1.12724  -1.12668
 Alpha  occ. eigenvalues --   -0.18152  -0.13984  -0.11792  -0.11168
 Alpha virt. eigenvalues --   -0.05682  -0.05335  -0.05087  -0.03517  -0.02803
 Alpha virt. eigenvalues --   -0.02598  -0.01653  -0.00779  -0.00521  -0.00151
 Alpha virt. eigenvalues --   -0.00009   0.00334   0.00345   0.00426   0.00534

  Beta  occ. eigenvalues --  -38.44468 -38.44348 -38.44122 -38.43739 -38.43433
  Beta  occ. eigenvalues --  -38.43390 -38.43187  -2.20214  -2.20136  -2.20006
  Beta  occ. eigenvalues --   -2.19655  -2.19307  -2.19260  -2.19038  -1.13907
  Beta  occ. eigenvalues --   -1.13893  -1.13877  -1.13834  -1.13816  -1.13793
  Beta  occ. eigenvalues --   -1.13728  -1.13670  -1.13642  -1.13449  -1.13322
  Beta  occ. eigenvalues --   -1.13241  -1.12991  -1.12973  -1.12925  -1.12923
  Beta  occ. eigenvalues --   -1.12887  -1.12883  -1.12727  -1.12721  -1.12638
  Beta  occ. eigenvalues --   -0.17510  -0.13510  -0.11575
  Beta virt. eigenvalues --   -0.07640  -0.05387  -0.04989  -0.04624  -0.03450
  Beta virt. eigenvalues --   -0.02298  -0.01842  -0.01449  -0.00487  -0.00397
  Beta virt. eigenvalues --   -0.00037   0.00086   0.00426   0.00483   0.00568

 Mulliken charges and spin densities:
               1          2
     1  Na  -0.561656   0.002584
     2  Na   0.145362  -0.010698
     3  Na   0.096939   0.264943
     4  Na   0.073319   0.272979
     5  Na   0.634171   0.155477
     6  Na  -0.566459   0.027170
     7  Na   0.178324   0.287545
 Sum of Mulliken charges =  -0.00000   1.00000

 Dipole moment (field-independent basis, Debye):
    X=             -0.1846    Y=             -0.2936    Z=             -0.4004  Tot=              0.5297
 Quadrupole moment (field-independent basis, Debye-Ang):
   XX=            -59.3518   YY=            -74.3842   ZZ=            -63.9806
   XY=             -0.8737   XZ=             -0.1330   YZ=              0.6155

 Normal termination of Gaussian 16 at Wed Nov 29 03:47:36 2023.
