 Gaussian 16, Revision B.01,
 Gaussian 16:  ES64L-G16RevB.01 20-Dec-2017

 -------------------------
 #P B3LYP/6-311+g(d) force
 -------------------------

 -----
 DPGEN
 -----
 Symbolic Z-matrix:
 Charge =  0 Multiplicity = 2

                         Standard orientation:
 ---------------------------------------------------------------------
 Center     Atomic      Atomic             Coordinates (Angstroms)
 Number     Number       Type             X           Y           Z
 ---------------------------------------------------------------------
      1         11           0        1.897565   -2.231724   -0.172529
      2         11           0       -2.861063    1.131984   -0.246925
      3         11           0        0.170260    2.720950    0.001335
      4         11           0       -1.964850   -2.150498   -0.091731
      5         11           0        0.221782   -0.146537   -1.686035
      6         11           0        2.767246    0.991739    0.107231
      7         11           0       -0.230940   -0.315913    2.088654
 ---------------------------------------------------------------------

 SCF Done:  E(UB3LYP) =  -1136.13795879     A.U. after   19 cycles

 The electronic state is 2-A.
 Alpha  occ. eigenvalues --  -38.43828 -38.43706 -38.43668 -38.43617 -38.43514
 Alpha  occ. eigenvalues --  -38.43243 -38.42993  -2.19669  -2.19604  -2.19569
 Alpha  occ. eigenvalues --   -2.19484  -2.19396  -2.19258  -2.18892  -1.13341
 Alpha  occ. eigenvalues --   -1.13332  -1.13324  -1.13282  -1.13271  -1.13246
 Alpha  occ. eigenvalues --   -1.13239  -1.13224  -1.13212  -1.13169  -1.13143
 Alpha  occ. eigenvalues --   -1.13137  -1.13101  -1.13045  -1.13010  -1.12925
 Alpha  occ. eigenvalues --   -1.12880  -1.12863  -1.12570  -1.12546  -1.12530
 Alpha  occ. eigenvalues --   -0.19041  -0.13185  -0.12515  -0.11003
 Alpha virt. eigenvalues --   -0.05378  -0.05274  -0.04443  -0.03335  -0.02938
 Alpha virt. eigenvalues --   -0.02721  -0.01367  -0.01049  -0.00201  -0.00068
 Alpha virt. eigenvalues --   -0.00028   0.00370   0.00825   0.00913   0.00951

  Beta  occ. eigenvalues --  -38.43824 -38.43664 -38.43611 -38.43610 -38.43507
  Beta  occ. eigenvalues --  -38.43175 -38.42988  -2.19664  -2.19564  -2.19477
  Beta  occ. eigenvalues --   -2.19427  -2.19388  -2.19135  -2.18887  -1.13334
  Beta  occ. eigenvalues --   -1.13326  -1.13309  -1.13270  -1.13238  -1.13195
  Beta  occ. eigenvalues --   -1.13191  -1.13141  -1.13133  -1.13120  -1.13103
  Beta  occ. eigenvalues --   -1.13095  -1.13076  -1.13021  -1.13005  -1.12844
  Beta  occ. eigenvalues --   -1.12798  -1.12777  -1.12567  -1.12532  -1.12513
  Beta  occ. eigenvalues --   -0.18294  -0.12945  -0.12260
  Beta virt. eigenvalues --   -0.07050  -0.05371  -0.05234  -0.04426  -0.02503
  Beta virt. eigenvalues --   -0.02142  -0.01636  -0.01283  -0.00988  -0.00264
  Beta virt. eigenvalues --   -0.00116   0.00119   0.00391   0.00885   0.00911

 Mulliken charges and spin densities:
               1          2
     1  Na   0.412627  -0.053113
     2  Na   0.070760  -0.037849
     3  Na   0.102714  -0.022635
     4  Na   0.316452  -0.079315
     5  Na  -0.436211   0.445091
     6  Na   0.187963   0.027989
     7  Na  -0.654303   0.719834
 Sum of Mulliken charges =  -0.00000   1.00000

 Dipole moment (field-independent basis, Debye):
    X=             -0.1507    Y=             -0.2184    Z=              0.1798  Tot=              0.3205
 Quadrupole moment (field-independent basis, Debye-Ang):
   XX=            -57.4621   YY=            -64.0519   ZZ=            -72.9449
   XY=             -0.3610   XZ=              1.0950   YZ=              0.3098

 Normal termination of Gaussian 16 at Tue Dec  5 11:33:48 2023.
