 Gaussian 16, Revision B.01,
 Gaussian 16:  ES64L-G16RevB.01 20-Dec-2017

 -------------------------
 #P B3LYP/6-311+g(d) force
 -------------------------

 -----
 DPGEN
 -----
 Symbolic Z-matrix:
 Charge =  0 Multiplicity = 2

                         Standard orientation:
 ---------------------------------------------------------------------
 Center     Atomic      Atomic             Coordinates (Angstroms)
 Number     Number       Type             X           Y           Z
 ---------------------------------------------------------------------
      1         11           0        4.038558   -1.208860    0.118085
      2         11           0       -3.775124   -0.157152   -0.426543
      3         11           0       -1.938651   -2.450818   -0.998184
      4         11           0       -0.228833    3.666405   -0.393951
      5         11           0        2.680928    2.476098   -0.476271
      6         11           0       -1.988589    1.076056    1.710248
      7         11           0        1.211711   -3.401728    0.466615
 ---------------------------------------------------------------------

 SCF Done:  E(UB3LYP) =  -1136.10651944     A.U. after   23 cycles

 The electronic state is 2-A.
 Alpha  occ. eigenvalues --  -38.44890 -38.44794 -38.44784 -38.44434 -38.44251
 Alpha  occ. eigenvalues --  -38.44156 -38.43818  -2.20762  -2.20619  -2.20538
 Alpha  occ. eigenvalues --   -2.20225  -2.20056  -2.19926  -2.19668  -1.14500
 Alpha  occ. eigenvalues --   -1.14466  -1.14400  -1.14255  -1.14242  -1.14229
 Alpha  occ. eigenvalues --   -1.14221  -1.14216  -1.14176  -1.13924  -1.13890
 Alpha  occ. eigenvalues --   -1.13866  -1.13718  -1.13702  -1.13679  -1.13587
 Alpha  occ. eigenvalues --   -1.13572  -1.13553  -1.13323  -1.13307  -1.13295
 Alpha  occ. eigenvalues --   -0.16292  -0.13754  -0.13258  -0.10292
 Alpha virt. eigenvalues --   -0.07539  -0.05413  -0.04194  -0.03625  -0.03166
 Alpha virt. eigenvalues --   -0.02557  -0.01960  -0.01520  -0.01321  -0.01234
 Alpha virt. eigenvalues --   -0.00321   0.00005   0.00219   0.00371   0.00691

  Beta  occ. eigenvalues --  -38.44887 -38.44804 -38.44719 -38.44407 -38.44231
  Beta  occ. eigenvalues --  -38.44104 -38.43756  -2.20763  -2.20561  -2.20499
  Beta  occ. eigenvalues --   -2.20179  -2.20024  -2.19829  -2.19553  -1.14478
  Beta  occ. eigenvalues --   -1.14434  -1.14407  -1.14249  -1.14234  -1.14171
  Beta  occ. eigenvalues --   -1.14165  -1.14161  -1.14147  -1.13884  -1.13862
  Beta  occ. eigenvalues --   -1.13825  -1.13699  -1.13684  -1.13631  -1.13521
  Beta  occ. eigenvalues --   -1.13507  -1.13490  -1.13252  -1.13228  -1.13217
  Beta  occ. eigenvalues --   -0.15786  -0.13136  -0.12627
  Beta virt. eigenvalues --   -0.07508  -0.07119  -0.05157  -0.03900  -0.03175
  Beta virt. eigenvalues --   -0.02755  -0.02350  -0.01712  -0.01418  -0.01174
  Beta virt. eigenvalues --   -0.00981   0.00011   0.00168   0.00358   0.00462

 Mulliken charges and spin densities:
               1          2
     1  Na   0.013209   0.267087
     2  Na   0.577311   0.026758
     3  Na  -0.439277   0.270552
     4  Na   0.176524   0.027010
     5  Na  -0.097495   0.095799
     6  Na  -0.397160   0.406870
     7  Na   0.166889  -0.094076
 Sum of Mulliken charges =  -0.00000   1.00000

 Dipole moment (field-independent basis, Debye):
    X=             -0.7755    Y=              0.4415    Z=              0.1432  Tot=              0.9037
 Quadrupole moment (field-independent basis, Debye-Ang):
   XX=            -62.0242   YY=            -71.3126   ZZ=            -70.1939
   XY=             -1.4339   XZ=              2.3496   YZ=             -2.5518

 Normal termination of Gaussian 16 at Sun Dec  3 21:32:40 2023.
