 Gaussian 16, Revision B.01,
 Gaussian 16:  ES64L-G16RevB.01 20-Dec-2017

 -------------------------
 #P B3LYP/6-311+g(d) force
 -------------------------

 -----
 DPGEN
 -----
 Symbolic Z-matrix:
 Charge =  0 Multiplicity = 2

                         Standard orientation:
 ---------------------------------------------------------------------
 Center     Atomic      Atomic             Coordinates (Angstroms)
 Number     Number       Type             X           Y           Z
 ---------------------------------------------------------------------
      1         11           0       -0.306643   -0.128140    1.857663
      2         11           0        0.026083    2.648715   -0.111466
      3         11           0       -2.890402    1.039129   -0.025200
      4         11           0       -1.993973   -2.265612   -0.177886
      5         11           0        0.243959   -0.175218   -1.781319
      6         11           0        2.873888    0.859618    0.111208
      7         11           0        2.047088   -1.978493    0.127000
 ---------------------------------------------------------------------

 SCF Done:  E(UB3LYP) =  -1136.13575697     A.U. after   19 cycles

 The electronic state is 2-A.
 Alpha  occ. eigenvalues --  -38.44097 -38.43962 -38.43632 -38.43532 -38.43385
 Alpha  occ. eigenvalues --  -38.43285 -38.42733  -2.19959  -2.19877  -2.19550
 Alpha  occ. eigenvalues --   -2.19380  -2.19341  -2.19274  -2.18642  -1.13637
 Alpha  occ. eigenvalues --   -1.13635  -1.13621  -1.13602  -1.13529  -1.13517
 Alpha  occ. eigenvalues --   -1.13239  -1.13201  -1.13164  -1.13070  -1.13057
 Alpha  occ. eigenvalues --   -1.13015  -1.13013  -1.12964  -1.12950  -1.12946
 Alpha  occ. eigenvalues --   -1.12905  -1.12881  -1.12328  -1.12302  -1.12275
 Alpha  occ. eigenvalues --   -0.19216  -0.13573  -0.12268  -0.10885
 Alpha virt. eigenvalues --   -0.05732  -0.05276  -0.04189  -0.03474  -0.02744
 Alpha virt. eigenvalues --   -0.02513  -0.01590  -0.01025  -0.00180  -0.00058
 Alpha virt. eigenvalues --   -0.00005   0.00370   0.00786   0.00908   0.00951

  Beta  occ. eigenvalues --  -38.44095 -38.43957 -38.43623 -38.43527 -38.43304
  Beta  occ. eigenvalues --  -38.43205 -38.42725  -2.19957  -2.19871  -2.19539
  Beta  occ. eigenvalues --   -2.19374  -2.19192  -2.19129  -2.18633  -1.13635
  Beta  occ. eigenvalues --   -1.13631  -1.13607  -1.13599  -1.13524  -1.13485
  Beta  occ. eigenvalues --   -1.13227  -1.13163  -1.13160  -1.13059  -1.13026
  Beta  occ. eigenvalues --   -1.13013  -1.12922  -1.12858  -1.12850  -1.12848
  Beta  occ. eigenvalues --   -1.12802  -1.12777  -1.12324  -1.12277  -1.12260
  Beta  occ. eigenvalues --   -0.18461  -0.13324  -0.12002
  Beta virt. eigenvalues --   -0.06947  -0.05677  -0.05282  -0.04188  -0.02627
  Beta virt. eigenvalues --   -0.01959  -0.01499  -0.01447  -0.00965  -0.00245
  Beta virt. eigenvalues --   -0.00095   0.00129   0.00391   0.00853   0.00896

 Mulliken charges and spin densities:
               1          2
     1  Na  -0.485064   0.644781
     2  Na   0.178963  -0.061035
     3  Na   0.124501  -0.058320
     4  Na   0.148879  -0.131582
     5  Na  -0.482298   0.647239
     6  Na   0.125633   0.019241
     7  Na   0.389386  -0.060325
 Sum of Mulliken charges =  -0.00000   1.00000

 Dipole moment (field-independent basis, Debye):
    X=             -0.2120    Y=             -0.1364    Z=              0.0558  Tot=              0.2582
 Quadrupole moment (field-independent basis, Debye-Ang):
   XX=            -54.8174   YY=            -65.5275   ZZ=            -73.6518
   XY=              0.1897   XZ=              1.1005   YZ=              0.0046

 Normal termination of Gaussian 16 at Fri Dec  8 07:16:35 2023.
