 Gaussian 16, Revision B.01,
 Gaussian 16:  ES64L-G16RevB.01 20-Dec-2017

 -------------------------
 #P B3LYP/6-311+g(d) force
 -------------------------

 -----
 DPGEN
 -----
 Symbolic Z-matrix:
 Charge =  0 Multiplicity = 2

                         Standard orientation:
 ---------------------------------------------------------------------
 Center     Atomic      Atomic             Coordinates (Angstroms)
 Number     Number       Type             X           Y           Z
 ---------------------------------------------------------------------
      1         11           0       -0.267044    3.203842    0.314081
      2         11           0        1.521511    1.046607   -1.195751
      3         11           0        0.271242    0.124662    2.169453
      4         11           0        0.345997   -2.106692   -0.912724
      5         11           0       -1.845916    0.593368   -1.213335
      6         11           0       -3.272522   -1.586838    0.510917
      7         11           0        3.246731   -1.274949    0.327359
 ---------------------------------------------------------------------

 SCF Done:  E(UB3LYP) =  -1136.13409480     A.U. after   20 cycles

 The electronic state is 2-A.
 Alpha  occ. eigenvalues --  -38.44251 -38.43913 -38.43857 -38.43728 -38.43259
 Alpha  occ. eigenvalues --  -38.43250 -38.43099  -2.20093  -2.19764  -2.19663
 Alpha  occ. eigenvalues --   -2.19611  -2.19226  -2.19181  -2.18957  -1.13756
 Alpha  occ. eigenvalues --   -1.13720  -1.13714  -1.13444  -1.13438  -1.13407
 Alpha  occ. eigenvalues --   -1.13368  -1.13329  -1.13312  -1.13297  -1.13279
 Alpha  occ. eigenvalues --   -1.13192  -1.12949  -1.12893  -1.12872  -1.12849
 Alpha  occ. eigenvalues --   -1.12841  -1.12781  -1.12615  -1.12603  -1.12595
 Alpha  occ. eigenvalues --   -0.18571  -0.13059  -0.12300  -0.11171
 Alpha virt. eigenvalues --   -0.05841  -0.04756  -0.04496  -0.03366  -0.03058
 Alpha virt. eigenvalues --   -0.02924  -0.01647  -0.01094  -0.00453   0.00005
 Alpha virt. eigenvalues --    0.00267   0.00358   0.00764   0.00779   0.00865

  Beta  occ. eigenvalues --  -38.44153 -38.43912 -38.43856 -38.43706 -38.43224
  Beta  occ. eigenvalues --  -38.43223 -38.43098  -2.19911  -2.19764  -2.19662
  Beta  occ. eigenvalues --   -2.19574  -2.19164  -2.19135  -2.18957  -1.13635
  Beta  occ. eigenvalues --   -1.13590  -1.13584  -1.13445  -1.13438  -1.13389
  Beta  occ. eigenvalues --   -1.13368  -1.13303  -1.13301  -1.13294  -1.13234
  Beta  occ. eigenvalues --   -1.13171  -1.12905  -1.12836  -1.12832  -1.12808
  Beta  occ. eigenvalues --   -1.12799  -1.12751  -1.12616  -1.12598  -1.12579
  Beta  occ. eigenvalues --   -0.17783  -0.12916  -0.12133
  Beta virt. eigenvalues --   -0.07165  -0.05661  -0.04709  -0.04389  -0.02784
  Beta virt. eigenvalues --   -0.02385  -0.01865  -0.01559  -0.01009  -0.00202
  Beta virt. eigenvalues --    0.00006   0.00315   0.00417   0.00811   0.00835

 Mulliken charges and spin densities:
               1          2
     1  Na   0.276083  -0.165034
     2  Na  -0.112191   0.263824
     3  Na  -0.647280   0.826155
     4  Na  -0.321461   0.048585
     5  Na  -0.003918   0.224281
     6  Na   0.107518  -0.160921
     7  Na   0.701249  -0.036891
 Sum of Mulliken charges =  -0.00000   1.00000

 Dipole moment (field-independent basis, Debye):
    X=              0.2652    Y=             -0.2841    Z=              0.4311  Tot=              0.5804
 Quadrupole moment (field-independent basis, Debye-Ang):
   XX=            -58.2359   YY=            -65.3405   ZZ=            -70.6284
   XY=             -0.8609   XZ=             -0.8549   YZ=             -0.4144

 Normal termination of Gaussian 16 at Thu Dec  7 16:10:05 2023.
