 Gaussian 16, Revision B.01,
 Gaussian 16:  ES64L-G16RevB.01 20-Dec-2017

 -------------------------
 #P B3LYP/6-311+g(d) force
 -------------------------

 -----
 DPGEN
 -----
 Symbolic Z-matrix:
 Charge =  0 Multiplicity = 2

                         Standard orientation:
 ---------------------------------------------------------------------
 Center     Atomic      Atomic             Coordinates (Angstroms)
 Number     Number       Type             X           Y           Z
 ---------------------------------------------------------------------
      1         11           0        0.063227    1.712398    0.417264
      2         11           0        2.573492    3.895263    0.102207
      3         11           0        2.779372    0.210726   -1.010743
      4         11           0        0.807570   -1.878828    1.448861
      5         11           0       -2.316814   -0.970084    0.531760
      6         11           0        2.761924   -3.313791   -0.779410
      7         11           0       -6.668771    0.344317   -0.709939
 ---------------------------------------------------------------------

 SCF Done:  E(UB3LYP) =  -1136.11810690     A.U. after   20 cycles

 The electronic state is 2-A.
 Alpha  occ. eigenvalues --  -38.45354 -38.44540 -38.44343 -38.44183 -38.43760
 Alpha  occ. eigenvalues --  -38.43561 -38.43192  -2.21132  -2.20348  -2.20127
 Alpha  occ. eigenvalues --   -2.20035  -2.19613  -2.19376  -2.18983  -1.14753
 Alpha  occ. eigenvalues --   -1.14753  -1.14734  -1.14070  -1.14052  -1.13916
 Alpha  occ. eigenvalues --   -1.13801  -1.13793  -1.13749  -1.13739  -1.13709
 Alpha  occ. eigenvalues --   -1.13643  -1.13330  -1.13314  -1.13183  -1.13043
 Alpha  occ. eigenvalues --   -1.13034  -1.13006  -1.12662  -1.12655  -1.12621
 Alpha  occ. eigenvalues --   -0.16729  -0.13007  -0.12790  -0.11358
 Alpha virt. eigenvalues --   -0.06234  -0.05410  -0.04891  -0.03513  -0.02404
 Alpha virt. eigenvalues --   -0.02377  -0.02204  -0.01811  -0.01511  -0.01069
 Alpha virt. eigenvalues --   -0.00435  -0.00193   0.00196   0.00330   0.00482

  Beta  occ. eigenvalues --  -38.45189 -38.44532 -38.44341 -38.44171 -38.43753
  Beta  occ. eigenvalues --  -38.43551 -38.43199  -2.20825  -2.20334  -2.20124
  Beta  occ. eigenvalues --   -2.20014  -2.19602  -2.19359  -2.19001  -1.14544
  Beta  occ. eigenvalues --   -1.14544  -1.14526  -1.14058  -1.14043  -1.13904
  Beta  occ. eigenvalues --   -1.13799  -1.13792  -1.13747  -1.13726  -1.13695
  Beta  occ. eigenvalues --   -1.13619  -1.13323  -1.13307  -1.13172  -1.13031
  Beta  occ. eigenvalues --   -1.13022  -1.12993  -1.12678  -1.12671  -1.12611
  Beta  occ. eigenvalues --   -0.16552  -0.12825  -0.11856
  Beta virt. eigenvalues --   -0.07285  -0.06188  -0.05043  -0.04771  -0.03350
  Beta virt. eigenvalues --   -0.02348  -0.01991  -0.01860  -0.01345  -0.00862
  Beta virt. eigenvalues --   -0.00555  -0.00091   0.00018   0.00313   0.00466

 Mulliken charges and spin densities:
               1          2
     1  Na  -1.054169  -0.020585
     2  Na   0.881611   0.026130
     3  Na  -0.456998   0.078618
     4  Na   0.919319   0.022473
     5  Na  -0.709708   0.077487
     6  Na   0.496541   0.045411
     7  Na  -0.076595   0.770466
 Sum of Mulliken charges =  -0.00000   1.00000

 Dipole moment (field-independent basis, Debye):
    X=              1.2036    Y=              0.4626    Z=             -0.0597  Tot=              1.2908
 Quadrupole moment (field-independent basis, Debye-Ang):
   XX=            -70.8001   YY=            -58.0866   ZZ=            -69.7640
   XY=              3.0267   XZ=              0.8176   YZ=              0.7738

 Normal termination of Gaussian 16 at Tue Nov 28 18:57:00 2023.
