 Gaussian 16, Revision B.01,
 Gaussian 16:  ES64L-G16RevB.01 20-Dec-2017

 -------------------------
 #P B3LYP/6-311+g(d) force
 -------------------------

 -----
 DPGEN
 -----
 Symbolic Z-matrix:
 Charge =  0 Multiplicity = 2

                         Standard orientation:
 ---------------------------------------------------------------------
 Center     Atomic      Atomic             Coordinates (Angstroms)
 Number     Number       Type             X           Y           Z
 ---------------------------------------------------------------------
      1         11           0       -2.184997   -0.133277    1.515850
      2         11           0        0.991369    0.949733    1.902428
      3         11           0        0.169013   -1.695093   -0.324711
      4         11           0       -3.839610   -0.856188   -0.913116
      5         11           0       -1.004190    1.933382   -0.897567
      6         11           0        3.668326   -1.263663   -0.070751
      7         11           0        2.200088    1.065107   -1.212133
 ---------------------------------------------------------------------

 SCF Done:  E(UB3LYP) =  -1136.12218128     A.U. after   24 cycles

 The electronic state is 2-A.
 Alpha  occ. eigenvalues --  -38.44843 -38.44164 -38.43878 -38.43869 -38.43842
 Alpha  occ. eigenvalues --  -38.43350 -38.43073  -2.20685  -2.19995  -2.19838
 Alpha  occ. eigenvalues --   -2.19828  -2.19700  -2.19264  -2.18965  -1.14401
 Alpha  occ. eigenvalues --   -1.14381  -1.14276  -1.13744  -1.13636  -1.13626
 Alpha  occ. eigenvalues --   -1.13600  -1.13516  -1.13514  -1.13475  -1.13472
 Alpha  occ. eigenvalues --   -1.13415  -1.13339  -1.13335  -1.13292  -1.12947
 Alpha  occ. eigenvalues --   -1.12916  -1.12869  -1.12658  -1.12617  -1.12567
 Alpha  occ. eigenvalues --   -0.18820  -0.14410  -0.11358  -0.11103
 Alpha virt. eigenvalues --   -0.06887  -0.04902  -0.04809  -0.03172  -0.02718
 Alpha virt. eigenvalues --   -0.02492  -0.02164  -0.01137  -0.00861  -0.00123
 Alpha virt. eigenvalues --    0.00083   0.00284   0.00408   0.00657   0.00808

  Beta  occ. eigenvalues --  -38.44831 -38.44145 -38.43840 -38.43838 -38.43835
  Beta  occ. eigenvalues --  -38.43301 -38.43034  -2.20667  -2.19960  -2.19771
  Beta  occ. eigenvalues --   -2.19768  -2.19696  -2.19176  -2.18892  -1.14376
  Beta  occ. eigenvalues --   -1.14351  -1.14271  -1.13715  -1.13605  -1.13603
  Beta  occ. eigenvalues --   -1.13558  -1.13470  -1.13467  -1.13436  -1.13435
  Beta  occ. eigenvalues --   -1.13358  -1.13336  -1.13323  -1.13269  -1.12881
  Beta  occ. eigenvalues --   -1.12843  -1.12807  -1.12605  -1.12559  -1.12516
  Beta  occ. eigenvalues --   -0.18124  -0.14189  -0.10901
  Beta virt. eigenvalues --   -0.07386  -0.06681  -0.04853  -0.04151  -0.02855
  Beta virt. eigenvalues --   -0.02642  -0.01978  -0.01503  -0.00956  -0.00395
  Beta virt. eigenvalues --   -0.00016   0.00126   0.00306   0.00527   0.00773

 Mulliken charges and spin densities:
               1          2
     1  Na   0.446662   0.066830
     2  Na  -0.189892   0.194488
     3  Na  -0.964684   0.176860
     4  Na   0.526402   0.126300
     5  Na  -0.572463   0.311451
     6  Na   0.582801   0.040583
     7  Na   0.171174   0.083488
 Sum of Mulliken charges =  -0.00000   1.00000

 Dipole moment (field-independent basis, Debye):
    X=              0.0430    Y=              0.1696    Z=              0.1919  Tot=              0.2597
 Quadrupole moment (field-independent basis, Debye-Ang):
   XX=            -54.4041   YY=            -75.3317   ZZ=            -67.8577
   XY=              0.0566   XZ=              2.8918   YZ=             -0.5076

 Normal termination of Gaussian 16 at Thu Dec  7 14:52:05 2023.
