 Gaussian 16, Revision B.01,
 Gaussian 16:  ES64L-G16RevB.01 20-Dec-2017

 -------------------------
 #P B3LYP/6-311+g(d) force
 -------------------------

 -----
 DPGEN
 -----
 Symbolic Z-matrix:
 Charge =  0 Multiplicity = 2

                         Standard orientation:
 ---------------------------------------------------------------------
 Center     Atomic      Atomic             Coordinates (Angstroms)
 Number     Number       Type             X           Y           Z
 ---------------------------------------------------------------------
      1         11           0        1.239987    2.254846   -0.368581
      2         11           0        1.845773   -0.628131    2.152194
      3         11           0        0.102487   -1.931165   -0.378849
      4         11           0        3.121034   -0.753073   -1.429746
      5         11           0       -3.393999   -1.283832   -0.371804
      6         11           0       -1.551079    1.346080   -1.418483
      7         11           0       -1.364203    0.995275    1.815268
 ---------------------------------------------------------------------

 SCF Done:  E(UB3LYP) =  -1136.13108439     A.U. after   21 cycles

 The electronic state is 2-A.
 Alpha  occ. eigenvalues --  -38.44562 -38.44478 -38.44245 -38.43603 -38.43594
 Alpha  occ. eigenvalues --  -38.43119 -38.42648  -2.20406  -2.20287  -2.20116
 Alpha  occ. eigenvalues --   -2.19513  -2.19424  -2.18980  -2.18517  -1.14093
 Alpha  occ. eigenvalues --   -1.14042  -1.14014  -1.13960  -1.13930  -1.13907
 Alpha  occ. eigenvalues --   -1.13799  -1.13775  -1.13727  -1.13208  -1.13175
 Alpha  occ. eigenvalues --   -1.13148  -1.13089  -1.13074  -1.13052  -1.12691
 Alpha  occ. eigenvalues --   -1.12672  -1.12577  -1.12221  -1.12168  -1.12137
 Alpha  occ. eigenvalues --   -0.18333  -0.13455  -0.11821  -0.11357
 Alpha virt. eigenvalues --   -0.05814  -0.05189  -0.04595  -0.03322  -0.03083
 Alpha virt. eigenvalues --   -0.02779  -0.01738  -0.00934  -0.00634   0.00009
 Alpha virt. eigenvalues --    0.00285   0.00358   0.00429   0.00632   0.00727

  Beta  occ. eigenvalues --  -38.44496 -38.44442 -38.44198 -38.43604 -38.43569
  Beta  occ. eigenvalues --  -38.43110 -38.42635  -2.20285  -2.20220  -2.20031
  Beta  occ. eigenvalues --   -2.19465  -2.19426  -2.18968  -2.18496  -1.14007
  Beta  occ. eigenvalues --   -1.13963  -1.13918  -1.13909  -1.13881  -1.13864
  Beta  occ. eigenvalues --   -1.13747  -1.13691  -1.13673  -1.13177  -1.13143
  Beta  occ. eigenvalues --   -1.13121  -1.13084  -1.13075  -1.13043  -1.12670
  Beta  occ. eigenvalues --   -1.12650  -1.12574  -1.12201  -1.12145  -1.12119
  Beta  occ. eigenvalues --   -0.17609  -0.13238  -0.11195
  Beta virt. eigenvalues --   -0.07856  -0.05581  -0.04752  -0.04341  -0.03133
  Beta virt. eigenvalues --   -0.02247  -0.02202  -0.01612  -0.00710  -0.00341
  Beta virt. eigenvalues --    0.00130   0.00337   0.00400   0.00572   0.00780

 Mulliken charges and spin densities:
               1          2
     1  Na  -0.091792   0.288261
     2  Na   0.103143   0.183748
     3  Na  -0.483783   0.278503
     4  Na   0.140710  -0.017233
     5  Na   0.405161  -0.126005
     6  Na   0.048730   0.119644
     7  Na  -0.122168   0.273083
 Sum of Mulliken charges =  -0.00000   1.00000

 Dipole moment (field-independent basis, Debye):
    X=              0.2615    Y=             -0.0635    Z=              0.2448  Tot=              0.3638
 Quadrupole moment (field-independent basis, Debye-Ang):
   XX=            -54.2725   YY=            -77.4162   ZZ=            -63.4279
   XY=              0.2755   XZ=             -1.2783   YZ=             -0.0015

 Normal termination of Gaussian 16 at Sun Dec  3 14:44:40 2023.
