 Gaussian 16, Revision B.01,
 Gaussian 16:  ES64L-G16RevB.01 20-Dec-2017

 -------------------------
 #P B3LYP/6-311+g(d) force
 -------------------------

 -----
 DPGEN
 -----
 Symbolic Z-matrix:
 Charge =  0 Multiplicity = 2

                         Standard orientation:
 ---------------------------------------------------------------------
 Center     Atomic      Atomic             Coordinates (Angstroms)
 Number     Number       Type             X           Y           Z
 ---------------------------------------------------------------------
      1         11           0        0.149953    0.832376    1.024746
      2         11           0        6.320743   -0.131335    1.043547
      3         11           0        3.908306    0.049404   -1.010879
      4         11           0        0.663180   -2.123955   -0.856176
      5         11           0       -3.259468   -0.726893    0.057374
      6         11           0       -1.561852    2.708264   -0.784034
      7         11           0       -6.220861   -0.607861    0.525421
 ---------------------------------------------------------------------

 SCF Done:  E(UB3LYP) =  -1136.10872343     A.U. after   21 cycles

 The electronic state is 2-A.
 Alpha  occ. eigenvalues --  -38.45471 -38.45434 -38.44846 -38.44289 -38.44142
 Alpha  occ. eigenvalues --  -38.43063 -38.42949  -2.21275  -2.21257  -2.20679
 Alpha  occ. eigenvalues --   -2.20079  -2.19931  -2.18909  -2.18753  -1.14926
 Alpha  occ. eigenvalues --   -1.14922  -1.14894  -1.14891  -1.14889  -1.14874
 Alpha  occ. eigenvalues --   -1.14362  -1.14330  -1.14324  -1.13760  -1.13729
 Alpha  occ. eigenvalues --   -1.13727  -1.13610  -1.13593  -1.13548  -1.12641
 Alpha  occ. eigenvalues --   -1.12593  -1.12569  -1.12400  -1.12399  -1.12354
 Alpha  occ. eigenvalues --   -0.16798  -0.13734  -0.11837  -0.11591
 Alpha virt. eigenvalues --   -0.06469  -0.06114  -0.04398  -0.03539  -0.03008
 Alpha virt. eigenvalues --   -0.02595  -0.01912  -0.01801  -0.01418  -0.00871
 Alpha virt. eigenvalues --   -0.00544  -0.00291  -0.00009   0.00258   0.00515

  Beta  occ. eigenvalues --  -38.45367 -38.45352 -38.44845 -38.44254 -38.44149
  Beta  occ. eigenvalues --  -38.43057 -38.42959  -2.21106  -2.21081  -2.20685
  Beta  occ. eigenvalues --   -2.20013  -2.19947  -2.18897  -2.18770  -1.14819
  Beta  occ. eigenvalues --   -1.14793  -1.14788  -1.14769  -1.14764  -1.14760
  Beta  occ. eigenvalues --   -1.14356  -1.14343  -1.14292  -1.13725  -1.13684
  Beta  occ. eigenvalues --   -1.13682  -1.13621  -1.13603  -1.13533  -1.12643
  Beta  occ. eigenvalues --   -1.12585  -1.12553  -1.12412  -1.12410  -1.12361
  Beta  occ. eigenvalues --   -0.16096  -0.13335  -0.11342
  Beta virt. eigenvalues --   -0.08246  -0.06153  -0.05702  -0.03966  -0.03299
  Beta virt. eigenvalues --   -0.02541  -0.02348  -0.01617  -0.01447  -0.01301
  Beta virt. eigenvalues --   -0.00741  -0.00394   0.00042   0.00164   0.00346

 Mulliken charges and spin densities:
               1          2
     1  Na  -0.325639   0.077717
     2  Na   0.116857   0.168974
     3  Na  -0.251707  -0.069341
     4  Na   0.700532   0.482189
     5  Na  -0.569616  -0.027682
     6  Na   0.517010   0.334851
     7  Na  -0.187437   0.033291
 Sum of Mulliken charges =  -0.00000   1.00000

 Dipole moment (field-independent basis, Debye):
    X=              1.3412    Y=              0.8068    Z=             -0.2997  Tot=              1.5936
 Quadrupole moment (field-independent basis, Debye-Ang):
   XX=            -75.7433   YY=            -67.6354   ZZ=            -65.0910
   XY=             -6.1487   XZ=              5.5823   YZ=             -1.5528

 Normal termination of Gaussian 16 at Wed Nov 29 01:52:04 2023.
