 Gaussian 16, Revision B.01,
 Gaussian 16:  ES64L-G16RevB.01 20-Dec-2017

 -------------------------
 #P B3LYP/6-311+g(d) force
 -------------------------

 -----
 DPGEN
 -----
 Symbolic Z-matrix:
 Charge =  0 Multiplicity = 2

                         Standard orientation:
 ---------------------------------------------------------------------
 Center     Atomic      Atomic             Coordinates (Angstroms)
 Number     Number       Type             X           Y           Z
 ---------------------------------------------------------------------
      1         11           0       -0.737583   -2.777420   -0.063406
      2         11           0       -3.343319   -0.365931   -0.178139
      3         11           0       -1.175926    2.746042   -0.095337
      4         11           0        2.849935   -1.573052   -0.026364
      5         11           0       -0.009438    0.145441    2.259670
      6         11           0        0.058017   -0.059938   -1.658210
      7         11           0        2.358314    1.884858   -0.238215
 ---------------------------------------------------------------------

 SCF Done:  E(UB3LYP) =  -1136.13796744     A.U. after   18 cycles

 The electronic state is 2-A.
 Alpha  occ. eigenvalues --  -38.44302 -38.43922 -38.43908 -38.43712 -38.43404
 Alpha  occ. eigenvalues --  -38.43381 -38.43344  -2.20088  -2.19748  -2.19727
 Alpha  occ. eigenvalues --   -2.19552  -2.19297  -2.19228  -2.19220  -1.13763
 Alpha  occ. eigenvalues --   -1.13739  -1.13735  -1.13403  -1.13400  -1.13391
 Alpha  occ. eigenvalues --   -1.13375  -1.13372  -1.13366  -1.13248  -1.13212
 Alpha  occ. eigenvalues --   -1.13177  -1.13011  -1.12977  -1.12925  -1.12897
 Alpha  occ. eigenvalues --   -1.12889  -1.12883  -1.12869  -1.12857  -1.12835
 Alpha  occ. eigenvalues --   -0.18272  -0.12847  -0.12301  -0.10806
 Alpha virt. eigenvalues --   -0.05800  -0.05263  -0.04644  -0.03106  -0.02913
 Alpha virt. eigenvalues --   -0.02783  -0.01675  -0.01157  -0.00475  -0.00417
 Alpha virt. eigenvalues --   -0.00056   0.00336   0.00738   0.00858   0.00868

  Beta  occ. eigenvalues --  -38.44302 -38.43922 -38.43800 -38.43706 -38.43401
  Beta  occ. eigenvalues --  -38.43376 -38.43287  -2.20088  -2.19729  -2.19549
  Beta  occ. eigenvalues --   -2.19543  -2.19224  -2.19215  -2.19192  -1.13748
  Beta  occ. eigenvalues --   -1.13741  -1.13737  -1.13396  -1.13384  -1.13374
  Beta  occ. eigenvalues --   -1.13268  -1.13237  -1.13229  -1.13226  -1.13191
  Beta  occ. eigenvalues --   -1.13175  -1.12965  -1.12930  -1.12883  -1.12875
  Beta  occ. eigenvalues --   -1.12865  -1.12859  -1.12839  -1.12826  -1.12823
  Beta  occ. eigenvalues --   -0.17548  -0.12659  -0.12091
  Beta virt. eigenvalues --   -0.06833  -0.05763  -0.05286  -0.04565  -0.02370
  Beta virt. eigenvalues --   -0.02118  -0.01692  -0.01588  -0.01095  -0.00530
  Beta virt. eigenvalues --   -0.00468   0.00108   0.00366   0.00813   0.00844

 Mulliken charges and spin densities:
               1          2
     1  Na   0.128580  -0.044123
     2  Na   0.091325  -0.055983
     3  Na   0.125867  -0.057525
     4  Na   0.124640  -0.027820
     5  Na  -0.606904   0.819853
     6  Na  -0.107155   0.389525
     7  Na   0.243647  -0.023926
 Sum of Mulliken charges =  -0.00000   1.00000

 Dipole moment (field-independent basis, Debye):
    X=             -0.0883    Y=             -0.0228    Z=              0.1191  Tot=              0.1500
 Quadrupole moment (field-independent basis, Debye-Ang):
   XX=            -55.2856   YY=            -63.9530   ZZ=            -74.3250
   XY=             -0.5246   XZ=              0.2180   YZ=             -0.5145

 Normal termination of Gaussian 16 at Thu Dec  7 18:46:20 2023.
