 Gaussian 16, Revision B.01,
 Gaussian 16:  ES64L-G16RevB.01 20-Dec-2017

 -------------------------
 #P B3LYP/6-311+g(d) force
 -------------------------

 -----
 DPGEN
 -----
 Symbolic Z-matrix:
 Charge =  0 Multiplicity = 2

                         Standard orientation:
 ---------------------------------------------------------------------
 Center     Atomic      Atomic             Coordinates (Angstroms)
 Number     Number       Type             X           Y           Z
 ---------------------------------------------------------------------
      1         11           0       -3.285277   -0.235305    0.086198
      2         11           0        2.833233    1.617188   -0.288134
      3         11           0       -1.267297    2.757926   -0.106282
      4         11           0        0.329818    0.199255    2.315546
      5         11           0       -0.557528   -2.607199    0.201177
      6         11           0        2.369602   -1.472306   -0.222018
      7         11           0       -0.422551   -0.259559   -1.986488
 ---------------------------------------------------------------------

 SCF Done:  E(UB3LYP) =  -1136.13287694     A.U. after   19 cycles

 The electronic state is 2-A.
 Alpha  occ. eigenvalues --  -38.44455 -38.44361 -38.44017 -38.43961 -38.43608
 Alpha  occ. eigenvalues --  -38.43394 -38.42804  -2.20253  -2.20194  -2.19915
 Alpha  occ. eigenvalues --   -2.19768  -2.19392  -2.19308  -2.18710  -1.13930
 Alpha  occ. eigenvalues --   -1.13912  -1.13892  -1.13851  -1.13820  -1.13815
 Alpha  occ. eigenvalues --   -1.13601  -1.13550  -1.13534  -1.13475  -1.13425
 Alpha  occ. eigenvalues --   -1.13400  -1.13073  -1.13060  -1.13024  -1.12987
 Alpha  occ. eigenvalues --   -1.12970  -1.12949  -1.12398  -1.12364  -1.12344
 Alpha  occ. eigenvalues --   -0.18350  -0.13066  -0.11992  -0.11292
 Alpha virt. eigenvalues --   -0.05985  -0.05006  -0.04354  -0.03520  -0.03236
 Alpha virt. eigenvalues --   -0.02939  -0.01614  -0.00853  -0.00420  -0.00143
 Alpha virt. eigenvalues --   -0.00087   0.00378   0.00665   0.00761   0.00871

  Beta  occ. eigenvalues --  -38.44456 -38.44261 -38.43959 -38.43949 -38.43607
  Beta  occ. eigenvalues --  -38.43386 -38.42795  -2.20256  -2.20011  -2.19791
  Beta  occ. eigenvalues --   -2.19766  -2.19392  -2.19298  -2.18698  -1.13918
  Beta  occ. eigenvalues --   -1.13913  -1.13898  -1.13729  -1.13691  -1.13683
  Beta  occ. eigenvalues --   -1.13520  -1.13476  -1.13461  -1.13441  -1.13409
  Beta  occ. eigenvalues --   -1.13399  -1.13064  -1.13054  -1.13027  -1.12984
  Beta  occ. eigenvalues --   -1.12958  -1.12920  -1.12392  -1.12341  -1.12322
  Beta  occ. eigenvalues --   -0.17573  -0.12890  -0.11794
  Beta virt. eigenvalues --   -0.07346  -0.05913  -0.04947  -0.04241  -0.02785
  Beta virt. eigenvalues --   -0.02369  -0.02026  -0.01521  -0.00784  -0.00470
  Beta virt. eigenvalues --   -0.00139   0.00045   0.00408   0.00852   0.00876

 Mulliken charges and spin densities:
               1          2
     1  Na   0.209886  -0.063235
     2  Na   0.024355  -0.088036
     3  Na  -0.061769  -0.119222
     4  Na  -0.557470   0.630174
     5  Na   0.295655   0.092906
     6  Na   0.293600   0.065209
     7  Na  -0.204257   0.482204
 Sum of Mulliken charges =  -0.00000   1.00000

 Dipole moment (field-independent basis, Debye):
    X=             -0.4082    Y=              0.2597    Z=              0.0944  Tot=              0.4929
 Quadrupole moment (field-independent basis, Debye-Ang):
   XX=            -58.0681   YY=            -67.7720   ZZ=            -70.1770
   XY=              1.2581   XZ=             -1.4261   YZ=             -0.9403

 Normal termination of Gaussian 16 at Thu Dec  7 09:42:16 2023.
