 Gaussian 16, Revision B.01,
 Gaussian 16:  ES64L-G16RevB.01 20-Dec-2017

 -------------------------
 #P B3LYP/6-311+g(d) force
 -------------------------

 -----
 DPGEN
 -----
 Symbolic Z-matrix:
 Charge =  0 Multiplicity = 2

                         Standard orientation:
 ---------------------------------------------------------------------
 Center     Atomic      Atomic             Coordinates (Angstroms)
 Number     Number       Type             X           Y           Z
 ---------------------------------------------------------------------
      1         11           0        1.781292    0.764316   -1.510512
      2         11           0        2.260507   -0.590903    1.561713
      3         11           0       -0.916350   -1.198808   -0.286078
      4         11           0       -0.807177    1.550183    1.415914
      5         11           0       -4.478803   -1.735213   -0.163347
      6         11           0        4.860757   -0.578793   -0.454762
      7         11           0       -2.700227    1.789217   -0.562929
 ---------------------------------------------------------------------

 SCF Done:  E(UB3LYP) =  -1136.10604231     A.U. after   40 cycles

 The electronic state is 2-A.
 Alpha  occ. eigenvalues --  -38.45576 -38.44890 -38.44574 -38.44391 -38.44316
 Alpha  occ. eigenvalues --  -38.43871 -38.42635  -2.21405  -2.20787  -2.20399
 Alpha  occ. eigenvalues --   -2.20281  -2.20206  -2.19800  -2.18407  -1.15122
 Alpha  occ. eigenvalues --   -1.15069  -1.14989  -1.14619  -1.14427  -1.14347
 Alpha  occ. eigenvalues --   -1.14073  -1.14047  -1.14025  -1.14003  -1.13964
 Alpha  occ. eigenvalues --   -1.13889  -1.13867  -1.13856  -1.13816  -1.13504
 Alpha  occ. eigenvalues --   -1.13440  -1.13405  -1.12080  -1.12074  -1.12037
 Alpha  occ. eigenvalues --   -0.18347  -0.14625  -0.11056  -0.10625
 Alpha virt. eigenvalues --   -0.07861  -0.05287  -0.04727  -0.03542  -0.02803
 Alpha virt. eigenvalues --   -0.02488  -0.01869  -0.01565  -0.01496  -0.00612
 Alpha virt. eigenvalues --    0.00001   0.00149   0.00208   0.00477   0.00512

  Beta  occ. eigenvalues --  -38.45539 -38.44857 -38.44530 -38.44371 -38.44261
  Beta  occ. eigenvalues --  -38.43885 -38.42631  -2.21338  -2.20723  -2.20317
  Beta  occ. eigenvalues --   -2.20249  -2.20110  -2.19834  -2.18399  -1.15075
  Beta  occ. eigenvalues --   -1.15016  -1.14929  -1.14592  -1.14382  -1.14293
  Beta  occ. eigenvalues --   -1.14016  -1.13990  -1.13981  -1.13968  -1.13934
  Beta  occ. eigenvalues --   -1.13836  -1.13808  -1.13799  -1.13720  -1.13515
  Beta  occ. eigenvalues --   -1.13432  -1.13422  -1.12075  -1.12067  -1.12033
  Beta  occ. eigenvalues --   -0.17626  -0.14221  -0.10684
  Beta virt. eigenvalues --   -0.07671  -0.07186  -0.04993  -0.04176  -0.03325
  Beta virt. eigenvalues --   -0.02638  -0.01946  -0.01619  -0.01383  -0.00935
  Beta virt. eigenvalues --   -0.00495   0.00087   0.00243   0.00347   0.00605

 Mulliken charges and spin densities:
               1          2
     1  Na  -0.068731   0.318537
     2  Na   0.276895   0.265844
     3  Na  -0.660414  -0.003733
     4  Na  -0.119730  -0.045057
     5  Na   0.000986   0.006971
     6  Na   0.114041   0.184033
     7  Na   0.456954   0.273405
 Sum of Mulliken charges =  -0.00000   1.00000

 Dipole moment (field-independent basis, Debye):
    X=              1.9005    Y=              0.9155    Z=              0.2216  Tot=              2.1211
 Quadrupole moment (field-independent basis, Debye-Ang):
   XX=            -62.1105   YY=            -74.5588   ZZ=            -66.5131
   XY=             -7.5675   XZ=              0.6558   YZ=             -0.2677

 Normal termination of Gaussian 16 at Tue Dec  5 13:52:08 2023.
