 Gaussian 16, Revision B.01,
 Gaussian 16:  ES64L-G16RevB.01 20-Dec-2017

 -------------------------
 #P B3LYP/6-311+g(d) force
 -------------------------

 -----
 DPGEN
 -----
 Symbolic Z-matrix:
 Charge =  0 Multiplicity = 2

                         Standard orientation:
 ---------------------------------------------------------------------
 Center     Atomic      Atomic             Coordinates (Angstroms)
 Number     Number       Type             X           Y           Z
 ---------------------------------------------------------------------
      1         11           0        0.150117    2.680826    0.515316
      2         11           0       -0.086981   -0.735492    2.180156
      3         11           0       -2.928232   -1.885186   -0.234160
      4         11           0        2.161889   -2.247856   -0.128360
      5         11           0       -2.353037    1.532525   -0.379778
      6         11           0        0.165022   -0.214492   -1.635071
      7         11           0        2.891221    0.869676   -0.318104
 ---------------------------------------------------------------------

 SCF Done:  E(UB3LYP) =  -1136.12906117     A.U. after   20 cycles

 The electronic state is 2-A.
 Alpha  occ. eigenvalues --  -38.44181 -38.44092 -38.43998 -38.43894 -38.43810
 Alpha  occ. eigenvalues --  -38.43592 -38.42823  -2.20063  -2.19872  -2.19839
 Alpha  occ. eigenvalues --   -2.19760  -2.19721  -2.19561  -2.18736  -1.13767
 Alpha  occ. eigenvalues --   -1.13720  -1.13710  -1.13544  -1.13537  -1.13519
 Alpha  occ. eigenvalues --   -1.13499  -1.13478  -1.13465  -1.13456  -1.13452
 Alpha  occ. eigenvalues --   -1.13406  -1.13394  -1.13389  -1.13333  -1.13236
 Alpha  occ. eigenvalues --   -1.13192  -1.13175  -1.12427  -1.12377  -1.12359
 Alpha  occ. eigenvalues --   -0.18651  -0.13445  -0.12112  -0.11035
 Alpha virt. eigenvalues --   -0.05935  -0.05396  -0.04097  -0.03482  -0.03158
 Alpha virt. eigenvalues --   -0.02629  -0.01693  -0.01139  -0.00389  -0.00120
 Alpha virt. eigenvalues --    0.00083   0.00327   0.00721   0.00797   0.00907

  Beta  occ. eigenvalues --  -38.44172 -38.44093 -38.43897 -38.43890 -38.43803
  Beta  occ. eigenvalues --  -38.43536 -38.42813  -2.20051  -2.19876  -2.19755
  Beta  occ. eigenvalues --   -2.19710  -2.19651  -2.19459  -2.18720  -1.13753
  Beta  occ. eigenvalues --   -1.13713  -1.13685  -1.13548  -1.13527  -1.13521
  Beta  occ. eigenvalues --   -1.13460  -1.13449  -1.13407  -1.13383  -1.13363
  Beta  occ. eigenvalues --   -1.13362  -1.13331  -1.13326  -1.13322  -1.13166
  Beta  occ. eigenvalues --   -1.13125  -1.13098  -1.12420  -1.12369  -1.12325
  Beta  occ. eigenvalues --   -0.17929  -0.13198  -0.11907
  Beta virt. eigenvalues --   -0.07091  -0.05922  -0.05310  -0.04049  -0.02703
  Beta virt. eigenvalues --   -0.02316  -0.01740  -0.01545  -0.01056  -0.00440
  Beta virt. eigenvalues --   -0.00017   0.00140   0.00367   0.00796   0.00839

 Mulliken charges and spin densities:
               1          2
     1  Na  -0.072588   0.138585
     2  Na  -0.473675   0.553234
     3  Na   0.015331   0.007618
     4  Na   0.138313   0.065615
     5  Na   0.173519   0.086108
     6  Na  -0.014866   0.002724
     7  Na   0.233967   0.146116
 Sum of Mulliken charges =  -0.00000   1.00000

 Dipole moment (field-independent basis, Debye):
    X=              0.1872    Y=             -0.5633    Z=              0.0671  Tot=              0.5973
 Quadrupole moment (field-independent basis, Debye-Ang):
   XX=            -56.6104   YY=            -65.6746   ZZ=            -72.8951
   XY=              0.7630   XZ=              0.4018   YZ=              0.5529

 Normal termination of Gaussian 16 at Wed Dec  6 00:11:50 2023.
