 Gaussian 16, Revision B.01,
 Gaussian 16:  ES64L-G16RevB.01 20-Dec-2017

 -------------------------
 #P B3LYP/6-311+g(d) force
 -------------------------

 -----
 DPGEN
 -----
 Symbolic Z-matrix:
 Charge =  0 Multiplicity = 2

                         Standard orientation:
 ---------------------------------------------------------------------
 Center     Atomic      Atomic             Coordinates (Angstroms)
 Number     Number       Type             X           Y           Z
 ---------------------------------------------------------------------
      1         11           0       -2.886638   -1.826770   -0.498928
      2         11           0       -2.717244    1.898604    0.212435
      3         11           0        0.932953    2.276648   -0.285209
      4         11           0        3.592577    0.290038   -0.114621
      5         11           0       -0.163643   -0.363709    2.466363
      6         11           0        1.472399   -2.269133   -0.112544
      7         11           0       -0.230404   -0.005679   -1.667495
 ---------------------------------------------------------------------

 SCF Done:  E(UB3LYP) =  -1136.12430874     A.U. after   21 cycles

 The electronic state is 2-A.
 Alpha  occ. eigenvalues --  -38.44844 -38.44416 -38.44295 -38.44266 -38.43858
 Alpha  occ. eigenvalues --  -38.43345 -38.42886  -2.20654  -2.20229  -2.20071
 Alpha  occ. eigenvalues --   -2.20048  -2.19827  -2.19196  -2.18782  -1.14324
 Alpha  occ. eigenvalues --   -1.14311  -1.14300  -1.13876  -1.13853  -1.13847
 Alpha  occ. eigenvalues --   -1.13754  -1.13727  -1.13723  -1.13710  -1.13699
 Alpha  occ. eigenvalues --   -1.13689  -1.13564  -1.13488  -1.13425  -1.12894
 Alpha  occ. eigenvalues --   -1.12862  -1.12816  -1.12518  -1.12429  -1.12372
 Alpha  occ. eigenvalues --   -0.18211  -0.13274  -0.11609  -0.11137
 Alpha virt. eigenvalues --   -0.06467  -0.05580  -0.03596  -0.03423  -0.03198
 Alpha virt. eigenvalues --   -0.02635  -0.02192  -0.01402  -0.00373  -0.00176
 Alpha virt. eigenvalues --    0.00017   0.00221   0.00589   0.00698   0.00799

  Beta  occ. eigenvalues --  -38.44846 -38.44301 -38.44286 -38.44264 -38.43806
  Beta  occ. eigenvalues --  -38.43340 -38.42879  -2.20659  -2.20057  -2.20046
  Beta  occ. eigenvalues --   -2.20015  -2.19732  -2.19191  -2.18773  -1.14329
  Beta  occ. eigenvalues --   -1.14309  -1.14299  -1.13734  -1.13731  -1.13720
  Beta  occ. eigenvalues --   -1.13708  -1.13706  -1.13701  -1.13700  -1.13692
  Beta  occ. eigenvalues --   -1.13689  -1.13494  -1.13424  -1.13356  -1.12888
  Beta  occ. eigenvalues --   -1.12833  -1.12817  -1.12504  -1.12409  -1.12365
  Beta  occ. eigenvalues --   -0.17519  -0.13117  -0.11370
  Beta virt. eigenvalues --   -0.07130  -0.06370  -0.05541  -0.03557  -0.02750
  Beta virt. eigenvalues --   -0.02242  -0.02034  -0.01806  -0.01315  -0.00410
  Beta virt. eigenvalues --   -0.00032   0.00037   0.00260   0.00691   0.00798

 Mulliken charges and spin densities:
               1          2
     1  Na   0.116782  -0.001339
     2  Na   0.020208   0.064332
     3  Na   0.282580   0.166094
     4  Na   0.022239  -0.037155
     5  Na  -0.596100   0.626648
     6  Na   0.263364   0.099628
     7  Na  -0.109072   0.081791
 Sum of Mulliken charges =  -0.00000   1.00000

 Dipole moment (field-independent basis, Debye):
    X=             -0.0849    Y=             -0.0692    Z=              0.3318  Tot=              0.3494
 Quadrupole moment (field-independent basis, Debye-Ang):
   XX=            -49.4253   YY=            -71.4078   ZZ=            -72.7484
   XY=             -0.1430   XZ=             -0.4433   YZ=              1.2736

 Normal termination of Gaussian 16 at Fri Dec  8 01:16:44 2023.
