 Gaussian 16, Revision B.01,
 Gaussian 16:  ES64L-G16RevB.01 20-Dec-2017

 -------------------------
 #P B3LYP/6-311+g(d) force
 -------------------------

 -----
 DPGEN
 -----
 Symbolic Z-matrix:
 Charge =  0 Multiplicity = 2

                         Standard orientation:
 ---------------------------------------------------------------------
 Center     Atomic      Atomic             Coordinates (Angstroms)
 Number     Number       Type             X           Y           Z
 ---------------------------------------------------------------------
      1         11           0       -0.039308   -0.559273    2.116810
      2         11           0       -0.958658   -2.861339   -0.021100
      3         11           0        2.186012    2.281356    0.232203
      4         11           0        0.446198   -0.024374   -1.483508
      5         11           0       -1.128375    2.703836   -0.028066
      6         11           0       -3.564353   -0.003082   -0.405024
      7         11           0        3.058485   -1.537124   -0.411315
 ---------------------------------------------------------------------

 SCF Done:  E(UB3LYP) =  -1136.13175439     A.U. after   20 cycles

 The electronic state is 2-A.
 Alpha  occ. eigenvalues --  -38.44349 -38.44298 -38.43945 -38.43877 -38.43659
 Alpha  occ. eigenvalues --  -38.43366 -38.43359  -2.20111  -2.20098  -2.19763
 Alpha  occ. eigenvalues --   -2.19705  -2.19520  -2.19316  -2.19191  -1.13790
 Alpha  occ. eigenvalues --   -1.13786  -1.13764  -1.13747  -1.13746  -1.13726
 Alpha  occ. eigenvalues --   -1.13466  -1.13442  -1.13391  -1.13377  -1.13367
 Alpha  occ. eigenvalues --   -1.13342  -1.13176  -1.13139  -1.13137  -1.13006
 Alpha  occ. eigenvalues --   -1.12964  -1.12945  -1.12868  -1.12859  -1.12820
 Alpha  occ. eigenvalues --   -0.18035  -0.12761  -0.12517  -0.10448
 Alpha virt. eigenvalues --   -0.06106  -0.05396  -0.04753  -0.03069  -0.02813
 Alpha virt. eigenvalues --   -0.02364  -0.01900  -0.01356  -0.00783  -0.00440
 Alpha virt. eigenvalues --   -0.00062   0.00266   0.00717   0.00747   0.00840

  Beta  occ. eigenvalues --  -38.44337 -38.44283 -38.43939 -38.43872 -38.43558
  Beta  occ. eigenvalues --  -38.43357 -38.43324  -2.20089  -2.20073  -2.19758
  Beta  occ. eigenvalues --   -2.19699  -2.19334  -2.19239  -2.19190  -1.13765
  Beta  occ. eigenvalues --   -1.13763  -1.13747  -1.13733  -1.13726  -1.13710
  Beta  occ. eigenvalues --   -1.13454  -1.13415  -1.13387  -1.13378  -1.13350
  Beta  occ. eigenvalues --   -1.13336  -1.13055  -1.13013  -1.13003  -1.12946
  Beta  occ. eigenvalues --   -1.12920  -1.12892  -1.12853  -1.12850  -1.12813
  Beta  occ. eigenvalues --   -0.17394  -0.12510  -0.12251
  Beta virt. eigenvalues --   -0.06724  -0.05923  -0.05341  -0.04686  -0.02361
  Beta virt. eigenvalues --   -0.02171  -0.01756  -0.01398  -0.01273  -0.00796
  Beta virt. eigenvalues --   -0.00463   0.00105   0.00332   0.00745   0.00813

 Mulliken charges and spin densities:
               1          2
     1  Na  -0.318890   0.611974
     2  Na   0.178480  -0.044843
     3  Na   0.147100   0.014173
     4  Na  -0.177135   0.403074
     5  Na  -0.029676  -0.002392
     6  Na  -0.045456   0.051495
     7  Na   0.245577  -0.033482
 Sum of Mulliken charges =  -0.00000   1.00000

 Dipole moment (field-independent basis, Debye):
    X=              0.2408    Y=             -0.2748    Z=              0.1580  Tot=              0.3981
 Quadrupole moment (field-independent basis, Debye-Ang):
   XX=            -55.0864   YY=            -62.5549   ZZ=            -75.5975
   XY=              0.5508   XZ=              1.4688   YZ=              1.5365

 Normal termination of Gaussian 16 at Thu Dec  7 13:30:18 2023.
