 Gaussian 16, Revision B.01,
 Gaussian 16:  ES64L-G16RevB.01 20-Dec-2017

 -------------------------
 #P B3LYP/6-311+g(d) force
 -------------------------

 -----
 DPGEN
 -----
 Symbolic Z-matrix:
 Charge =  0 Multiplicity = 2

                         Standard orientation:
 ---------------------------------------------------------------------
 Center     Atomic      Atomic             Coordinates (Angstroms)
 Number     Number       Type             X           Y           Z
 ---------------------------------------------------------------------
      1         11           0        2.002047    1.838063   -0.362467
      2         11           0        3.917341   -0.474818   -0.552257
      3         11           0        2.408225   -0.327453    1.926054
      4         11           0        1.023299   -1.138137   -0.686413
      5         11           0       -2.076244   -1.126633   -0.840469
      6         11           0       -2.623736    1.731503   -0.194422
      7         11           0       -4.650932   -0.502525    0.709974
 ---------------------------------------------------------------------

 SCF Done:  E(UB3LYP) =  -1136.08516823     A.U. after   31 cycles

 The electronic state is 2-A.
 Alpha  occ. eigenvalues --  -38.46169 -38.45309 -38.45120 -38.44207 -38.43310
 Alpha  occ. eigenvalues --  -38.43080 -38.41709  -2.22122  -2.21308  -2.20980
 Alpha  occ. eigenvalues --   -2.20181  -2.19194  -2.19055  -2.17778  -1.15854
 Alpha  occ. eigenvalues --   -1.15785  -1.15733  -1.15011  -1.14961  -1.14915
 Alpha  occ. eigenvalues --   -1.14708  -1.14654  -1.14572  -1.13866  -1.13854
 Alpha  occ. eigenvalues --   -1.13741  -1.12932  -1.12835  -1.12825  -1.12760
 Alpha  occ. eigenvalues --   -1.12713  -1.12641  -1.11473  -1.11454  -1.11390
 Alpha  occ. eigenvalues --   -0.18804  -0.15447  -0.10929  -0.10095
 Alpha virt. eigenvalues --   -0.07438  -0.05969  -0.04666  -0.03192  -0.02937
 Alpha virt. eigenvalues --   -0.01797  -0.01725  -0.01390  -0.00876  -0.00492
 Alpha virt. eigenvalues --   -0.00385   0.00131   0.00235   0.00492   0.00633

  Beta  occ. eigenvalues --  -38.46141 -38.45288 -38.45113 -38.44121 -38.43295
  Beta  occ. eigenvalues --  -38.43081 -38.41688  -2.22076  -2.21276  -2.20968
  Beta  occ. eigenvalues --   -2.20024  -2.19165  -2.19057  -2.17742  -1.15825
  Beta  occ. eigenvalues --   -1.15735  -1.15680  -1.14996  -1.14912  -1.14876
  Beta  occ. eigenvalues --   -1.14702  -1.14647  -1.14549  -1.13759  -1.13750
  Beta  occ. eigenvalues --   -1.13618  -1.12912  -1.12819  -1.12807  -1.12754
  Beta  occ. eigenvalues --   -1.12715  -1.12637  -1.11462  -1.11435  -1.11321
  Beta  occ. eigenvalues --   -0.18097  -0.15271  -0.09982
  Beta virt. eigenvalues --   -0.07227  -0.07096  -0.05236  -0.04561  -0.03140
  Beta virt. eigenvalues --   -0.02446  -0.01374  -0.01213  -0.00907  -0.00652
  Beta virt. eigenvalues --   -0.00400  -0.00208   0.00238   0.00289   0.00572

 Mulliken charges and spin densities:
               1          2
     1  Na  -0.544949   0.493772
     2  Na   2.608903   0.117279
     3  Na   0.079027   0.112802
     4  Na  -1.212242   0.082307
     5  Na  -1.108190   0.160846
     6  Na  -0.176131   0.014271
     7  Na   0.353583   0.018723
 Sum of Mulliken charges =  -0.00000   1.00000

 Dipole moment (field-independent basis, Debye):
    X=              0.7549    Y=              0.1458    Z=              0.7084  Tot=              1.0454
 Quadrupole moment (field-independent basis, Debye-Ang):
   XX=            -69.2491   YY=            -71.8448   ZZ=            -63.6446
   XY=             -1.5517   XZ=             -4.5814   YZ=             -3.0522

 Normal termination of Gaussian 16 at Fri Dec  8 18:49:59 2023.
