 Gaussian 16, Revision B.01,
 Gaussian 16:  ES64L-G16RevB.01 20-Dec-2017

 -------------------------
 #P B3LYP/6-311+g(d) force
 -------------------------

 -----
 DPGEN
 -----
 Symbolic Z-matrix:
 Charge =  0 Multiplicity = 2

                         Standard orientation:
 ---------------------------------------------------------------------
 Center     Atomic      Atomic             Coordinates (Angstroms)
 Number     Number       Type             X           Y           Z
 ---------------------------------------------------------------------
      1         11           0        1.089925    2.722047   -0.423813
      2         11           0       -3.096116   -1.263348   -0.981436
      3         11           0        0.202772   -0.671580   -1.205988
      4         11           0       -1.579565   -1.041854    2.031343
      5         11           0        3.442802   -1.692031   -0.708404
      6         11           0       -1.875823    1.651703   -0.264314
      7         11           0        1.816005    0.295062    1.552612
 ---------------------------------------------------------------------

 SCF Done:  E(UB3LYP) =  -1136.12876824     A.U. after   20 cycles

 The electronic state is 2-A.
 Alpha  occ. eigenvalues --  -38.44242 -38.44080 -38.43924 -38.43728 -38.43603
 Alpha  occ. eigenvalues --  -38.43460 -38.42775  -2.20109  -2.19958  -2.19825
 Alpha  occ. eigenvalues --   -2.19567  -2.19532  -2.19400  -2.18657  -1.13770
 Alpha  occ. eigenvalues --   -1.13757  -1.13732  -1.13633  -1.13622  -1.13579
 Alpha  occ. eigenvalues --   -1.13529  -1.13495  -1.13438  -1.13281  -1.13237
 Alpha  occ. eigenvalues --   -1.13213  -1.13186  -1.13183  -1.13150  -1.13078
 Alpha  occ. eigenvalues --   -1.13064  -1.13021  -1.12325  -1.12314  -1.12294
 Alpha  occ. eigenvalues --   -0.18713  -0.13764  -0.11640  -0.11351
 Alpha virt. eigenvalues --   -0.05872  -0.05374  -0.04640  -0.03351  -0.02682
 Alpha virt. eigenvalues --   -0.02451  -0.01891  -0.01110  -0.00573   0.00038
 Alpha virt. eigenvalues --    0.00230   0.00277   0.00519   0.00559   0.00736

  Beta  occ. eigenvalues --  -38.44159 -38.44064 -38.43891 -38.43717 -38.43566
  Beta  occ. eigenvalues --  -38.43448 -38.42775  -2.19955  -2.19932  -2.19767
  Beta  occ. eigenvalues --   -2.19512  -2.19501  -2.19383  -2.18657  -1.13669
  Beta  occ. eigenvalues --   -1.13653  -1.13634  -1.13605  -1.13597  -1.13540
  Beta  occ. eigenvalues --   -1.13492  -1.13443  -1.13388  -1.13232  -1.13193
  Beta  occ. eigenvalues --   -1.13176  -1.13170  -1.13163  -1.13125  -1.13058
  Beta  occ. eigenvalues --   -1.13026  -1.13013  -1.12322  -1.12311  -1.12292
  Beta  occ. eigenvalues --   -0.17990  -0.13597  -0.11411
  Beta virt. eigenvalues --   -0.07409  -0.05694  -0.05157  -0.04134  -0.02995
  Beta virt. eigenvalues --   -0.02109  -0.01856  -0.01675  -0.01007  -0.00207
  Beta virt. eigenvalues --    0.00065   0.00277   0.00386   0.00696   0.00715

 Mulliken charges and spin densities:
               1          2
     1  Na  -0.212998  -0.072684
     2  Na   1.296017   0.057821
     3  Na  -1.244269   0.270168
     4  Na  -0.476376   0.272817
     5  Na   0.042600   0.063795
     6  Na   0.088541   0.257539
     7  Na   0.506485   0.150544
 Sum of Mulliken charges =  -0.00000   1.00000

 Dipole moment (field-independent basis, Debye):
    X=             -0.4212    Y=             -0.2963    Z=              0.0376  Tot=              0.5164
 Quadrupole moment (field-independent basis, Debye-Ang):
   XX=            -54.3557   YY=            -71.5419   ZZ=            -68.4622
   XY=              2.2336   XZ=              0.9441   YZ=              1.0208

 Normal termination of Gaussian 16 at Tue Nov 28 20:02:15 2023.
