 Gaussian 16, Revision B.01,
 Gaussian 16:  ES64L-G16RevB.01 20-Dec-2017

 -------------------------
 #P B3LYP/6-311+g(d) force
 -------------------------

 -----
 DPGEN
 -----
 Symbolic Z-matrix:
 Charge =  0 Multiplicity = 2

                         Standard orientation:
 ---------------------------------------------------------------------
 Center     Atomic      Atomic             Coordinates (Angstroms)
 Number     Number       Type             X           Y           Z
 ---------------------------------------------------------------------
      1         11           0       -2.107465   -2.090640   -0.343085
      2         11           0        0.054243   -0.416805    2.025320
      3         11           0        0.092120    0.153559   -1.857658
      4         11           0        2.808052    0.857340    0.405287
      5         11           0       -2.745223    1.014465    0.447582
      6         11           0        1.792734   -2.412815   -0.296130
      7         11           0        0.105539    2.894896   -0.381318
 ---------------------------------------------------------------------

 SCF Done:  E(UB3LYP) =  -1136.13979207     A.U. after   17 cycles

 The electronic state is 2-A.
 Alpha  occ. eigenvalues --  -38.43817 -38.43735 -38.43608 -38.43601 -38.43553
 Alpha  occ. eigenvalues --  -38.43510 -38.43087  -2.19715  -2.19592  -2.19466
 Alpha  occ. eigenvalues --   -2.19460  -2.19456  -2.19392  -2.18957  -1.13389
 Alpha  occ. eigenvalues --   -1.13355  -1.13349  -1.13263  -1.13258  -1.13225
 Alpha  occ. eigenvalues --   -1.13186  -1.13153  -1.13144  -1.13134  -1.13122
 Alpha  occ. eigenvalues --   -1.13103  -1.13099  -1.13074  -1.13057  -1.13053
 Alpha  occ. eigenvalues --   -1.13043  -1.13021  -1.12648  -1.12602  -1.12584
 Alpha  occ. eigenvalues --   -0.18737  -0.12970  -0.12425  -0.11194
 Alpha virt. eigenvalues --   -0.05275  -0.05105  -0.04589  -0.03413  -0.03121
 Alpha virt. eigenvalues --   -0.02852  -0.01255  -0.01061  -0.00224  -0.00133
 Alpha virt. eigenvalues --    0.00025   0.00390   0.00856   0.00902   0.00920

  Beta  occ. eigenvalues --  -38.43733 -38.43726 -38.43602 -38.43592 -38.43547
  Beta  occ. eigenvalues --  -38.43433 -38.43081  -2.19578  -2.19562  -2.19450
  Beta  occ. eigenvalues --   -2.19447  -2.19385  -2.19323  -2.18949  -1.13301
  Beta  occ. eigenvalues --   -1.13265  -1.13246  -1.13236  -1.13225  -1.13203
  Beta  occ. eigenvalues --   -1.13177  -1.13116  -1.13109  -1.13098  -1.13086
  Beta  occ. eigenvalues --   -1.13071  -1.13050  -1.13048  -1.13038  -1.13014
  Beta  occ. eigenvalues --   -1.12993  -1.12978  -1.12629  -1.12585  -1.12583
  Beta  occ. eigenvalues --   -0.17985  -0.12734  -0.12176
  Beta virt. eigenvalues --   -0.07273  -0.05260  -0.05029  -0.04537  -0.02615
  Beta virt. eigenvalues --   -0.02359  -0.01816  -0.01168  -0.00976  -0.00198
  Beta virt. eigenvalues --   -0.00180   0.00114   0.00411   0.00894   0.00920

 Mulliken charges and spin densities:
               1          2
     1  Na   0.078186  -0.071229
     2  Na  -0.304341   0.581850
     3  Na  -0.171592   0.577738
     4  Na   0.122932   0.005448
     5  Na   0.063553   0.029683
     6  Na   0.066481  -0.097305
     7  Na   0.144781  -0.026186
 Sum of Mulliken charges =  -0.00000   1.00000

 Dipole moment (field-independent basis, Debye):
    X=              0.0746    Y=             -0.2307    Z=              0.1497  Tot=              0.2849
 Quadrupole moment (field-independent basis, Debye-Ang):
   XX=            -59.9553   YY=            -63.1759   ZZ=            -71.7087
   XY=             -0.0802   XZ=              0.1123   YZ=              1.6482

 Normal termination of Gaussian 16 at Tue Dec  5 21:15:14 2023.
