 Gaussian 16, Revision B.01,
 Gaussian 16:  ES64L-G16RevB.01 20-Dec-2017

 -------------------------
 #P B3LYP/6-311+g(d) force
 -------------------------

 -----
 DPGEN
 -----
 Symbolic Z-matrix:
 Charge =  0 Multiplicity = 2

                         Standard orientation:
 ---------------------------------------------------------------------
 Center     Atomic      Atomic             Coordinates (Angstroms)
 Number     Number       Type             X           Y           Z
 ---------------------------------------------------------------------
      1         11           0       -0.764098   -2.588320   -0.044866
      2         11           0        2.814471   -1.775054    0.442636
      3         11           0       -3.442062   -0.546909    0.274933
      4         11           0        2.418609    1.669520   -0.623234
      5         11           0       -0.238474   -0.360838   -1.852660
      6         11           0        0.347739    0.743789    1.873797
      7         11           0       -1.136184    2.857811   -0.070606
 ---------------------------------------------------------------------

 SCF Done:  E(UB3LYP) =  -1136.13202322     A.U. after   18 cycles

 The electronic state is 2-A.
 Alpha  occ. eigenvalues --  -38.44521 -38.44059 -38.43843 -38.43629 -38.43616
 Alpha  occ. eigenvalues --  -38.43594 -38.43418  -2.20298  -2.19896  -2.19636
 Alpha  occ. eigenvalues --   -2.19542  -2.19482  -2.19446  -2.19304  -1.13977
 Alpha  occ. eigenvalues --   -1.13950  -1.13939  -1.13575  -1.13572  -1.13516
 Alpha  occ. eigenvalues --   -1.13347  -1.13307  -1.13290  -1.13280  -1.13205
 Alpha  occ. eigenvalues --   -1.13183  -1.13139  -1.13135  -1.13117  -1.13105
 Alpha  occ. eigenvalues --   -1.13074  -1.13059  -1.12962  -1.12953  -1.12893
 Alpha  occ. eigenvalues --   -0.18226  -0.12926  -0.12359  -0.10618
 Alpha virt. eigenvalues --   -0.05967  -0.05350  -0.04530  -0.03302  -0.02963
 Alpha virt. eigenvalues --   -0.02441  -0.01755  -0.01279  -0.00486  -0.00275
 Alpha virt. eigenvalues --   -0.00031   0.00337   0.00723   0.00798   0.00840

  Beta  occ. eigenvalues --  -38.44520 -38.44042 -38.43834 -38.43627 -38.43538
  Beta  occ. eigenvalues --  -38.43529 -38.43411  -2.20297  -2.19868  -2.19622
  Beta  occ. eigenvalues --   -2.19445  -2.19401  -2.19362  -2.19295  -1.13971
  Beta  occ. eigenvalues --   -1.13946  -1.13939  -1.13559  -1.13526  -1.13500
  Beta  occ. eigenvalues --   -1.13288  -1.13278  -1.13275  -1.13262  -1.13168
  Beta  occ. eigenvalues --   -1.13105  -1.13083  -1.13070  -1.13061  -1.13037
  Beta  occ. eigenvalues --   -1.13031  -1.12993  -1.12939  -1.12913  -1.12887
  Beta  occ. eigenvalues --   -0.17516  -0.12730  -0.12132
  Beta virt. eigenvalues --   -0.06808  -0.05880  -0.05295  -0.04429  -0.02592
  Beta virt. eigenvalues --   -0.02269  -0.01652  -0.01462  -0.01187  -0.00499
  Beta virt. eigenvalues --   -0.00290   0.00103   0.00368   0.00782   0.00811

 Mulliken charges and spin densities:
               1          2
     1  Na   0.179571  -0.000936
     2  Na  -0.027961   0.005139
     3  Na  -0.073024  -0.077918
     4  Na   0.195183   0.024303
     5  Na  -0.025341   0.475090
     6  Na  -0.339509   0.679810
     7  Na   0.091081  -0.105488
 Sum of Mulliken charges =  -0.00000   1.00000

 Dipole moment (field-independent basis, Debye):
    X=             -0.2031    Y=              0.2053    Z=              0.0684  Tot=              0.2968
 Quadrupole moment (field-independent basis, Debye-Ang):
   XX=            -54.5833   YY=            -64.5968   ZZ=            -74.2244
   XY=             -0.8075   XZ=             -1.2053   YZ=             -2.6149

 Normal termination of Gaussian 16 at Mon Dec  4 04:58:59 2023.
