 Gaussian 16, Revision B.01,
 Gaussian 16:  ES64L-G16RevB.01 20-Dec-2017

 -------------------------
 #P B3LYP/6-311+g(d) force
 -------------------------

 -----
 DPGEN
 -----
 Symbolic Z-matrix:
 Charge =  0 Multiplicity = 2

                         Standard orientation:
 ---------------------------------------------------------------------
 Center     Atomic      Atomic             Coordinates (Angstroms)
 Number     Number       Type             X           Y           Z
 ---------------------------------------------------------------------
      1         11           0        0.363319    0.006060   -1.609082
      2         11           0       -2.245007   -2.051002   -0.358203
      3         11           0        0.843087    2.700609   -0.193028
      4         11           0       -0.482065   -0.137781    2.285241
      5         11           0       -3.142694    1.540279   -0.185140
      6         11           0        1.358826   -2.411421   -0.135687
      7         11           0        3.304534    0.353255    0.195898
 ---------------------------------------------------------------------

 SCF Done:  E(UB3LYP) =  -1136.13086499     A.U. after   20 cycles

 The electronic state is 2-A.
 Alpha  occ. eigenvalues --  -38.44525 -38.44398 -38.44013 -38.43844 -38.43444
 Alpha  occ. eigenvalues --  -38.43365 -38.43116  -2.20276  -2.20231  -2.19841
 Alpha  occ. eigenvalues --   -2.19661  -2.19437  -2.19212  -2.19009  -1.13954
 Alpha  occ. eigenvalues --   -1.13931  -1.13919  -1.13897  -1.13891  -1.13881
 Alpha  occ. eigenvalues --   -1.13494  -1.13471  -1.13458  -1.13344  -1.13326
 Alpha  occ. eigenvalues --   -1.13291  -1.13179  -1.13144  -1.13038  -1.12891
 Alpha  occ. eigenvalues --   -1.12866  -1.12818  -1.12699  -1.12656  -1.12620
 Alpha  occ. eigenvalues --   -0.18327  -0.13122  -0.12064  -0.10782
 Alpha virt. eigenvalues --   -0.06152  -0.05399  -0.04222  -0.03403  -0.02758
 Alpha virt. eigenvalues --   -0.02697  -0.01865  -0.01221  -0.00434  -0.00283
 Alpha virt. eigenvalues --   -0.00073   0.00306   0.00695   0.00828   0.00836

  Beta  occ. eigenvalues --  -38.44527 -38.44396 -38.43909 -38.43838 -38.43387
  Beta  occ. eigenvalues --  -38.43359 -38.43109  -2.20281  -2.20229  -2.19653
  Beta  occ. eigenvalues --   -2.19646  -2.19334  -2.19204  -2.19000  -1.13944
  Beta  occ. eigenvalues --   -1.13937  -1.13923  -1.13895  -1.13883  -1.13874
  Beta  occ. eigenvalues --   -1.13367  -1.13341  -1.13326  -1.13320  -1.13302
  Beta  occ. eigenvalues --   -1.13288  -1.13112  -1.13079  -1.12968  -1.12867
  Beta  occ. eigenvalues --   -1.12845  -1.12816  -1.12685  -1.12624  -1.12618
  Beta  occ. eigenvalues --   -0.17619  -0.12949  -0.11841
  Beta virt. eigenvalues --   -0.06840  -0.06067  -0.05384  -0.04186  -0.02644
  Beta virt. eigenvalues --   -0.01988  -0.01816  -0.01608  -0.01163  -0.00477
  Beta virt. eigenvalues --   -0.00316   0.00103   0.00345   0.00776   0.00833

 Mulliken charges and spin densities:
               1          2
     1  Na  -0.089126   0.279283
     2  Na   0.202360  -0.023656
     3  Na   0.117797  -0.065842
     4  Na  -0.664946   0.766443
     5  Na   0.000234  -0.082076
     6  Na   0.312132   0.055479
     7  Na   0.121551   0.070369
 Sum of Mulliken charges =  -0.00000   1.00000

 Dipole moment (field-independent basis, Debye):
    X=             -0.1215    Y=              0.1215    Z=              0.2130  Tot=              0.2737
 Quadrupole moment (field-independent basis, Debye-Ang):
   XX=            -52.8284   YY=            -66.4504   ZZ=            -74.2465
   XY=             -0.2373   XZ=              1.9917   YZ=              0.3534

 Normal termination of Gaussian 16 at Fri Dec  8 01:52:08 2023.
