 Gaussian 16, Revision B.01,
 Gaussian 16:  ES64L-G16RevB.01 20-Dec-2017

 -------------------------
 #P B3LYP/6-311+g(d) force
 -------------------------

 -----
 DPGEN
 -----
 Symbolic Z-matrix:
 Charge =  0 Multiplicity = 2

                         Standard orientation:
 ---------------------------------------------------------------------
 Center     Atomic      Atomic             Coordinates (Angstroms)
 Number     Number       Type             X           Y           Z
 ---------------------------------------------------------------------
      1         11           0        2.407508    2.565085   -0.196996
      2         11           0       -1.094504    3.381441   -0.486703
      3         11           0       -0.429115   -3.031676   -0.574415
      4         11           0        4.388090    0.346576    0.854270
      5         11           0       -3.570813   -1.815202    0.593048
      6         11           0       -4.448962    1.084381    0.196752
      7         11           0        2.747796   -2.530605   -0.385957
 ---------------------------------------------------------------------

 SCF Done:  E(UB3LYP) =  -1136.10881587     A.U. after   22 cycles

 The electronic state is 2-A.
 Alpha  occ. eigenvalues --  -38.44978 -38.44863 -38.44756 -38.44675 -38.44378
 Alpha  occ. eigenvalues --  -38.44095 -38.43904  -2.20775  -2.20652  -2.20573
 Alpha  occ. eigenvalues --   -2.20461  -2.20150  -2.19934  -2.19708  -1.14507
 Alpha  occ. eigenvalues --   -1.14432  -1.14407  -1.14334  -1.14326  -1.14292
 Alpha  occ. eigenvalues --   -1.14228  -1.14217  -1.14197  -1.14150  -1.14133
 Alpha  occ. eigenvalues --   -1.14123  -1.13807  -1.13797  -1.13766  -1.13583
 Alpha  occ. eigenvalues --   -1.13571  -1.13559  -1.13368  -1.13365  -1.13347
 Alpha  occ. eigenvalues --   -0.15758  -0.14348  -0.13234  -0.11054
 Alpha virt. eigenvalues --   -0.07589  -0.04747  -0.04349  -0.03686  -0.03635
 Alpha virt. eigenvalues --   -0.02519  -0.02023  -0.01717  -0.01136  -0.00990
 Alpha virt. eigenvalues --   -0.00722  -0.00038  -0.00003   0.00445   0.00769

  Beta  occ. eigenvalues --  -38.44955 -38.44850 -38.44734 -38.44667 -38.44304
  Beta  occ. eigenvalues --  -38.44034 -38.43870  -2.20737  -2.20634  -2.20536
  Beta  occ. eigenvalues --   -2.20454  -2.20012  -2.19821  -2.19648  -1.14467
  Beta  occ. eigenvalues --   -1.14409  -1.14376  -1.14319  -1.14315  -1.14253
  Beta  occ. eigenvalues --   -1.14205  -1.14196  -1.14154  -1.14148  -1.14136
  Beta  occ. eigenvalues --   -1.14071  -1.13714  -1.13705  -1.13669  -1.13510
  Beta  occ. eigenvalues --   -1.13493  -1.13485  -1.13326  -1.13325  -1.13301
  Beta  occ. eigenvalues --   -0.15228  -0.13725  -0.12317
  Beta virt. eigenvalues --   -0.07899  -0.07802  -0.04186  -0.03838  -0.03468
  Beta virt. eigenvalues --   -0.03407  -0.02300  -0.01924  -0.01558  -0.00895
  Beta virt. eigenvalues --   -0.00662  -0.00393   0.00134   0.00207   0.00460

 Mulliken charges and spin densities:
               1          2
     1  Na  -0.377192  -0.012117
     2  Na  -0.021812   0.379638
     3  Na  -0.214440   0.080510
     4  Na   0.342319   0.247750
     5  Na   0.068802   0.113371
     6  Na   0.088689   0.129029
     7  Na   0.113633   0.061819
 Sum of Mulliken charges =  -0.00000   1.00000

 Dipole moment (field-independent basis, Debye):
    X=             -0.3350    Y=             -0.1308    Z=              0.1786  Tot=              0.4016
 Quadrupole moment (field-independent basis, Debye-Ang):
   XX=            -57.6437   YY=            -68.9134   ZZ=            -72.7938
   XY=             -3.9456   XZ=              0.6488   YZ=             -1.0124

 Normal termination of Gaussian 16 at Sun Dec  3 23:23:41 2023.
