 Gaussian 16, Revision B.01,
 Gaussian 16:  ES64L-G16RevB.01 20-Dec-2017

 -------------------------
 #P B3LYP/6-311+g(d) force
 -------------------------

 -----
 DPGEN
 -----
 Symbolic Z-matrix:
 Charge =  0 Multiplicity = 2

                         Standard orientation:
 ---------------------------------------------------------------------
 Center     Atomic      Atomic             Coordinates (Angstroms)
 Number     Number       Type             X           Y           Z
 ---------------------------------------------------------------------
      1         11           0       -2.865570    0.467829    0.790021
      2         11           0        2.401404    1.821211   -0.410609
      3         11           0       -1.584345   -2.464720   -0.323464
      4         11           0        2.395746   -2.031709   -0.123359
      5         11           0        0.963225   -0.169865    1.997293
      6         11           0       -0.537692   -0.296465   -1.626017
      7         11           0       -0.772768    2.673719   -0.303865
 ---------------------------------------------------------------------

 SCF Done:  E(UB3LYP) =  -1136.12991798     A.U. after   19 cycles

 The electronic state is 2-A.
 Alpha  occ. eigenvalues --  -38.44025 -38.43896 -38.43891 -38.43781 -38.43756
 Alpha  occ. eigenvalues --  -38.43462 -38.43169  -2.19848  -2.19795  -2.19736
 Alpha  occ. eigenvalues --   -2.19666  -2.19630  -2.19480  -2.19062  -1.13734
 Alpha  occ. eigenvalues --   -1.13571  -1.13510  -1.13474  -1.13429  -1.13423
 Alpha  occ. eigenvalues --   -1.13402  -1.13383  -1.13372  -1.13317  -1.13310
 Alpha  occ. eigenvalues --   -1.13291  -1.13283  -1.13274  -1.13261  -1.13122
 Alpha  occ. eigenvalues --   -1.13076  -1.13054  -1.12741  -1.12714  -1.12699
 Alpha  occ. eigenvalues --   -0.18701  -0.13160  -0.12619  -0.10852
 Alpha virt. eigenvalues --   -0.05622  -0.05159  -0.04511  -0.03622  -0.03019
 Alpha virt. eigenvalues --   -0.02528  -0.01330  -0.01128  -0.00279  -0.00147
 Alpha virt. eigenvalues --    0.00021   0.00360   0.00834   0.00877   0.00902

  Beta  occ. eigenvalues --  -38.44024 -38.43887 -38.43880 -38.43731 -38.43708
  Beta  occ. eigenvalues --  -38.43400 -38.43162  -2.19849  -2.19778  -2.19722
  Beta  occ. eigenvalues --   -2.19586  -2.19531  -2.19367  -2.19053  -1.13697
  Beta  occ. eigenvalues --   -1.13555  -1.13501  -1.13474  -1.13412  -1.13398
  Beta  occ. eigenvalues --   -1.13378  -1.13375  -1.13359  -1.13285  -1.13243
  Beta  occ. eigenvalues --   -1.13229  -1.13224  -1.13201  -1.13183  -1.13042
  Beta  occ. eigenvalues --   -1.13004  -1.12980  -1.12732  -1.12698  -1.12680
  Beta  occ. eigenvalues --   -0.18019  -0.12938  -0.12321
  Beta virt. eigenvalues --   -0.07054  -0.05590  -0.04966  -0.04483  -0.02872
  Beta virt. eigenvalues --   -0.02282  -0.01579  -0.01220  -0.01049  -0.00259
  Beta virt. eigenvalues --   -0.00143   0.00135   0.00408   0.00842   0.00915

 Mulliken charges and spin densities:
               1          2
     1  Na  -0.085013   0.223221
     2  Na   0.061217  -0.048870
     3  Na   0.328303  -0.002876
     4  Na   0.111683  -0.127813
     5  Na  -0.435729   0.605339
     6  Na  -0.109422   0.321711
     7  Na   0.128961   0.029288
 Sum of Mulliken charges =  -0.00000   1.00000

 Dipole moment (field-independent basis, Debye):
    X=              0.3539    Y=             -0.2252    Z=              0.2164  Tot=              0.4720
 Quadrupole moment (field-independent basis, Debye-Ang):
   XX=            -58.8846   YY=            -63.3819   ZZ=            -72.7366
   XY=             -0.1251   XZ=             -3.3588   YZ=             -0.0548

 Normal termination of Gaussian 16 at Tue Dec  5 13:45:35 2023.
