 Gaussian 16, Revision B.01,
 Gaussian 16:  ES64L-G16RevB.01 20-Dec-2017

 -------------------------
 #P B3LYP/6-311+g(d) force
 -------------------------

 -----
 DPGEN
 -----
 Symbolic Z-matrix:
 Charge =  0 Multiplicity = 2

                         Standard orientation:
 ---------------------------------------------------------------------
 Center     Atomic      Atomic             Coordinates (Angstroms)
 Number     Number       Type             X           Y           Z
 ---------------------------------------------------------------------
      1         11           0        0.172417    1.282446    1.045423
      2         11           0       -1.846797    3.346935   -0.910935
      3         11           0       -2.947049    0.593308    0.568571
      4         11           0       -0.495204   -2.194593    0.052409
      5         11           0        2.911701   -0.499992    1.077673
      6         11           0       -3.768892   -2.379214   -0.785407
      7         11           0        5.973824   -0.148891   -1.047734
 ---------------------------------------------------------------------

 SCF Done:  E(UB3LYP) =  -1136.12291184     A.U. after   20 cycles

 The electronic state is 2-A.
 Alpha  occ. eigenvalues --  -38.44906 -38.44330 -38.44045 -38.43971 -38.43684
 Alpha  occ. eigenvalues --  -38.43647 -38.43362  -2.20692  -2.20142  -2.19939
 Alpha  occ. eigenvalues --   -2.19783  -2.19583  -2.19470  -2.19164  -1.14323
 Alpha  occ. eigenvalues --   -1.14323  -1.14294  -1.13839  -1.13835  -1.13734
 Alpha  occ. eigenvalues --   -1.13676  -1.13629  -1.13541  -1.13446  -1.13442
 Alpha  occ. eigenvalues --   -1.13395  -1.13293  -1.13262  -1.13172  -1.13133
 Alpha  occ. eigenvalues --   -1.13126  -1.13097  -1.12858  -1.12839  -1.12799
 Alpha  occ. eigenvalues --   -0.17050  -0.13672  -0.12409  -0.11336
 Alpha virt. eigenvalues --   -0.05926  -0.05489  -0.04634  -0.03789  -0.02411
 Alpha virt. eigenvalues --   -0.02355  -0.02176  -0.01698  -0.00912  -0.00586
 Alpha virt. eigenvalues --   -0.00537  -0.00138   0.00062   0.00438   0.00645

  Beta  occ. eigenvalues --  -38.44773 -38.44314 -38.44035 -38.43959 -38.43659
  Beta  occ. eigenvalues --  -38.43632 -38.43367  -2.20444  -2.20113  -2.19922
  Beta  occ. eigenvalues --   -2.19761  -2.19539  -2.19442  -2.19182  -1.14155
  Beta  occ. eigenvalues --   -1.14154  -1.14129  -1.13822  -1.13815  -1.13704
  Beta  occ. eigenvalues --   -1.13654  -1.13619  -1.13528  -1.13430  -1.13426
  Beta  occ. eigenvalues --   -1.13383  -1.13269  -1.13233  -1.13126  -1.13110
  Beta  occ. eigenvalues --   -1.13107  -1.13082  -1.12875  -1.12858  -1.12760
  Beta  occ. eigenvalues --   -0.16672  -0.12756  -0.12297
  Beta virt. eigenvalues --   -0.07666  -0.05790  -0.05039  -0.04322  -0.03664
  Beta virt. eigenvalues --   -0.02265  -0.01994  -0.01590  -0.01353  -0.00676
  Beta virt. eigenvalues --   -0.00334  -0.00244   0.00026   0.00242   0.00579

 Mulliken charges and spin densities:
               1          2
     1  Na  -0.580720   0.057561
     2  Na   0.436499   0.110253
     3  Na  -0.094724   0.126265
     4  Na  -0.275601   0.098852
     5  Na   0.062966  -0.143870
     6  Na   0.435152   0.072598
     7  Na   0.016427   0.678341
 Sum of Mulliken charges =  -0.00000   1.00000

 Dipole moment (field-independent basis, Debye):
    X=             -0.9209    Y=              0.2467    Z=             -0.8175  Tot=              1.2559
 Quadrupole moment (field-independent basis, Debye-Ang):
   XX=            -64.8265   YY=            -65.5262   ZZ=            -67.5018
   XY=              0.8724   XZ=              0.0387   YZ=             -1.4472

 Normal termination of Gaussian 16 at Wed Nov 29 03:14:31 2023.
