 Gaussian 16, Revision B.01,
 Gaussian 16:  ES64L-G16RevB.01 20-Dec-2017

 -------------------------
 #P B3LYP/6-311+g(d) force
 -------------------------

 -----
 DPGEN
 -----
 Symbolic Z-matrix:
 Charge =  0 Multiplicity = 2

                         Standard orientation:
 ---------------------------------------------------------------------
 Center     Atomic      Atomic             Coordinates (Angstroms)
 Number     Number       Type             X           Y           Z
 ---------------------------------------------------------------------
      1         11           0        1.495840   -2.442841   -1.605677
      2         11           0        5.091630   -0.544900    1.850015
      3         11           0        3.053326    0.390681   -0.548552
      4         11           0        0.643304    3.181708   -0.972342
      5         11           0       -0.188356   -0.088382   -0.133086
      6         11           0       -4.007718    0.072550    1.845657
      7         11           0       -6.088026   -0.568814   -0.436015
 ---------------------------------------------------------------------

 SCF Done:  E(UB3LYP) =  -1136.10506663     A.U. after   22 cycles

 The electronic state is 2-A.
 Alpha  occ. eigenvalues --  -38.44925 -38.44889 -38.44562 -38.44217 -38.43807
 Alpha  occ. eigenvalues --  -38.43522 -38.43409  -2.20770  -2.20657  -2.20343
 Alpha  occ. eigenvalues --   -2.20077  -2.19602  -2.19416  -2.19210  -1.14429
 Alpha  occ. eigenvalues --   -1.14411  -1.14373  -1.14330  -1.14318  -1.14315
 Alpha  occ. eigenvalues --   -1.14005  -1.13993  -1.13974  -1.13768  -1.13747
 Alpha  occ. eigenvalues --   -1.13708  -1.13268  -1.13244  -1.13227  -1.13120
 Alpha  occ. eigenvalues --   -1.13105  -1.13006  -1.12867  -1.12866  -1.12830
 Alpha  occ. eigenvalues --   -0.16656  -0.13541  -0.11749  -0.11467
 Alpha virt. eigenvalues --   -0.06775  -0.05001  -0.04846  -0.03269  -0.02980
 Alpha virt. eigenvalues --   -0.02451  -0.02160  -0.01558  -0.01176  -0.00908
 Alpha virt. eigenvalues --   -0.00655  -0.00416   0.00123   0.00430   0.00523

  Beta  occ. eigenvalues --  -38.44895 -38.44831 -38.44559 -38.44208 -38.43738
  Beta  occ. eigenvalues --  -38.43510 -38.43370  -2.20668  -2.20597  -2.20338
  Beta  occ. eigenvalues --   -2.20066  -2.19476  -2.19398  -2.19136  -1.14337
  Beta  occ. eigenvalues --   -1.14326  -1.14323  -1.14302  -1.14296  -1.14260
  Beta  occ. eigenvalues --   -1.14001  -1.13990  -1.13973  -1.13763  -1.13741
  Beta  occ. eigenvalues --   -1.13666  -1.13182  -1.13159  -1.13146  -1.13112
  Beta  occ. eigenvalues --   -1.13060  -1.12987  -1.12817  -1.12815  -1.12784
  Beta  occ. eigenvalues --   -0.15929  -0.13515  -0.10827
  Beta virt. eigenvalues --   -0.07967  -0.06703  -0.04832  -0.04294  -0.03018
  Beta virt. eigenvalues --   -0.02786  -0.02240  -0.01670  -0.01362  -0.00960
  Beta virt. eigenvalues --   -0.00664  -0.00393  -0.00196   0.00190   0.00493

 Mulliken charges and spin densities:
               1          2
     1  Na   0.881368   0.249502
     2  Na   0.384547   0.286801
     3  Na  -0.105431   0.277381
     4  Na   0.261683   0.212324
     5  Na  -1.382341  -0.004891
     6  Na  -0.226577   0.009363
     7  Na   0.186750  -0.030480
 Sum of Mulliken charges =  -0.00000   1.00000

 Dipole moment (field-independent basis, Debye):
    X=             -1.7497    Y=             -0.6387    Z=             -0.5068  Tot=              1.9303
 Quadrupole moment (field-independent basis, Debye-Ang):
   XX=            -66.3901   YY=            -68.3038   ZZ=            -62.6895
   XY=              1.3739   XZ=              4.4952   YZ=              2.2194

 Normal termination of Gaussian 16 at Wed Nov 29 00:34:20 2023.
