 Gaussian 16, Revision B.01,
 Gaussian 16:  ES64L-G16RevB.01 20-Dec-2017

 -------------------------
 #P B3LYP/6-311+g(d) force
 -------------------------

 -----
 DPGEN
 -----
 Symbolic Z-matrix:
 Charge =  0 Multiplicity = 2

                         Standard orientation:
 ---------------------------------------------------------------------
 Center     Atomic      Atomic             Coordinates (Angstroms)
 Number     Number       Type             X           Y           Z
 ---------------------------------------------------------------------
      1         11           0       -2.196521   -0.642962    1.249822
      2         11           0       -3.322872    2.347557   -0.404536
      3         11           0        3.033609    0.748011    0.148481
      4         11           0       -4.491302   -2.377263   -0.282646
      5         11           0        6.304302   -0.809664    0.047347
      6         11           0       -0.152750    2.105390   -0.009006
      7         11           0        0.825534   -1.371070   -0.749463
 ---------------------------------------------------------------------

 SCF Done:  E(UB3LYP) =  -1136.11364422     A.U. after   23 cycles

 The electronic state is 2-A.
 Alpha  occ. eigenvalues --  -38.45464 -38.45035 -38.44165 -38.44111 -38.43959
 Alpha  occ. eigenvalues --  -38.43810 -38.43029  -2.21287  -2.20822  -2.20005
 Alpha  occ. eigenvalues --   -2.19939  -2.19808  -2.19572  -2.18906  -1.14953
 Alpha  occ. eigenvalues --   -1.14925  -1.14914  -1.14457  -1.14456  -1.14427
 Alpha  occ. eigenvalues --   -1.13697  -1.13684  -1.13639  -1.13597  -1.13585
 Alpha  occ. eigenvalues --   -1.13566  -1.13498  -1.13488  -1.13431  -1.13240
 Alpha  occ. eigenvalues --   -1.13234  -1.13212  -1.12595  -1.12585  -1.12535
 Alpha  occ. eigenvalues --   -0.17138  -0.14105  -0.11736  -0.11337
 Alpha virt. eigenvalues --   -0.06492  -0.05802  -0.04628  -0.03359  -0.02907
 Alpha virt. eigenvalues --   -0.02765  -0.01786  -0.01597  -0.01277  -0.01017
 Alpha virt. eigenvalues --   -0.00355  -0.00029   0.00024   0.00347   0.00628

  Beta  occ. eigenvalues --  -38.45409 -38.44918 -38.44167 -38.44061 -38.43952
  Beta  occ. eigenvalues --  -38.43826 -38.43027  -2.21187  -2.20605  -2.20016
  Beta  occ. eigenvalues --   -2.19845  -2.19796  -2.19602  -2.18906  -1.14884
  Beta  occ. eigenvalues --   -1.14859  -1.14843  -1.14309  -1.14307  -1.14283
  Beta  occ. eigenvalues --   -1.13708  -1.13698  -1.13602  -1.13537  -1.13525
  Beta  occ. eigenvalues --   -1.13502  -1.13484  -1.13471  -1.13425  -1.13262
  Beta  occ. eigenvalues --   -1.13253  -1.13230  -1.12599  -1.12592  -1.12505
  Beta  occ. eigenvalues --   -0.16612  -0.13435  -0.11162
  Beta virt. eigenvalues --   -0.08095  -0.06199  -0.05551  -0.04138  -0.03136
  Beta virt. eigenvalues --   -0.02697  -0.02395  -0.01455  -0.01273  -0.00906
  Beta virt. eigenvalues --   -0.00627  -0.00293   0.00052   0.00176   0.00425

 Mulliken charges and spin densities:
               1          2
     1  Na   0.042209  -0.104348
     2  Na   0.367483   0.222888
     3  Na  -0.415355   0.271761
     4  Na   0.014892  -0.072179
     5  Na   0.402793   0.438508
     6  Na  -0.321015   0.014310
     7  Na  -0.091007   0.229060
 Sum of Mulliken charges =  -0.00000   1.00000

 Dipole moment (field-independent basis, Debye):
    X=              0.2898    Y=             -0.2742    Z=             -0.6765  Tot=              0.7854
 Quadrupole moment (field-independent basis, Debye-Ang):
   XX=            -59.5289   YY=            -72.2942   ZZ=            -69.0150
   XY=             -3.0658   XZ=              3.8010   YZ=              2.7659

 Normal termination of Gaussian 16 at Tue Nov 28 22:17:42 2023.
