 Gaussian 16, Revision B.01,
 Gaussian 16:  ES64L-G16RevB.01 20-Dec-2017

 -------------------------
 #P B3LYP/6-311+g(d) force
 -------------------------

 -----
 DPGEN
 -----
 Symbolic Z-matrix:
 Charge =  0 Multiplicity = 2

                         Standard orientation:
 ---------------------------------------------------------------------
 Center     Atomic      Atomic             Coordinates (Angstroms)
 Number     Number       Type             X           Y           Z
 ---------------------------------------------------------------------
      1         11           0       -0.058908    3.061017    0.475992
      2         11           0        5.883327   -0.604007   -0.463039
      3         11           0        2.693854    1.407734   -0.387870
      4         11           0        2.536302   -1.906938    0.766223
      5         11           0       -0.137276   -0.982120    0.192835
      6         11           0       -3.860759   -0.701413   -0.701489
      7         11           0       -7.056540   -0.274273    0.117347
 ---------------------------------------------------------------------

 SCF Done:  E(UB3LYP) =  -1136.11009459     A.U. after   24 cycles

 The electronic state is 2-A.
 Alpha  occ. eigenvalues --  -38.44833 -38.44535 -38.44492 -38.44479 -38.44366
 Alpha  occ. eigenvalues --  -38.44164 -38.44033  -2.20715  -2.20419  -2.20342
 Alpha  occ. eigenvalues --   -2.20240  -2.20161  -2.19932  -2.19797  -1.14524
 Alpha  occ. eigenvalues --   -1.14365  -1.14317  -1.14066  -1.14050  -1.14045
 Alpha  occ. eigenvalues --   -1.14026  -1.13995  -1.13947  -1.13901  -1.13900
 Alpha  occ. eigenvalues --   -1.13878  -1.13816  -1.13807  -1.13771  -1.13600
 Alpha  occ. eigenvalues --   -1.13597  -1.13547  -1.13474  -1.13471  -1.13425
 Alpha  occ. eigenvalues --   -0.17034  -0.13347  -0.12316  -0.11733
 Alpha virt. eigenvalues --   -0.06950  -0.05463  -0.03937  -0.03795  -0.03518
 Alpha virt. eigenvalues --   -0.02279  -0.02067  -0.01708  -0.01506  -0.00926
 Alpha virt. eigenvalues --   -0.00674  -0.00093   0.00075   0.00327   0.00527

  Beta  occ. eigenvalues --  -38.44781 -38.44466 -38.44466 -38.44454 -38.44319
  Beta  occ. eigenvalues --  -38.44138 -38.44038  -2.20627  -2.20297  -2.20275
  Beta  occ. eigenvalues --   -2.20216  -2.20074  -2.19884  -2.19808  -1.14435
  Beta  occ. eigenvalues --   -1.14311  -1.14242  -1.14002  -1.13988  -1.13980
  Beta  occ. eigenvalues --   -1.13960  -1.13900  -1.13885  -1.13884  -1.13884
  Beta  occ. eigenvalues --   -1.13862  -1.13759  -1.13738  -1.13719  -1.13567
  Beta  occ. eigenvalues --   -1.13560  -1.13517  -1.13482  -1.13479  -1.13426
  Beta  occ. eigenvalues --   -0.16232  -0.13214  -0.11557
  Beta virt. eigenvalues --   -0.08323  -0.06613  -0.05108  -0.03688  -0.03590
  Beta virt. eigenvalues --   -0.02858  -0.02192  -0.01809  -0.01484  -0.01245
  Beta virt. eigenvalues --   -0.00567  -0.00426   0.00008   0.00270   0.00384

 Mulliken charges and spin densities:
               1          2
     1  Na   0.653421   0.012158
     2  Na   0.123256   0.145242
     3  Na  -0.580211   0.414316
     4  Na   1.314556  -0.327242
     5  Na  -1.347059   0.743134
     6  Na  -0.773096  -0.016718
     7  Na   0.609133   0.029110
 Sum of Mulliken charges =  -0.00000   1.00000

 Dipole moment (field-independent basis, Debye):
    X=              0.3594    Y=              0.4350    Z=              0.3460  Tot=              0.6619
 Quadrupole moment (field-independent basis, Debye-Ang):
   XX=            -54.6861   YY=            -68.1194   ZZ=            -71.9834
   XY=             -4.8487   XZ=             -3.9372   YZ=              0.0547

 Normal termination of Gaussian 16 at Tue Nov 28 22:49:34 2023.
