 Gaussian 16, Revision B.01,
 Gaussian 16:  ES64L-G16RevB.01 20-Dec-2017

 -------------------------
 #P B3LYP/6-311+g(d) force
 -------------------------

 -----
 DPGEN
 -----
 Symbolic Z-matrix:
 Charge =  0 Multiplicity = 2

                         Standard orientation:
 ---------------------------------------------------------------------
 Center     Atomic      Atomic             Coordinates (Angstroms)
 Number     Number       Type             X           Y           Z
 ---------------------------------------------------------------------
      1         11           0        1.007482   -0.476765    2.148910
      2         11           0        0.201660   -1.953508   -0.113806
      3         11           0        3.355385   -0.853533   -0.705534
      4         11           0       -1.605409    0.281206   -2.145773
      5         11           0       -3.406996   -0.916584    0.249060
      6         11           0       -1.498299    1.904662    1.008791
      7         11           0        1.946177    2.014521   -0.441649
 ---------------------------------------------------------------------

 SCF Done:  E(UB3LYP) =  -1136.12170889     A.U. after   23 cycles

 The electronic state is 2-A.
 Alpha  occ. eigenvalues --  -38.44956 -38.44800 -38.44596 -38.44449 -38.43035
 Alpha  occ. eigenvalues --  -38.43035 -38.42843  -2.20772  -2.20655  -2.20439
 Alpha  occ. eigenvalues --   -2.20371  -2.18882  -2.18867  -2.18772  -1.14471
 Alpha  occ. eigenvalues --   -1.14437  -1.14411  -1.14323  -1.14278  -1.14258
 Alpha  occ. eigenvalues --   -1.14148  -1.14113  -1.14100  -1.14064  -1.13966
 Alpha  occ. eigenvalues --   -1.13956  -1.12563  -1.12546  -1.12543  -1.12531
 Alpha  occ. eigenvalues --   -1.12521  -1.12520  -1.12496  -1.12433  -1.12342
 Alpha  occ. eigenvalues --   -0.18415  -0.13987  -0.11487  -0.11015
 Alpha virt. eigenvalues --   -0.06628  -0.04897  -0.04710  -0.03185  -0.02922
 Alpha virt. eigenvalues --   -0.02743  -0.02144  -0.00841  -0.00494  -0.00087
 Alpha virt. eigenvalues --    0.00116   0.00225   0.00332   0.00690   0.00837

  Beta  occ. eigenvalues --  -38.44964 -38.44744 -38.44576 -38.44367 -38.43023
  Beta  occ. eigenvalues --  -38.43012 -38.42825  -2.20790  -2.20550  -2.20403
  Beta  occ. eigenvalues --   -2.20223  -2.18848  -2.18841  -2.18745  -1.14466
  Beta  occ. eigenvalues --   -1.14442  -1.14424  -1.14252  -1.14212  -1.14188
  Beta  occ. eigenvalues --   -1.14086  -1.14074  -1.14050  -1.14031  -1.13861
  Beta  occ. eigenvalues --   -1.13844  -1.12537  -1.12528  -1.12515  -1.12503
  Beta  occ. eigenvalues --   -1.12492  -1.12475  -1.12473  -1.12400  -1.12333
  Beta  occ. eigenvalues --   -0.17680  -0.13744  -0.10812
  Beta virt. eigenvalues --   -0.07694  -0.06300  -0.04850  -0.04079  -0.02989
  Beta virt. eigenvalues --   -0.02261  -0.02105  -0.01889  -0.00772  -0.00178
  Beta virt. eigenvalues --    0.00019   0.00224   0.00346   0.00382   0.00816

 Mulliken charges and spin densities:
               1          2
     1  Na  -0.592180   0.203516
     2  Na   0.647604   0.340254
     3  Na   0.038997  -0.024876
     4  Na  -0.571575   0.176011
     5  Na   0.514596  -0.001704
     6  Na   0.065959   0.167631
     7  Na  -0.103401   0.139168
 Sum of Mulliken charges =  -0.00000   1.00000

 Dipole moment (field-independent basis, Debye):
    X=             -0.4724    Y=             -0.3359    Z=             -0.2418  Tot=              0.6281
 Quadrupole moment (field-independent basis, Debye-Ang):
   XX=            -50.5457   YY=            -79.3312   ZZ=            -65.0761
   XY=              0.0004   XZ=             -2.7240   YZ=             -0.6224

 Normal termination of Gaussian 16 at Fri Dec  8 17:06:51 2023.
