 Gaussian 16, Revision B.01,
 Gaussian 16:  ES64L-G16RevB.01 20-Dec-2017

 -------------------------
 #P B3LYP/6-311+g(d) force
 -------------------------

 -----
 DPGEN
 -----
 Symbolic Z-matrix:
 Charge =  0 Multiplicity = 2

                         Standard orientation:
 ---------------------------------------------------------------------
 Center     Atomic      Atomic             Coordinates (Angstroms)
 Number     Number       Type             X           Y           Z
 ---------------------------------------------------------------------
      1         11           0        1.685832   -1.748025    1.727918
      2         11           0        1.517594    1.710597    0.411637
      3         11           0        3.359602   -0.468956   -1.378917
      4         11           0       -1.533404    3.220679   -0.526094
      5         11           0       -1.662274    0.581513    1.384893
      6         11           0       -0.494356   -0.688299   -0.867027
      7         11           0       -2.872995   -2.607510   -0.752411
 ---------------------------------------------------------------------

 SCF Done:  E(UB3LYP) =  -1136.12483843     A.U. after   20 cycles

 The electronic state is 2-A.
 Alpha  occ. eigenvalues --  -38.44219 -38.44046 -38.43878 -38.43836 -38.43679
 Alpha  occ. eigenvalues --  -38.43439 -38.43158  -2.20041  -2.19982  -2.19698
 Alpha  occ. eigenvalues --   -2.19655  -2.19576  -2.19255  -2.19169  -1.13810
 Alpha  occ. eigenvalues --   -1.13699  -1.13696  -1.13650  -1.13620  -1.13565
 Alpha  occ. eigenvalues --   -1.13372  -1.13354  -1.13324  -1.13320  -1.13311
 Alpha  occ. eigenvalues --   -1.13299  -1.13280  -1.13259  -1.13151  -1.12994
 Alpha  occ. eigenvalues --   -1.12899  -1.12897  -1.12880  -1.12785  -1.12727
 Alpha  occ. eigenvalues --   -0.18248  -0.13119  -0.12212  -0.10583
 Alpha virt. eigenvalues --   -0.05645  -0.05276  -0.05069  -0.03083  -0.02681
 Alpha virt. eigenvalues --   -0.02043  -0.01624  -0.01484  -0.00947  -0.00149
 Alpha virt. eigenvalues --    0.00203   0.00214   0.00459   0.00693   0.00756

  Beta  occ. eigenvalues --  -38.44155 -38.44021 -38.43835 -38.43835 -38.43669
  Beta  occ. eigenvalues --  -38.43420 -38.43141  -2.19939  -2.19923  -2.19653
  Beta  occ. eigenvalues --   -2.19618  -2.19562  -2.19220  -2.19142  -1.13784
  Beta  occ. eigenvalues --   -1.13621  -1.13607  -1.13568  -1.13563  -1.13543
  Beta  occ. eigenvalues --   -1.13320  -1.13320  -1.13308  -1.13301  -1.13290
  Beta  occ. eigenvalues --   -1.13278  -1.13262  -1.13207  -1.13147  -1.12969
  Beta  occ. eigenvalues --   -1.12873  -1.12868  -1.12844  -1.12760  -1.12710
  Beta  occ. eigenvalues --   -0.17610  -0.12858  -0.11960
  Beta virt. eigenvalues --   -0.06918  -0.05434  -0.05060  -0.04653  -0.02792
  Beta virt. eigenvalues --   -0.02228  -0.01728  -0.01348  -0.01172  -0.00464
  Beta virt. eigenvalues --   -0.00073   0.00291   0.00330   0.00564   0.00733

 Mulliken charges and spin densities:
               1          2
     1  Na  -0.290670   0.339992
     2  Na   0.353477   0.270649
     3  Na   0.381837   0.097783
     4  Na  -0.009775  -0.045449
     5  Na   0.471796   0.326815
     6  Na  -1.043366  -0.086535
     7  Na   0.136701   0.096744
 Sum of Mulliken charges =  -0.00000   1.00000

 Dipole moment (field-independent basis, Debye):
    X=              0.1430    Y=              0.2031    Z=              0.3180  Tot=              0.4035
 Quadrupole moment (field-independent basis, Debye-Ang):
   XX=            -59.8923   YY=            -62.2087   ZZ=            -69.6653
   XY=             -3.2520   XZ=             -0.7426   YZ=             -2.0925

 Normal termination of Gaussian 16 at Tue Dec  5 11:57:04 2023.
