 Gaussian 16, Revision B.01,
 Gaussian 16:  ES64L-G16RevB.01 20-Dec-2017

 -------------------------
 #P B3LYP/6-311+g(d) force
 -------------------------

 -----
 DPGEN
 -----
 Symbolic Z-matrix:
 Charge =  0 Multiplicity = 2

                         Standard orientation:
 ---------------------------------------------------------------------
 Center     Atomic      Atomic             Coordinates (Angstroms)
 Number     Number       Type             X           Y           Z
 ---------------------------------------------------------------------
      1         11           0       -0.243868   -1.845226   -1.133544
      2         11           0        6.253138    2.965901   -0.194421
      3         11           0        6.079984    0.165854    0.867080
      4         11           0        3.870059   -2.012598   -0.493241
      5         11           0       -2.481067   -1.497306    0.712559
      6         11           0       -6.240710    0.161657    1.096092
      7         11           0       -7.237535    2.061719   -0.854524
 ---------------------------------------------------------------------

 SCF Done:  E(UB3LYP) =  -1136.10119079     A.U. after   18 cycles

 The electronic state is 2-A.
 Alpha  occ. eigenvalues --  -38.44855 -38.44846 -38.44675 -38.44224 -38.44161
 Alpha  occ. eigenvalues --  -38.44052 -38.44019  -2.20682  -2.20643  -2.20490
 Alpha  occ. eigenvalues --   -2.20040  -2.19987  -2.19884  -2.19823  -1.14364
 Alpha  occ. eigenvalues --   -1.14307  -1.14303  -1.14288  -1.14278  -1.14257
 Alpha  occ. eigenvalues --   -1.14239  -1.14127  -1.14125  -1.13778  -1.13687
 Alpha  occ. eigenvalues --   -1.13685  -1.13674  -1.13628  -1.13617  -1.13567
 Alpha  occ. eigenvalues --   -1.13543  -1.13538  -1.13476  -1.13465  -1.13421
 Alpha  occ. eigenvalues --   -0.15107  -0.14340  -0.12976  -0.11359
 Alpha virt. eigenvalues --   -0.06927  -0.05288  -0.03744  -0.03378  -0.03276
 Alpha virt. eigenvalues --   -0.02761  -0.02645  -0.01810  -0.01674  -0.01229
 Alpha virt. eigenvalues --   -0.00736  -0.00368  -0.00108   0.00334   0.00475

  Beta  occ. eigenvalues --  -38.44773 -38.44740 -38.44661 -38.44227 -38.44125
  Beta  occ. eigenvalues --  -38.44057 -38.44030  -2.20530  -2.20463  -2.20444
  Beta  occ. eigenvalues --   -2.20047  -2.19921  -2.19901  -2.19848  -1.14266
  Beta  occ. eigenvalues --   -1.14224  -1.14204  -1.14199  -1.14153  -1.14145
  Beta  occ. eigenvalues --   -1.14126  -1.14108  -1.14106  -1.13750  -1.13693
  Beta  occ. eigenvalues --   -1.13689  -1.13670  -1.13584  -1.13574  -1.13566
  Beta  occ. eigenvalues --   -1.13562  -1.13508  -1.13494  -1.13481  -1.13404
  Beta  occ. eigenvalues --   -0.14386  -0.13895  -0.12634
  Beta virt. eigenvalues --   -0.07994  -0.06493  -0.04854  -0.03506  -0.03184
  Beta virt. eigenvalues --   -0.03043  -0.02638  -0.02360  -0.01581  -0.01254
  Beta virt. eigenvalues --   -0.01145  -0.00366  -0.00132   0.00159   0.00418

 Mulliken charges and spin densities:
               1          2
     1  Na  -0.297340  -0.075502
     2  Na   0.303320   0.355604
     3  Na  -0.160557  -0.005929
     4  Na  -0.067197   0.506061
     5  Na   0.190338   0.167596
     6  Na  -0.102947   0.000407
     7  Na   0.134383   0.051764
 Sum of Mulliken charges =  -0.00000   1.00000

 Dipole moment (field-independent basis, Debye):
    X=             -0.2544    Y=              1.0869    Z=             -0.4779  Tot=              1.2143
 Quadrupole moment (field-independent basis, Debye-Ang):
   XX=            -63.6270   YY=            -64.7347   ZZ=            -66.0387
   XY=             -1.7065   XZ=              1.2113   YZ=             -5.9339

 Normal termination of Gaussian 16 at Sun Dec  3 20:12:34 2023.
