 Gaussian 16, Revision B.01,
 Gaussian 16:  ES64L-G16RevB.01 20-Dec-2017

 -------------------------
 #P B3LYP/6-311+g(d) force
 -------------------------

 -----
 DPGEN
 -----
 Symbolic Z-matrix:
 Charge =  0 Multiplicity = 2

                         Standard orientation:
 ---------------------------------------------------------------------
 Center     Atomic      Atomic             Coordinates (Angstroms)
 Number     Number       Type             X           Y           Z
 ---------------------------------------------------------------------
      1         11           0        0.722681    2.638014   -0.166097
      2         11           0        2.876219    0.630223   -0.018639
      3         11           0       -2.596692    1.579513   -0.123274
      4         11           0        1.955300   -2.419361   -0.102472
      5         11           0       -2.900798   -1.757608   -0.047558
      6         11           0       -0.009844   -0.456965   -1.690565
      7         11           0       -0.046865   -0.213816    2.148605
 ---------------------------------------------------------------------

 SCF Done:  E(UB3LYP) =  -1136.13201253     A.U. after   20 cycles

 The electronic state is 2-A.
 Alpha  occ. eigenvalues --  -38.44349 -38.44094 -38.44081 -38.43930 -38.43545
 Alpha  occ. eigenvalues --  -38.43482 -38.42722  -2.20149  -2.20006  -2.19929
 Alpha  occ. eigenvalues --   -2.19785  -2.19423  -2.19408  -2.18625  -1.13818
 Alpha  occ. eigenvalues --   -1.13814  -1.13797  -1.13728  -1.13661  -1.13648
 Alpha  occ. eigenvalues --   -1.13602  -1.13593  -1.13561  -1.13446  -1.13411
 Alpha  occ. eigenvalues --   -1.13403  -1.13159  -1.13095  -1.13063  -1.13051
 Alpha  occ. eigenvalues --   -1.13039  -1.13007  -1.12321  -1.12272  -1.12259
 Alpha  occ. eigenvalues --   -0.18681  -0.13526  -0.12051  -0.10894
 Alpha virt. eigenvalues --   -0.05954  -0.05578  -0.04110  -0.03515  -0.02761
 Alpha virt. eigenvalues --   -0.02707  -0.01708  -0.01204  -0.00474  -0.00101
 Alpha virt. eigenvalues --   -0.00037   0.00345   0.00704   0.00809   0.00892

  Beta  occ. eigenvalues --  -38.44350 -38.44090 -38.44075 -38.43828 -38.43541
  Beta  occ. eigenvalues --  -38.43420 -38.42717  -2.20152  -2.20000  -2.19925
  Beta  occ. eigenvalues --   -2.19597  -2.19405  -2.19309  -2.18619  -1.13821
  Beta  occ. eigenvalues --   -1.13806  -1.13796  -1.13728  -1.13661  -1.13611
  Beta  occ. eigenvalues --   -1.13595  -1.13576  -1.13564  -1.13322  -1.13278
  Beta  occ. eigenvalues --   -1.13270  -1.13124  -1.13061  -1.13029  -1.13017
  Beta  occ. eigenvalues --   -1.12966  -1.12944  -1.12320  -1.12268  -1.12229
  Beta  occ. eigenvalues --   -0.17934  -0.13327  -0.11830
  Beta virt. eigenvalues --   -0.06942  -0.05923  -0.05518  -0.04104  -0.02703
  Beta virt. eigenvalues --   -0.01968  -0.01714  -0.01571  -0.01117  -0.00540
  Beta virt. eigenvalues --   -0.00129   0.00126   0.00377   0.00780   0.00819

 Mulliken charges and spin densities:
               1          2
     1  Na  -0.145149   0.023596
     2  Na   0.261987   0.139939
     3  Na   0.040158   0.037001
     4  Na   0.353971   0.011895
     5  Na   0.145483  -0.057867
     6  Na  -0.164333   0.247362
     7  Na  -0.492117   0.598073
 Sum of Mulliken charges =  -0.00000   1.00000

 Dipole moment (field-independent basis, Debye):
    X=             -0.5228    Y=             -0.4550    Z=              0.1563  Tot=              0.7105
 Quadrupole moment (field-independent basis, Debye-Ang):
   XX=            -55.3017   YY=            -65.7257   ZZ=            -73.8251
   XY=             -0.0382   XZ=              0.1588   YZ=             -0.5462

 Normal termination of Gaussian 16 at Thu Dec  7 02:20:03 2023.
