 Gaussian 16, Revision B.01,
 Gaussian 16:  ES64L-G16RevB.01 20-Dec-2017

 -------------------------
 #P B3LYP/6-311+g(d) force
 -------------------------

 -----
 DPGEN
 -----
 Symbolic Z-matrix:
 Charge =  0 Multiplicity = 2

                         Standard orientation:
 ---------------------------------------------------------------------
 Center     Atomic      Atomic             Coordinates (Angstroms)
 Number     Number       Type             X           Y           Z
 ---------------------------------------------------------------------
      1         11           0        0.182559   -0.193285   -1.200098
      2         11           0       -3.283899    0.243218   -1.501614
      3         11           0       -2.401316   -1.989765    1.005617
      4         11           0        2.318096    1.720916    0.698284
      5         11           0       -1.301741    2.402302    0.631859
      6         11           0        1.261515   -1.138313    2.176745
      7         11           0        3.224787   -1.045073   -1.810794
 ---------------------------------------------------------------------

 SCF Done:  E(UB3LYP) =  -1136.12381638     A.U. after   25 cycles

 The electronic state is 2-A.
 Alpha  occ. eigenvalues --  -38.44832 -38.44522 -38.44344 -38.43948 -38.43676
 Alpha  occ. eigenvalues --  -38.43667 -38.42905  -2.20647  -2.20341  -2.20165
 Alpha  occ. eigenvalues --   -2.19734  -2.19603  -2.19522  -2.18705  -1.14309
 Alpha  occ. eigenvalues --   -1.14281  -1.14271  -1.14026  -1.13982  -1.13966
 Alpha  occ. eigenvalues --   -1.13847  -1.13801  -1.13773  -1.13409  -1.13394
 Alpha  occ. eigenvalues --   -1.13367  -1.13315  -1.13259  -1.13239  -1.13212
 Alpha  occ. eigenvalues --   -1.13178  -1.13127  -1.12391  -1.12389  -1.12332
 Alpha  occ. eigenvalues --   -0.17838  -0.13734  -0.11788  -0.10988
 Alpha virt. eigenvalues --   -0.05880  -0.05527  -0.05137  -0.03285  -0.02770
 Alpha virt. eigenvalues --   -0.02461  -0.02046  -0.01178  -0.00829  -0.00159
 Alpha virt. eigenvalues --   -0.00019   0.00097   0.00213   0.00488   0.00698

  Beta  occ. eigenvalues --  -38.44752 -38.44507 -38.44279 -38.43929 -38.43664
  Beta  occ. eigenvalues --  -38.43639 -38.42919  -2.20501  -2.20312  -2.20047
  Beta  occ. eigenvalues --   -2.19700  -2.19555  -2.19501  -2.18733  -1.14211
  Beta  occ. eigenvalues --   -1.14177  -1.14164  -1.14001  -1.13965  -1.13951
  Beta  occ. eigenvalues --   -1.13758  -1.13720  -1.13698  -1.13386  -1.13371
  Beta  occ. eigenvalues --   -1.13335  -1.13268  -1.13230  -1.13199  -1.13179
  Beta  occ. eigenvalues --   -1.13162  -1.13117  -1.12411  -1.12403  -1.12346
  Beta  occ. eigenvalues --   -0.17210  -0.13441  -0.10699
  Beta virt. eigenvalues --   -0.08004  -0.05671  -0.04969  -0.04933  -0.02928
  Beta virt. eigenvalues --   -0.02289  -0.02038  -0.01754  -0.00822  -0.00599
  Beta virt. eigenvalues --    0.00036   0.00083   0.00243   0.00301   0.00501

 Mulliken charges and spin densities:
               1          2
     1  Na  -3.190400   0.393349
     2  Na   2.095511  -0.146662
     3  Na  -0.062218   0.125885
     4  Na   0.333673   0.167876
     5  Na   0.174468  -0.122401
     6  Na  -0.058600   0.389394
     7  Na   0.707566   0.192560
 Sum of Mulliken charges =  -0.00000   1.00000

 Dipole moment (field-independent basis, Debye):
    X=              0.0904    Y=             -0.1495    Z=              0.0018  Tot=              0.1747
 Quadrupole moment (field-independent basis, Debye-Ang):
   XX=            -52.0262   YY=            -76.8865   ZZ=            -65.6401
   XY=             -0.4825   XZ=              2.3963   YZ=             -1.1612

 Normal termination of Gaussian 16 at Tue Dec  5 10:22:20 2023.
