 Gaussian 16, Revision B.01,
 Gaussian 16:  ES64L-G16RevB.01 20-Dec-2017

 -------------------------
 #P B3LYP/6-311+g(d) force
 -------------------------

 -----
 DPGEN
 -----
 Symbolic Z-matrix:
 Charge =  0 Multiplicity = 2

                         Standard orientation:
 ---------------------------------------------------------------------
 Center     Atomic      Atomic             Coordinates (Angstroms)
 Number     Number       Type             X           Y           Z
 ---------------------------------------------------------------------
      1         11           0        2.985529    0.142301    0.114961
      2         11           0        1.344751   -2.619654   -0.196256
      3         11           0       -0.291751    0.475249   -1.506451
      4         11           0       -2.604331    1.362326    0.230896
      5         11           0        0.873894    2.928883   -0.075167
      6         11           0       -0.246297   -0.272464    1.707923
      7         11           0       -2.061795   -2.016642   -0.275906
 ---------------------------------------------------------------------

 SCF Done:  E(UB3LYP) =  -1136.13522888     A.U. after   20 cycles

 The electronic state is 2-A.
 Alpha  occ. eigenvalues --  -38.43852 -38.43733 -38.43726 -38.43582 -38.43473
 Alpha  occ. eigenvalues --  -38.42936 -38.42856  -2.19765  -2.19591  -2.19581
 Alpha  occ. eigenvalues --   -2.19492  -2.19347  -2.18948  -2.18920  -1.13494
 Alpha  occ. eigenvalues --   -1.13438  -1.13375  -1.13315  -1.13273  -1.13258
 Alpha  occ. eigenvalues --   -1.13243  -1.13230  -1.13195  -1.13192  -1.13162
 Alpha  occ. eigenvalues --   -1.13117  -1.13013  -1.13004  -1.12981  -1.12674
 Alpha  occ. eigenvalues --   -1.12576  -1.12562  -1.12559  -1.12537  -1.12537
 Alpha  occ. eigenvalues --   -0.19239  -0.13169  -0.12906  -0.10390
 Alpha virt. eigenvalues --   -0.05490  -0.05138  -0.04987  -0.02980  -0.02841
 Alpha virt. eigenvalues --   -0.01996  -0.01353  -0.01276  -0.00356  -0.00270
 Alpha virt. eigenvalues --    0.00054   0.00358   0.00872   0.00898   0.00910

  Beta  occ. eigenvalues --  -38.43839 -38.43729 -38.43723 -38.43570 -38.43468
  Beta  occ. eigenvalues --  -38.42856 -38.42792  -2.19748  -2.19587  -2.19579
  Beta  occ. eigenvalues --   -2.19474  -2.19341  -2.18805  -2.18800  -1.13484
  Beta  occ. eigenvalues --   -1.13386  -1.13369  -1.13306  -1.13274  -1.13251
  Beta  occ. eigenvalues --   -1.13222  -1.13215  -1.13195  -1.13184  -1.13119
  Beta  occ. eigenvalues --   -1.13103  -1.13009  -1.12990  -1.12968  -1.12583
  Beta  occ. eigenvalues --   -1.12485  -1.12462  -1.12457  -1.12448  -1.12445
  Beta  occ. eigenvalues --   -0.18524  -0.12910  -0.12644
  Beta virt. eigenvalues --   -0.06471  -0.05475  -0.05120  -0.04945  -0.02184
  Beta virt. eigenvalues --   -0.02078  -0.01298  -0.01205  -0.00974  -0.00392
  Beta virt. eigenvalues --   -0.00325   0.00187   0.00396   0.00875   0.00905

 Mulliken charges and spin densities:
               1          2
     1  Na   0.013335  -0.058342
     2  Na  -0.014054  -0.027076
     3  Na  -0.487886   0.547682
     4  Na   0.365521  -0.062334
     5  Na   0.190234  -0.093162
     6  Na  -0.392361   0.670710
     7  Na   0.325211   0.022522
 Sum of Mulliken charges =  -0.00000   1.00000

 Dipole moment (field-independent basis, Debye):
    X=             -0.0310    Y=              0.1301    Z=              0.0921  Tot=              0.1624
 Quadrupole moment (field-independent basis, Debye-Ang):
   XX=            -57.3102   YY=            -58.5934   ZZ=            -76.3241
   XY=              0.1622   XZ=              0.0177   YZ=              1.6980

 Normal termination of Gaussian 16 at Tue Nov 28 21:30:31 2023.
