 Gaussian 16, Revision B.01,
 Gaussian 16:  ES64L-G16RevB.01 20-Dec-2017

 -------------------------
 #P B3LYP/6-311+g(d) force
 -------------------------

 -----
 DPGEN
 -----
 Symbolic Z-matrix:
 Charge =  0 Multiplicity = 2

                         Standard orientation:
 ---------------------------------------------------------------------
 Center     Atomic      Atomic             Coordinates (Angstroms)
 Number     Number       Type             X           Y           Z
 ---------------------------------------------------------------------
      1         11           0        0.558969    0.114553    2.141937
      2         11           0       -0.272233    0.468691   -1.528484
      3         11           0        0.348334    3.232825    0.159329
      4         11           0        3.236017    0.086295   -0.559275
      5         11           0        1.438975   -2.389375   -0.148786
      6         11           0       -1.992062   -2.204964    0.105807
      7         11           0       -3.318000    0.691974   -0.170529
 ---------------------------------------------------------------------

 SCF Done:  E(UB3LYP) =  -1136.13225876     A.U. after   21 cycles

 The electronic state is 2-A.
 Alpha  occ. eigenvalues --  -38.44538 -38.44459 -38.43684 -38.43621 -38.43475
 Alpha  occ. eigenvalues --  -38.43342 -38.43195  -2.20356  -2.20297  -2.19545
 Alpha  occ. eigenvalues --   -2.19415  -2.19331  -2.19278  -2.19092  -1.14033
 Alpha  occ. eigenvalues --   -1.14025  -1.13988  -1.13987  -1.13952  -1.13920
 Alpha  occ. eigenvalues --   -1.13207  -1.13179  -1.13159  -1.13109  -1.13073
 Alpha  occ. eigenvalues --   -1.13053  -1.13014  -1.12999  -1.12977  -1.12961
 Alpha  occ. eigenvalues --   -1.12916  -1.12899  -1.12763  -1.12746  -1.12741
 Alpha  occ. eigenvalues --   -0.18330  -0.13259  -0.12227  -0.10651
 Alpha virt. eigenvalues --   -0.06222  -0.05028  -0.04679  -0.03191  -0.02847
 Alpha virt. eigenvalues --   -0.02535  -0.01906  -0.01128  -0.00643  -0.00267
 Alpha virt. eigenvalues --   -0.00053   0.00323   0.00749   0.00798   0.00877

  Beta  occ. eigenvalues --  -38.44536 -38.44438 -38.43619 -38.43583 -38.43472
  Beta  occ. eigenvalues --  -38.43299 -38.43187  -2.20354  -2.20261  -2.19414
  Beta  occ. eigenvalues --   -2.19358  -2.19328  -2.19200  -2.19082  -1.14031
  Beta  occ. eigenvalues --   -1.14013  -1.13988  -1.13965  -1.13911  -1.13895
  Beta  occ. eigenvalues --   -1.13106  -1.13082  -1.13064  -1.13056  -1.13051
  Beta  occ. eigenvalues --   -1.13015  -1.13008  -1.12998  -1.12956  -1.12908
  Beta  occ. eigenvalues --   -1.12861  -1.12844  -1.12759  -1.12743  -1.12698
  Beta  occ. eigenvalues --   -0.17645  -0.13010  -0.12022
  Beta virt. eigenvalues --   -0.06790  -0.06130  -0.04927  -0.04646  -0.02525
  Beta virt. eigenvalues --   -0.02122  -0.01797  -0.01492  -0.01040  -0.00646
  Beta virt. eigenvalues --   -0.00309   0.00123   0.00379   0.00768   0.00875

 Mulliken charges and spin densities:
               1          2
     1  Na  -0.477038   0.678501
     2  Na  -0.141772   0.162946
     3  Na  -0.058247  -0.079122
     4  Na   0.291170   0.072534
     5  Na   0.118752   0.131335
     6  Na  -0.018865   0.036970
     7  Na   0.286000  -0.003164
 Sum of Mulliken charges =  -0.00000   1.00000

 Dipole moment (field-independent basis, Debye):
    X=             -0.1431    Y=              0.3911    Z=              0.1125  Tot=              0.4313
 Quadrupole moment (field-independent basis, Debye-Ang):
   XX=            -55.2810   YY=            -63.9846   ZZ=            -74.6876
   XY=              0.0039   XZ=             -1.5244   YZ=              0.4710

 Normal termination of Gaussian 16 at Thu Dec  7 12:38:24 2023.
