 Gaussian 16, Revision B.01,
 Gaussian 16:  ES64L-G16RevB.01 20-Dec-2017

 -------------------------
 #P B3LYP/6-311+g(d) force
 -------------------------

 -----
 DPGEN
 -----
 Symbolic Z-matrix:
 Charge =  0 Multiplicity = 2

                         Standard orientation:
 ---------------------------------------------------------------------
 Center     Atomic      Atomic             Coordinates (Angstroms)
 Number     Number       Type             X           Y           Z
 ---------------------------------------------------------------------
      1         11           0       -0.019754    2.726894   -0.094092
      2         11           0        2.697623    1.454896   -0.022930
      3         11           0       -0.215167   -0.099282   -1.808835
      4         11           0       -2.448240   -2.084996   -0.258145
      5         11           0       -2.841897    1.033582    0.448309
      6         11           0        0.368694   -0.666576    1.892192
      7         11           0        2.458739   -2.364518   -0.156501
 ---------------------------------------------------------------------

 SCF Done:  E(UB3LYP) =  -1136.13227730     A.U. after   20 cycles

 The electronic state is 2-A.
 Alpha  occ. eigenvalues --  -38.44240 -38.44177 -38.44050 -38.43999 -38.43584
 Alpha  occ. eigenvalues --  -38.43446 -38.42851  -2.20094  -2.20011  -2.19861
 Alpha  occ. eigenvalues --   -2.19836  -2.19453  -2.19367  -2.18766  -1.13808
 Alpha  occ. eigenvalues --   -1.13754  -1.13718  -1.13702  -1.13682  -1.13653
 Alpha  occ. eigenvalues --   -1.13529  -1.13514  -1.13513  -1.13492  -1.13491
 Alpha  occ. eigenvalues --   -1.13483  -1.13129  -1.13091  -1.13069  -1.13048
 Alpha  occ. eigenvalues --   -1.13006  -1.12981  -1.12447  -1.12428  -1.12402
 Alpha  occ. eigenvalues --   -0.18493  -0.13305  -0.12270  -0.10615
 Alpha virt. eigenvalues --   -0.06003  -0.05597  -0.04295  -0.03384  -0.02875
 Alpha virt. eigenvalues --   -0.02462  -0.01654  -0.01363  -0.00554  -0.00173
 Alpha virt. eigenvalues --   -0.00012   0.00348   0.00731   0.00785   0.00890

  Beta  occ. eigenvalues --  -38.44237 -38.44170 -38.44053 -38.43986 -38.43513
  Beta  occ. eigenvalues --  -38.43367 -38.42845  -2.20092  -2.20001  -2.19843
  Beta  occ. eigenvalues --   -2.19841  -2.19322  -2.19222  -2.18759  -1.13810
  Beta  occ. eigenvalues --   -1.13730  -1.13719  -1.13699  -1.13659  -1.13638
  Beta  occ. eigenvalues --   -1.13518  -1.13507  -1.13491  -1.13489  -1.13484
  Beta  occ. eigenvalues --   -1.13474  -1.13041  -1.12999  -1.12973  -1.12949
  Beta  occ. eigenvalues --   -1.12901  -1.12878  -1.12444  -1.12425  -1.12368
  Beta  occ. eigenvalues --   -0.17767  -0.13101  -0.12046
  Beta virt. eigenvalues --   -0.06769  -0.05987  -0.05455  -0.04283  -0.02623
  Beta virt. eigenvalues --   -0.02138  -0.01591  -0.01497  -0.01196  -0.00600
  Beta virt. eigenvalues --   -0.00187   0.00132   0.00381   0.00757   0.00842

 Mulliken charges and spin densities:
               1          2
     1  Na   0.043715   0.064630
     2  Na   0.083207  -0.022013
     3  Na  -0.147785   0.502567
     4  Na   0.202738  -0.052613
     5  Na   0.078545   0.157525
     6  Na  -0.317425   0.485840
     7  Na   0.057006  -0.135936
 Sum of Mulliken charges =  -0.00000   1.00000

 Dipole moment (field-independent basis, Debye):
    X=              0.0672    Y=             -0.5220    Z=              0.0342  Tot=              0.5274
 Quadrupole moment (field-independent basis, Debye-Ang):
   XX=            -55.2976   YY=            -63.9779   ZZ=            -74.7735
   XY=              0.2387   XZ=             -1.5395   YZ=              1.5845

 Normal termination of Gaussian 16 at Thu Dec  7 21:25:29 2023.
