 Gaussian 16, Revision B.01,
 Gaussian 16:  ES64L-G16RevB.01 20-Dec-2017

 -------------------------
 #P B3LYP/6-311+g(d) force
 -------------------------

 -----
 DPGEN
 -----
 Symbolic Z-matrix:
 Charge =  0 Multiplicity = 2

                         Standard orientation:
 ---------------------------------------------------------------------
 Center     Atomic      Atomic             Coordinates (Angstroms)
 Number     Number       Type             X           Y           Z
 ---------------------------------------------------------------------
      1         11           0       -3.894804    1.747211   -0.136897
      2         11           0       -0.333256    1.373000   -0.266727
      3         11           0       -2.087389   -0.863259    1.847244
      4         11           0        2.380619   -0.875324    1.750361
      5         11           0        3.887673    1.578121   -0.362985
      6         11           0       -1.844100   -1.875828   -1.561352
      7         11           0        1.891257   -1.083921   -1.269644
 ---------------------------------------------------------------------

 SCF Done:  E(UB3LYP) =  -1136.11395678     A.U. after   28 cycles

 The electronic state is 2-A.
 Alpha  occ. eigenvalues --  -38.44939 -38.44802 -38.44763 -38.44535 -38.43856
 Alpha  occ. eigenvalues --  -38.43773 -38.43569  -2.20742  -2.20625  -2.20614
 Alpha  occ. eigenvalues --   -2.20335  -2.19756  -2.19544  -2.19361  -1.14438
 Alpha  occ. eigenvalues --   -1.14395  -1.14346  -1.14339  -1.14323  -1.14291
 Alpha  occ. eigenvalues --   -1.14267  -1.14230  -1.14204  -1.14010  -1.13993
 Alpha  occ. eigenvalues --   -1.13961  -1.13460  -1.13448  -1.13326  -1.13220
 Alpha  occ. eigenvalues --   -1.13215  -1.13178  -1.13037  -1.13016  -1.12995
 Alpha  occ. eigenvalues --   -0.17835  -0.14333  -0.10847  -0.10614
 Alpha virt. eigenvalues --   -0.06686  -0.06287  -0.05189  -0.03120  -0.02724
 Alpha virt. eigenvalues --   -0.02297  -0.02178  -0.01641  -0.01003  -0.00596
 Alpha virt. eigenvalues --    0.00006   0.00043   0.00177   0.00253   0.00414

  Beta  occ. eigenvalues --  -38.44896 -38.44786 -38.44700 -38.44518 -38.43829
  Beta  occ. eigenvalues --  -38.43783 -38.43555  -2.20662  -2.20598  -2.20497
  Beta  occ. eigenvalues --   -2.20305  -2.19711  -2.19563  -2.19337  -1.14382
  Beta  occ. eigenvalues --   -1.14343  -1.14298  -1.14282  -1.14272  -1.14245
  Beta  occ. eigenvalues --   -1.14215  -1.14186  -1.14116  -1.13986  -1.13966
  Beta  occ. eigenvalues --   -1.13944  -1.13423  -1.13401  -1.13292  -1.13230
  Beta  occ. eigenvalues --   -1.13228  -1.13190  -1.13011  -1.13001  -1.12976
  Beta  occ. eigenvalues --   -0.17193  -0.14176  -0.10429
  Beta virt. eigenvalues --   -0.07181  -0.06520  -0.06001  -0.04564  -0.02765
  Beta virt. eigenvalues --   -0.02670  -0.01873  -0.01723  -0.01351  -0.00525
  Beta virt. eigenvalues --   -0.00365   0.00074   0.00121   0.00203   0.00396

 Mulliken charges and spin densities:
               1          2
     1  Na   0.628934  -0.046263
     2  Na  -1.529933   0.155022
     3  Na   0.184706   0.279685
     4  Na  -0.184788   0.266361
     5  Na   0.704285   0.042634
     6  Na  -0.106148   0.004444
     7  Na   0.302944   0.298116
 Sum of Mulliken charges =  -0.00000   1.00000

 Dipole moment (field-independent basis, Debye):
    X=              0.4318    Y=             -0.2276    Z=              0.1501  Tot=              0.5107
 Quadrupole moment (field-independent basis, Debye-Ang):
   XX=            -51.6623   YY=            -75.4932   ZZ=            -70.0596
   XY=              4.3072   XZ=              0.5849   YZ=             -2.4292

 Normal termination of Gaussian 16 at Thu Dec  7 07:20:44 2023.
