 Gaussian 16, Revision B.01,
 Gaussian 16:  ES64L-G16RevB.01 20-Dec-2017

 -------------------------
 #P B3LYP/6-311+g(d) force
 -------------------------

 -----
 DPGEN
 -----
 Symbolic Z-matrix:
 Charge =  0 Multiplicity = 2

                         Standard orientation:
 ---------------------------------------------------------------------
 Center     Atomic      Atomic             Coordinates (Angstroms)
 Number     Number       Type             X           Y           Z
 ---------------------------------------------------------------------
      1         11           0       -3.903599    2.001094    0.368754
      2         11           0       -2.781748   -0.770913   -0.516979
      3         11           0        0.256147   -2.178206   -1.318839
      4         11           0        2.708292   -0.854288    0.206377
      5         11           0       -0.066786    1.284918   -0.609879
      6         11           0       -0.134523   -1.625706    1.872746
      7         11           0        3.922218    2.143100   -0.002181
 ---------------------------------------------------------------------

 SCF Done:  E(UB3LYP) =  -1136.12101072     A.U. after   21 cycles

 The electronic state is 2-A.
 Alpha  occ. eigenvalues --  -38.45010 -38.44319 -38.44159 -38.44005 -38.43915
 Alpha  occ. eigenvalues --  -38.43502 -38.43252  -2.20835  -2.20122  -2.20062
 Alpha  occ. eigenvalues --   -2.19831  -2.19783  -2.19399  -2.19194  -1.14548
 Alpha  occ. eigenvalues --   -1.14517  -1.14430  -1.13854  -1.13774  -1.13767
 Alpha  occ. eigenvalues --   -1.13735  -1.13726  -1.13645  -1.13542  -1.13517
 Alpha  occ. eigenvalues --   -1.13506  -1.13445  -1.13434  -1.13382  -1.13059
 Alpha  occ. eigenvalues --   -1.13038  -1.13029  -1.12873  -1.12839  -1.12801
 Alpha  occ. eigenvalues --   -0.18407  -0.13893  -0.12017  -0.10329
 Alpha virt. eigenvalues --   -0.06635  -0.06419  -0.04013  -0.03278  -0.02568
 Alpha virt. eigenvalues --   -0.02442  -0.02008  -0.01742  -0.01143  -0.00253
 Alpha virt. eigenvalues --   -0.00120   0.00131   0.00312   0.00570   0.00682

  Beta  occ. eigenvalues --  -38.44983 -38.44309 -38.44143 -38.44012 -38.43903
  Beta  occ. eigenvalues --  -38.43425 -38.43211  -2.20790  -2.20103  -2.20039
  Beta  occ. eigenvalues --   -2.19812  -2.19798  -2.19254  -2.19123  -1.14515
  Beta  occ. eigenvalues --   -1.14463  -1.14403  -1.13840  -1.13759  -1.13753
  Beta  occ. eigenvalues --   -1.13722  -1.13690  -1.13621  -1.13537  -1.13507
  Beta  occ. eigenvalues --   -1.13477  -1.13452  -1.13439  -1.13379  -1.12963
  Beta  occ. eigenvalues --   -1.12941  -1.12926  -1.12825  -1.12785  -1.12725
  Beta  occ. eigenvalues --   -0.17715  -0.13713  -0.11878
  Beta virt. eigenvalues --   -0.06580  -0.06321  -0.06207  -0.03885  -0.02752
  Beta virt. eigenvalues --   -0.02435  -0.02052  -0.01749  -0.01164  -0.00896
  Beta virt. eigenvalues --   -0.00104   0.00076   0.00198   0.00562   0.00608

 Mulliken charges and spin densities:
               1          2
     1  Na   0.292519   0.021445
     2  Na   0.324618   0.223890
     3  Na   0.301527   0.271947
     4  Na   0.001571   0.204933
     5  Na  -1.021190   0.014391
     6  Na  -0.266872   0.361931
     7  Na   0.367826  -0.098538
 Sum of Mulliken charges =  -0.00000   1.00000

 Dipole moment (field-independent basis, Debye):
    X=             -0.4500    Y=              0.3247    Z=             -0.2136  Tot=              0.5946
 Quadrupole moment (field-independent basis, Debye-Ang):
   XX=            -56.7754   YY=            -63.3591   ZZ=            -75.6058
   XY=             -0.3521   XZ=             -1.4073   YZ=              3.2162

 Normal termination of Gaussian 16 at Thu Dec  7 22:22:43 2023.
