 Gaussian 16, Revision B.01,
 Gaussian 16:  ES64L-G16RevB.01 20-Dec-2017

 -------------------------
 #P B3LYP/6-311+g(d) force
 -------------------------

 -----
 DPGEN
 -----
 Symbolic Z-matrix:
 Charge =  0 Multiplicity = 2

                         Standard orientation:
 ---------------------------------------------------------------------
 Center     Atomic      Atomic             Coordinates (Angstroms)
 Number     Number       Type             X           Y           Z
 ---------------------------------------------------------------------
      1         11           0        2.939309    0.459096    0.216649
      2         11           0        0.591849    2.840089   -0.198771
      3         11           0       -2.756748    1.225004    0.136645
      4         11           0       -0.087963   -0.233619    1.543740
      5         11           0       -2.681304   -1.864043   -0.074943
      6         11           0       -0.049126   -0.137527   -1.486032
      7         11           0        2.043983   -2.288999   -0.137289
 ---------------------------------------------------------------------

 SCF Done:  E(UB3LYP) =  -1136.12827432     A.U. after   22 cycles

 The electronic state is 2-A.
 Alpha  occ. eigenvalues --  -38.44307 -38.44237 -38.44165 -38.43658 -38.43070
 Alpha  occ. eigenvalues --  -38.42783 -38.42723  -2.20201  -2.20177  -2.20029
 Alpha  occ. eigenvalues --   -2.19569  -2.19096  -2.18837  -2.18593  -1.13920
 Alpha  occ. eigenvalues --   -1.13918  -1.13869  -1.13846  -1.13831  -1.13815
 Alpha  occ. eigenvalues --   -1.13681  -1.13677  -1.13657  -1.13240  -1.13213
 Alpha  occ. eigenvalues --   -1.13203  -1.12877  -1.12707  -1.12700  -1.12528
 Alpha  occ. eigenvalues --   -1.12458  -1.12445  -1.12262  -1.12248  -1.12236
 Alpha  occ. eigenvalues --   -0.19282  -0.14083  -0.12152  -0.10149
 Alpha virt. eigenvalues --   -0.06069  -0.05553  -0.04272  -0.03413  -0.02259
 Alpha virt. eigenvalues --   -0.01981  -0.01770  -0.01272  -0.00453  -0.00194
 Alpha virt. eigenvalues --    0.00065   0.00336   0.00704   0.00822   0.00899

  Beta  occ. eigenvalues --  -38.44300 -38.44227 -38.44161 -38.43652 -38.43002
  Beta  occ. eigenvalues --  -38.42717 -38.42710  -2.20191  -2.20164  -2.20026
  Beta  occ. eigenvalues --   -2.19562  -2.18972  -2.18705  -2.18587  -1.13918
  Beta  occ. eigenvalues --   -1.13916  -1.13852  -1.13822  -1.13821  -1.13776
  Beta  occ. eigenvalues --   -1.13677  -1.13663  -1.13647  -1.13237  -1.13210
  Beta  occ. eigenvalues --   -1.13167  -1.12786  -1.12617  -1.12610  -1.12432
  Beta  occ. eigenvalues --   -1.12367  -1.12352  -1.12253  -1.12235  -1.12216
  Beta  occ. eigenvalues --   -0.18569  -0.13802  -0.11901
  Beta virt. eigenvalues --   -0.06269  -0.06017  -0.05544  -0.04271  -0.02551
  Beta virt. eigenvalues --   -0.01872  -0.01580  -0.01224  -0.00825  -0.00508
  Beta virt. eigenvalues --   -0.00186   0.00210   0.00370   0.00752   0.00821

 Mulliken charges and spin densities:
               1          2
     1  Na   0.253600   0.126118
     2  Na  -0.012367  -0.005216
     3  Na   0.145280   0.053115
     4  Na  -0.439533   0.386546
     5  Na   0.254339  -0.020158
     6  Na  -0.557285   0.443260
     7  Na   0.355966   0.016334
 Sum of Mulliken charges =  -0.00000   1.00000

 Dipole moment (field-independent basis, Debye):
    X=             -0.4070    Y=             -0.2139    Z=              0.0374  Tot=              0.4613
 Quadrupole moment (field-independent basis, Debye-Ang):
   XX=            -51.2384   YY=            -62.3313   ZZ=            -77.7744
   XY=              0.2744   XZ=              0.1844   YZ=              0.4157

 Normal termination of Gaussian 16 at Tue Nov 28 19:58:52 2023.
