 Gaussian 16, Revision B.01,
 Gaussian 16:  ES64L-G16RevB.01 20-Dec-2017

 -------------------------
 #P B3LYP/6-311+g(d) force
 -------------------------

 -----
 DPGEN
 -----
 Symbolic Z-matrix:
 Charge =  0 Multiplicity = 2

                         Standard orientation:
 ---------------------------------------------------------------------
 Center     Atomic      Atomic             Coordinates (Angstroms)
 Number     Number       Type             X           Y           Z
 ---------------------------------------------------------------------
      1         11           0       -3.015398   -1.411981   -0.596336
      2         11           0        3.092835    2.640197   -0.257966
      3         11           0        8.062866   -2.221897    0.689700
      4         11           0        6.276441    0.368048   -0.379248
      5         11           0        0.045557    1.275903    0.067433
      6         11           0       -7.838815    0.974005    0.846283
      7         11           0       -6.623485   -1.624275   -0.369867
 ---------------------------------------------------------------------

 SCF Done:  E(UB3LYP) =  -1136.10246698     A.U. after   20 cycles

 The electronic state is 2-A.
 Alpha  occ. eigenvalues --  -38.45396 -38.45203 -38.44671 -38.44475 -38.44375
 Alpha  occ. eigenvalues --  -38.44368 -38.43921  -2.21200  -2.20981  -2.20468
 Alpha  occ. eigenvalues --   -2.20211  -2.20162  -2.20140  -2.19675  -1.14855
 Alpha  occ. eigenvalues --   -1.14836  -1.14831  -1.14632  -1.14622  -1.14586
 Alpha  occ. eigenvalues --   -1.14142  -1.14138  -1.14121  -1.13901  -1.13899
 Alpha  occ. eigenvalues --   -1.13880  -1.13820  -1.13809  -1.13794  -1.13793
 Alpha  occ. eigenvalues --   -1.13773  -1.13764  -1.13359  -1.13355  -1.13311
 Alpha  occ. eigenvalues --   -0.15141  -0.14057  -0.12629  -0.11565
 Alpha virt. eigenvalues --   -0.07366  -0.05661  -0.04011  -0.03445  -0.03280
 Alpha virt. eigenvalues --   -0.02711  -0.02472  -0.02108  -0.01646  -0.01253
 Alpha virt. eigenvalues --   -0.00903  -0.00834  -0.00361   0.00250   0.00434

  Beta  occ. eigenvalues --  -38.45323 -38.45101 -38.44681 -38.44501 -38.44331
  Beta  occ. eigenvalues --  -38.44327 -38.43934  -2.21065  -2.20790  -2.20494
  Beta  occ. eigenvalues --   -2.20264  -2.20072  -2.20069  -2.19701  -1.14767
  Beta  occ. eigenvalues --   -1.14744  -1.14739  -1.14502  -1.14492  -1.14463
  Beta  occ. eigenvalues --   -1.14161  -1.14154  -1.14104  -1.13940  -1.13938
  Beta  occ. eigenvalues --   -1.13881  -1.13757  -1.13748  -1.13746  -1.13746
  Beta  occ. eigenvalues --   -1.13728  -1.13720  -1.13379  -1.13375  -1.13308
  Beta  occ. eigenvalues --   -0.14374  -0.13678  -0.12099
  Beta virt. eigenvalues --   -0.08436  -0.06907  -0.05279  -0.03655  -0.03231
  Beta virt. eigenvalues --   -0.02930  -0.02614  -0.02329  -0.01751  -0.01459
  Beta virt. eigenvalues --   -0.01048  -0.00658  -0.00395  -0.00115   0.00327

 Mulliken charges and spin densities:
               1          2
     1  Na   0.012761   0.504193
     2  Na   0.246454   0.216475
     3  Na   0.300826   0.171758
     4  Na  -0.460800  -0.045306
     5  Na  -0.154315  -0.147280
     6  Na  -0.072178   0.303529
     7  Na   0.127253  -0.003370
 Sum of Mulliken charges =  -0.00000   1.00000

 Dipole moment (field-independent basis, Debye):
    X=             -2.3260    Y=             -0.1018    Z=              0.3931  Tot=              2.3612
 Quadrupole moment (field-independent basis, Debye-Ang):
   XX=            -55.4223   YY=            -60.4812   ZZ=            -73.6586
   XY=             -6.4248   XZ=             -0.4036   YZ=              0.7809

 Normal termination of Gaussian 16 at Sun Dec  3 21:28:37 2023.
