 Gaussian 16, Revision B.01,
 Gaussian 16:  ES64L-G16RevB.01 20-Dec-2017

 -------------------------
 #P B3LYP/6-311+g(d) force
 -------------------------

 -----
 DPGEN
 -----
 Symbolic Z-matrix:
 Charge =  0 Multiplicity = 2

                         Standard orientation:
 ---------------------------------------------------------------------
 Center     Atomic      Atomic             Coordinates (Angstroms)
 Number     Number       Type             X           Y           Z
 ---------------------------------------------------------------------
      1         11           0        2.057916    1.579045   -0.037602
      2         11           0       -1.514427    0.545858    1.102854
      3         11           0       -1.750071   -2.758568   -0.606027
      4         11           0        1.301193   -2.061223    0.660105
      5         11           0        4.958749   -0.690052   -0.410876
      6         11           0       -4.653982   -0.048218   -0.371961
      7         11           0       -0.399379    3.433159   -0.336492
 ---------------------------------------------------------------------

 SCF Done:  E(UB3LYP) =  -1136.12525866     A.U. after   19 cycles

 The electronic state is 2-A.
 Alpha  occ. eigenvalues --  -38.44531 -38.44391 -38.44272 -38.44022 -38.43778
 Alpha  occ. eigenvalues --  -38.43735 -38.43646  -2.20322  -2.20225  -2.20073
 Alpha  occ. eigenvalues --   -2.19808  -2.19621  -2.19546  -2.19483  -1.14004
 Alpha  occ. eigenvalues --   -1.13986  -1.13954  -1.13930  -1.13914  -1.13836
 Alpha  occ. eigenvalues --   -1.13721  -1.13711  -1.13679  -1.13460  -1.13457
 Alpha  occ. eigenvalues --   -1.13413  -1.13332  -1.13310  -1.13295  -1.13240
 Alpha  occ. eigenvalues --   -1.13228  -1.13148  -1.13133  -1.13126  -1.13090
 Alpha  occ. eigenvalues --   -0.16846  -0.13627  -0.12667  -0.10909
 Alpha virt. eigenvalues --   -0.06285  -0.05120  -0.04682  -0.03898  -0.02682
 Alpha virt. eigenvalues --   -0.02191  -0.01821  -0.01621  -0.01027  -0.00834
 Alpha virt. eigenvalues --   -0.00517  -0.00173   0.00523   0.00561   0.00621

  Beta  occ. eigenvalues --  -38.44517 -38.44387 -38.44181 -38.43944 -38.43776
  Beta  occ. eigenvalues --  -38.43713 -38.43648  -2.20300  -2.20221  -2.19902
  Beta  occ. eigenvalues --   -2.19662  -2.19620  -2.19509  -2.19488  -1.13993
  Beta  occ. eigenvalues --   -1.13966  -1.13931  -1.13919  -1.13885  -1.13834
  Beta  occ. eigenvalues --   -1.13604  -1.13594  -1.13570  -1.13360  -1.13356
  Beta  occ. eigenvalues --   -1.13336  -1.13321  -1.13309  -1.13280  -1.13218
  Beta  occ. eigenvalues --   -1.13205  -1.13137  -1.13132  -1.13100  -1.13084
  Beta  occ. eigenvalues --   -0.16447  -0.12884  -0.12207
  Beta virt. eigenvalues --   -0.07503  -0.06206  -0.04905  -0.04055  -0.03750
  Beta virt. eigenvalues --   -0.02472  -0.01940  -0.01345  -0.01118  -0.00860
  Beta virt. eigenvalues --   -0.00744  -0.00292   0.00105   0.00596   0.00677

 Mulliken charges and spin densities:
               1          2
     1  Na  -0.979424   0.061482
     2  Na  -0.259271   0.054840
     3  Na   0.050312   0.017159
     4  Na  -0.106107   0.040910
     5  Na   0.532436   0.396397
     6  Na   0.153863   0.466394
     7  Na   0.608191  -0.037182
 Sum of Mulliken charges =  -0.00000   1.00000

 Dipole moment (field-independent basis, Debye):
    X=             -0.6765    Y=             -0.1586    Z=             -0.4917  Tot=              0.8512
 Quadrupole moment (field-independent basis, Debye-Ang):
   XX=            -65.4529   YY=            -63.7926   ZZ=            -68.9068
   XY=             -0.4423   XZ=              1.4695   YZ=              0.2690

 Normal termination of Gaussian 16 at Tue Nov 28 21:56:30 2023.
