 Gaussian 16, Revision B.01,
 Gaussian 16:  ES64L-G16RevB.01 20-Dec-2017

 -------------------------
 #P B3LYP/6-311+g(d) force
 -------------------------

 -----
 DPGEN
 -----
 Symbolic Z-matrix:
 Charge =  0 Multiplicity = 2

                         Standard orientation:
 ---------------------------------------------------------------------
 Center     Atomic      Atomic             Coordinates (Angstroms)
 Number     Number       Type             X           Y           Z
 ---------------------------------------------------------------------
      1         11           0        2.761701    1.498437   -0.660103
      2         11           0        4.205126   -1.689992    0.125958
      3         11           0       -0.021316   -2.872025    0.217826
      4         11           0       -0.101077    0.904997    0.943008
      5         11           0       -3.658472    1.128199    0.047085
      6         11           0       -0.288535    3.875821   -0.148206
      7         11           0       -2.897427   -2.845436   -0.525568
 ---------------------------------------------------------------------

 SCF Done:  E(UB3LYP) =  -1136.11497926     A.U. after   20 cycles

 The electronic state is 2-A.
 Alpha  occ. eigenvalues --  -38.44903 -38.44634 -38.44567 -38.44472 -38.44102
 Alpha  occ. eigenvalues --  -38.43728 -38.43678  -2.20755  -2.20431  -2.20369
 Alpha  occ. eigenvalues --   -2.20287  -2.19934  -2.19528  -2.19458  -1.14462
 Alpha  occ. eigenvalues --   -1.14418  -1.14401  -1.14127  -1.14125  -1.14043
 Alpha  occ. eigenvalues --   -1.14033  -1.14030  -1.14019  -1.13993  -1.13943
 Alpha  occ. eigenvalues --   -1.13908  -1.13596  -1.13585  -1.13539  -1.13182
 Alpha  occ. eigenvalues --   -1.13159  -1.13141  -1.13116  -1.13108  -1.13074
 Alpha  occ. eigenvalues --   -0.16650  -0.13670  -0.12959  -0.10090
 Alpha virt. eigenvalues --   -0.06640  -0.06041  -0.04288  -0.03422  -0.02760
 Alpha virt. eigenvalues --   -0.02667  -0.01965  -0.01740  -0.01520  -0.00487
 Alpha virt. eigenvalues --   -0.00146  -0.00043   0.00441   0.00505   0.00605

  Beta  occ. eigenvalues --  -38.44907 -38.44630 -38.44558 -38.44458 -38.44074
  Beta  occ. eigenvalues --  -38.43627 -38.43621  -2.20763  -2.20428  -2.20354
  Beta  occ. eigenvalues --   -2.20267  -2.19885  -2.19350  -2.19339  -1.14466
  Beta  occ. eigenvalues --   -1.14435  -1.14394  -1.14130  -1.14127  -1.14036
  Beta  occ. eigenvalues --   -1.14014  -1.14001  -1.13995  -1.13964  -1.13933
  Beta  occ. eigenvalues --   -1.13884  -1.13564  -1.13556  -1.13495  -1.13053
  Beta  occ. eigenvalues --   -1.13042  -1.13034  -1.13033  -1.13016  -1.13005
  Beta  occ. eigenvalues --   -0.16370  -0.13083  -0.12216
  Beta virt. eigenvalues --   -0.06807  -0.06563  -0.05887  -0.04127  -0.02957
  Beta virt. eigenvalues --   -0.02415  -0.02250  -0.01784  -0.01413  -0.01382
  Beta virt. eigenvalues --   -0.00435   0.00142   0.00337   0.00485   0.00591

 Mulliken charges and spin densities:
               1          2
     1  Na   0.197754   0.038175
     2  Na  -0.006204   0.343870
     3  Na  -0.328873   0.122133
     4  Na  -0.831786  -0.042647
     5  Na   0.075488   0.507555
     6  Na   0.437966   0.049935
     7  Na   0.455654  -0.019021
 Sum of Mulliken charges =  -0.00000   1.00000

 Dipole moment (field-independent basis, Debye):
    X=             -0.1584    Y=              0.9298    Z=             -0.4508  Tot=              1.0454
 Quadrupole moment (field-independent basis, Debye-Ang):
   XX=            -69.6689   YY=            -60.1386   ZZ=            -70.6645
   XY=              3.4035   XZ=              1.7320   YZ=             -2.4550

 Normal termination of Gaussian 16 at Mon Dec  4 04:09:52 2023.
