 Gaussian 16, Revision B.01,
 Gaussian 16:  ES64L-G16RevB.01 20-Dec-2017

 -------------------------
 #P B3LYP/6-311+g(d) force
 -------------------------

 -----
 DPGEN
 -----
 Symbolic Z-matrix:
 Charge =  0 Multiplicity = 2

                         Standard orientation:
 ---------------------------------------------------------------------
 Center     Atomic      Atomic             Coordinates (Angstroms)
 Number     Number       Type             X           Y           Z
 ---------------------------------------------------------------------
      1         11           0       -1.387146    2.403387   -0.052770
      2         11           0       -0.057741    0.044678   -1.773942
      3         11           0       -2.834615   -0.556641   -0.004512
      4         11           0       -0.406946   -2.686778   -0.010222
      5         11           0       -0.022776    0.017482    1.890643
      6         11           0        2.702551   -1.286638   -0.072996
      7         11           0        2.006673    2.064511    0.023800
 ---------------------------------------------------------------------

 SCF Done:  E(UB3LYP) =  -1136.14040310     A.U. after   17 cycles

 The electronic state is 2-A.
 Alpha  occ. eigenvalues --  -38.43588 -38.43485 -38.43434 -38.43346 -38.43231
 Alpha  occ. eigenvalues --  -38.43212 -38.43143  -2.19449  -2.19402  -2.19324
 Alpha  occ. eigenvalues --   -2.19316  -2.19229  -2.19152  -2.19067  -1.13130
 Alpha  occ. eigenvalues --   -1.13117  -1.13113  -1.13103  -1.13069  -1.13067
 Alpha  occ. eigenvalues --   -1.13030  -1.12997  -1.12986  -1.12957  -1.12947
 Alpha  occ. eigenvalues --   -1.12924  -1.12919  -1.12900  -1.12837  -1.12804
 Alpha  occ. eigenvalues --   -1.12787  -1.12768  -1.12730  -1.12720  -1.12687
 Alpha  occ. eigenvalues --   -0.19427  -0.13080  -0.12787  -0.11028
 Alpha virt. eigenvalues --   -0.05168  -0.05049  -0.04626  -0.03171  -0.03034
 Alpha virt. eigenvalues --   -0.02613  -0.01257  -0.01007  -0.00048  -0.00005
 Alpha virt. eigenvalues --    0.00007   0.00377   0.00885   0.00961   0.00973

  Beta  occ. eigenvalues --  -38.43585 -38.43479 -38.43429 -38.43258 -38.43224
  Beta  occ. eigenvalues --  -38.43136 -38.43132  -2.19447  -2.19395  -2.19311
  Beta  occ. eigenvalues --   -2.19163  -2.19143  -2.19084  -2.19058  -1.13127
  Beta  occ. eigenvalues --   -1.13106  -1.13103  -1.13090  -1.13068  -1.13025
  Beta  occ. eigenvalues --   -1.13009  -1.12958  -1.12950  -1.12903  -1.12871
  Beta  occ. eigenvalues --   -1.12848  -1.12818  -1.12815  -1.12772  -1.12764
  Beta  occ. eigenvalues --   -1.12747  -1.12722  -1.12705  -1.12686  -1.12670
  Beta  occ. eigenvalues --   -0.18660  -0.12814  -0.12506
  Beta virt. eigenvalues --   -0.07054  -0.05157  -0.05055  -0.04622  -0.02332
  Beta virt. eigenvalues --   -0.02185  -0.01530  -0.01182  -0.00946  -0.00107
  Beta virt. eigenvalues --   -0.00061   0.00119   0.00387   0.00938   0.00941

 Mulliken charges and spin densities:
               1          2
     1  Na   0.307712  -0.071057
     2  Na  -0.509462   0.655615
     3  Na   0.299540  -0.040345
     4  Na   0.241345  -0.072500
     5  Na  -0.565721   0.733633
     6  Na   0.074493  -0.103180
     7  Na   0.152093  -0.102166
 Sum of Mulliken charges =  -0.00000   1.00000

 Dipole moment (field-independent basis, Debye):
    X=              0.1348    Y=              0.0291    Z=              0.0675  Tot=              0.1536
 Quadrupole moment (field-independent basis, Debye-Ang):
   XX=            -58.4099   YY=            -62.6867   ZZ=            -72.9645
   XY=             -0.0713   XZ=             -0.0937   YZ=              0.0823

 Normal termination of Gaussian 16 at Fri Dec  8 00:54:53 2023.
