 Gaussian 16, Revision B.01,
 Gaussian 16:  ES64L-G16RevB.01 20-Dec-2017

 -------------------------
 #P B3LYP/6-311+g(d) force
 -------------------------

 -----
 DPGEN
 -----
 Symbolic Z-matrix:
 Charge =  0 Multiplicity = 2

                         Standard orientation:
 ---------------------------------------------------------------------
 Center     Atomic      Atomic             Coordinates (Angstroms)
 Number     Number       Type             X           Y           Z
 ---------------------------------------------------------------------
      1         11           0        0.043367    3.747039    1.026961
      2         11           0       -2.422003   -2.840500    1.411749
      3         11           0       -3.997967   -0.673644   -0.922260
      4         11           0       -2.401836    2.868109   -0.811070
      5         11           0        1.205045   -3.545584   -0.184001
      6         11           0        3.707702    1.852661    0.147340
      7         11           0        3.865692   -1.408080   -0.668718
 ---------------------------------------------------------------------

 SCF Done:  E(UB3LYP) =  -1136.10309391     A.U. after   23 cycles

 The electronic state is 2-A.
 Alpha  occ. eigenvalues --  -38.45432 -38.44753 -38.44651 -38.44576 -38.44331
 Alpha  occ. eigenvalues --  -38.44305 -38.44142  -2.21154  -2.20520  -2.20431
 Alpha  occ. eigenvalues --   -2.20358  -2.20109  -2.20094  -2.19928  -1.14842
 Alpha  occ. eigenvalues --   -1.14822  -1.14801  -1.14183  -1.14169  -1.14145
 Alpha  occ. eigenvalues --   -1.14140  -1.14093  -1.14076  -1.14023  -1.14008
 Alpha  occ. eigenvalues --   -1.13967  -1.13802  -1.13792  -1.13783  -1.13744
 Alpha  occ. eigenvalues --   -1.13727  -1.13697  -1.13583  -1.13571  -1.13541
 Alpha  occ. eigenvalues --   -0.15183  -0.13709  -0.13316  -0.10705
 Alpha virt. eigenvalues --   -0.07905  -0.05005  -0.04685  -0.03484  -0.03378
 Alpha virt. eigenvalues --   -0.02266  -0.02194  -0.01587  -0.01385  -0.01368
 Alpha virt. eigenvalues --   -0.01038  -0.00085   0.00120   0.00173   0.00645

  Beta  occ. eigenvalues --  -38.45449 -38.44704 -38.44628 -38.44560 -38.44336
  Beta  occ. eigenvalues --  -38.44228 -38.44064  -2.21190  -2.20430  -2.20393
  Beta  occ. eigenvalues --   -2.20333  -2.20124  -2.19951  -2.19781  -1.14869
  Beta  occ. eigenvalues --   -1.14848  -1.14805  -1.14121  -1.14110  -1.14105
  Beta  occ. eigenvalues --   -1.14085  -1.14069  -1.14047  -1.14007  -1.13991
  Beta  occ. eigenvalues --   -1.13931  -1.13809  -1.13804  -1.13742  -1.13648
  Beta  occ. eigenvalues --   -1.13634  -1.13610  -1.13483  -1.13474  -1.13447
  Beta  occ. eigenvalues --   -0.14674  -0.12948  -0.12686
  Beta virt. eigenvalues --   -0.08002  -0.07565  -0.04607  -0.04231  -0.03318
  Beta virt. eigenvalues --   -0.03116  -0.01975  -0.01851  -0.01483  -0.01263
  Beta virt. eigenvalues --   -0.01181  -0.00641  -0.00009   0.00104   0.00332

 Mulliken charges and spin densities:
               1          2
     1  Na   0.081085   0.078010
     2  Na  -0.026251  -0.091452
     3  Na   0.099383   0.245835
     4  Na  -0.180646   0.058764
     5  Na  -0.231721   0.367673
     6  Na  -0.106734   0.350970
     7  Na   0.364884  -0.009800
 Sum of Mulliken charges =  -0.00000   1.00000

 Dipole moment (field-independent basis, Debye):
    X=             -0.9460    Y=              0.1492    Z=              0.2949  Tot=              1.0021
 Quadrupole moment (field-independent basis, Debye-Ang):
   XX=            -68.2554   YY=            -68.4472   ZZ=            -66.0752
   XY=              1.9402   XZ=              1.9911   YZ=             -0.7259

 Normal termination of Gaussian 16 at Sun Dec  3 14:35:00 2023.
