 Gaussian 16, Revision B.01,
 Gaussian 16:  ES64L-G16RevB.01 20-Dec-2017

 -------------------------
 #P B3LYP/6-311+g(d) force
 -------------------------

 -----
 DPGEN
 -----
 Symbolic Z-matrix:
 Charge =  0 Multiplicity = 2

                         Standard orientation:
 ---------------------------------------------------------------------
 Center     Atomic      Atomic             Coordinates (Angstroms)
 Number     Number       Type             X           Y           Z
 ---------------------------------------------------------------------
      1         11           0       -4.214572   -1.486514   -0.694599
      2         11           0       -1.331850    0.315816   -1.743618
      3         11           0       -0.205436    2.427367    0.369108
      4         11           0        2.902260    1.016941   -0.730253
      5         11           0        4.611849   -1.622351    0.198031
      6         11           0        0.596286   -0.795696    0.733576
      7         11           0       -2.358538    0.144437    1.867755
 ---------------------------------------------------------------------

 SCF Done:  E(UB3LYP) =  -1136.11983395     A.U. after   24 cycles

 The electronic state is 2-A.
 Alpha  occ. eigenvalues --  -38.45119 -38.44265 -38.44250 -38.43993 -38.43692
 Alpha  occ. eigenvalues --  -38.43620 -38.43219  -2.21030  -2.20156  -2.20127
 Alpha  occ. eigenvalues --   -2.19885  -2.19476  -2.19409  -2.19135  -1.14746
 Alpha  occ. eigenvalues --   -1.14693  -1.14643  -1.13866  -1.13824  -1.13822
 Alpha  occ. eigenvalues --   -1.13812  -1.13728  -1.13724  -1.13573  -1.13533
 Alpha  occ. eigenvalues --   -1.13480  -1.13147  -1.13141  -1.13108  -1.13079
 Alpha  occ. eigenvalues --   -1.13071  -1.13043  -1.12821  -1.12787  -1.12775
 Alpha  occ. eigenvalues --   -0.18462  -0.13956  -0.11389  -0.11118
 Alpha virt. eigenvalues --   -0.06853  -0.05708  -0.04309  -0.02972  -0.02804
 Alpha virt. eigenvalues --   -0.02645  -0.02183  -0.01632  -0.00986  -0.00432
 Alpha virt. eigenvalues --   -0.00135   0.00253   0.00330   0.00502   0.00613

  Beta  occ. eigenvalues --  -38.45087 -38.44257 -38.44183 -38.43925 -38.43696
  Beta  occ. eigenvalues --  -38.43609 -38.43208  -2.20977  -2.20113  -2.20033
  Beta  occ. eigenvalues --   -2.19762  -2.19483  -2.19390  -2.19121  -1.14688
  Beta  occ. eigenvalues --   -1.14660  -1.14593  -1.13815  -1.13801  -1.13782
  Beta  occ. eigenvalues --   -1.13741  -1.13712  -1.13628  -1.13483  -1.13456
  Beta  occ. eigenvalues --   -1.13384  -1.13152  -1.13146  -1.13112  -1.13067
  Beta  occ. eigenvalues --   -1.13045  -1.13033  -1.12816  -1.12782  -1.12722
  Beta  occ. eigenvalues --   -0.17737  -0.13781  -0.11168
  Beta virt. eigenvalues --   -0.07184  -0.06638  -0.05545  -0.03937  -0.02734
  Beta virt. eigenvalues --   -0.02546  -0.01968  -0.01801  -0.01362  -0.00505
  Beta virt. eigenvalues --   -0.00396  -0.00088   0.00309   0.00520   0.00581

 Mulliken charges and spin densities:
               1          2
     1  Na  -0.044752  -0.043562
     2  Na  -0.154239   0.470323
     3  Na   0.191336   0.087415
     4  Na   0.032693   0.045161
     5  Na   0.382353   0.015151
     6  Na  -1.273267   0.403723
     7  Na   0.865876   0.021789
 Sum of Mulliken charges =  -0.00000   1.00000

 Dipole moment (field-independent basis, Debye):
    X=              0.1763    Y=              0.6864    Z=              0.1660  Tot=              0.7278
 Quadrupole moment (field-independent basis, Debye-Ang):
   XX=            -62.0725   YY=            -65.6845   ZZ=            -71.6846
   XY=             -0.5645   XZ=             -2.2563   YZ=              0.3940

 Normal termination of Gaussian 16 at Tue Dec  5 11:54:38 2023.
