 Gaussian 16, Revision B.01,
 Gaussian 16:  ES64L-G16RevB.01 20-Dec-2017

 -------------------------
 #P B3LYP/6-311+g(d) force
 -------------------------

 -----
 DPGEN
 -----
 Symbolic Z-matrix:
 Charge =  0 Multiplicity = 2

                         Standard orientation:
 ---------------------------------------------------------------------
 Center     Atomic      Atomic             Coordinates (Angstroms)
 Number     Number       Type             X           Y           Z
 ---------------------------------------------------------------------
      1         11           0        1.107336   -1.897796   -0.875945
      2         11           0        4.266836    0.629400   -0.447755
      3         11           0       -1.728399   -0.610846    1.617645
      4         11           0       -2.531762   -1.275820   -1.398575
      5         11           0        0.700594    1.792747   -1.011140
      6         11           0       -3.447325    1.643721    0.120181
      7         11           0        1.632720   -0.281406    1.995590
 ---------------------------------------------------------------------

 SCF Done:  E(UB3LYP) =  -1136.11779988     A.U. after  100 cycles

 The electronic state is 2-A.
 Alpha  occ. eigenvalues --  -38.45062 -38.44976 -38.44533 -38.43744 -38.43697
 Alpha  occ. eigenvalues --  -38.43582 -38.43516  -2.20796  -2.20751  -2.20390
 Alpha  occ. eigenvalues --   -2.19622  -2.19538  -2.19435  -2.19426  -1.14515
 Alpha  occ. eigenvalues --   -1.14498  -1.14424  -1.14407  -1.14400  -1.14358
 Alpha  occ. eigenvalues --   -1.14078  -1.14047  -1.13999  -1.13316  -1.13281
 Alpha  occ. eigenvalues --   -1.13248  -1.13231  -1.13187  -1.13167  -1.13120
 Alpha  occ. eigenvalues --   -1.13114  -1.13095  -1.13073  -1.13038  -1.13027
 Alpha  occ. eigenvalues --   -0.17999  -0.14318  -0.11246  -0.10814
 Alpha virt. eigenvalues --   -0.07089  -0.05291  -0.04958  -0.03205  -0.02919
 Alpha virt. eigenvalues --   -0.02447  -0.02212  -0.01259  -0.01000  -0.00385
 Alpha virt. eigenvalues --    0.00014   0.00191   0.00230   0.00465   0.00600

  Beta  occ. eigenvalues --  -38.45095 -38.44944 -38.44489 -38.43690 -38.43670
  Beta  occ. eigenvalues --  -38.43549 -38.43479  -2.20860  -2.20690  -2.20309
  Beta  occ. eigenvalues --   -2.19525  -2.19489  -2.19372  -2.19365  -1.14546
  Beta  occ. eigenvalues --   -1.14540  -1.14448  -1.14376  -1.14367  -1.14322
  Beta  occ. eigenvalues --   -1.14032  -1.13993  -1.13921  -1.13245  -1.13221
  Beta  occ. eigenvalues --   -1.13207  -1.13154  -1.13147  -1.13139  -1.13079
  Beta  occ. eigenvalues --   -1.13063  -1.13045  -1.13020  -1.12991  -1.12971
  Beta  occ. eigenvalues --   -0.17392  -0.13972  -0.10610
  Beta virt. eigenvalues --   -0.07353  -0.07004  -0.05119  -0.04360  -0.02918
  Beta virt. eigenvalues --   -0.02800  -0.01947  -0.01636  -0.01148  -0.00523
  Beta virt. eigenvalues --   -0.00225   0.00092   0.00222   0.00355   0.00596

 Mulliken charges and spin densities:
               1          2
     1  Na  -0.281117   0.221957
     2  Na   0.560785   0.206577
     3  Na  -0.331282   0.284494
     4  Na   0.031903   0.274030
     5  Na  -0.538268  -0.204649
     6  Na   0.408205   0.095057
     7  Na   0.149774   0.122534
 Sum of Mulliken charges =  -0.00000   1.00000

 Dipole moment (field-independent basis, Debye):
    X=              0.7337    Y=             -0.2289    Z=             -0.2645  Tot=              0.8129
 Quadrupole moment (field-independent basis, Debye-Ang):
   XX=            -51.4625   YY=            -75.1949   ZZ=            -70.5074
   XY=             -1.1792   XZ=              1.7839   YZ=              3.3410

 Normal termination of Gaussian 16 at Thu Dec  7 18:44:35 2023.
