 Gaussian 16, Revision B.01,
 Gaussian 16:  ES64L-G16RevB.01 20-Dec-2017

 -------------------------
 #P B3LYP/6-311+g(d) force
 -------------------------

 -----
 DPGEN
 -----
 Symbolic Z-matrix:
 Charge =  0 Multiplicity = 2

                         Standard orientation:
 ---------------------------------------------------------------------
 Center     Atomic      Atomic             Coordinates (Angstroms)
 Number     Number       Type             X           Y           Z
 ---------------------------------------------------------------------
      1         11           0       -2.725610   -1.372253    0.040660
      2         11           0       -0.358516   -0.069264   -1.712083
      3         11           0        3.017398   -0.565713   -0.192434
      4         11           0        1.245983    2.685103   -0.329285
      5         11           0       -2.260599    1.845962    0.277204
      6         11           0        0.495819   -2.754312    0.080667
      7         11           0        0.585526    0.230476    1.835271
 ---------------------------------------------------------------------

 SCF Done:  E(UB3LYP) =  -1136.13970921     A.U. after   18 cycles

 The electronic state is 2-A.
 Alpha  occ. eigenvalues --  -38.43990 -38.43667 -38.43659 -38.43473 -38.43241
 Alpha  occ. eigenvalues --  -38.43233 -38.43085  -2.19849  -2.19540  -2.19528
 Alpha  occ. eigenvalues --   -2.19325  -2.19181  -2.19126  -2.19072  -1.13536
 Alpha  occ. eigenvalues --   -1.13510  -1.13485  -1.13271  -1.13219  -1.13198
 Alpha  occ. eigenvalues --   -1.13189  -1.13179  -1.13126  -1.13013  -1.13000
 Alpha  occ. eigenvalues --   -1.12953  -1.12868  -1.12824  -1.12814  -1.12807
 Alpha  occ. eigenvalues --   -1.12773  -1.12751  -1.12740  -1.12693  -1.12685
 Alpha  occ. eigenvalues --   -0.18956  -0.13194  -0.12604  -0.10628
 Alpha virt. eigenvalues --   -0.05537  -0.05159  -0.04720  -0.03236  -0.02906
 Alpha virt. eigenvalues --   -0.02319  -0.01422  -0.01101  -0.00296  -0.00246
 Alpha virt. eigenvalues --    0.00012   0.00376   0.00839   0.00896   0.00926

  Beta  occ. eigenvalues --  -38.43985 -38.43664 -38.43651 -38.43464 -38.43235
  Beta  occ. eigenvalues --  -38.43156 -38.43013  -2.19843  -2.19537  -2.19517
  Beta  occ. eigenvalues --   -2.19312  -2.19118  -2.19040  -2.18940  -1.13528
  Beta  occ. eigenvalues --   -1.13494  -1.13475  -1.13270  -1.13206  -1.13185
  Beta  occ. eigenvalues --   -1.13175  -1.13155  -1.13124  -1.13003  -1.12964
  Beta  occ. eigenvalues --   -1.12947  -1.12827  -1.12770  -1.12756  -1.12746
  Beta  occ. eigenvalues --   -1.12707  -1.12688  -1.12655  -1.12599  -1.12593
  Beta  occ. eigenvalues --   -0.18228  -0.12961  -0.12350
  Beta virt. eigenvalues --   -0.06733  -0.05496  -0.05144  -0.04683  -0.02447
  Beta virt. eigenvalues --   -0.02122  -0.01338  -0.01293  -0.01031  -0.00343
  Beta virt. eigenvalues --   -0.00293   0.00148   0.00399   0.00882   0.00890

 Mulliken charges and spin densities:
               1          2
     1  Na   0.140218  -0.039102
     2  Na  -0.314118   0.629838
     3  Na   0.209545  -0.061133
     4  Na   0.094257  -0.077869
     5  Na   0.139682  -0.037173
     6  Na   0.130339  -0.093882
     7  Na  -0.399922   0.679321
 Sum of Mulliken charges =  -0.00000   1.00000

 Dipole moment (field-independent basis, Debye):
    X=              0.1204    Y=              0.0783    Z=              0.0342  Tot=              0.1476
 Quadrupole moment (field-independent basis, Debye-Ang):
   XX=            -56.6385   YY=            -62.0473   ZZ=            -74.5661
   XY=              0.2324   XZ=             -2.0420   YZ=             -0.5977

 Normal termination of Gaussian 16 at Thu Dec  7 06:35:26 2023.
