 Gaussian 16, Revision B.01,
 Gaussian 16:  ES64L-G16RevB.01 20-Dec-2017

 -------------------------
 #P B3LYP/6-311+g(d) force
 -------------------------

 -----
 DPGEN
 -----
 Symbolic Z-matrix:
 Charge =  0 Multiplicity = 2

                         Standard orientation:
 ---------------------------------------------------------------------
 Center     Atomic      Atomic             Coordinates (Angstroms)
 Number     Number       Type             X           Y           Z
 ---------------------------------------------------------------------
      1         11           0        0.089806   -2.943445   -0.288800
      2         11           0       -0.108822   -0.166423    2.123454
      3         11           0        2.034339    2.575442    0.039439
      4         11           0        3.116846   -1.087686   -0.065939
      5         11           0       -0.211929    0.001282   -1.717556
      6         11           0       -3.100764   -1.050807    0.114366
      7         11           0       -1.819476    2.671636   -0.204964
 ---------------------------------------------------------------------

 SCF Done:  E(UB3LYP) =  -1136.13593123     A.U. after   19 cycles

 The electronic state is 2-A.
 Alpha  occ. eigenvalues --  -38.44122 -38.44051 -38.43998 -38.43989 -38.43788
 Alpha  occ. eigenvalues --  -38.43529 -38.43407  -2.19918  -2.19815  -2.19782
 Alpha  occ. eigenvalues --   -2.19771  -2.19629  -2.19376  -2.19317  -1.13592
 Alpha  occ. eigenvalues --   -1.13577  -1.13561  -1.13497  -1.13478  -1.13468
 Alpha  occ. eigenvalues --   -1.13458  -1.13447  -1.13442  -1.13429  -1.13416
 Alpha  occ. eigenvalues --   -1.13410  -1.13292  -1.13258  -1.13244  -1.13098
 Alpha  occ. eigenvalues --   -1.13039  -1.12996  -1.12992  -1.12939  -1.12936
 Alpha  occ. eigenvalues --   -0.17974  -0.12558  -0.12448  -0.10571
 Alpha virt. eigenvalues --   -0.05705  -0.05509  -0.05003  -0.02983  -0.02923
 Alpha virt. eigenvalues --   -0.02604  -0.01564  -0.01352  -0.00776  -0.00630
 Alpha virt. eigenvalues --   -0.00039   0.00347   0.00748   0.00800   0.00826

  Beta  occ. eigenvalues --  -38.44118 -38.44052 -38.43994 -38.43989 -38.43690
  Beta  occ. eigenvalues --  -38.43519 -38.43343  -2.19915  -2.19818  -2.19778
  Beta  occ. eigenvalues --   -2.19774  -2.19448  -2.19362  -2.19201  -1.13578
  Beta  occ. eigenvalues --   -1.13566  -1.13561  -1.13487  -1.13480  -1.13463
  Beta  occ. eigenvalues --   -1.13451  -1.13437  -1.13434  -1.13431  -1.13418
  Beta  occ. eigenvalues --   -1.13411  -1.13172  -1.13133  -1.13113  -1.13072
  Beta  occ. eigenvalues --   -1.13009  -1.12988  -1.12917  -1.12857  -1.12854
  Beta  occ. eigenvalues --   -0.17250  -0.12374  -0.12246
  Beta virt. eigenvalues --   -0.06670  -0.05710  -0.05476  -0.04894  -0.02264
  Beta virt. eigenvalues --   -0.02187  -0.01550  -0.01463  -0.01270  -0.00833
  Beta virt. eigenvalues --   -0.00684   0.00114   0.00377   0.00781   0.00822

 Mulliken charges and spin densities:
               1          2
     1  Na   0.250535  -0.030268
     2  Na  -0.403420   0.850284
     3  Na  -0.067516  -0.104878
     4  Na  -0.030511  -0.086692
     5  Na   0.060896   0.547602
     6  Na   0.176367  -0.058210
     7  Na   0.013649  -0.117838
 Sum of Mulliken charges =  -0.00000   1.00000

 Dipole moment (field-independent basis, Debye):
    X=             -0.1447    Y=              0.0895    Z=              0.0733  Tot=              0.1852
 Quadrupole moment (field-independent basis, Debye-Ang):
   XX=            -56.5912   YY=            -60.8934   ZZ=            -75.6507
   XY=              0.1924   XZ=             -0.1725   YZ=              0.4113

 Normal termination of Gaussian 16 at Fri Dec  8 07:48:12 2023.
