 Gaussian 16, Revision B.01,
 Gaussian 16:  ES64L-G16RevB.01 20-Dec-2017

 -------------------------
 #P B3LYP/6-311+g(d) force
 -------------------------

 -----
 DPGEN
 -----
 Symbolic Z-matrix:
 Charge =  0 Multiplicity = 2

                         Standard orientation:
 ---------------------------------------------------------------------
 Center     Atomic      Atomic             Coordinates (Angstroms)
 Number     Number       Type             X           Y           Z
 ---------------------------------------------------------------------
      1         11           0        3.509106   -1.179972   -0.415158
      2         11           0       -1.430205   -1.592720    0.781094
      3         11           0       -4.483877   -0.065157   -0.373593
      4         11           0       -0.009341   -1.045339   -1.598639
      5         11           0        1.378046   -0.166025    1.959980
      6         11           0        2.103899    1.927353   -0.691990
      7         11           0       -1.067628    2.121860    0.338307
 ---------------------------------------------------------------------

 SCF Done:  E(UB3LYP) =  -1136.11406016     A.U. after   29 cycles

 The electronic state is 2-A.
 Alpha  occ. eigenvalues --  -38.45890 -38.45421 -38.44360 -38.44029 -38.43550
 Alpha  occ. eigenvalues --  -38.43021 -38.42513  -2.21638  -2.21278  -2.20191
 Alpha  occ. eigenvalues --   -2.19944  -2.19478  -2.18905  -2.18350  -1.15308
 Alpha  occ. eigenvalues --   -1.15289  -1.15248  -1.15074  -1.14923  -1.14860
 Alpha  occ. eigenvalues --   -1.13876  -1.13846  -1.13818  -1.13629  -1.13585
 Alpha  occ. eigenvalues --   -1.13547  -1.13232  -1.13112  -1.13050  -1.12589
 Alpha  occ. eigenvalues --   -1.12569  -1.12528  -1.12049  -1.12026  -1.11962
 Alpha  occ. eigenvalues --   -0.18457  -0.13881  -0.11071  -0.10952
 Alpha virt. eigenvalues --   -0.07855  -0.04762  -0.04188  -0.03346  -0.03047
 Alpha virt. eigenvalues --   -0.02393  -0.02272  -0.01254  -0.01064  -0.00251
 Alpha virt. eigenvalues --   -0.00144   0.00225   0.00260   0.00733   0.00789

  Beta  occ. eigenvalues --  -38.45853 -38.45417 -38.44339 -38.43954 -38.43522
  Beta  occ. eigenvalues --  -38.43000 -38.42508  -2.21566  -2.21272  -2.20155
  Beta  occ. eigenvalues --   -2.19810  -2.19431  -2.18868  -2.18344  -1.15258
  Beta  occ. eigenvalues --   -1.15240  -1.15202  -1.15054  -1.14920  -1.14857
  Beta  occ. eigenvalues --   -1.13852  -1.13806  -1.13796  -1.13523  -1.13493
  Beta  occ. eigenvalues --   -1.13451  -1.13211  -1.13063  -1.12997  -1.12564
  Beta  occ. eigenvalues --   -1.12549  -1.12486  -1.12048  -1.12004  -1.11958
  Beta  occ. eigenvalues --   -0.17803  -0.13524  -0.10864
  Beta virt. eigenvalues --   -0.07595  -0.07163  -0.04679  -0.03732  -0.03064
  Beta virt. eigenvalues --   -0.02891  -0.01805  -0.01606  -0.01119  -0.00609
  Beta virt. eigenvalues --   -0.00170  -0.00052   0.00255   0.00405   0.00783

 Mulliken charges and spin densities:
               1          2
     1  Na   0.075823   0.182246
     2  Na  -0.075158   0.118384
     3  Na   0.115497   0.199776
     4  Na   0.236690   0.075530
     5  Na   0.568840   0.226168
     6  Na  -0.309293   0.235464
     7  Na  -0.612398  -0.037568
 Sum of Mulliken charges =  -0.00000   1.00000

 Dipole moment (field-independent basis, Debye):
    X=             -0.7387    Y=             -0.3383    Z=             -0.0259  Tot=              0.8129
 Quadrupole moment (field-independent basis, Debye-Ang):
   XX=            -45.6143   YY=            -79.4999   ZZ=            -68.1011
   XY=             -1.3946   XZ=              1.8026   YZ=             -1.0507

 Normal termination of Gaussian 16 at Wed Nov 29 16:22:50 2023.
