 Gaussian 16, Revision B.01,
 Gaussian 16:  ES64L-G16RevB.01 20-Dec-2017

 -------------------------
 #P B3LYP/6-311+g(d) force
 -------------------------

 -----
 DPGEN
 -----
 Symbolic Z-matrix:
 Charge =  0 Multiplicity = 2

                         Standard orientation:
 ---------------------------------------------------------------------
 Center     Atomic      Atomic             Coordinates (Angstroms)
 Number     Number       Type             X           Y           Z
 ---------------------------------------------------------------------
      1         11           0       -0.101062   -1.273167   -0.930156
      2         11           0        1.286140   -0.578694    1.932102
      3         11           0       -3.367389   -1.701414   -0.246467
      4         11           0       -1.932778    1.023107    1.555042
      5         11           0        1.392672    1.633360    0.378904
      6         11           0       -1.104039    1.793451   -1.898374
      7         11           0        3.826457   -0.896643   -0.791051
 ---------------------------------------------------------------------

 SCF Done:  E(UB3LYP) =  -1136.11833851     A.U. after   25 cycles

 The electronic state is 2-A.
 Alpha  occ. eigenvalues --  -38.44800 -38.44668 -38.44074 -38.44057 -38.43534
 Alpha  occ. eigenvalues --  -38.43229 -38.43128  -2.20765  -2.20442  -2.19931
 Alpha  occ. eigenvalues --   -2.19919  -2.19446  -2.19121  -2.19029  -1.14588
 Alpha  occ. eigenvalues --   -1.14420  -1.14297  -1.14115  -1.14107  -1.14054
 Alpha  occ. eigenvalues --   -1.13621  -1.13606  -1.13592  -1.13546  -1.13538
 Alpha  occ. eigenvalues --   -1.13522  -1.13179  -1.13129  -1.13032  -1.12869
 Alpha  occ. eigenvalues --   -1.12776  -1.12700  -1.12686  -1.12672  -1.12666
 Alpha  occ. eigenvalues --   -0.18764  -0.13480  -0.11817  -0.11031
 Alpha virt. eigenvalues --   -0.06517  -0.04992  -0.04473  -0.03177  -0.02787
 Alpha virt. eigenvalues --   -0.02449  -0.02232  -0.01149  -0.00712   0.00040
 Alpha virt. eigenvalues --    0.00137   0.00247   0.00394   0.00661   0.00809

  Beta  occ. eigenvalues --  -38.44739 -38.44656 -38.44046 -38.43981 -38.43513
  Beta  occ. eigenvalues --  -38.43232 -38.43116  -2.20655  -2.20420  -2.19880
  Beta  occ. eigenvalues --   -2.19779  -2.19412  -2.19106  -2.19035  -1.14519
  Beta  occ. eigenvalues --   -1.14345  -1.14200  -1.14098  -1.14089  -1.14041
  Beta  occ. eigenvalues --   -1.13576  -1.13549  -1.13512  -1.13499  -1.13442
  Beta  occ. eigenvalues --   -1.13435  -1.13140  -1.13092  -1.13013  -1.12839
  Beta  occ. eigenvalues --   -1.12739  -1.12702  -1.12686  -1.12677  -1.12662
  Beta  occ. eigenvalues --   -0.17964  -0.13300  -0.10826
  Beta virt. eigenvalues --   -0.07813  -0.06283  -0.04857  -0.03857  -0.02783
  Beta virt. eigenvalues --   -0.02365  -0.01991  -0.01846  -0.01042  -0.00362
  Beta virt. eigenvalues --    0.00107   0.00177   0.00362   0.00506   0.00736

 Mulliken charges and spin densities:
               1          2
     1  Na  -0.456196   0.472413
     2  Na   0.091765   0.156183
     3  Na   0.038774  -0.100710
     4  Na   0.155318   0.172522
     5  Na   0.248366   0.404048
     6  Na  -0.193864   0.003521
     7  Na   0.115838  -0.107977
 Sum of Mulliken charges =  -0.00000   1.00000

 Dipole moment (field-independent basis, Debye):
    X=              0.5845    Y=              0.4635    Z=              0.0268  Tot=              0.7465
 Quadrupole moment (field-independent basis, Debye-Ang):
   XX=            -53.2525   YY=            -75.7845   ZZ=            -65.2295
   XY=             -3.1328   XZ=             -2.6208   YZ=             -2.5005

 Normal termination of Gaussian 16 at Tue Dec  5 19:58:54 2023.
