 Gaussian 16, Revision B.01,
 Gaussian 16:  ES64L-G16RevB.01 20-Dec-2017

 -------------------------
 #P B3LYP/6-311+g(d) force
 -------------------------

 -----
 DPGEN
 -----
 Symbolic Z-matrix:
 Charge =  0 Multiplicity = 2

                         Standard orientation:
 ---------------------------------------------------------------------
 Center     Atomic      Atomic             Coordinates (Angstroms)
 Number     Number       Type             X           Y           Z
 ---------------------------------------------------------------------
      1         11           0       -0.320059   -0.294142    1.719777
      2         11           0        3.073729   -0.106368    0.211263
      3         11           0        1.177599    2.603879   -0.046352
      4         11           0       -2.174450    1.972642   -0.088260
      5         11           0       -2.616368   -1.384928    0.003615
      6         11           0        0.826227   -2.616439   -0.210405
      7         11           0        0.033321   -0.174645   -1.589638
 ---------------------------------------------------------------------

 SCF Done:  E(UB3LYP) =  -1136.13521599     A.U. after   19 cycles

 The electronic state is 2-A.
 Alpha  occ. eigenvalues --  -38.43899 -38.43792 -38.43550 -38.43376 -38.43291
 Alpha  occ. eigenvalues --  -38.43071 -38.42917  -2.19760  -2.19705  -2.19431
 Alpha  occ. eigenvalues --   -2.19321  -2.19164  -2.19091  -2.18990  -1.13429
 Alpha  occ. eigenvalues --   -1.13428  -1.13421  -1.13415  -1.13373  -1.13327
 Alpha  occ. eigenvalues --   -1.13127  -1.13110  -1.13098  -1.13068  -1.12993
 Alpha  occ. eigenvalues --   -1.12913  -1.12852  -1.12825  -1.12801  -1.12780
 Alpha  occ. eigenvalues --   -1.12707  -1.12696  -1.12646  -1.12598  -1.12583
 Alpha  occ. eigenvalues --   -0.19411  -0.13304  -0.12766  -0.10582
 Alpha virt. eigenvalues --   -0.05508  -0.05172  -0.04664  -0.03111  -0.02784
 Alpha virt. eigenvalues --   -0.02146  -0.01498  -0.01081  -0.00212  -0.00154
 Alpha virt. eigenvalues --    0.00048   0.00355   0.00849   0.00912   0.00939

  Beta  occ. eigenvalues --  -38.43895 -38.43783 -38.43544 -38.43363 -38.43288
  Beta  occ. eigenvalues --  -38.42992 -38.42841  -2.19755  -2.19694  -2.19425
  Beta  occ. eigenvalues --   -2.19303  -2.19161  -2.18948  -2.18853  -1.13428
  Beta  occ. eigenvalues --   -1.13417  -1.13416  -1.13394  -1.13336  -1.13319
  Beta  occ. eigenvalues --   -1.13110  -1.13096  -1.13074  -1.13059  -1.12944
  Beta  occ. eigenvalues --   -1.12906  -1.12846  -1.12806  -1.12797  -1.12690
  Beta  occ. eigenvalues --   -1.12604  -1.12594  -1.12553  -1.12501  -1.12486
  Beta  occ. eigenvalues --   -0.18687  -0.13036  -0.12485
  Beta virt. eigenvalues --   -0.06639  -0.05477  -0.05174  -0.04650  -0.02294
  Beta virt. eigenvalues --   -0.01988  -0.01415  -0.01122  -0.01013  -0.00259
  Beta virt. eigenvalues --   -0.00205   0.00173   0.00388   0.00887   0.00918

 Mulliken charges and spin densities:
               1          2
     1  Na  -0.537518   0.734966
     2  Na   0.020238  -0.026136
     3  Na  -0.001148  -0.082949
     4  Na   0.045866  -0.082758
     5  Na   0.506672  -0.065044
     6  Na   0.457836  -0.059906
     7  Na  -0.491947   0.581827
 Sum of Mulliken charges =  -0.00000   1.00000

 Dipole moment (field-independent basis, Debye):
    X=             -0.0250    Y=             -0.0085    Z=              0.0990  Tot=              0.1025
 Quadrupole moment (field-independent basis, Debye-Ang):
   XX=            -55.1676   YY=            -61.8880   ZZ=            -75.5295
   XY=             -0.0638   XZ=              0.9777   YZ=              0.1958

 Normal termination of Gaussian 16 at Thu Dec  7 10:13:08 2023.
