 Gaussian 16, Revision B.01,
 Gaussian 16:  ES64L-G16RevB.01 20-Dec-2017

 -------------------------
 #P B3LYP/6-311+g(d) force
 -------------------------

 -----
 DPGEN
 -----
 Symbolic Z-matrix:
 Charge =  0 Multiplicity = 2

                         Standard orientation:
 ---------------------------------------------------------------------
 Center     Atomic      Atomic             Coordinates (Angstroms)
 Number     Number       Type             X           Y           Z
 ---------------------------------------------------------------------
      1         11           0       -1.595264    2.457999   -0.056141
      2         11           0        0.148289    0.077020   -1.800866
      3         11           0       -2.842670   -0.731999   -0.134536
      4         11           0       -0.243489   -2.888407   -0.049189
      5         11           0       -0.219699   -0.067748    1.939966
      6         11           0        2.850367   -1.142599    0.018544
      7         11           0        1.902465    2.295734    0.082221
 ---------------------------------------------------------------------

 SCF Done:  E(UB3LYP) =  -1136.14285605     A.U. after   17 cycles

 The electronic state is 2-A.
 Alpha  occ. eigenvalues --  -38.43683 -38.43585 -38.43493 -38.43426 -38.43421
 Alpha  occ. eigenvalues --  -38.43398 -38.43244  -2.19515  -2.19432  -2.19373
 Alpha  occ. eigenvalues --   -2.19348  -2.19295  -2.19267  -2.19204  -1.13194
 Alpha  occ. eigenvalues --   -1.13183  -1.13162  -1.13117  -1.13102  -1.13085
 Alpha  occ. eigenvalues --   -1.13065  -1.13045  -1.13039  -1.13010  -1.12994
 Alpha  occ. eigenvalues --   -1.12971  -1.12960  -1.12946  -1.12944  -1.12920
 Alpha  occ. eigenvalues --   -1.12917  -1.12890  -1.12871  -1.12823  -1.12819
 Alpha  occ. eigenvalues --   -0.18894  -0.12852  -0.12733  -0.10829
 Alpha virt. eigenvalues --   -0.05265  -0.05105  -0.04895  -0.03108  -0.03031
 Alpha virt. eigenvalues --   -0.02591  -0.01259  -0.01152  -0.00290  -0.00238
 Alpha virt. eigenvalues --   -0.00010   0.00384   0.00871   0.00905   0.00927

  Beta  occ. eigenvalues --  -38.43681 -38.43581 -38.43487 -38.43421 -38.43392
  Beta  occ. eigenvalues --  -38.43334 -38.43167  -2.19514  -2.19428  -2.19365
  Beta  occ. eigenvalues --   -2.19289  -2.19261  -2.19188  -2.19064  -1.13190
  Beta  occ. eigenvalues --   -1.13166  -1.13163  -1.13111  -1.13077  -1.13069
  Beta  occ. eigenvalues --   -1.13067  -1.13037  -1.13006  -1.12966  -1.12949
  Beta  occ. eigenvalues --   -1.12935  -1.12920  -1.12912  -1.12896  -1.12890
  Beta  occ. eigenvalues --   -1.12849  -1.12842  -1.12782  -1.12725  -1.12720
  Beta  occ. eigenvalues --   -0.18140  -0.12614  -0.12485
  Beta virt. eigenvalues --   -0.06899  -0.05281  -0.05102  -0.04831  -0.02299
  Beta virt. eigenvalues --   -0.02219  -0.01527  -0.01181  -0.01078  -0.00352
  Beta virt. eigenvalues --   -0.00308   0.00122   0.00394   0.00894   0.00910

 Mulliken charges and spin densities:
               1          2
     1  Na   0.193360  -0.083108
     2  Na  -0.307593   0.673820
     3  Na   0.246363  -0.056083
     4  Na   0.164291  -0.093571
     5  Na  -0.449997   0.780369
     6  Na   0.061471  -0.114323
     7  Na   0.092105  -0.107104
 Sum of Mulliken charges =  -0.00000   1.00000

 Dipole moment (field-independent basis, Debye):
    X=              0.1105    Y=              0.0202    Z=              0.0591  Tot=              0.1269
 Quadrupole moment (field-independent basis, Debye-Ang):
   XX=            -59.0831   YY=            -60.8414   ZZ=            -73.7602
   XY=             -0.1019   XZ=              0.8624   YZ=              0.3334

 Normal termination of Gaussian 16 at Fri Dec  8 05:46:08 2023.
