 Gaussian 16, Revision B.01,
 Gaussian 16:  ES64L-G16RevB.01 20-Dec-2017

 -------------------------
 #P B3LYP/6-311+g(d) force
 -------------------------

 -----
 DPGEN
 -----
 Symbolic Z-matrix:
 Charge =  0 Multiplicity = 2

                         Standard orientation:
 ---------------------------------------------------------------------
 Center     Atomic      Atomic             Coordinates (Angstroms)
 Number     Number       Type             X           Y           Z
 ---------------------------------------------------------------------
      1         11           0       -1.307700    1.343513   -1.041909
      2         11           0        1.812266    2.352489   -0.511167
      3         11           0        3.297784   -0.467701    1.004290
      4         11           0        1.270322   -0.870425   -1.434785
      5         11           0       -2.423300   -1.768397   -1.290317
      6         11           0        0.540511   -1.614857    1.445174
      7         11           0       -3.189884    1.025378    1.828714
 ---------------------------------------------------------------------

 SCF Done:  E(UB3LYP) =  -1136.12201286     A.U. after   23 cycles

 The electronic state is 2-A.
 Alpha  occ. eigenvalues --  -38.45009 -38.44435 -38.44198 -38.44191 -38.43584
 Alpha  occ. eigenvalues --  -38.42870 -38.42644  -2.20801  -2.20241  -2.20166
 Alpha  occ. eigenvalues --   -2.20104  -2.19474  -2.18773  -2.18494  -1.14444
 Alpha  occ. eigenvalues --   -1.14440  -1.14407  -1.13923  -1.13920  -1.13882
 Alpha  occ. eigenvalues --   -1.13876  -1.13852  -1.13801  -1.13780  -1.13726
 Alpha  occ. eigenvalues --   -1.13702  -1.13168  -1.13122  -1.13079  -1.12474
 Alpha  occ. eigenvalues --   -1.12463  -1.12401  -1.12162  -1.12158  -1.12135
 Alpha  occ. eigenvalues --   -0.18256  -0.13951  -0.11533  -0.11299
 Alpha virt. eigenvalues --   -0.05910  -0.05517  -0.04723  -0.03323  -0.02763
 Alpha virt. eigenvalues --   -0.02534  -0.01912  -0.01079  -0.00641   0.00050
 Alpha virt. eigenvalues --    0.00171   0.00253   0.00312   0.00501   0.00550

  Beta  occ. eigenvalues --  -38.44910 -38.44404 -38.44183 -38.44157 -38.43573
  Beta  occ. eigenvalues --  -38.42862 -38.42647  -2.20615  -2.20186  -2.20107
  Beta  occ. eigenvalues --   -2.20074  -2.19456  -2.18763  -2.18501  -1.14316
  Beta  occ. eigenvalues --   -1.14313  -1.14286  -1.13889  -1.13881  -1.13845
  Beta  occ. eigenvalues --   -1.13829  -1.13811  -1.13771  -1.13739  -1.13700
  Beta  occ. eigenvalues --   -1.13670  -1.13156  -1.13098  -1.13065  -1.12472
  Beta  occ. eigenvalues --   -1.12422  -1.12391  -1.12168  -1.12156  -1.12140
  Beta  occ. eigenvalues --   -0.17723  -0.13436  -0.11180
  Beta virt. eigenvalues --   -0.07734  -0.05748  -0.04971  -0.04413  -0.03238
  Beta virt. eigenvalues --   -0.02108  -0.01948  -0.01717  -0.00738  -0.00412
  Beta virt. eigenvalues --    0.00229   0.00256   0.00309   0.00422   0.00653

 Mulliken charges and spin densities:
               1          2
     1  Na  -0.029594   0.175468
     2  Na  -0.214736  -0.091096
     3  Na   0.679410   0.034750
     4  Na   0.017635   0.265842
     5  Na   0.200715   0.086579
     6  Na  -0.662617   0.176921
     7  Na   0.009188   0.351535
 Sum of Mulliken charges =  -0.00000   1.00000

 Dipole moment (field-independent basis, Debye):
    X=             -0.1449    Y=             -0.5515    Z=              0.3696  Tot=              0.6795
 Quadrupole moment (field-independent basis, Debye-Ang):
   XX=            -54.6678   YY=            -74.6122   ZZ=            -66.7489
   XY=              2.8589   XZ=              0.6572   YZ=              5.5551

 Normal termination of Gaussian 16 at Wed Nov 29 00:39:56 2023.
