 Gaussian 16, Revision B.01,
 Gaussian 16:  ES64L-G16RevB.01 20-Dec-2017

 -------------------------
 #P B3LYP/6-311+g(d) force
 -------------------------

 -----
 DPGEN
 -----
 Symbolic Z-matrix:
 Charge =  0 Multiplicity = 2

                         Standard orientation:
 ---------------------------------------------------------------------
 Center     Atomic      Atomic             Coordinates (Angstroms)
 Number     Number       Type             X           Y           Z
 ---------------------------------------------------------------------
      1         11           0        2.654677    2.284883   -0.047084
      2         11           0       -1.036885   -2.514957    0.127794
      3         11           0        2.766614   -2.040710   -0.384363
      4         11           0       -1.523415    2.340327   -0.303461
      5         11           0       -3.596788   -0.132026    0.035370
      6         11           0        0.580829    0.125043    2.106809
      7         11           0        0.154969   -0.062560   -1.535064
 ---------------------------------------------------------------------

 SCF Done:  E(UB3LYP) =  -1136.12915990     A.U. after   21 cycles

 The electronic state is 2-A.
 Alpha  occ. eigenvalues --  -38.44483 -38.44455 -38.44370 -38.43634 -38.43588
 Alpha  occ. eigenvalues --  -38.43415 -38.43348  -2.20263  -2.20261  -2.20128
 Alpha  occ. eigenvalues --   -2.19487  -2.19440  -2.19304  -2.19264  -1.13941
 Alpha  occ. eigenvalues --   -1.13939  -1.13922  -1.13911  -1.13906  -1.13895
 Alpha  occ. eigenvalues --   -1.13805  -1.13785  -1.13771  -1.13220  -1.13150
 Alpha  occ. eigenvalues --   -1.13111  -1.13096  -1.13069  -1.13053  -1.13047
 Alpha  occ. eigenvalues --   -1.12968  -1.12929  -1.12919  -1.12895  -1.12867
 Alpha  occ. eigenvalues --   -0.18124  -0.13084  -0.12057  -0.10424
 Alpha virt. eigenvalues --   -0.06180  -0.05944  -0.04149  -0.03139  -0.02658
 Alpha virt. eigenvalues --   -0.02419  -0.02047  -0.01681  -0.00621  -0.00248
 Alpha virt. eigenvalues --   -0.00081   0.00242   0.00650   0.00736   0.00859

  Beta  occ. eigenvalues --  -38.44472 -38.44457 -38.44371 -38.43624 -38.43491
  Beta  occ. eigenvalues --  -38.43407 -38.43294  -2.20269  -2.20243  -2.20134
  Beta  occ. eigenvalues --   -2.19471  -2.19260  -2.19252  -2.19205  -1.13948
  Beta  occ. eigenvalues --   -1.13913  -1.13911  -1.13911  -1.13898  -1.13886
  Beta  occ. eigenvalues --   -1.13791  -1.13790  -1.13776  -1.13200  -1.13123
  Beta  occ. eigenvalues --   -1.13087  -1.13023  -1.12984  -1.12945  -1.12924
  Beta  occ. eigenvalues --   -1.12903  -1.12894  -1.12872  -1.12841  -1.12838
  Beta  occ. eigenvalues --   -0.17440  -0.12888  -0.11826
  Beta virt. eigenvalues --   -0.06575  -0.06072  -0.05900  -0.04122  -0.02464
  Beta virt. eigenvalues --   -0.01991  -0.01912  -0.01651  -0.01333  -0.00644
  Beta virt. eigenvalues --   -0.00268   0.00089   0.00284   0.00717   0.00743

 Mulliken charges and spin densities:
               1          2
     1  Na   0.084341  -0.104722
     2  Na   0.296658   0.084409
     3  Na   0.186155  -0.028873
     4  Na   0.428113   0.027787
     5  Na  -0.098729  -0.017706
     6  Na  -0.524686   0.712018
     7  Na  -0.371852   0.327088
 Sum of Mulliken charges =  -0.00000   1.00000

 Dipole moment (field-independent basis, Debye):
    X=              0.3251    Y=             -0.0286    Z=              0.0873  Tot=              0.3378
 Quadrupole moment (field-independent basis, Debye-Ang):
   XX=            -50.1303   YY=            -65.2132   ZZ=            -76.4226
   XY=              0.3918   XZ=             -1.1378   YZ=             -0.4090

 Normal termination of Gaussian 16 at Fri Dec  8 00:47:44 2023.
