 Gaussian 16, Revision B.01,
 Gaussian 16:  ES64L-G16RevB.01 20-Dec-2017

 -------------------------
 #P B3LYP/6-311+g(d) force
 -------------------------

 -----
 DPGEN
 -----
 Symbolic Z-matrix:
 Charge =  0 Multiplicity = 2

                         Standard orientation:
 ---------------------------------------------------------------------
 Center     Atomic      Atomic             Coordinates (Angstroms)
 Number     Number       Type             X           Y           Z
 ---------------------------------------------------------------------
      1         11           0       -0.223444    0.498608    1.356978
      2         11           0       -6.198341   -0.031388    0.157694
      3         11           0       -3.212023    1.136847   -0.979576
      4         11           0       -1.243561   -1.956433   -0.280473
      5         11           0        2.452161   -1.348026    0.281519
      6         11           0        3.113794    2.088814    0.026036
      7         11           0        5.311413   -0.388421   -0.562178
 ---------------------------------------------------------------------

 SCF Done:  E(UB3LYP) =  -1136.11709397     A.U. after   21 cycles

 The electronic state is 2-A.
 Alpha  occ. eigenvalues --  -38.44341 -38.44331 -38.44225 -38.44129 -38.43943
 Alpha  occ. eigenvalues --  -38.43859 -38.43737  -2.20171  -2.20130  -2.20057
 Alpha  occ. eigenvalues --   -2.19877  -2.19836  -2.19735  -2.19589  -1.13861
 Alpha  occ. eigenvalues --   -1.13840  -1.13819  -1.13797  -1.13777  -1.13752
 Alpha  occ. eigenvalues --   -1.13728  -1.13719  -1.13673  -1.13548  -1.13547
 Alpha  occ. eigenvalues --   -1.13542  -1.13520  -1.13506  -1.13475  -1.13402
 Alpha  occ. eigenvalues --   -1.13386  -1.13363  -1.13239  -1.13235  -1.13205
 Alpha  occ. eigenvalues --   -0.17078  -0.14337  -0.11562  -0.10670
 Alpha virt. eigenvalues --   -0.06520  -0.05769  -0.04826  -0.03408  -0.02821
 Alpha virt. eigenvalues --   -0.02465  -0.02096  -0.01415  -0.00987  -0.00727
 Alpha virt. eigenvalues --   -0.00290  -0.00102   0.00202   0.00320   0.00643

  Beta  occ. eigenvalues --  -38.44336 -38.44302 -38.44169 -38.44137 -38.43908
  Beta  occ. eigenvalues --  -38.43831 -38.43711  -2.20122  -2.20117  -2.19953
  Beta  occ. eigenvalues --   -2.19892  -2.19775  -2.19686  -2.19543  -1.13829
  Beta  occ. eigenvalues --   -1.13812  -1.13804  -1.13786  -1.13750  -1.13733
  Beta  occ. eigenvalues --   -1.13660  -1.13651  -1.13587  -1.13558  -1.13557
  Beta  occ. eigenvalues --   -1.13515  -1.13495  -1.13465  -1.13429  -1.13370
  Beta  occ. eigenvalues --   -1.13353  -1.13299  -1.13205  -1.13192  -1.13178
  Beta  occ. eigenvalues --   -0.16454  -0.14145  -0.11460
  Beta virt. eigenvalues --   -0.06974  -0.06402  -0.05043  -0.04655  -0.03227
  Beta virt. eigenvalues --   -0.02423  -0.02026  -0.01737  -0.01372  -0.00682
  Beta virt. eigenvalues --   -0.00571  -0.00075   0.00080   0.00398   0.00428

 Mulliken charges and spin densities:
               1          2
     1  Na  -0.208186   0.461859
     2  Na   0.197687  -0.022011
     3  Na  -0.207296  -0.034281
     4  Na   0.301601   0.146367
     5  Na  -0.713366   0.177241
     6  Na  -0.045408   0.139450
     7  Na   0.674967   0.131375
 Sum of Mulliken charges =  -0.00000   1.00000

 Dipole moment (field-independent basis, Debye):
    X=              0.2267    Y=             -0.2587    Z=             -0.0826  Tot=              0.3538
 Quadrupole moment (field-independent basis, Debye-Ang):
   XX=            -62.4687   YY=            -68.7988   ZZ=            -69.2430
   XY=              5.8469   XZ=             -4.5259   YZ=             -1.2567

 Normal termination of Gaussian 16 at Wed Nov 29 00:55:27 2023.
