 Gaussian 16, Revision B.01,
 Gaussian 16:  ES64L-G16RevB.01 20-Dec-2017

 -------------------------
 #P B3LYP/6-311+g(d) force
 -------------------------

 -----
 DPGEN
 -----
 Symbolic Z-matrix:
 Charge =  0 Multiplicity = 2

                         Standard orientation:
 ---------------------------------------------------------------------
 Center     Atomic      Atomic             Coordinates (Angstroms)
 Number     Number       Type             X           Y           Z
 ---------------------------------------------------------------------
      1         11           0       -0.364821   -0.402714    1.540603
      2         11           0       -3.947091   -1.346718    0.697085
      3         11           0        3.034901   -1.707857   -0.843660
      4         11           0        3.690403    0.630874    1.356454
      5         11           0       -2.690496    1.627645   -0.291230
      6         11           0       -0.392461   -0.912388   -1.630035
      7         11           0        0.669565    2.111157   -0.829217
 ---------------------------------------------------------------------

 SCF Done:  E(UB3LYP) =  -1136.11879140     A.U. after   28 cycles

 The electronic state is 2-A.
 Alpha  occ. eigenvalues --  -38.45876 -38.44446 -38.44388 -38.44330 -38.44167
 Alpha  occ. eigenvalues --  -38.43305 -38.42288  -2.21697  -2.20311  -2.20195
 Alpha  occ. eigenvalues --   -2.20140  -2.20084  -2.19101  -2.18165  -1.15443
 Alpha  occ. eigenvalues --   -1.15355  -1.15279  -1.14011  -1.13976  -1.13912
 Alpha  occ. eigenvalues --   -1.13887  -1.13862  -1.13851  -1.13796  -1.13792
 Alpha  occ. eigenvalues --   -1.13774  -1.13748  -1.13705  -1.13675  -1.12785
 Alpha  occ. eigenvalues --   -1.12769  -1.12734  -1.11847  -1.11840  -1.11787
 Alpha  occ. eigenvalues --   -0.18212  -0.14067  -0.11274  -0.10837
 Alpha virt. eigenvalues --   -0.07133  -0.05460  -0.04622  -0.03103  -0.02910
 Alpha virt. eigenvalues --   -0.02685  -0.02106  -0.01424  -0.00981  -0.00336
 Alpha virt. eigenvalues --   -0.00055   0.00224   0.00325   0.00386   0.00577

  Beta  occ. eigenvalues --  -38.45858 -38.44435 -38.44371 -38.44279 -38.44082
  Beta  occ. eigenvalues --  -38.43313 -38.42278  -2.21667  -2.20292  -2.20166
  Beta  occ. eigenvalues --   -2.20044  -2.19930  -2.19117  -2.18149  -1.15404
  Beta  occ. eigenvalues --   -1.15332  -1.15257  -1.13992  -1.13964  -1.13901
  Beta  occ. eigenvalues --   -1.13858  -1.13843  -1.13810  -1.13729  -1.13705
  Beta  occ. eigenvalues --   -1.13694  -1.13693  -1.13598  -1.13551  -1.12796
  Beta  occ. eigenvalues --   -1.12777  -1.12744  -1.11840  -1.11811  -1.11774
  Beta  occ. eigenvalues --   -0.17577  -0.13782  -0.10736
  Beta virt. eigenvalues --   -0.07413  -0.06966  -0.05083  -0.04210  -0.02810
  Beta virt. eigenvalues --   -0.02779  -0.01955  -0.01625  -0.01174  -0.00702
  Beta virt. eigenvalues --   -0.00281  -0.00003   0.00289   0.00422   0.00534

 Mulliken charges and spin densities:
               1          2
     1  Na  -0.768777   0.267249
     2  Na   0.394309  -0.087371
     3  Na  -0.068686  -0.083946
     4  Na   0.388897   0.343188
     5  Na   0.435373  -0.031024
     6  Na   0.008066   0.520813
     7  Na  -0.389181   0.071091
 Sum of Mulliken charges =  -0.00000   1.00000

 Dipole moment (field-independent basis, Debye):
    X=             -0.0052    Y=              0.3727    Z=             -0.1939  Tot=              0.4202
 Quadrupole moment (field-independent basis, Debye-Ang):
   XX=            -58.4837   YY=            -71.9103   ZZ=            -69.8991
   XY=             -1.9390   XZ=              1.6390   YZ=              3.2159

 Normal termination of Gaussian 16 at Fri Dec  8 07:20:43 2023.
