 Gaussian 16, Revision B.01,
 Gaussian 16:  ES64L-G16RevB.01 20-Dec-2017

 -------------------------
 #P B3LYP/6-311+g(d) force
 -------------------------

 -----
 DPGEN
 -----
 Symbolic Z-matrix:
 Charge =  0 Multiplicity = 2

                         Standard orientation:
 ---------------------------------------------------------------------
 Center     Atomic      Atomic             Coordinates (Angstroms)
 Number     Number       Type             X           Y           Z
 ---------------------------------------------------------------------
      1         11           0        1.731691    1.670506    0.089883
      2         11           0       -0.899038   -0.314777    1.787262
      3         11           0       -1.654843    0.562699   -1.507834
      4         11           0       -1.122864    3.761350    0.136420
      5         11           0        1.040454   -1.750545   -1.208434
      6         11           0        3.694413   -1.104465    0.358847
      7         11           0       -2.789813   -2.824769    0.343855
 ---------------------------------------------------------------------

 SCF Done:  E(UB3LYP) =  -1136.13019130     A.U. after   19 cycles

 The electronic state is 2-A.
 Alpha  occ. eigenvalues --  -38.44239 -38.44024 -38.43997 -38.43874 -38.43852
 Alpha  occ. eigenvalues --  -38.43679 -38.43654  -2.20007  -2.19839  -2.19802
 Alpha  occ. eigenvalues --   -2.19705  -2.19698  -2.19548  -2.19509  -1.13680
 Alpha  occ. eigenvalues --   -1.13677  -1.13637  -1.13525  -1.13495  -1.13479
 Alpha  occ. eigenvalues --   -1.13468  -1.13442  -1.13435  -1.13415  -1.13401
 Alpha  occ. eigenvalues --   -1.13391  -1.13370  -1.13350  -1.13269  -1.13245
 Alpha  occ. eigenvalues --   -1.13207  -1.13195  -1.13172  -1.13134  -1.13091
 Alpha  occ. eigenvalues --   -0.17771  -0.12965  -0.12518  -0.10314
 Alpha virt. eigenvalues --   -0.06215  -0.05347  -0.04979  -0.03089  -0.02768
 Alpha virt. eigenvalues --   -0.02276  -0.01917  -0.01780  -0.00638  -0.00496
 Alpha virt. eigenvalues --   -0.00002   0.00235   0.00641   0.00689   0.00739

  Beta  occ. eigenvalues --  -38.44234 -38.44027 -38.43937 -38.43874 -38.43839
  Beta  occ. eigenvalues --  -38.43638 -38.43594  -2.20000  -2.19810  -2.19728
  Beta  occ. eigenvalues --   -2.19706  -2.19677  -2.19475  -2.19401  -1.13678
  Beta  occ. eigenvalues --   -1.13655  -1.13632  -1.13485  -1.13464  -1.13449
  Beta  occ. eigenvalues --   -1.13443  -1.13419  -1.13408  -1.13392  -1.13370
  Beta  occ. eigenvalues --   -1.13356  -1.13350  -1.13343  -1.13260  -1.13190
  Beta  occ. eigenvalues --   -1.13145  -1.13128  -1.13090  -1.13080  -1.13018
  Beta  occ. eigenvalues --   -0.17092  -0.12811  -0.12326
  Beta virt. eigenvalues --   -0.06554  -0.06029  -0.05225  -0.04746  -0.02547
  Beta virt. eigenvalues --   -0.02308  -0.01847  -0.01754  -0.01371  -0.00610
  Beta virt. eigenvalues --   -0.00175   0.00116   0.00322   0.00727   0.00755

 Mulliken charges and spin densities:
               1          2
     1  Na  -0.409285   0.180542
     2  Na  -0.290131   0.546812
     3  Na  -0.007424   0.293925
     4  Na   0.322741  -0.012248
     5  Na  -0.093411   0.187981
     6  Na   0.407087  -0.077350
     7  Na   0.070422  -0.119662
 Sum of Mulliken charges =  -0.00000   1.00000

 Dipole moment (field-independent basis, Debye):
    X=             -0.1053    Y=             -0.1130    Z=              0.1269  Tot=              0.1999
 Quadrupole moment (field-independent basis, Debye-Ang):
   XX=            -58.6569   YY=            -57.5906   ZZ=            -75.4051
   XY=             -0.7679   XZ=              2.5146   YZ=              1.1303

 Normal termination of Gaussian 16 at Sun Dec  3 13:40:11 2023.
