 Gaussian 16, Revision B.01,
 Gaussian 16:  ES64L-G16RevB.01 20-Dec-2017

 -------------------------
 #P B3LYP/6-311+g(d) force
 -------------------------

 -----
 DPGEN
 -----
 Symbolic Z-matrix:
 Charge =  0 Multiplicity = 2

                         Standard orientation:
 ---------------------------------------------------------------------
 Center     Atomic      Atomic             Coordinates (Angstroms)
 Number     Number       Type             X           Y           Z
 ---------------------------------------------------------------------
      1         11           0        2.860271    0.638510   -0.253162
      2         11           0       -0.519613   -0.236012    1.911360
      3         11           0       -2.782319    1.350715   -0.248623
      4         11           0       -2.057716   -2.247009   -0.246270
      5         11           0        1.870563   -2.192602    0.387928
      6         11           0        0.177831   -0.275854   -1.803805
      7         11           0        0.450982    2.962252    0.252573
 ---------------------------------------------------------------------

 SCF Done:  E(UB3LYP) =  -1136.13759464     A.U. after   19 cycles

 The electronic state is 2-A.
 Alpha  occ. eigenvalues --  -38.44093 -38.43746 -38.43582 -38.43575 -38.43464
 Alpha  occ. eigenvalues --  -38.43409 -38.43330  -2.19910  -2.19595  -2.19482
 Alpha  occ. eigenvalues --   -2.19469  -2.19384  -2.19362  -2.19151  -1.13589
 Alpha  occ. eigenvalues --   -1.13577  -1.13541  -1.13282  -1.13278  -1.13274
 Alpha  occ. eigenvalues --   -1.13219  -1.13180  -1.13146  -1.13125  -1.13113
 Alpha  occ. eigenvalues --   -1.13048  -1.13042  -1.13021  -1.13010  -1.12998
 Alpha  occ. eigenvalues --   -1.12980  -1.12974  -1.12823  -1.12812  -1.12792
 Alpha  occ. eigenvalues --   -0.18753  -0.13173  -0.12412  -0.10859
 Alpha virt. eigenvalues --   -0.05587  -0.05165  -0.04664  -0.03359  -0.02918
 Alpha virt. eigenvalues --   -0.02590  -0.01382  -0.01148  -0.00308  -0.00239
 Alpha virt. eigenvalues --    0.00001   0.00380   0.00825   0.00860   0.00919

  Beta  occ. eigenvalues --  -38.44089 -38.43738 -38.43571 -38.43570 -38.43383
  Beta  occ. eigenvalues --  -38.43334 -38.43328  -2.19905  -2.19584  -2.19474
  Beta  occ. eigenvalues --   -2.19455  -2.19235  -2.19224  -2.19149  -1.13576
  Beta  occ. eigenvalues --   -1.13567  -1.13538  -1.13275  -1.13269  -1.13242
  Beta  occ. eigenvalues --   -1.13212  -1.13159  -1.13119  -1.13108  -1.13082
  Beta  occ. eigenvalues --   -1.13037  -1.12957  -1.12931  -1.12908  -1.12890
  Beta  occ. eigenvalues --   -1.12885  -1.12878  -1.12817  -1.12802  -1.12790
  Beta  occ. eigenvalues --   -0.18017  -0.12935  -0.12180
  Beta virt. eigenvalues --   -0.06947  -0.05588  -0.05100  -0.04604  -0.02563
  Beta virt. eigenvalues --   -0.02171  -0.01546  -0.01291  -0.01084  -0.00332
  Beta virt. eigenvalues --   -0.00286   0.00129   0.00408   0.00850   0.00901

 Mulliken charges and spin densities:
               1          2
     1  Na   0.136736   0.017438
     2  Na  -0.285494   0.697820
     3  Na  -0.004274  -0.071588
     4  Na   0.173888  -0.102173
     5  Na   0.223000  -0.030118
     6  Na  -0.153324   0.571463
     7  Na  -0.090533  -0.082841
 Sum of Mulliken charges =  -0.00000   1.00000

 Dipole moment (field-independent basis, Debye):
    X=             -0.3961    Y=             -0.1230    Z=             -0.0005  Tot=              0.4148
 Quadrupole moment (field-independent basis, Debye-Ang):
   XX=            -58.1248   YY=            -62.5700   ZZ=            -73.5505
   XY=             -0.0777   XZ=              1.3616   YZ=             -0.1863

 Normal termination of Gaussian 16 at Thu Dec  7 17:07:26 2023.
