 Gaussian 16, Revision B.01,
 Gaussian 16:  ES64L-G16RevB.01 20-Dec-2017

 -------------------------
 #P B3LYP/6-311+g(d) force
 -------------------------

 -----
 DPGEN
 -----
 Symbolic Z-matrix:
 Charge =  0 Multiplicity = 2

                         Standard orientation:
 ---------------------------------------------------------------------
 Center     Atomic      Atomic             Coordinates (Angstroms)
 Number     Number       Type             X           Y           Z
 ---------------------------------------------------------------------
      1         11           0        1.328748   -2.200181    0.737922
      2         11           0        4.987042   -2.115680   -0.581489
      3         11           0        2.956945    0.874250   -0.045928
      4         11           0        1.732427    3.867112    0.071081
      5         11           0       -0.686984    0.638036    0.121034
      6         11           0       -3.593858   -0.806072   -0.006294
      7         11           0       -6.724320   -0.257466   -0.296326
 ---------------------------------------------------------------------

 SCF Done:  E(UB3LYP) =  -1136.11863699     A.U. after   22 cycles

 The electronic state is 2-A.
 Alpha  occ. eigenvalues --  -38.45218 -38.44825 -38.44422 -38.44186 -38.43738
 Alpha  occ. eigenvalues --  -38.43721 -38.43528  -2.21000  -2.20629  -2.20189
 Alpha  occ. eigenvalues --   -2.20033  -2.19591  -2.19557  -2.19333  -1.14694
 Alpha  occ. eigenvalues --   -1.14684  -1.14590  -1.14268  -1.14263  -1.14261
 Alpha  occ. eigenvalues --   -1.13859  -1.13855  -1.13797  -1.13716  -1.13714
 Alpha  occ. eigenvalues --   -1.13646  -1.13296  -1.13292  -1.13245  -1.13225
 Alpha  occ. eigenvalues --   -1.13207  -1.13196  -1.12991  -1.12987  -1.12944
 Alpha  occ. eigenvalues --   -0.16624  -0.14000  -0.12150  -0.11597
 Alpha virt. eigenvalues --   -0.06542  -0.05093  -0.04391  -0.03851  -0.02856
 Alpha virt. eigenvalues --   -0.02390  -0.02279  -0.01497  -0.01340  -0.00884
 Alpha virt. eigenvalues --   -0.00638  -0.00152   0.00084   0.00337   0.00705

  Beta  occ. eigenvalues --  -38.45193 -38.44743 -38.44392 -38.44144 -38.43746
  Beta  occ. eigenvalues --  -38.43703 -38.43500  -2.20956  -2.20478  -2.20135
  Beta  occ. eigenvalues --   -2.19959  -2.19580  -2.19558  -2.19282  -1.14668
  Beta  occ. eigenvalues --   -1.14655  -1.14538  -1.14169  -1.14160  -1.14159
  Beta  occ. eigenvalues --   -1.13819  -1.13817  -1.13764  -1.13674  -1.13666
  Beta  occ. eigenvalues --   -1.13574  -1.13274  -1.13262  -1.13258  -1.13249
  Beta  occ. eigenvalues --   -1.13173  -1.13168  -1.12953  -1.12950  -1.12915
  Beta  occ. eigenvalues --   -0.16000  -0.13328  -0.11803
  Beta virt. eigenvalues --   -0.08305  -0.05972  -0.04875  -0.04070  -0.03671
  Beta virt. eigenvalues --   -0.02513  -0.02177  -0.01826  -0.01361  -0.01131
  Beta virt. eigenvalues --   -0.00511  -0.00386   0.00065   0.00213   0.00393

 Mulliken charges and spin densities:
               1          2
     1  Na  -0.079948  -0.015475
     2  Na   1.141969   0.141794
     3  Na  -0.956567   0.397966
     4  Na   0.476878   0.084836
     5  Na  -1.895524  -0.088667
     6  Na   0.052687   0.168336
     7  Na   1.260504   0.311210
 Sum of Mulliken charges =  -0.00000   1.00000

 Dipole moment (field-independent basis, Debye):
    X=              0.0257    Y=             -0.5181    Z=              0.0075  Tot=              0.5188
 Quadrupole moment (field-independent basis, Debye-Ang):
   XX=            -52.6096   YY=            -63.9581   ZZ=            -72.9036
   XY=             -4.3551   XZ=             -1.2515   YZ=             -0.6338

 Normal termination of Gaussian 16 at Wed Nov 29 04:03:12 2023.
