 Gaussian 16, Revision B.01,
 Gaussian 16:  ES64L-G16RevB.01 20-Dec-2017

 -------------------------
 #P B3LYP/6-311+g(d) force
 -------------------------

 -----
 DPGEN
 -----
 Symbolic Z-matrix:
 Charge =  0 Multiplicity = 2

                         Standard orientation:
 ---------------------------------------------------------------------
 Center     Atomic      Atomic             Coordinates (Angstroms)
 Number     Number       Type             X           Y           Z
 ---------------------------------------------------------------------
      1         11           0        2.381745    0.372544   -1.662551
      2         11           0        0.268962    2.951194   -0.466345
      3         11           0       -0.317110   -0.014572    1.456601
      4         11           0       -2.904117   -1.762526   -0.224228
      5         11           0        3.225814   -0.231945    1.437618
      6         11           0        0.559308   -2.724567   -0.657402
      7         11           0       -3.214603    1.409873    0.116306
 ---------------------------------------------------------------------

 SCF Done:  E(UB3LYP) =  -1136.12735995     A.U. after   20 cycles

 The electronic state is 2-A.
 Alpha  occ. eigenvalues --  -38.44535 -38.44433 -38.44088 -38.43921 -38.43895
 Alpha  occ. eigenvalues --  -38.43691 -38.43675  -2.20363  -2.20251  -2.19916
 Alpha  occ. eigenvalues --   -2.19789  -2.19768  -2.19491  -2.19465  -1.14031
 Alpha  occ. eigenvalues --   -1.14006  -1.13990  -1.13940  -1.13922  -1.13884
 Alpha  occ. eigenvalues --   -1.13588  -1.13579  -1.13553  -1.13486  -1.13444
 Alpha  occ. eigenvalues --   -1.13440  -1.13415  -1.13410  -1.13393  -1.13171
 Alpha  occ. eigenvalues --   -1.13161  -1.13141  -1.13136  -1.13108  -1.13088
 Alpha  occ. eigenvalues --   -0.17724  -0.13864  -0.12011  -0.10448
 Alpha virt. eigenvalues --   -0.06730  -0.05467  -0.04792  -0.03461  -0.02563
 Alpha virt. eigenvalues --   -0.02279  -0.02177  -0.01061  -0.00687  -0.00632
 Alpha virt. eigenvalues --   -0.00398   0.00283   0.00393   0.00698   0.00745

  Beta  occ. eigenvalues --  -38.44479 -38.44435 -38.44090 -38.43872 -38.43852
  Beta  occ. eigenvalues --  -38.43671 -38.43662  -2.20260  -2.20255  -2.19920
  Beta  occ. eigenvalues --   -2.19712  -2.19678  -2.19456  -2.19441  -1.13951
  Beta  occ. eigenvalues --   -1.13944  -1.13930  -1.13922  -1.13919  -1.13889
  Beta  occ. eigenvalues --   -1.13590  -1.13580  -1.13552  -1.13430  -1.13396
  Beta  occ. eigenvalues --   -1.13374  -1.13354  -1.13343  -1.13325  -1.13149
  Beta  occ. eigenvalues --   -1.13126  -1.13122  -1.13111  -1.13087  -1.13069
  Beta  occ. eigenvalues --   -0.17205  -0.13606  -0.11780
  Beta virt. eigenvalues --   -0.06751  -0.06586  -0.05313  -0.04375  -0.03168
  Beta virt. eigenvalues --   -0.02101  -0.02049  -0.01294  -0.01010  -0.00625
  Beta virt. eigenvalues --   -0.00553  -0.00045   0.00364   0.00540   0.00761

 Mulliken charges and spin densities:
               1          2
     1  Na   0.178065   0.459620
     2  Na  -0.668489   0.008609
     3  Na   0.686570   0.410266
     4  Na  -0.136711  -0.033207
     5  Na   0.179119   0.131469
     6  Na  -0.553729   0.083824
     7  Na   0.315175  -0.060582
 Sum of Mulliken charges =  -0.00000   1.00000

 Dipole moment (field-independent basis, Debye):
    X=             -0.4300    Y=              0.0069    Z=             -0.1073  Tot=              0.4432
 Quadrupole moment (field-independent basis, Debye-Ang):
   XX=            -51.9830   YY=            -68.6817   ZZ=            -74.5099
   XY=             -1.1870   XZ=              1.3765   YZ=              0.4558

 Normal termination of Gaussian 16 at Tue Nov 28 23:08:04 2023.
