 Gaussian 16, Revision B.01,
 Gaussian 16:  ES64L-G16RevB.01 20-Dec-2017

 -------------------------
 #P B3LYP/6-311+g(d) force
 -------------------------

 -----
 DPGEN
 -----
 Symbolic Z-matrix:
 Charge =  0 Multiplicity = 2

                         Standard orientation:
 ---------------------------------------------------------------------
 Center     Atomic      Atomic             Coordinates (Angstroms)
 Number     Number       Type             X           Y           Z
 ---------------------------------------------------------------------
      1         11           0       -2.188693   -1.360509   -0.212723
      2         11           0       -5.114961    0.174992    0.090033
      3         11           0        0.833170   -0.869887    1.916300
      4         11           0        4.277089   -0.426938    0.154269
      5         11           0        2.088253    2.102149    0.050836
      6         11           0       -1.566651    1.407240   -0.300694
      7         11           0        1.671792   -1.027046   -1.698021
 ---------------------------------------------------------------------

 SCF Done:  E(UB3LYP) =  -1136.10729661     A.U. after   33 cycles

 The electronic state is 2-A.
 Alpha  occ. eigenvalues --  -38.46031 -38.44505 -38.44404 -38.44078 -38.43596
 Alpha  occ. eigenvalues --  -38.43414 -38.42665  -2.21866  -2.20393  -2.20215
 Alpha  occ. eigenvalues --   -2.19953  -2.19524  -2.19275  -2.18470  -1.15566
 Alpha  occ. eigenvalues --   -1.15524  -1.15455  -1.14185  -1.14076  -1.13950
 Alpha  occ. eigenvalues --   -1.13894  -1.13884  -1.13837  -1.13644  -1.13603
 Alpha  occ. eigenvalues --   -1.13551  -1.13257  -1.13203  -1.13056  -1.12944
 Alpha  occ. eigenvalues --   -1.12933  -1.12906  -1.12147  -1.12135  -1.12096
 Alpha  occ. eigenvalues --   -0.18191  -0.14322  -0.11490  -0.10264
 Alpha virt. eigenvalues --   -0.07936  -0.04918  -0.04453  -0.03394  -0.03172
 Alpha virt. eigenvalues --   -0.02253  -0.02156  -0.01536  -0.01391  -0.00647
 Alpha virt. eigenvalues --   -0.00167   0.00078   0.00186   0.00576   0.00729

  Beta  occ. eigenvalues --  -38.45993 -38.44468 -38.44401 -38.44007 -38.43583
  Beta  occ. eigenvalues --  -38.43398 -38.42660  -2.21799  -2.20328  -2.20212
  Beta  occ. eigenvalues --   -2.19823  -2.19499  -2.19247  -2.18461  -1.15500
  Beta  occ. eigenvalues --   -1.15482  -1.15404  -1.14133  -1.14036  -1.13889
  Beta  occ. eigenvalues --   -1.13888  -1.13867  -1.13837  -1.13557  -1.13520
  Beta  occ. eigenvalues --   -1.13439  -1.13239  -1.13186  -1.13035  -1.12922
  Beta  occ. eigenvalues --   -1.12910  -1.12886  -1.12138  -1.12129  -1.12092
  Beta  occ. eigenvalues --   -0.17480  -0.14147  -0.10121
  Beta virt. eigenvalues --   -0.07740  -0.07442  -0.04405  -0.04333  -0.03276
  Beta virt. eigenvalues --   -0.02742  -0.01724  -0.01580  -0.01235  -0.01093
  Beta virt. eigenvalues --   -0.00580  -0.00092   0.00228   0.00245   0.00665

 Mulliken charges and spin densities:
               1          2
     1  Na   0.066067   0.083869
     2  Na   0.643959   0.020590
     3  Na  -0.221436   0.125521
     4  Na   0.584742   0.111267
     5  Na  -0.274557   0.158076
     6  Na  -0.639427   0.192177
     7  Na  -0.159348   0.308500
 Sum of Mulliken charges =  -0.00000   1.00000

 Dipole moment (field-independent basis, Debye):
    X=              1.2136    Y=             -0.7421    Z=              0.2496  Tot=              1.4443
 Quadrupole moment (field-independent basis, Debye-Ang):
   XX=            -78.6676   YY=            -71.0922   ZZ=            -61.0678
   XY=             -1.7188   XZ=              2.7270   YZ=              1.8248

 Normal termination of Gaussian 16 at Tue Dec  5 12:08:52 2023.
