 Gaussian 16, Revision B.01,
 Gaussian 16:  ES64L-G16RevB.01 20-Dec-2017

 -------------------------
 #P B3LYP/6-311+g(d) force
 -------------------------

 -----
 DPGEN
 -----
 Symbolic Z-matrix:
 Charge =  0 Multiplicity = 2

                         Standard orientation:
 ---------------------------------------------------------------------
 Center     Atomic      Atomic             Coordinates (Angstroms)
 Number     Number       Type             X           Y           Z
 ---------------------------------------------------------------------
      1         11           0        2.694954    1.223692   -0.195317
      2         11           0       -0.339916    2.981040   -0.360987
      3         11           0       -3.067107   -1.044670   -0.425503
      4         11           0        5.350916   -0.902450   -0.375284
      5         11           0       -6.461479   -0.601902   -0.235087
      6         11           0       -0.376182    0.352720    1.519691
      7         11           0        2.198813   -2.008429    0.072487
 ---------------------------------------------------------------------

 SCF Done:  E(UB3LYP) =  -1136.11939421     A.U. after   21 cycles

 The electronic state is 2-A.
 Alpha  occ. eigenvalues --  -38.44670 -38.44444 -38.44301 -38.44179 -38.44105
 Alpha  occ. eigenvalues --  -38.43764 -38.43609  -2.20517  -2.20262  -2.20181
 Alpha  occ. eigenvalues --   -2.20044  -2.19935  -2.19531  -2.19375  -1.14217
 Alpha  occ. eigenvalues --   -1.14190  -1.14120  -1.13933  -1.13920  -1.13887
 Alpha  occ. eigenvalues --   -1.13886  -1.13882  -1.13755  -1.13733  -1.13703
 Alpha  occ. eigenvalues --   -1.13691  -1.13590  -1.13571  -1.13542  -1.13188
 Alpha  occ. eigenvalues --   -1.13187  -1.13162  -1.13067  -1.13057  -1.12994
 Alpha  occ. eigenvalues --   -0.17264  -0.13761  -0.12127  -0.10831
 Alpha virt. eigenvalues --   -0.06334  -0.05576  -0.05216  -0.03292  -0.02834
 Alpha virt. eigenvalues --   -0.02384  -0.02133  -0.01477  -0.01080  -0.00942
 Alpha virt. eigenvalues --   -0.00385  -0.00040   0.00058   0.00350   0.00552

  Beta  occ. eigenvalues --  -38.44626 -38.44429 -38.44275 -38.44149 -38.44071
  Beta  occ. eigenvalues --  -38.43725 -38.43619  -2.20436  -2.20233  -2.20137
  Beta  occ. eigenvalues --   -2.19990  -2.19871  -2.19457  -2.19398  -1.14166
  Beta  occ. eigenvalues --   -1.14136  -1.14045  -1.13905  -1.13899  -1.13867
  Beta  occ. eigenvalues --   -1.13858  -1.13836  -1.13721  -1.13698  -1.13665
  Beta  occ. eigenvalues --   -1.13638  -1.13546  -1.13520  -1.13502  -1.13137
  Beta  occ. eigenvalues --   -1.13137  -1.13118  -1.13083  -1.13076  -1.12983
  Beta  occ. eigenvalues --   -0.16640  -0.13625  -0.11625
  Beta virt. eigenvalues --   -0.07432  -0.05999  -0.05163  -0.04856  -0.03042
  Beta virt. eigenvalues --   -0.02539  -0.02230  -0.01752  -0.01309  -0.00846
  Beta virt. eigenvalues --   -0.00520  -0.00134   0.00088   0.00241   0.00440

 Mulliken charges and spin densities:
               1          2
     1  Na  -0.815722   0.245860
     2  Na   0.335111   0.053825
     3  Na  -0.463823  -0.107247
     4  Na   0.942596   0.159763
     5  Na   0.428749   0.226405
     6  Na  -0.153935   0.398973
     7  Na  -0.272976   0.022420
 Sum of Mulliken charges =  -0.00000   1.00000

 Dipole moment (field-independent basis, Debye):
    X=              2.1787    Y=              0.2774    Z=              0.0402  Tot=              2.1966
 Quadrupole moment (field-independent basis, Debye-Ang):
   XX=            -58.6230   YY=            -68.6426   ZZ=            -70.3110
   XY=             -8.1533   XZ=             -1.4427   YZ=              0.0823

 Normal termination of Gaussian 16 at Tue Nov 28 18:49:46 2023.
