 Gaussian 16, Revision B.01,
 Gaussian 16:  ES64L-G16RevB.01 20-Dec-2017

 -------------------------
 #P B3LYP/6-311+g(d) force
 -------------------------

 -----
 DPGEN
 -----
 Symbolic Z-matrix:
 Charge =  0 Multiplicity = 2

                         Standard orientation:
 ---------------------------------------------------------------------
 Center     Atomic      Atomic             Coordinates (Angstroms)
 Number     Number       Type             X           Y           Z
 ---------------------------------------------------------------------
      1         11           0       -0.206537   -2.662313    0.201182
      2         11           0       -3.287611   -0.677984    0.043561
      3         11           0        1.949864    2.295164    0.154096
      4         11           0       -0.000331   -0.277244   -1.649618
      5         11           0        2.917181   -1.116273   -0.427828
      6         11           0        0.292514    0.032056    2.005938
      7         11           0       -1.665080    2.406593   -0.327332
 ---------------------------------------------------------------------

 SCF Done:  E(UB3LYP) =  -1136.13730642     A.U. after   20 cycles

 The electronic state is 2-A.
 Alpha  occ. eigenvalues --  -38.44237 -38.43979 -38.43535 -38.43465 -38.43438
 Alpha  occ. eigenvalues --  -38.43310 -38.43154  -2.20033  -2.19832  -2.19451
 Alpha  occ. eigenvalues --   -2.19302  -2.19296  -2.19278  -2.19067  -1.13707
 Alpha  occ. eigenvalues --   -1.13689  -1.13679  -1.13524  -1.13482  -1.13467
 Alpha  occ. eigenvalues --   -1.13133  -1.13101  -1.13065  -1.13047  -1.13006
 Alpha  occ. eigenvalues --   -1.12963  -1.12950  -1.12947  -1.12932  -1.12924
 Alpha  occ. eigenvalues --   -1.12900  -1.12899  -1.12739  -1.12726  -1.12658
 Alpha  occ. eigenvalues --   -0.18738  -0.13022  -0.12412  -0.10814
 Alpha virt. eigenvalues --   -0.05782  -0.05162  -0.04462  -0.03133  -0.02927
 Alpha virt. eigenvalues --   -0.02556  -0.01725  -0.01068  -0.00302  -0.00243
 Alpha virt. eigenvalues --   -0.00011   0.00336   0.00783   0.00891   0.00892

  Beta  occ. eigenvalues --  -38.44239 -38.43966 -38.43459 -38.43440 -38.43433
  Beta  occ. eigenvalues --  -38.43246 -38.43143  -2.20038  -2.19812  -2.19289
  Beta  occ. eigenvalues --   -2.19276  -2.19273  -2.19186  -2.19051  -1.13704
  Beta  occ. eigenvalues --   -1.13689  -1.13681  -1.13500  -1.13459  -1.13452
  Beta  occ. eigenvalues --   -1.13029  -1.13001  -1.12983  -1.12968  -1.12953
  Beta  occ. eigenvalues --   -1.12941  -1.12931  -1.12923  -1.12904  -1.12898
  Beta  occ. eigenvalues --   -1.12863  -1.12816  -1.12718  -1.12678  -1.12648
  Beta  occ. eigenvalues --   -0.18006  -0.12793  -0.12152
  Beta virt. eigenvalues --   -0.06883  -0.05734  -0.05153  -0.04426  -0.02407
  Beta virt. eigenvalues --   -0.02119  -0.01649  -0.01483  -0.01004  -0.00331
  Beta virt. eigenvalues --   -0.00276   0.00119   0.00365   0.00845   0.00882

 Mulliken charges and spin densities:
               1          2
     1  Na   0.278749  -0.022018
     2  Na  -0.016395  -0.082750
     3  Na   0.055715  -0.057079
     4  Na  -0.279807   0.529433
     5  Na   0.307501   0.001240
     6  Na  -0.361804   0.711470
     7  Na   0.016041  -0.080295
 Sum of Mulliken charges =  -0.00000   1.00000

 Dipole moment (field-independent basis, Debye):
    X=             -0.0669    Y=             -0.0451    Z=              0.0970  Tot=              0.1261
 Quadrupole moment (field-independent basis, Debye-Ang):
   XX=            -54.2247   YY=            -64.7169   ZZ=            -74.1160
   XY=              0.3131   XZ=             -0.9401   YZ=             -0.5924

 Normal termination of Gaussian 16 at Thu Dec  7 07:44:54 2023.
