 Gaussian 16, Revision B.01,
 Gaussian 16:  ES64L-G16RevB.01 20-Dec-2017

 -------------------------
 #P B3LYP/6-311+g(d) force
 -------------------------

 -----
 DPGEN
 -----
 Symbolic Z-matrix:
 Charge =  0 Multiplicity = 2

                         Standard orientation:
 ---------------------------------------------------------------------
 Center     Atomic      Atomic             Coordinates (Angstroms)
 Number     Number       Type             X           Y           Z
 ---------------------------------------------------------------------
      1         11           0       -1.848496    3.143253   -0.589444
      2         11           0        4.503857    1.099308   -0.108078
      3         11           0        2.054548   -1.942812   -0.272637
      4         11           0        1.305613    1.207842    0.363203
      5         11           0       -1.671665   -2.384118   -1.667989
      6         11           0       -0.938899   -1.839792    1.800806
      7         11           0       -3.404957    0.716319    0.474138
 ---------------------------------------------------------------------

 SCF Done:  E(UB3LYP) =  -1136.11723863     A.U. after   24 cycles

 The electronic state is 2-A.
 Alpha  occ. eigenvalues --  -38.45129 -38.44869 -38.44833 -38.44259 -38.44068
 Alpha  occ. eigenvalues --  -38.43414 -38.43321  -2.20922  -2.20670  -2.20624
 Alpha  occ. eigenvalues --   -2.20102  -2.19871  -2.19218  -2.19154  -1.14641
 Alpha  occ. eigenvalues --   -1.14607  -1.14512  -1.14365  -1.14330  -1.14309
 Alpha  occ. eigenvalues --   -1.14299  -1.14282  -1.14250  -1.13807  -1.13770
 Alpha  occ. eigenvalues --   -1.13712  -1.13538  -1.13525  -1.13515  -1.12880
 Alpha  occ. eigenvalues --   -1.12860  -1.12841  -1.12814  -1.12808  -1.12775
 Alpha  occ. eigenvalues --   -0.17057  -0.13762  -0.12460  -0.09758
 Alpha virt. eigenvalues --   -0.07126  -0.05999  -0.04625  -0.03240  -0.02869
 Alpha virt. eigenvalues --   -0.02600  -0.02018  -0.01646  -0.01145  -0.00627
 Alpha virt. eigenvalues --   -0.00389   0.00062   0.00179   0.00511   0.00628

  Beta  occ. eigenvalues --  -38.45128 -38.44864 -38.44819 -38.44249 -38.44069
  Beta  occ. eigenvalues --  -38.43333 -38.43268  -2.20923  -2.20663  -2.20597
  Beta  occ. eigenvalues --   -2.20084  -2.19874  -2.19066  -2.19057  -1.14644
  Beta  occ. eigenvalues --   -1.14582  -1.14517  -1.14361  -1.14309  -1.14306
  Beta  occ. eigenvalues --   -1.14282  -1.14263  -1.14233  -1.13800  -1.13746
  Beta  occ. eigenvalues --   -1.13693  -1.13539  -1.13527  -1.13513  -1.12775
  Beta  occ. eigenvalues --   -1.12761  -1.12746  -1.12742  -1.12732  -1.12695
  Beta  occ. eigenvalues --   -0.16573  -0.13569  -0.12203
  Beta virt. eigenvalues --   -0.06985  -0.06184  -0.05729  -0.04439  -0.02832
  Beta virt. eigenvalues --   -0.02570  -0.02367  -0.01731  -0.01107  -0.00981
  Beta virt. eigenvalues --   -0.00558  -0.00031   0.00132   0.00425   0.00578

 Mulliken charges and spin densities:
               1          2
     1  Na   0.599771  -0.091004
     2  Na   0.667964   0.059002
     3  Na   0.050435  -0.011011
     4  Na  -1.308088   0.012985
     5  Na  -0.092380   0.494839
     6  Na   0.284697   0.317565
     7  Na  -0.202399   0.217624
 Sum of Mulliken charges =  -0.00000   1.00000

 Dipole moment (field-independent basis, Debye):
    X=              1.3961    Y=              0.5885    Z=              0.3963  Tot=              1.5660
 Quadrupole moment (field-independent basis, Debye-Ang):
   XX=            -52.6767   YY=            -68.1401   ZZ=            -75.9464
   XY=             -1.0885   XZ=             -4.3525   YZ=             -3.0456

 Normal termination of Gaussian 16 at Mon Dec  4 04:50:44 2023.
