 Gaussian 16, Revision B.01,
 Gaussian 16:  ES64L-G16RevB.01 20-Dec-2017

 -------------------------
 #P B3LYP/6-311+g(d) force
 -------------------------

 -----
 DPGEN
 -----
 Symbolic Z-matrix:
 Charge =  0 Multiplicity = 2

                         Standard orientation:
 ---------------------------------------------------------------------
 Center     Atomic      Atomic             Coordinates (Angstroms)
 Number     Number       Type             X           Y           Z
 ---------------------------------------------------------------------
      1         11           0       -3.174096   -1.508341   -0.545798
      2         11           0       -0.025829   -1.429901   -1.298205
      3         11           0        0.905344    2.107387    0.106750
      4         11           0       -1.029172    0.167854    2.168607
      5         11           0        3.465989   -0.029731   -1.365198
      6         11           0       -2.205919    1.847068   -0.743368
      7         11           0        2.063681   -1.154335    1.677211
 ---------------------------------------------------------------------

 SCF Done:  E(UB3LYP) =  -1136.13074535     A.U. after   23 cycles

 The electronic state is 2-A.
 Alpha  occ. eigenvalues --  -38.44572 -38.44517 -38.44033 -38.43918 -38.43447
 Alpha  occ. eigenvalues --  -38.43265 -38.42762  -2.20425  -2.20325  -2.19913
 Alpha  occ. eigenvalues --   -2.19782  -2.19289  -2.19100  -2.18648  -1.14112
 Alpha  occ. eigenvalues --   -1.14067  -1.14047  -1.13989  -1.13976  -1.13940
 Alpha  occ. eigenvalues --   -1.13603  -1.13548  -1.13535  -1.13476  -1.13423
 Alpha  occ. eigenvalues --   -1.13397  -1.12993  -1.12978  -1.12922  -1.12763
 Alpha  occ. eigenvalues --   -1.12748  -1.12737  -1.12348  -1.12314  -1.12260
 Alpha  occ. eigenvalues --   -0.18345  -0.13682  -0.11861  -0.11168
 Alpha virt. eigenvalues --   -0.06066  -0.05278  -0.04644  -0.03368  -0.02860
 Alpha virt. eigenvalues --   -0.02621  -0.01984  -0.00977  -0.00735  -0.00090
 Alpha virt. eigenvalues --    0.00222   0.00339   0.00382   0.00618   0.00706

  Beta  occ. eigenvalues --  -38.44515 -38.44486 -38.43974 -38.43890 -38.43440
  Beta  occ. eigenvalues --  -38.43267 -38.42742  -2.20323  -2.20267  -2.19808
  Beta  occ. eigenvalues --   -2.19730  -2.19278  -2.19105  -2.18614  -1.14034
  Beta  occ. eigenvalues --   -1.14003  -1.13968  -1.13939  -1.13934  -1.13900
  Beta  occ. eigenvalues --   -1.13530  -1.13470  -1.13456  -1.13432  -1.13387
  Beta  occ. eigenvalues --   -1.13360  -1.12978  -1.12959  -1.12920  -1.12759
  Beta  occ. eigenvalues --   -1.12753  -1.12740  -1.12326  -1.12271  -1.12237
  Beta  occ. eigenvalues --   -0.17623  -0.13467  -0.11009
  Beta virt. eigenvalues --   -0.07851  -0.05879  -0.04739  -0.04458  -0.03023
  Beta virt. eigenvalues --   -0.02241  -0.02016  -0.01858  -0.00653  -0.00501
  Beta virt. eigenvalues --    0.00066   0.00271   0.00410   0.00502   0.00721

 Mulliken charges and spin densities:
               1          2
     1  Na   0.438302  -0.109678
     2  Na  -0.969099   0.344576
     3  Na  -0.518196   0.410426
     4  Na  -0.034389   0.386239
     5  Na   0.667803   0.018097
     6  Na   0.226922  -0.060658
     7  Na   0.188656   0.010998
 Sum of Mulliken charges =  -0.00000   1.00000

 Dipole moment (field-independent basis, Debye):
    X=              0.5313    Y=              0.0781    Z=              0.1874  Tot=              0.5688
 Quadrupole moment (field-independent basis, Debye-Ang):
   XX=            -52.4353   YY=            -75.6952   ZZ=            -67.2443
   XY=             -1.3577   XZ=             -1.9379   YZ=             -6.1672

 Normal termination of Gaussian 16 at Tue Dec  5 22:06:45 2023.
