 Gaussian 16, Revision B.01,
 Gaussian 16:  ES64L-G16RevB.01 20-Dec-2017

 -------------------------
 #P B3LYP/6-311+g(d) force
 -------------------------

 -----
 DPGEN
 -----
 Symbolic Z-matrix:
 Charge =  0 Multiplicity = 2

                         Standard orientation:
 ---------------------------------------------------------------------
 Center     Atomic      Atomic             Coordinates (Angstroms)
 Number     Number       Type             X           Y           Z
 ---------------------------------------------------------------------
      1         11           0       -2.512837    1.901498   -0.563233
      2         11           0       -3.233900   -1.394768    0.104102
      3         11           0       -0.652173   -0.500589    1.902530
      4         11           0        2.593175    1.695111    1.024510
      5         11           0        0.388489    2.585947   -1.060871
      6         11           0        0.335477   -2.823067   -0.820629
      7         11           0        3.081768   -1.464132   -0.586408
 ---------------------------------------------------------------------

 SCF Done:  E(UB3LYP) =  -1136.12227408     A.U. after   19 cycles

 The electronic state is 2-A.
 Alpha  occ. eigenvalues --  -38.44652 -38.44543 -38.44145 -38.44016 -38.43871
 Alpha  occ. eigenvalues --  -38.43802 -38.43746  -2.20470  -2.20376  -2.19969
 Alpha  occ. eigenvalues --   -2.19849  -2.19730  -2.19631  -2.19606  -1.14162
 Alpha  occ. eigenvalues --   -1.14131  -1.14114  -1.14035  -1.14022  -1.13980
 Alpha  occ. eigenvalues --   -1.13688  -1.13624  -1.13602  -1.13552  -1.13497
 Alpha  occ. eigenvalues --   -1.13491  -1.13479  -1.13380  -1.13350  -1.13294
 Alpha  occ. eigenvalues --   -1.13289  -1.13250  -1.13249  -1.13239  -1.13215
 Alpha  occ. eigenvalues --   -0.17454  -0.13565  -0.12985  -0.10509
 Alpha virt. eigenvalues --   -0.06366  -0.05943  -0.04051  -0.03949  -0.03251
 Alpha virt. eigenvalues --   -0.01958  -0.01862  -0.01417  -0.00844  -0.00454
 Alpha virt. eigenvalues --   -0.00164   0.00285   0.00434   0.00523   0.00736

  Beta  occ. eigenvalues --  -38.44649 -38.44479 -38.44122 -38.43985 -38.43834
  Beta  occ. eigenvalues --  -38.43773 -38.43726  -2.20466  -2.20257  -2.19930
  Beta  occ. eigenvalues --   -2.19790  -2.19665  -2.19581  -2.19574  -1.14143
  Beta  occ. eigenvalues --   -1.14123  -1.14116  -1.13955  -1.13949  -1.13895
  Beta  occ. eigenvalues --   -1.13651  -1.13600  -1.13565  -1.13515  -1.13452
  Beta  occ. eigenvalues --   -1.13446  -1.13438  -1.13335  -1.13299  -1.13263
  Beta  occ. eigenvalues --   -1.13257  -1.13228  -1.13216  -1.13197  -1.13168
  Beta  occ. eigenvalues --   -0.16952  -0.13308  -0.12374
  Beta virt. eigenvalues --   -0.07071  -0.06225  -0.05855  -0.03773  -0.03329
  Beta virt. eigenvalues --   -0.02632  -0.01805  -0.01334  -0.01293  -0.00763
  Beta virt. eigenvalues --   -0.00376   0.00112   0.00390   0.00568   0.00658

 Mulliken charges and spin densities:
               1          2
     1  Na  -0.187102   0.043014
     2  Na   0.712558   0.083672
     3  Na  -0.345159   0.304408
     4  Na   0.229532   0.262323
     5  Na  -0.154394   0.135471
     6  Na  -0.186667   0.138967
     7  Na  -0.068767   0.032145
 Sum of Mulliken charges =  -0.00000   1.00000

 Dipole moment (field-independent basis, Debye):
    X=             -0.4961    Y=             -0.3970    Z=              0.2014  Tot=              0.6666
 Quadrupole moment (field-independent basis, Debye-Ang):
   XX=            -55.4009   YY=            -71.7803   ZZ=            -72.2363
   XY=              5.8997   XZ=              1.3242   YZ=              1.2302

 Normal termination of Gaussian 16 at Mon Dec  4 01:46:29 2023.
