 Gaussian 16, Revision B.01,
 Gaussian 16:  ES64L-G16RevB.01 20-Dec-2017

 -------------------------
 #P B3LYP/6-311+g(d) force
 -------------------------

 -----
 DPGEN
 -----
 Symbolic Z-matrix:
 Charge =  0 Multiplicity = 2

                         Standard orientation:
 ---------------------------------------------------------------------
 Center     Atomic      Atomic             Coordinates (Angstroms)
 Number     Number       Type             X           Y           Z
 ---------------------------------------------------------------------
      1         11           0       -0.027838   -0.086226   -1.475861
      2         11           0       -2.633560    1.707902   -0.025296
      3         11           0       -2.765669   -1.429293   -0.038562
      4         11           0        0.596105   -2.737809   -0.077581
      5         11           0        0.405647    0.421827    2.258125
      6         11           0        1.363339    2.648589   -0.516936
      7         11           0        3.061976   -0.524989   -0.123889
 ---------------------------------------------------------------------

 SCF Done:  E(UB3LYP) =  -1136.13464312     A.U. after   19 cycles

 The electronic state is 2-A.
 Alpha  occ. eigenvalues --  -38.44231 -38.44036 -38.43862 -38.43813 -38.43427
 Alpha  occ. eigenvalues --  -38.43057 -38.43037  -2.20086  -2.19867  -2.19707
 Alpha  occ. eigenvalues --   -2.19670  -2.19267  -2.19090  -2.18923  -1.13765
 Alpha  occ. eigenvalues --   -1.13751  -1.13721  -1.13580  -1.13532  -1.13504
 Alpha  occ. eigenvalues --   -1.13360  -1.13341  -1.13331  -1.13327  -1.13322
 Alpha  occ. eigenvalues --   -1.13300  -1.12985  -1.12917  -1.12894  -1.12831
 Alpha  occ. eigenvalues --   -1.12745  -1.12707  -1.12577  -1.12569  -1.12546
 Alpha  occ. eigenvalues --   -0.18625  -0.13304  -0.12238  -0.10813
 Alpha virt. eigenvalues --   -0.05835  -0.05230  -0.04443  -0.03268  -0.02901
 Alpha virt. eigenvalues --   -0.02589  -0.01628  -0.01076  -0.00441  -0.00266
 Alpha virt. eigenvalues --   -0.00034   0.00350   0.00773   0.00859   0.00902

  Beta  occ. eigenvalues --  -38.44226 -38.44035 -38.43813 -38.43756 -38.43415
  Beta  occ. eigenvalues --  -38.43032 -38.43004  -2.20080  -2.19868  -2.19671
  Beta  occ. eigenvalues --   -2.19511  -2.19247  -2.18995  -2.18918  -1.13761
  Beta  occ. eigenvalues --   -1.13722  -1.13720  -1.13583  -1.13517  -1.13505
  Beta  occ. eigenvalues --   -1.13337  -1.13312  -1.13304  -1.13228  -1.13196
  Beta  occ. eigenvalues --   -1.13188  -1.12960  -1.12889  -1.12882  -1.12777
  Beta  occ. eigenvalues --   -1.12681  -1.12637  -1.12558  -1.12548  -1.12536
  Beta  occ. eigenvalues --   -0.17923  -0.13109  -0.12005
  Beta virt. eigenvalues --   -0.06826  -0.05782  -0.05221  -0.04406  -0.02517
  Beta virt. eigenvalues --   -0.02071  -0.01571  -0.01512  -0.01010  -0.00494
  Beta virt. eigenvalues --   -0.00303   0.00147   0.00388   0.00841   0.00859

 Mulliken charges and spin densities:
               1          2
     1  Na  -0.352944   0.117405
     2  Na   0.181551  -0.012208
     3  Na   0.121544   0.026385
     4  Na   0.217999   0.053784
     5  Na  -0.722996   0.738600
     6  Na   0.171851   0.003322
     7  Na   0.382996   0.072711
 Sum of Mulliken charges =  -0.00000   1.00000

 Dipole moment (field-independent basis, Debye):
    X=              0.0254    Y=              0.1755    Z=              0.2401  Tot=              0.2985
 Quadrupole moment (field-independent basis, Debye-Ang):
   XX=            -55.3394   YY=            -64.1163   ZZ=            -74.4127
   XY=             -0.2477   XZ=             -0.8298   YZ=             -0.9990

 Normal termination of Gaussian 16 at Fri Dec  8 03:34:14 2023.
