 Gaussian 16, Revision B.01,
 Gaussian 16:  ES64L-G16RevB.01 20-Dec-2017

 -------------------------
 #P B3LYP/6-311+g(d) force
 -------------------------

 -----
 DPGEN
 -----
 Symbolic Z-matrix:
 Charge =  0 Multiplicity = 2

                         Standard orientation:
 ---------------------------------------------------------------------
 Center     Atomic      Atomic             Coordinates (Angstroms)
 Number     Number       Type             X           Y           Z
 ---------------------------------------------------------------------
      1         11           0        0.202483   -1.263837    1.798833
      2         11           0       -1.553471    1.548082   -1.446604
      3         11           0       -3.152291   -1.294213   -0.570058
      4         11           0        1.703798    1.883643    0.222223
      5         11           0       -1.752409    1.038898    1.503481
      6         11           0        0.601589   -1.417722   -1.136010
      7         11           0        3.950299   -0.494853   -0.371865
 ---------------------------------------------------------------------

 SCF Done:  E(UB3LYP) =  -1136.12078825     A.U. after   24 cycles

 The electronic state is 2-A.
 Alpha  occ. eigenvalues --  -38.45188 -38.44485 -38.43886 -38.43783 -38.43747
 Alpha  occ. eigenvalues --  -38.43280 -38.42996  -2.20979  -2.20315  -2.19821
 Alpha  occ. eigenvalues --   -2.19719  -2.19678  -2.19196  -2.18842  -1.14650
 Alpha  occ. eigenvalues --   -1.14639  -1.14603  -1.13991  -1.13983  -1.13932
 Alpha  occ. eigenvalues --   -1.13623  -1.13586  -1.13421  -1.13397  -1.13350
 Alpha  occ. eigenvalues --   -1.13343  -1.13317  -1.13299  -1.13249  -1.12863
 Alpha  occ. eigenvalues --   -1.12860  -1.12792  -1.12531  -1.12524  -1.12462
 Alpha  occ. eigenvalues --   -0.18827  -0.13906  -0.11663  -0.10972
 Alpha virt. eigenvalues --   -0.06914  -0.04924  -0.04023  -0.03163  -0.02902
 Alpha virt. eigenvalues --   -0.02578  -0.02385  -0.01164  -0.00416  -0.00048
 Alpha virt. eigenvalues --    0.00144   0.00272   0.00367   0.00808   0.00900

  Beta  occ. eigenvalues --  -38.45181 -38.44463 -38.43810 -38.43767 -38.43697
  Beta  occ. eigenvalues --  -38.43245 -38.42992  -2.20966  -2.20276  -2.19688
  Beta  occ. eigenvalues --   -2.19649  -2.19631  -2.19132  -2.18837  -1.14641
  Beta  occ. eigenvalues --   -1.14628  -1.14596  -1.13966  -1.13940  -1.13906
  Beta  occ. eigenvalues --   -1.13560  -1.13475  -1.13357  -1.13327  -1.13308
  Beta  occ. eigenvalues --   -1.13274  -1.13253  -1.13229  -1.13223  -1.12824
  Beta  occ. eigenvalues --   -1.12815  -1.12731  -1.12530  -1.12504  -1.12458
  Beta  occ. eigenvalues --   -0.18056  -0.13661  -0.10843
  Beta virt. eigenvalues --   -0.07580  -0.06712  -0.04833  -0.03460  -0.02928
  Beta virt. eigenvalues --   -0.02528  -0.02083  -0.01613  -0.01035  -0.00175
  Beta virt. eigenvalues --    0.00018   0.00167   0.00308   0.00484   0.00845

 Mulliken charges and spin densities:
               1          2
     1  Na  -0.100871   0.171603
     2  Na  -0.053824   0.388148
     3  Na   0.191469   0.068033
     4  Na  -0.496281  -0.002367
     5  Na   0.349431   0.182520
     6  Na  -0.364135   0.261449
     7  Na   0.474212  -0.069387
 Sum of Mulliken charges =  -0.00000   1.00000

 Dipole moment (field-independent basis, Debye):
    X=              0.5918    Y=             -0.5072    Z=             -0.1547  Tot=              0.7946
 Quadrupole moment (field-independent basis, Debye-Ang):
   XX=            -46.6132   YY=            -78.3977   ZZ=            -67.7538
   XY=              0.2966   XZ=              0.0041   YZ=              1.0118

 Normal termination of Gaussian 16 at Thu Dec  7 10:19:54 2023.
