 Gaussian 16, Revision B.01,
 Gaussian 16:  ES64L-G16RevB.01 20-Dec-2017

 -------------------------
 #P B3LYP/6-311+g(d) force
 -------------------------

 -----
 DPGEN
 -----
 Symbolic Z-matrix:
 Charge =  0 Multiplicity = 2

                         Standard orientation:
 ---------------------------------------------------------------------
 Center     Atomic      Atomic             Coordinates (Angstroms)
 Number     Number       Type             X           Y           Z
 ---------------------------------------------------------------------
      1         11           0        5.820873    1.023136    1.120855
      2         11           0        2.836897    1.108831   -0.376967
      3         11           0        2.024945   -2.021027   -0.989024
      4         11           0       -1.155979   -3.520363   -0.862222
      5         11           0       -3.420842   -1.951141    1.372430
      6         11           0       -2.783353    3.816784   -1.177277
      7         11           0       -3.322542    1.543780    0.912206
 ---------------------------------------------------------------------

 SCF Done:  E(UB3LYP) =  -1136.10704678     A.U. after   19 cycles

 The electronic state is 2-A.
 Alpha  occ. eigenvalues --  -38.45301 -38.44732 -38.44558 -38.44398 -38.44336
 Alpha  occ. eigenvalues --  -38.44107 -38.43589  -2.21082  -2.20523  -2.20367
 Alpha  occ. eigenvalues --   -2.20198  -2.20087  -2.19907  -2.19388  -1.14729
 Alpha  occ. eigenvalues --   -1.14729  -1.14701  -1.14224  -1.14196  -1.14162
 Alpha  occ. eigenvalues --   -1.14028  -1.14022  -1.13970  -1.13851  -1.13844
 Alpha  occ. eigenvalues --   -1.13825  -1.13774  -1.13758  -1.13736  -1.13571
 Alpha  occ. eigenvalues --   -1.13549  -1.13548  -1.13062  -1.13057  -1.13040
 Alpha  occ. eigenvalues --   -0.15401  -0.14139  -0.12624  -0.11208
 Alpha virt. eigenvalues --   -0.07102  -0.05479  -0.04135  -0.03519  -0.03017
 Alpha virt. eigenvalues --   -0.02719  -0.02160  -0.01710  -0.01367  -0.01028
 Alpha virt. eigenvalues --   -0.00728  -0.00372  -0.00179   0.00309   0.00479

  Beta  occ. eigenvalues --  -38.45229 -38.44746 -38.44496 -38.44362 -38.44323
  Beta  occ. eigenvalues --  -38.44059 -38.43595  -2.20947  -2.20554  -2.20252
  Beta  occ. eigenvalues --   -2.20139  -2.20057  -2.19819  -2.19404  -1.14636
  Beta  occ. eigenvalues --   -1.14634  -1.14614  -1.14231  -1.14221  -1.14164
  Beta  occ. eigenvalues --   -1.13951  -1.13944  -1.13904  -1.13814  -1.13800
  Beta  occ. eigenvalues --   -1.13762  -1.13752  -1.13748  -1.13712  -1.13515
  Beta  occ. eigenvalues --   -1.13488  -1.13487  -1.13078  -1.13073  -1.13012
  Beta  occ. eigenvalues --   -0.14893  -0.13481  -0.12159
  Beta virt. eigenvalues --   -0.08140  -0.06520  -0.05159  -0.03767  -0.03385
  Beta virt. eigenvalues --   -0.02870  -0.02431  -0.01812  -0.01464  -0.01136
  Beta virt. eigenvalues --   -0.00797  -0.00419  -0.00138   0.00088   0.00336

 Mulliken charges and spin densities:
               1          2
     1  Na   0.312452   0.366624
     2  Na  -0.394339  -0.036789
     3  Na   0.036911   0.260721
     4  Na   0.011105  -0.135968
     5  Na   0.206691   0.340940
     6  Na   0.464773   0.209824
     7  Na  -0.637593  -0.005353
 Sum of Mulliken charges =  -0.00000   1.00000

 Dipole moment (field-independent basis, Debye):
    X=              1.8774    Y=             -0.1423    Z=             -0.0163  Tot=              1.8829
 Quadrupole moment (field-independent basis, Debye-Ang):
   XX=            -60.9548   YY=            -66.5918   ZZ=            -68.3219
   XY=              3.0054   XZ=              3.2379   YZ=             -2.6347

 Normal termination of Gaussian 16 at Mon Dec  4 00:33:43 2023.
