 Gaussian 16, Revision B.01,
 Gaussian 16:  ES64L-G16RevB.01 20-Dec-2017

 -------------------------
 #P B3LYP/6-311+g(d) force
 -------------------------

 -----
 DPGEN
 -----
 Symbolic Z-matrix:
 Charge =  0 Multiplicity = 2

                         Standard orientation:
 ---------------------------------------------------------------------
 Center     Atomic      Atomic             Coordinates (Angstroms)
 Number     Number       Type             X           Y           Z
 ---------------------------------------------------------------------
      1         11           0        3.241575   -0.648172   -0.854362
      2         11           0        1.555548   -0.801942    1.933926
      3         11           0       -0.127564   -0.705750   -0.957560
      4         11           0        1.869879    2.404662   -0.150175
      5         11           0       -2.829722   -0.103474   -0.036923
      6         11           0       -1.564702   -3.174881   -0.077592
      7         11           0       -2.145013    3.029557    0.142687
 ---------------------------------------------------------------------

 SCF Done:  E(UB3LYP) =  -1136.11945602     A.U. after   21 cycles

 The electronic state is 2-A.
 Alpha  occ. eigenvalues --  -38.45021 -38.44364 -38.44223 -38.44015 -38.43554
 Alpha  occ. eigenvalues --  -38.43538 -38.43208  -2.20804  -2.20233  -2.20079
 Alpha  occ. eigenvalues --   -2.19930  -2.19568  -2.19344  -2.19097  -1.14484
 Alpha  occ. eigenvalues --   -1.14474  -1.14431  -1.13906  -1.13891  -1.13865
 Alpha  occ. eigenvalues --   -1.13820  -1.13749  -1.13714  -1.13706  -1.13579
 Alpha  occ. eigenvalues --   -1.13528  -1.13247  -1.13217  -1.13166  -1.13016
 Alpha  occ. eigenvalues --   -1.13006  -1.12978  -1.12748  -1.12737  -1.12700
 Alpha  occ. eigenvalues --   -0.18115  -0.13947  -0.12383  -0.09862
 Alpha virt. eigenvalues --   -0.06366  -0.05580  -0.05170  -0.03317  -0.02391
 Alpha virt. eigenvalues --   -0.02015  -0.01736  -0.01530  -0.00917  -0.00778
 Alpha virt. eigenvalues --   -0.00064   0.00255   0.00601   0.00620   0.00732

  Beta  occ. eigenvalues --  -38.45008 -38.44340 -38.44222 -38.44013 -38.43554
  Beta  occ. eigenvalues --  -38.43512 -38.43107  -2.20784  -2.20194  -2.20079
  Beta  occ. eigenvalues --   -2.19928  -2.19525  -2.19344  -2.18910  -1.14465
  Beta  occ. eigenvalues --   -1.14448  -1.14415  -1.13884  -1.13846  -1.13824
  Beta  occ. eigenvalues --   -1.13816  -1.13749  -1.13711  -1.13693  -1.13568
  Beta  occ. eigenvalues --   -1.13527  -1.13195  -1.13184  -1.13138  -1.13016
  Beta  occ. eigenvalues --   -1.13003  -1.12978  -1.12621  -1.12608  -1.12571
  Beta  occ. eigenvalues --   -0.17546  -0.13647  -0.12244
  Beta virt. eigenvalues --   -0.06315  -0.05987  -0.05408  -0.05107  -0.02659
  Beta virt. eigenvalues --   -0.01938  -0.01831  -0.01491  -0.01009  -0.00872
  Beta virt. eigenvalues --   -0.00611   0.00200   0.00363   0.00636   0.00773

 Mulliken charges and spin densities:
               1          2
     1  Na   0.819673   0.225112
     2  Na  -0.718626   0.579541
     3  Na  -0.404539   0.008619
     4  Na   0.035952   0.121278
     5  Na   0.062437   0.057142
     6  Na   0.461992   0.039995
     7  Na  -0.256888  -0.031686
 Sum of Mulliken charges =  -0.00000   1.00000

 Dipole moment (field-independent basis, Debye):
    X=              0.3399    Y=             -0.2820    Z=             -0.0545  Tot=              0.4450
 Quadrupole moment (field-independent basis, Debye-Ang):
   XX=            -58.1924   YY=            -57.3408   ZZ=            -78.4550
   XY=              3.0587   XZ=             -2.8073   YZ=              1.2091

 Normal termination of Gaussian 16 at Fri Dec  8 00:30:57 2023.
