 Gaussian 16, Revision B.01,
 Gaussian 16:  ES64L-G16RevB.01 20-Dec-2017

 -------------------------
 #P B3LYP/6-311+g(d) force
 -------------------------

 -----
 DPGEN
 -----
 Symbolic Z-matrix:
 Charge =  0 Multiplicity = 2

                         Standard orientation:
 ---------------------------------------------------------------------
 Center     Atomic      Atomic             Coordinates (Angstroms)
 Number     Number       Type             X           Y           Z
 ---------------------------------------------------------------------
      1         11           0       -3.240331   -2.119604    0.480953
      2         11           0        0.084573   -0.210152    1.981846
      3         11           0       -1.150035   -0.602192   -1.490784
      4         11           0       -2.552550    2.316522    0.007690
      5         11           0        0.880838    2.353190   -0.730607
      6         11           0        2.356730   -2.048442   -0.982152
      7         11           0        3.620775    0.310678    0.733055
 ---------------------------------------------------------------------

 SCF Done:  E(UB3LYP) =  -1136.12355049     A.U. after   21 cycles

 The electronic state is 2-A.
 Alpha  occ. eigenvalues --  -38.44561 -38.44550 -38.44470 -38.44243 -38.43982
 Alpha  occ. eigenvalues --  -38.43431 -38.43411  -2.20380  -2.20358  -2.20250
 Alpha  occ. eigenvalues --   -2.20054  -2.19760  -2.19297  -2.19248  -1.14068
 Alpha  occ. eigenvalues --   -1.14042  -1.14040  -1.14022  -1.14002  -1.13958
 Alpha  occ. eigenvalues --   -1.13930  -1.13903  -1.13886  -1.13705  -1.13702
 Alpha  occ. eigenvalues --   -1.13691  -1.13444  -1.13418  -1.13403  -1.12993
 Alpha  occ. eigenvalues --   -1.12946  -1.12938  -1.12920  -1.12910  -1.12865
 Alpha  occ. eigenvalues --   -0.17695  -0.13518  -0.11556  -0.10591
 Alpha virt. eigenvalues --   -0.06463  -0.06095  -0.04422  -0.03311  -0.02645
 Alpha virt. eigenvalues --   -0.02421  -0.02153  -0.01652  -0.00818  -0.00324
 Alpha virt. eigenvalues --   -0.00071   0.00209   0.00331   0.00567   0.00626

  Beta  occ. eigenvalues --  -38.44554 -38.44473 -38.44471 -38.44206 -38.43986
  Beta  occ. eigenvalues --  -38.43420 -38.43371  -2.20370  -2.20257  -2.20211
  Beta  occ. eigenvalues --   -2.19987  -2.19767  -2.19231  -2.19223  -1.14059
  Beta  occ. eigenvalues --   -1.14030  -1.14005  -1.13938  -1.13926  -1.13910
  Beta  occ. eigenvalues --   -1.13901  -1.13890  -1.13849  -1.13657  -1.13653
  Beta  occ. eigenvalues --   -1.13643  -1.13447  -1.13423  -1.13402  -1.12950
  Beta  occ. eigenvalues --   -1.12921  -1.12892  -1.12878  -1.12864  -1.12852
  Beta  occ. eigenvalues --   -0.17009  -0.13401  -0.11363
  Beta virt. eigenvalues --   -0.06860  -0.06204  -0.05986  -0.04036  -0.02971
  Beta virt. eigenvalues --   -0.02132  -0.02042  -0.01563  -0.01436  -0.00683
  Beta virt. eigenvalues --   -0.00163  -0.00010   0.00246   0.00473   0.00661

 Mulliken charges and spin densities:
               1          2
     1  Na   0.107946   0.015360
     2  Na  -0.354490   0.542568
     3  Na  -0.056454   0.159620
     4  Na   0.183673  -0.076534
     5  Na  -0.167575   0.066235
     6  Na  -0.180024   0.186642
     7  Na   0.466924   0.106109
 Sum of Mulliken charges =  -0.00000   1.00000

 Dipole moment (field-independent basis, Debye):
    X=              0.0061    Y=              0.3213    Z=              0.4178  Tot=              0.5271
 Quadrupole moment (field-independent basis, Debye-Ang):
   XX=            -50.6055   YY=            -70.0047   ZZ=            -73.6802
   XY=             -0.6079   XZ=             -1.2660   YZ=              0.4067

 Normal termination of Gaussian 16 at Thu Dec  7 05:49:01 2023.
