 Gaussian 16, Revision B.01,
 Gaussian 16:  ES64L-G16RevB.01 20-Dec-2017

 -------------------------
 #P B3LYP/6-311+g(d) force
 -------------------------

 -----
 DPGEN
 -----
 Symbolic Z-matrix:
 Charge =  0 Multiplicity = 2

                         Standard orientation:
 ---------------------------------------------------------------------
 Center     Atomic      Atomic             Coordinates (Angstroms)
 Number     Number       Type             X           Y           Z
 ---------------------------------------------------------------------
      1         11           0       -3.327873   -0.050266   -0.095660
      2         11           0        2.664776   -1.530825   -0.307773
      3         11           0        2.382992    1.669904   -0.022120
      4         11           0       -0.424417   -0.007306   -1.673438
      5         11           0       -0.658482   -2.749153    0.212908
      6         11           0        0.037411   -0.114674    1.765144
      7         11           0       -0.674408    2.782319    0.120939
 ---------------------------------------------------------------------

 SCF Done:  E(UB3LYP) =  -1136.13776089     A.U. after   20 cycles

 The electronic state is 2-A.
 Alpha  occ. eigenvalues --  -38.44398 -38.43676 -38.43476 -38.43464 -38.43333
 Alpha  occ. eigenvalues --  -38.43112 -38.43061  -2.20205  -2.19530  -2.19359
 Alpha  occ. eigenvalues --   -2.19357  -2.19213  -2.19092  -2.19044  -1.13889
 Alpha  occ. eigenvalues --   -1.13855  -1.13843  -1.13230  -1.13190  -1.13175
 Alpha  occ. eigenvalues --   -1.13087  -1.13047  -1.13035  -1.13018  -1.13004
 Alpha  occ. eigenvalues --   -1.12959  -1.12906  -1.12884  -1.12828  -1.12783
 Alpha  occ. eigenvalues --   -1.12717  -1.12708  -1.12702  -1.12666  -1.12647
 Alpha  occ. eigenvalues --   -0.18967  -0.13083  -0.12658  -0.10535
 Alpha virt. eigenvalues --   -0.05867  -0.04885  -0.04777  -0.03067  -0.02866
 Alpha virt. eigenvalues --   -0.02232  -0.01741  -0.01074  -0.00322  -0.00240
 Alpha virt. eigenvalues --    0.00016   0.00344   0.00812   0.00897   0.00915

  Beta  occ. eigenvalues --  -38.44395 -38.43669 -38.43465 -38.43459 -38.43326
  Beta  occ. eigenvalues --  -38.43045 -38.42976  -2.20202  -2.19519  -2.19353
  Beta  occ. eigenvalues --   -2.19342  -2.19204  -2.18969  -2.18890  -1.13873
  Beta  occ. eigenvalues --   -1.13850  -1.13841  -1.13226  -1.13173  -1.13156
  Beta  occ. eigenvalues --   -1.13068  -1.13044  -1.13010  -1.12995  -1.12979
  Beta  occ. eigenvalues --   -1.12954  -1.12897  -1.12850  -1.12824  -1.12701
  Beta  occ. eigenvalues --   -1.12635  -1.12611  -1.12607  -1.12553  -1.12541
  Beta  occ. eigenvalues --   -0.18251  -0.12825  -0.12387
  Beta virt. eigenvalues --   -0.06654  -0.05815  -0.04889  -0.04751  -0.02306
  Beta virt. eigenvalues --   -0.02061  -0.01654  -0.01202  -0.01004  -0.00363
  Beta virt. eigenvalues --   -0.00292   0.00146   0.00373   0.00833   0.00901

 Mulliken charges and spin densities:
               1          2
     1  Na   0.146156  -0.138843
     2  Na   0.098149   0.005830
     3  Na   0.108189  -0.012692
     4  Na  -0.411958   0.710590
     5  Na   0.187320  -0.086677
     6  Na  -0.279536   0.632033
     7  Na   0.151680  -0.110240
 Sum of Mulliken charges =  -0.00000   1.00000

 Dipole moment (field-independent basis, Debye):
    X=             -0.4340    Y=             -0.0913    Z=              0.0082  Tot=              0.4436
 Quadrupole moment (field-independent basis, Debye-Ang):
   XX=            -54.5687   YY=            -62.2535   ZZ=            -75.5159
   XY=             -0.3922   XZ=             -1.1090   YZ=              0.4150

 Normal termination of Gaussian 16 at Fri Dec  8 07:52:28 2023.
