 Gaussian 16, Revision B.01,
 Gaussian 16:  ES64L-G16RevB.01 20-Dec-2017

 -------------------------
 #P B3LYP/6-311+g(d) force
 -------------------------

 -----
 DPGEN
 -----
 Symbolic Z-matrix:
 Charge =  0 Multiplicity = 2

                         Standard orientation:
 ---------------------------------------------------------------------
 Center     Atomic      Atomic             Coordinates (Angstroms)
 Number     Number       Type             X           Y           Z
 ---------------------------------------------------------------------
      1         11           0       -0.819293   -1.941988    1.047327
      2         11           0       -1.846297    1.518523    0.314888
      3         11           0       -4.345499   -0.056918   -0.324160
      4         11           0        2.015946    2.405556   -1.215156
      5         11           0        0.840523   -0.845796   -2.242378
      6         11           0        2.359258   -2.190889    0.037992
      7         11           0        1.795362    1.111511    2.381487
 ---------------------------------------------------------------------

 SCF Done:  E(UB3LYP) =  -1136.12031617     A.U. after   19 cycles

 The electronic state is 2-A.
 Alpha  occ. eigenvalues --  -38.44466 -38.44440 -38.44421 -38.44347 -38.43883
 Alpha  occ. eigenvalues --  -38.43773 -38.43456  -2.20284  -2.20270  -2.20219
 Alpha  occ. eigenvalues --   -2.20153  -2.19713  -2.19627  -2.19229  -1.13982
 Alpha  occ. eigenvalues --   -1.13982  -1.13928  -1.13921  -1.13899  -1.13888
 Alpha  occ. eigenvalues --   -1.13883  -1.13862  -1.13848  -1.13826  -1.13824
 Alpha  occ. eigenvalues --   -1.13764  -1.13399  -1.13392  -1.13319  -1.13311
 Alpha  occ. eigenvalues --   -1.13272  -1.13254  -1.12901  -1.12896  -1.12861
 Alpha  occ. eigenvalues --   -0.17376  -0.13260  -0.11613  -0.11575
 Alpha virt. eigenvalues --   -0.06240  -0.04996  -0.04580  -0.03430  -0.03307
 Alpha virt. eigenvalues --   -0.03080  -0.02044  -0.01106  -0.00685  -0.00224
 Alpha virt. eigenvalues --    0.00052   0.00155   0.00300   0.00698   0.00784

  Beta  occ. eigenvalues --  -38.44466 -38.44363 -38.44350 -38.44326 -38.43881
  Beta  occ. eigenvalues --  -38.43769 -38.43442  -2.20270  -2.20154  -2.20116
  Beta  occ. eigenvalues --   -2.20074  -2.19711  -2.19624  -2.19205  -1.13982
  Beta  occ. eigenvalues --   -1.13921  -1.13899  -1.13899  -1.13845  -1.13824
  Beta  occ. eigenvalues --   -1.13791  -1.13784  -1.13779  -1.13760  -1.13739
  Beta  occ. eigenvalues --   -1.13729  -1.13395  -1.13379  -1.13322  -1.13294
  Beta  occ. eigenvalues --   -1.13258  -1.13252  -1.12884  -1.12874  -1.12839
  Beta  occ. eigenvalues --   -0.16671  -0.13058  -0.11420
  Beta virt. eigenvalues --   -0.07744  -0.06023  -0.04893  -0.03960  -0.03080
  Beta virt. eigenvalues --   -0.02961  -0.02239  -0.01922  -0.01096  -0.00339
  Beta virt. eigenvalues --   -0.00143   0.00170   0.00319   0.00362   0.00780

 Mulliken charges and spin densities:
               1          2
     1  Na  -0.194418   0.163986
     2  Na  -0.390892   0.067971
     3  Na   0.315927  -0.079339
     4  Na  -0.036929  -0.177192
     5  Na  -0.141740   0.664463
     6  Na   0.548610  -0.121931
     7  Na  -0.100558   0.482042
 Sum of Mulliken charges =  -0.00000   1.00000

 Dipole moment (field-independent basis, Debye):
    X=             -0.6142    Y=             -0.6382    Z=             -0.0548  Tot=              0.8875
 Quadrupole moment (field-independent basis, Debye-Ang):
   XX=            -56.1572   YY=            -73.8562   ZZ=            -66.8053
   XY=              0.7487   XZ=              2.8619   YZ=             -1.2309

 Normal termination of Gaussian 16 at Mon Dec  4 02:08:15 2023.
