 Gaussian 16, Revision B.01,
 Gaussian 16:  ES64L-G16RevB.01 20-Dec-2017

 -------------------------
 #P B3LYP/6-311+g(d) force
 -------------------------

 -----
 DPGEN
 -----
 Symbolic Z-matrix:
 Charge =  0 Multiplicity = 2

                         Standard orientation:
 ---------------------------------------------------------------------
 Center     Atomic      Atomic             Coordinates (Angstroms)
 Number     Number       Type             X           Y           Z
 ---------------------------------------------------------------------
      1         11           0       -0.010878    0.619458    2.003007
      2         11           0        0.024516    3.098200   -0.500763
      3         11           0        1.947732   -2.356823    0.053059
      4         11           0        2.700242    0.861262    0.081170
      5         11           0       -1.602520   -2.549440    0.028675
      6         11           0       -3.179799    0.584583    0.012578
      7         11           0        0.120705   -0.257240   -1.677727
 ---------------------------------------------------------------------

 SCF Done:  E(UB3LYP) =  -1136.13862023     A.U. after   19 cycles

 The electronic state is 2-A.
 Alpha  occ. eigenvalues --  -38.44029 -38.43787 -38.43700 -38.43530 -38.43510
 Alpha  occ. eigenvalues --  -38.43477 -38.43186  -2.19819  -2.19612  -2.19534
 Alpha  occ. eigenvalues --   -2.19431  -2.19397  -2.19339  -2.19153  -1.13494
 Alpha  occ. eigenvalues --   -1.13479  -1.13463  -1.13285  -1.13276  -1.13253
 Alpha  occ. eigenvalues --   -1.13228  -1.13201  -1.13162  -1.13154  -1.13116
 Alpha  occ. eigenvalues --   -1.13077  -1.13051  -1.13020  -1.13017  -1.13008
 Alpha  occ. eigenvalues --   -1.12989  -1.12964  -1.12830  -1.12783  -1.12767
 Alpha  occ. eigenvalues --   -0.18570  -0.12854  -0.12648  -0.10638
 Alpha virt. eigenvalues --   -0.05583  -0.05075  -0.05009  -0.03096  -0.03016
 Alpha virt. eigenvalues --   -0.02440  -0.01342  -0.01288  -0.00476  -0.00362
 Alpha virt. eigenvalues --   -0.00007   0.00367   0.00817   0.00845   0.00895

  Beta  occ. eigenvalues --  -38.44029 -38.43774 -38.43698 -38.43520 -38.43474
  Beta  occ. eigenvalues --  -38.43425 -38.43121  -2.19821  -2.19591  -2.19533
  Beta  occ. eigenvalues --   -2.19418  -2.19336  -2.19239  -2.19034  -1.13482
  Beta  occ. eigenvalues --   -1.13478  -1.13468  -1.13267  -1.13243  -1.13240
  Beta  occ. eigenvalues --   -1.13221  -1.13188  -1.13163  -1.13141  -1.13077
  Beta  occ. eigenvalues --   -1.13056  -1.13010  -1.12978  -1.12960  -1.12953
  Beta  occ. eigenvalues --   -1.12908  -1.12898  -1.12751  -1.12697  -1.12680
  Beta  occ. eigenvalues --   -0.17847  -0.12629  -0.12429
  Beta virt. eigenvalues --   -0.06740  -0.05588  -0.05037  -0.04911  -0.02343
  Beta virt. eigenvalues --   -0.02261  -0.01432  -0.01254  -0.01187  -0.00516
  Beta virt. eigenvalues --   -0.00414   0.00141   0.00396   0.00833   0.00867

 Mulliken charges and spin densities:
               1          2
     1  Na  -0.469808   0.682901
     2  Na   0.074464  -0.051170
     3  Na   0.087324  -0.049205
     4  Na   0.439016   0.078757
     5  Na   0.050405  -0.078642
     6  Na  -0.014788  -0.106347
     7  Na  -0.166613   0.523708
 Sum of Mulliken charges =  -0.00000   1.00000

 Dipole moment (field-independent basis, Debye):
    X=             -0.2507    Y=              0.1230    Z=              0.0829  Tot=              0.2913
 Quadrupole moment (field-independent basis, Debye-Ang):
   XX=            -59.4111   YY=            -59.3929   ZZ=            -74.6431
   XY=             -0.8508   XZ=              0.3013   YZ=             -1.9355

 Normal termination of Gaussian 16 at Thu Dec  7 04:00:48 2023.
