 Gaussian 16, Revision B.01,
 Gaussian 16:  ES64L-G16RevB.01 20-Dec-2017

 -------------------------
 #P B3LYP/6-311+g(d) force
 -------------------------

 -----
 DPGEN
 -----
 Symbolic Z-matrix:
 Charge =  0 Multiplicity = 2

                         Standard orientation:
 ---------------------------------------------------------------------
 Center     Atomic      Atomic             Coordinates (Angstroms)
 Number     Number       Type             X           Y           Z
 ---------------------------------------------------------------------
      1         11           0       -3.237204    1.162712    0.009980
      2         11           0       -1.278074   -1.045093    1.685799
      3         11           0        1.772177   -0.546744    1.860799
      4         11           0       -1.982845   -1.336619   -1.439723
      5         11           0       -0.327248    2.238207   -0.187788
      6         11           0        3.710361    0.892803   -0.606779
      7         11           0        1.342833   -1.365267   -1.322288
 ---------------------------------------------------------------------

 SCF Done:  E(UB3LYP) =  -1136.12153081     A.U. after   25 cycles

 The electronic state is 2-A.
 Alpha  occ. eigenvalues --  -38.44604 -38.44260 -38.43856 -38.43800 -38.43766
 Alpha  occ. eigenvalues --  -38.43707 -38.43673  -2.20418  -2.20170  -2.19772
 Alpha  occ. eigenvalues --   -2.19707  -2.19660  -2.19645  -2.19482  -1.14096
 Alpha  occ. eigenvalues --   -1.14073  -1.14047  -1.13887  -1.13814  -1.13778
 Alpha  occ. eigenvalues --   -1.13503  -1.13463  -1.13427  -1.13396  -1.13365
 Alpha  occ. eigenvalues --   -1.13339  -1.13332  -1.13317  -1.13306  -1.13263
 Alpha  occ. eigenvalues --   -1.13257  -1.13242  -1.13169  -1.13163  -1.13086
 Alpha  occ. eigenvalues --   -0.18681  -0.14327  -0.11844  -0.11137
 Alpha virt. eigenvalues --   -0.06671  -0.05014  -0.04805  -0.03510  -0.02643
 Alpha virt. eigenvalues --   -0.02527  -0.02248  -0.00944  -0.00748  -0.00107
 Alpha virt. eigenvalues --    0.00182   0.00266   0.00353   0.00693   0.00793

  Beta  occ. eigenvalues --  -38.44587 -38.44198 -38.43813 -38.43795 -38.43722
  Beta  occ. eigenvalues --  -38.43682 -38.43656  -2.20386  -2.20060  -2.19700
  Beta  occ. eigenvalues --   -2.19692  -2.19581  -2.19555  -2.19499  -1.14063
  Beta  occ. eigenvalues --   -1.14055  -1.14027  -1.13801  -1.13737  -1.13692
  Beta  occ. eigenvalues --   -1.13463  -1.13408  -1.13393  -1.13376  -1.13348
  Beta  occ. eigenvalues --   -1.13290  -1.13274  -1.13261  -1.13254  -1.13197
  Beta  occ. eigenvalues --   -1.13192  -1.13182  -1.13178  -1.13163  -1.13099
  Beta  occ. eigenvalues --   -0.18005  -0.14132  -0.10910
  Beta virt. eigenvalues --   -0.07761  -0.06490  -0.04811  -0.04308  -0.03122
  Beta virt. eigenvalues --   -0.02226  -0.01992  -0.01843  -0.00839  -0.00298
  Beta virt. eigenvalues --    0.00014   0.00207   0.00314   0.00486   0.00777

 Mulliken charges and spin densities:
               1          2
     1  Na   0.887646  -0.019201
     2  Na  -0.467499   0.234718
     3  Na   0.157247   0.185230
     4  Na   0.149552   0.184126
     5  Na  -0.868810  -0.013403
     6  Na   0.742206   0.147603
     7  Na  -0.600342   0.280927
 Sum of Mulliken charges =  -0.00000   1.00000

 Dipole moment (field-independent basis, Debye):
    X=              0.5458    Y=             -0.0917    Z=             -0.0383  Tot=              0.5548
 Quadrupole moment (field-independent basis, Debye-Ang):
   XX=            -50.4352   YY=            -78.8125   ZZ=            -67.7637
   XY=              2.7237   XZ=             -0.3381   YZ=              0.3504

 Normal termination of Gaussian 16 at Fri Dec  8 06:51:01 2023.
