 Gaussian 16, Revision B.01,
 Gaussian 16:  ES64L-G16RevB.01 20-Dec-2017

 -------------------------
 #P B3LYP/6-311+g(d) force
 -------------------------

 -----
 DPGEN
 -----
 Symbolic Z-matrix:
 Charge =  0 Multiplicity = 2

                         Standard orientation:
 ---------------------------------------------------------------------
 Center     Atomic      Atomic             Coordinates (Angstroms)
 Number     Number       Type             X           Y           Z
 ---------------------------------------------------------------------
      1         11           0       -2.131313   -1.877024   -0.357967
      2         11           0       -0.419901    0.358293   -1.391068
      3         11           0       -2.828998    1.424443    0.368754
      4         11           0        0.155884   -0.479236    2.135916
      5         11           0        3.185513    0.264842    0.074576
      6         11           0        1.190450   -2.488171   -0.497077
      7         11           0        0.848366    2.796852   -0.333134
 ---------------------------------------------------------------------

 SCF Done:  E(UB3LYP) =  -1136.13326754     A.U. after   18 cycles

 The electronic state is 2-A.
 Alpha  occ. eigenvalues --  -38.44108 -38.44083 -38.43742 -38.43544 -38.43494
 Alpha  occ. eigenvalues --  -38.43201 -38.42986  -2.19928  -2.19923  -2.19615
 Alpha  occ. eigenvalues --   -2.19460  -2.19354  -2.19087  -2.19066  -1.13617
 Alpha  occ. eigenvalues --   -1.13603  -1.13586  -1.13577  -1.13575  -1.13557
 Alpha  occ. eigenvalues --   -1.13284  -1.13248  -1.13234  -1.13228  -1.13137
 Alpha  occ. eigenvalues --   -1.13100  -1.13077  -1.12996  -1.12959  -1.12785
 Alpha  occ. eigenvalues --   -1.12744  -1.12719  -1.12718  -1.12687  -1.12658
 Alpha  occ. eigenvalues --   -0.18846  -0.13140  -0.12501  -0.10788
 Alpha virt. eigenvalues --   -0.05749  -0.05109  -0.04524  -0.03265  -0.02834
 Alpha virt. eigenvalues --   -0.02519  -0.01572  -0.01057  -0.00365  -0.00159
 Alpha virt. eigenvalues --   -0.00002   0.00344   0.00805   0.00876   0.00916

  Beta  occ. eigenvalues --  -38.44107 -38.44077 -38.43645 -38.43532 -38.43488
  Beta  occ. eigenvalues --  -38.43188 -38.42935  -2.19929  -2.19912  -2.19442
  Beta  occ. eigenvalues --   -2.19436  -2.19345  -2.19068  -2.18975  -1.13610
  Beta  occ. eigenvalues --   -1.13597  -1.13586  -1.13570  -1.13556  -1.13549
  Beta  occ. eigenvalues --   -1.13213  -1.13164  -1.13125  -1.13120  -1.13100
  Beta  occ. eigenvalues --   -1.13074  -1.13052  -1.12978  -1.12955  -1.12766
  Beta  occ. eigenvalues --   -1.12720  -1.12695  -1.12652  -1.12624  -1.12596
  Beta  occ. eigenvalues --   -0.18129  -0.12938  -0.12238
  Beta virt. eigenvalues --   -0.06844  -0.05676  -0.05108  -0.04455  -0.02502
  Beta virt. eigenvalues --   -0.02113  -0.01502  -0.01411  -0.00975  -0.00382
  Beta virt. eigenvalues --   -0.00203   0.00153   0.00384   0.00862   0.00888

 Mulliken charges and spin densities:
               1          2
     1  Na   0.459276   0.058212
     2  Na  -0.376835   0.082907
     3  Na   0.084074   0.101342
     4  Na  -0.664912   0.730996
     5  Na   0.087004   0.000477
     6  Na   0.204659   0.041903
     7  Na   0.206734  -0.015837
 Sum of Mulliken charges =  -0.00000   1.00000

 Dipole moment (field-independent basis, Debye):
    X=             -0.0184    Y=              0.0916    Z=              0.3902  Tot=              0.4012
 Quadrupole moment (field-independent basis, Debye-Ang):
   XX=            -55.1468   YY=            -63.9494   ZZ=            -74.1233
   XY=             -0.6347   XZ=             -1.1566   YZ=              1.8909

 Normal termination of Gaussian 16 at Thu Dec  7 12:47:16 2023.
