 Gaussian 16, Revision B.01,
 Gaussian 16:  ES64L-G16RevB.01 20-Dec-2017

 -------------------------
 #P B3LYP/6-311+g(d) force
 -------------------------

 -----
 DPGEN
 -----
 Symbolic Z-matrix:
 Charge =  0 Multiplicity = 2

                         Standard orientation:
 ---------------------------------------------------------------------
 Center     Atomic      Atomic             Coordinates (Angstroms)
 Number     Number       Type             X           Y           Z
 ---------------------------------------------------------------------
      1         11           0        2.039768   -1.190199   -1.515674
      2         11           0        0.722548    2.484759   -0.957583
      3         11           0       -3.009182    1.552398   -0.411261
      4         11           0       -1.178895   -1.573404   -1.430593
      5         11           0       -1.904546   -0.831071    1.901275
      6         11           0        0.918717   -1.964813    0.898045
      7         11           0        2.411589    1.522331    1.515790
 ---------------------------------------------------------------------

 SCF Done:  E(UB3LYP) =  -1136.12291684     A.U. after   20 cycles

 The electronic state is 2-A.
 Alpha  occ. eigenvalues --  -38.44158 -38.44128 -38.44047 -38.43962 -38.43882
 Alpha  occ. eigenvalues --  -38.43608 -38.43513  -2.20056  -2.20019  -2.19869
 Alpha  occ. eigenvalues --   -2.19860  -2.19666  -2.19505  -2.19413  -1.13907
 Alpha  occ. eigenvalues --   -1.13729  -1.13712  -1.13662  -1.13639  -1.13628
 Alpha  occ. eigenvalues --   -1.13559  -1.13545  -1.13531  -1.13511  -1.13491
 Alpha  occ. eigenvalues --   -1.13463  -1.13342  -1.13318  -1.13305  -1.13155
 Alpha  occ. eigenvalues --   -1.13144  -1.13092  -1.13091  -1.13075  -1.13040
 Alpha  occ. eigenvalues --   -0.18267  -0.12949  -0.12312  -0.11633
 Alpha virt. eigenvalues --   -0.05526  -0.05043  -0.04565  -0.03942  -0.03257
 Alpha virt. eigenvalues --   -0.03010  -0.01104  -0.00726  -0.00513  -0.00024
 Alpha virt. eigenvalues --    0.00298   0.00316   0.00423   0.00634   0.00737

  Beta  occ. eigenvalues --  -38.44102 -38.44094 -38.44019 -38.43927 -38.43875
  Beta  occ. eigenvalues --  -38.43604 -38.43486  -2.19996  -2.19917  -2.19809
  Beta  occ. eigenvalues --   -2.19806  -2.19654  -2.19461  -2.19407  -1.13872
  Beta  occ. eigenvalues --   -1.13669  -1.13641  -1.13593  -1.13584  -1.13563
  Beta  occ. eigenvalues --   -1.13520  -1.13514  -1.13472  -1.13468  -1.13456
  Beta  occ. eigenvalues --   -1.13412  -1.13327  -1.13308  -1.13299  -1.13127
  Beta  occ. eigenvalues --   -1.13093  -1.13081  -1.13069  -1.13046  -1.13034
  Beta  occ. eigenvalues --   -0.17514  -0.12776  -0.12097
  Beta virt. eigenvalues --   -0.07784  -0.05465  -0.04538  -0.04104  -0.03745
  Beta virt. eigenvalues --   -0.02797  -0.02119  -0.01059  -0.00639  -0.00165
  Beta virt. eigenvalues --    0.00105   0.00361   0.00411   0.00498   0.00742

 Mulliken charges and spin densities:
               1          2
     1  Na   0.487317   0.224136
     2  Na  -0.374088   0.066197
     3  Na   0.198976  -0.037307
     4  Na  -0.733966   0.375018
     5  Na   0.107254   0.093935
     6  Na   0.348036   0.267156
     7  Na  -0.033529   0.010865
 Sum of Mulliken charges =  -0.00000   1.00000

 Dipole moment (field-independent basis, Debye):
    X=             -0.1389    Y=              0.0238    Z=              0.0268  Tot=              0.1435
 Quadrupole moment (field-independent basis, Debye-Ang):
   XX=            -62.7043   YY=            -71.7606   ZZ=            -63.7109
   XY=             -1.4472   XZ=              0.7547   YZ=             -0.1692

 Normal termination of Gaussian 16 at Sun Dec  3 18:33:09 2023.
