 Gaussian 16, Revision B.01,
 Gaussian 16:  ES64L-G16RevB.01 20-Dec-2017

 -------------------------
 #P B3LYP/6-311+g(d) force
 -------------------------

 -----
 DPGEN
 -----
 Symbolic Z-matrix:
 Charge =  0 Multiplicity = 2

                         Standard orientation:
 ---------------------------------------------------------------------
 Center     Atomic      Atomic             Coordinates (Angstroms)
 Number     Number       Type             X           Y           Z
 ---------------------------------------------------------------------
      1         11           0       -2.504437    1.028492    0.753545
      2         11           0        1.314057    1.159552   -0.411278
      3         11           0        2.627284   -2.564483    0.012865
      4         11           0       -0.798538   -1.634146   -0.242962
      5         11           0       -3.767392   -2.296236   -0.125505
      6         11           0        4.349880    0.555036    0.312937
      7         11           0       -1.220855    3.751785   -0.299601
 ---------------------------------------------------------------------

 SCF Done:  E(UB3LYP) =  -1136.12410361     A.U. after   23 cycles

 The electronic state is 2-A.
 Alpha  occ. eigenvalues --  -38.44506 -38.44445 -38.44408 -38.43915 -38.43497
 Alpha  occ. eigenvalues --  -38.43474 -38.43269  -2.20312  -2.20306  -2.20258
 Alpha  occ. eigenvalues --   -2.19728  -2.19354  -2.19325  -2.19197  -1.14022
 Alpha  occ. eigenvalues --   -1.13998  -1.13986  -1.13985  -1.13967  -1.13963
 Alpha  occ. eigenvalues --   -1.13931  -1.13908  -1.13846  -1.13402  -1.13385
 Alpha  occ. eigenvalues --   -1.13356  -1.13062  -1.13017  -1.12988  -1.12967
 Alpha  occ. eigenvalues --   -1.12957  -1.12951  -1.12890  -1.12868  -1.12766
 Alpha  occ. eigenvalues --   -0.17267  -0.14154  -0.12830  -0.10200
 Alpha virt. eigenvalues --   -0.06633  -0.05628  -0.04107  -0.03478  -0.02669
 Alpha virt. eigenvalues --   -0.02377  -0.02007  -0.01647  -0.01050  -0.00618
 Alpha virt. eigenvalues --   -0.00028   0.00117   0.00416   0.00450   0.00642

  Beta  occ. eigenvalues --  -38.44466 -38.44441 -38.44394 -38.43919 -38.43435
  Beta  occ. eigenvalues --  -38.43413 -38.43243  -2.20300  -2.20242  -2.20238
  Beta  occ. eigenvalues --   -2.19736  -2.19252  -2.19197  -2.19155  -1.14021
  Beta  occ. eigenvalues --   -1.13994  -1.13958  -1.13941  -1.13927  -1.13897
  Beta  occ. eigenvalues --   -1.13892  -1.13880  -1.13836  -1.13408  -1.13390
  Beta  occ. eigenvalues --   -1.13360  -1.13017  -1.12918  -1.12906  -1.12897
  Beta  occ. eigenvalues --   -1.12882  -1.12864  -1.12857  -1.12844  -1.12698
  Beta  occ. eigenvalues --   -0.16843  -0.13555  -0.12482
  Beta virt. eigenvalues --   -0.06566  -0.06438  -0.05516  -0.03965  -0.02876
  Beta virt. eigenvalues --   -0.02433  -0.02163  -0.01904  -0.01071  -0.00930
  Beta virt. eigenvalues --   -0.00291   0.00215   0.00363   0.00484   0.00648

 Mulliken charges and spin densities:
               1          2
     1  Na  -0.119765   0.028830
     2  Na  -1.683732   0.095190
     3  Na   0.138835  -0.111010
     4  Na  -1.522881   0.332450
     5  Na   1.762622   0.319999
     6  Na   0.663537   0.319321
     7  Na   0.761382   0.015221
 Sum of Mulliken charges =  -0.00000   1.00000

 Dipole moment (field-independent basis, Debye):
    X=             -0.3941    Y=             -0.0176    Z=              0.0513  Tot=              0.3978
 Quadrupole moment (field-independent basis, Debye-Ang):
   XX=            -64.1746   YY=            -61.0173   ZZ=            -70.9373
   XY=             -7.3262   XZ=              0.1588   YZ=             -0.9029

 Normal termination of Gaussian 16 at Tue Nov 28 22:16:20 2023.
