 Gaussian 16, Revision B.01,
 Gaussian 16:  ES64L-G16RevB.01 20-Dec-2017

 -------------------------
 #P B3LYP/6-311+g(d) force
 -------------------------

 -----
 DPGEN
 -----
 Symbolic Z-matrix:
 Charge =  0 Multiplicity = 2

                         Standard orientation:
 ---------------------------------------------------------------------
 Center     Atomic      Atomic             Coordinates (Angstroms)
 Number     Number       Type             X           Y           Z
 ---------------------------------------------------------------------
      1         11           0       -1.044805    2.439456   -0.351647
      2         11           0       -3.361204    0.281149   -0.239955
      3         11           0        0.815192   -0.321712   -1.579107
      4         11           0       -1.543999   -2.355464   -0.295664
      5         11           0        2.789817    1.924220   -0.026758
      6         11           0        2.625074   -1.996501    0.147924
      7         11           0       -0.280075    0.028853    2.345206
 ---------------------------------------------------------------------

 SCF Done:  E(UB3LYP) =  -1136.12806759     A.U. after   19 cycles

 The electronic state is 2-A.
 Alpha  occ. eigenvalues --  -38.44443 -38.44388 -38.44330 -38.44049 -38.43532
 Alpha  occ. eigenvalues --  -38.43478 -38.43239  -2.20257  -2.20178  -2.20170
 Alpha  occ. eigenvalues --   -2.19877  -2.19434  -2.19376  -2.19087  -1.13989
 Alpha  occ. eigenvalues --   -1.13907  -1.13875  -1.13862  -1.13853  -1.13840
 Alpha  occ. eigenvalues --   -1.13827  -1.13822  -1.13806  -1.13524  -1.13502
 Alpha  occ. eigenvalues --   -1.13495  -1.13121  -1.13099  -1.13076  -1.13034
 Alpha  occ. eigenvalues --   -1.13028  -1.12998  -1.12772  -1.12751  -1.12720
 Alpha  occ. eigenvalues --   -0.18204  -0.13418  -0.11887  -0.10821
 Alpha virt. eigenvalues --   -0.06026  -0.05923  -0.04039  -0.03440  -0.02849
 Alpha virt. eigenvalues --   -0.02662  -0.01818  -0.01451  -0.00557  -0.00157
 Alpha virt. eigenvalues --   -0.00092   0.00281   0.00660   0.00772   0.00855

  Beta  occ. eigenvalues --  -38.44443 -38.44389 -38.44325 -38.43934 -38.43524
  Beta  occ. eigenvalues --  -38.43437 -38.43231  -2.20259  -2.20174  -2.20171
  Beta  occ. eigenvalues --   -2.19664  -2.19365  -2.19357  -2.19075  -1.13985
  Beta  occ. eigenvalues --   -1.13896  -1.13878  -1.13860  -1.13844  -1.13836
  Beta  occ. eigenvalues --   -1.13827  -1.13811  -1.13802  -1.13381  -1.13351
  Beta  occ. eigenvalues --   -1.13346  -1.13085  -1.13047  -1.13031  -1.13019
  Beta  occ. eigenvalues --   -1.12998  -1.12972  -1.12764  -1.12722  -1.12713
  Beta  occ. eigenvalues --   -0.17516  -0.13250  -0.11696
  Beta virt. eigenvalues --   -0.06839  -0.05933  -0.05890  -0.03983  -0.02743
  Beta virt. eigenvalues --   -0.01982  -0.01785  -0.01646  -0.01371  -0.00606
  Beta virt. eigenvalues --   -0.00178   0.00101   0.00339   0.00771   0.00774

 Mulliken charges and spin densities:
               1          2
     1  Na   0.109596   0.052134
     2  Na   0.039855   0.005680
     3  Na   0.165410   0.167560
     4  Na   0.215195   0.069751
     5  Na   0.026922  -0.036105
     6  Na   0.081463  -0.033814
     7  Na  -0.638440   0.774794
 Sum of Mulliken charges =  -0.00000   1.00000

 Dipole moment (field-independent basis, Debye):
    X=              0.5007    Y=             -0.0817    Z=              0.2468  Tot=              0.5641
 Quadrupole moment (field-independent basis, Debye-Ang):
   XX=            -52.6960   YY=            -67.6398   ZZ=            -74.1560
   XY=              0.1638   XZ=              2.1222   YZ=             -0.7109

 Normal termination of Gaussian 16 at Fri Dec  8 03:49:54 2023.
