 Gaussian 16, Revision B.01,
 Gaussian 16:  ES64L-G16RevB.01 20-Dec-2017

 -------------------------
 #P B3LYP/6-311+g(d) force
 -------------------------

 -----
 DPGEN
 -----
 Symbolic Z-matrix:
 Charge =  0 Multiplicity = 2

                         Standard orientation:
 ---------------------------------------------------------------------
 Center     Atomic      Atomic             Coordinates (Angstroms)
 Number     Number       Type             X           Y           Z
 ---------------------------------------------------------------------
      1         11           0        0.007265   -0.191922    1.958517
      2         11           0       -1.707863    2.318524    0.445620
      3         11           0        3.121338   -0.452052    0.217373
      4         11           0        1.541526    2.349120   -0.608137
      5         11           0        0.794104   -2.642300   -0.118381
      6         11           0       -3.310466   -1.128688   -0.088954
      7         11           0       -0.445904   -0.252683   -1.806038
 ---------------------------------------------------------------------

 SCF Done:  E(UB3LYP) =  -1136.13467242     A.U. after   20 cycles

 The electronic state is 2-A.
 Alpha  occ. eigenvalues --  -38.44557 -38.44084 -38.43723 -38.43570 -38.43490
 Alpha  occ. eigenvalues --  -38.43369 -38.43034  -2.20330  -2.19942  -2.19632
 Alpha  occ. eigenvalues --   -2.19425  -2.19414  -2.19263  -2.18897  -1.14011
 Alpha  occ. eigenvalues --   -1.13978  -1.13973  -1.13611  -1.13608  -1.13599
 Alpha  occ. eigenvalues --   -1.13311  -1.13283  -1.13246  -1.13135  -1.13099
 Alpha  occ. eigenvalues --   -1.13092  -1.13058  -1.13041  -1.13033  -1.12930
 Alpha  occ. eigenvalues --   -1.12923  -1.12874  -1.12571  -1.12553  -1.12536
 Alpha  occ. eigenvalues --   -0.18628  -0.13092  -0.12248  -0.10967
 Alpha virt. eigenvalues --   -0.06094  -0.05037  -0.04252  -0.03371  -0.02964
 Alpha virt. eigenvalues --   -0.02693  -0.01859  -0.01004  -0.00297  -0.00131
 Alpha virt. eigenvalues --    0.00008   0.00335   0.00767   0.00803   0.00869

  Beta  occ. eigenvalues --  -38.44558 -38.44082 -38.43637 -38.43560 -38.43416
  Beta  occ. eigenvalues --  -38.43361 -38.43022  -2.20334  -2.19940  -2.19474
  Beta  occ. eigenvalues --   -2.19398  -2.19289  -2.19253  -2.18876  -1.14002
  Beta  occ. eigenvalues --   -1.13981  -1.13976  -1.13614  -1.13607  -1.13574
  Beta  occ. eigenvalues --   -1.13209  -1.13174  -1.13136  -1.13076  -1.13059
  Beta  occ. eigenvalues --   -1.13049  -1.13032  -1.12978  -1.12937  -1.12912
  Beta  occ. eigenvalues --   -1.12888  -1.12858  -1.12553  -1.12537  -1.12513
  Beta  occ. eigenvalues --   -0.17883  -0.12871  -0.11993
  Beta virt. eigenvalues --   -0.07065  -0.06050  -0.04979  -0.04218  -0.02604
  Beta virt. eigenvalues --   -0.02201  -0.01827  -0.01607  -0.00922  -0.00318
  Beta virt. eigenvalues --   -0.00121   0.00101   0.00355   0.00814   0.00890

 Mulliken charges and spin densities:
               1          2
     1  Na  -0.245451   0.548790
     2  Na  -0.008098   0.033646
     3  Na   0.062192   0.040148
     4  Na   0.072108   0.021750
     5  Na   0.258622  -0.102251
     6  Na   0.020308  -0.133443
     7  Na  -0.159681   0.591359
 Sum of Mulliken charges =  -0.00000   1.00000

 Dipole moment (field-independent basis, Debye):
    X=             -0.4217    Y=             -0.2664    Z=              0.1588  Tot=              0.5235
 Quadrupole moment (field-independent basis, Debye-Ang):
   XX=            -54.0998   YY=            -66.4381   ZZ=            -73.2040
   XY=              0.3487   XZ=             -0.7584   YZ=             -0.1010

 Normal termination of Gaussian 16 at Tue Dec  5 13:41:37 2023.
