 Gaussian 16, Revision B.01,
 Gaussian 16:  ES64L-G16RevB.01 20-Dec-2017

 -------------------------
 #P B3LYP/6-311+g(d) force
 -------------------------

 -----
 DPGEN
 -----
 Symbolic Z-matrix:
 Charge =  0 Multiplicity = 2

                         Standard orientation:
 ---------------------------------------------------------------------
 Center     Atomic      Atomic             Coordinates (Angstroms)
 Number     Number       Type             X           Y           Z
 ---------------------------------------------------------------------
      1         11           0       -1.708765    1.049077   -0.776464
      2         11           0        1.843893    1.110799    0.566073
      3         11           0        1.226603   -2.218357   -0.569851
      4         11           0       -1.252980   -1.277156    1.274500
      5         11           0       -4.273737   -1.292574   -0.228788
      6         11           0        4.132086   -1.157637   -0.254615
      7         11           0        0.032900    3.785849   -0.010856
 ---------------------------------------------------------------------

 SCF Done:  E(UB3LYP) =  -1136.12625655     A.U. after   20 cycles

 The electronic state is 2-A.
 Alpha  occ. eigenvalues --  -38.44219 -38.44093 -38.43982 -38.43629 -38.43562
 Alpha  occ. eigenvalues --  -38.43553 -38.43376  -2.20102  -2.19984  -2.19859
 Alpha  occ. eigenvalues --   -2.19559  -2.19399  -2.19381  -2.19253  -1.13837
 Alpha  occ. eigenvalues --   -1.13799  -1.13695  -1.13670  -1.13654  -1.13640
 Alpha  occ. eigenvalues --   -1.13564  -1.13545  -1.13480  -1.13237  -1.13214
 Alpha  occ. eigenvalues --   -1.13181  -1.13051  -1.13049  -1.13041  -1.13034
 Alpha  occ. eigenvalues --   -1.13019  -1.13005  -1.12904  -1.12884  -1.12879
 Alpha  occ. eigenvalues --   -0.17853  -0.14013  -0.12820  -0.10157
 Alpha virt. eigenvalues --   -0.06306  -0.05420  -0.04757  -0.03373  -0.02783
 Alpha virt. eigenvalues --   -0.02291  -0.01712  -0.01153  -0.00880  -0.00637
 Alpha virt. eigenvalues --   -0.00237  -0.00035   0.00471   0.00604   0.00639

  Beta  occ. eigenvalues --  -38.44212 -38.44070 -38.43973 -38.43586 -38.43557
  Beta  occ. eigenvalues --  -38.43495 -38.43317  -2.20094  -2.19949  -2.19848
  Beta  occ. eigenvalues --   -2.19486  -2.19388  -2.19272  -2.19142  -1.13826
  Beta  occ. eigenvalues --   -1.13788  -1.13677  -1.13637  -1.13627  -1.13595
  Beta  occ. eigenvalues --   -1.13559  -1.13511  -1.13470  -1.13192  -1.13165
  Beta  occ. eigenvalues --   -1.13098  -1.13055  -1.13039  -1.13022  -1.12962
  Beta  occ. eigenvalues --   -1.12950  -1.12927  -1.12827  -1.12813  -1.12804
  Beta  occ. eigenvalues --   -0.17260  -0.13421  -0.12631
  Beta virt. eigenvalues --   -0.06582  -0.06144  -0.05229  -0.04421  -0.02835
  Beta virt. eigenvalues --   -0.02448  -0.02210  -0.01546  -0.00863  -0.00653
  Beta virt. eigenvalues --   -0.00309   0.00142   0.00200   0.00577   0.00705

 Mulliken charges and spin densities:
               1          2
     1  Na  -0.802197   0.175499
     2  Na  -0.899277   0.128202
     3  Na  -0.355331  -0.016211
     4  Na   0.460121   0.096871
     5  Na   0.281200   0.317472
     6  Na   0.610571   0.344933
     7  Na   0.704912  -0.046766
 Sum of Mulliken charges =  -0.00000   1.00000

 Dipole moment (field-independent basis, Debye):
    X=             -0.0296    Y=             -0.1527    Z=              0.1802  Tot=              0.2381
 Quadrupole moment (field-independent basis, Debye-Ang):
   XX=            -72.5705   YY=            -62.3720   ZZ=            -66.9300
   XY=              0.7533   XZ=              0.6890   YZ=              1.5262

 Normal termination of Gaussian 16 at Tue Nov 28 18:53:25 2023.
