 Gaussian 16, Revision B.01,
 Gaussian 16:  ES64L-G16RevB.01 20-Dec-2017

 -------------------------
 #P B3LYP/6-311+g(d) force
 -------------------------

 -----
 DPGEN
 -----
 Symbolic Z-matrix:
 Charge =  0 Multiplicity = 2

                         Standard orientation:
 ---------------------------------------------------------------------
 Center     Atomic      Atomic             Coordinates (Angstroms)
 Number     Number       Type             X           Y           Z
 ---------------------------------------------------------------------
      1         11           0       -0.664883   -1.650215   -0.859441
      2         11           0       -4.293280   -1.967013    0.122598
      3         11           0       -3.102512    1.263213   -0.483627
      4         11           0       -0.643347    0.785702    2.281155
      5         11           0       -0.210519    2.288821   -1.064033
      6         11           0        2.757411    0.058658    0.094883
      7         11           0        6.157131   -0.779166   -0.091535
 ---------------------------------------------------------------------

 SCF Done:  E(UB3LYP) =  -1136.10923841     A.U. after   27 cycles

 The electronic state is 2-A.
 Alpha  occ. eigenvalues --  -38.46114 -38.45623 -38.44200 -38.44140 -38.43872
 Alpha  occ. eigenvalues --  -38.43688 -38.43345  -2.21874  -2.21386  -2.20009
 Alpha  occ. eigenvalues --   -2.19984  -2.19764  -2.19472  -2.19127  -1.15550
 Alpha  occ. eigenvalues --   -1.15529  -1.15509  -1.15097  -1.15054  -1.14986
 Alpha  occ. eigenvalues --   -1.13727  -1.13657  -1.13625  -1.13624  -1.13613
 Alpha  occ. eigenvalues --   -1.13597  -1.13451  -1.13415  -1.13355  -1.13141
 Alpha  occ. eigenvalues --   -1.13136  -1.13097  -1.12835  -1.12823  -1.12747
 Alpha  occ. eigenvalues --   -0.17613  -0.13353  -0.11793  -0.10941
 Alpha virt. eigenvalues --   -0.07876  -0.05626  -0.04309  -0.03238  -0.02888
 Alpha virt. eigenvalues --   -0.02438  -0.02246  -0.02120  -0.01284  -0.01084
 Alpha virt. eigenvalues --   -0.00844   0.00057   0.00142   0.00455   0.00532

  Beta  occ. eigenvalues --  -38.46112 -38.45617 -38.44112 -38.44085 -38.43819
  Beta  occ. eigenvalues --  -38.43679 -38.43355  -2.21871  -2.21376  -2.19910
  Beta  occ. eigenvalues --   -2.19820  -2.19670  -2.19454  -2.19150  -1.15549
  Beta  occ. eigenvalues --   -1.15518  -1.15507  -1.15080  -1.15049  -1.14979
  Beta  occ. eigenvalues --   -1.13649  -1.13600  -1.13530  -1.13514  -1.13513
  Beta  occ. eigenvalues --   -1.13490  -1.13382  -1.13361  -1.13276  -1.13130
  Beta  occ. eigenvalues --   -1.13116  -1.13088  -1.12856  -1.12843  -1.12723
  Beta  occ. eigenvalues --   -0.17146  -0.12796  -0.11326
  Beta virt. eigenvalues --   -0.07881  -0.07335  -0.05381  -0.03887  -0.02954
  Beta virt. eigenvalues --   -0.02816  -0.02244  -0.01896  -0.01801  -0.00874
  Beta virt. eigenvalues --   -0.00662  -0.00478   0.00147   0.00233   0.00518

 Mulliken charges and spin densities:
               1          2
     1  Na   0.133926  -0.017543
     2  Na   0.168469   0.020571
     3  Na  -0.261502   0.265849
     4  Na   0.464530  -0.000981
     5  Na   0.763668   0.190264
     6  Na  -0.830516   0.279805
     7  Na  -0.438575   0.262034
 Sum of Mulliken charges =  -0.00000   1.00000

 Dipole moment (field-independent basis, Debye):
    X=             -0.9990    Y=              0.0988    Z=              1.1373  Tot=              1.5170
 Quadrupole moment (field-independent basis, Debye-Ang):
   XX=            -68.5388   YY=            -73.4557   ZZ=            -63.5452
   XY=              1.1257   XZ=             -4.9034   YZ=              1.8480

 Normal termination of Gaussian 16 at Fri Dec  8 19:26:52 2023.
