 Gaussian 16, Revision B.01,
 Gaussian 16:  ES64L-G16RevB.01 20-Dec-2017

 -------------------------
 #P B3LYP/6-311+g(d) force
 -------------------------

 -----
 DPGEN
 -----
 Symbolic Z-matrix:
 Charge =  0 Multiplicity = 2

                         Standard orientation:
 ---------------------------------------------------------------------
 Center     Atomic      Atomic             Coordinates (Angstroms)
 Number     Number       Type             X           Y           Z
 ---------------------------------------------------------------------
      1         11           0       -1.697560    1.338213    1.039871
      2         11           0        0.860857    2.720312   -0.707833
      3         11           0       -0.756939   -0.997938   -1.464954
      4         11           0        2.043262   -2.009401   -1.027246
      5         11           0        0.716930   -1.688709    1.991248
      6         11           0       -4.536649   -0.296256   -0.172990
      7         11           0        3.370099    0.933779    0.341906
 ---------------------------------------------------------------------

 SCF Done:  E(UB3LYP) =  -1136.11683090     A.U. after   26 cycles

 The electronic state is 2-A.
 Alpha  occ. eigenvalues --  -38.45868 -38.45189 -38.44079 -38.43997 -38.43692
 Alpha  occ. eigenvalues --  -38.43292 -38.42957  -2.21603  -2.20984  -2.19909
 Alpha  occ. eigenvalues --   -2.19872  -2.19531  -2.19192  -2.18780  -1.15277
 Alpha  occ. eigenvalues --   -1.15274  -1.15230  -1.14659  -1.14640  -1.14621
 Alpha  occ. eigenvalues --   -1.13619  -1.13576  -1.13559  -1.13531  -1.13516
 Alpha  occ. eigenvalues --   -1.13510  -1.13184  -1.13167  -1.13162  -1.12879
 Alpha  occ. eigenvalues --   -1.12827  -1.12814  -1.12450  -1.12438  -1.12434
 Alpha  occ. eigenvalues --   -0.17717  -0.13457  -0.11829  -0.10651
 Alpha virt. eigenvalues --   -0.07651  -0.04902  -0.04116  -0.03535  -0.03121
 Alpha virt. eigenvalues --   -0.02642  -0.02412  -0.01286  -0.00559  -0.00295
 Alpha virt. eigenvalues --   -0.00186  -0.00030   0.00250   0.00645   0.00835

  Beta  occ. eigenvalues --  -38.45878 -38.45178 -38.44061 -38.43939 -38.43609
  Beta  occ. eigenvalues --  -38.43272 -38.42957  -2.21621  -2.20966  -2.19877
  Beta  occ. eigenvalues --   -2.19768  -2.19376  -2.19160  -2.18780  -1.15287
  Beta  occ. eigenvalues --   -1.15285  -1.15243  -1.14639  -1.14630  -1.14605
  Beta  occ. eigenvalues --   -1.13595  -1.13539  -1.13505  -1.13492  -1.13450
  Beta  occ. eigenvalues --   -1.13423  -1.13080  -1.13061  -1.13053  -1.12845
  Beta  occ. eigenvalues --   -1.12808  -1.12769  -1.12452  -1.12437  -1.12427
  Beta  occ. eigenvalues --   -0.17045  -0.13393  -0.11606
  Beta virt. eigenvalues --   -0.07552  -0.06738  -0.04682  -0.03963  -0.03065
  Beta virt. eigenvalues --   -0.02924  -0.02185  -0.01443  -0.01245  -0.00319
  Beta virt. eigenvalues --   -0.00237  -0.00142   0.00083   0.00413   0.00718

 Mulliken charges and spin densities:
               1          2
     1  Na  -0.298100   0.183180
     2  Na   0.307573  -0.037677
     3  Na  -0.705963   0.316124
     4  Na   0.792480   0.121346
     5  Na  -0.152011   0.459723
     6  Na   0.371127  -0.111386
     7  Na  -0.315106   0.068691
 Sum of Mulliken charges =  -0.00000   1.00000

 Dipole moment (field-independent basis, Debye):
    X=             -1.1381    Y=             -0.2589    Z=              0.1002  Tot=              1.1714
 Quadrupole moment (field-independent basis, Debye-Ang):
   XX=            -43.0980   YY=            -75.6642   ZZ=            -73.4225
   XY=              0.0996   XZ=              0.9643   YZ=             -0.0565

 Normal termination of Gaussian 16 at Sun Dec  3 17:41:50 2023.
