 Gaussian 16, Revision B.01,
 Gaussian 16:  ES64L-G16RevB.01 20-Dec-2017

 -------------------------
 #P B3LYP/6-311+g(d) force
 -------------------------

 -----
 DPGEN
 -----
 Symbolic Z-matrix:
 Charge =  0 Multiplicity = 2

                         Standard orientation:
 ---------------------------------------------------------------------
 Center     Atomic      Atomic             Coordinates (Angstroms)
 Number     Number       Type             X           Y           Z
 ---------------------------------------------------------------------
      1         11           0       -0.480260    2.979247   -0.569578
      2         11           0        2.395427   -2.048780   -0.175758
      3         11           0       -3.238228    0.612674    0.120508
      4         11           0        3.442094    1.076989   -0.003225
      5         11           0       -0.476637   -0.511391   -1.627239
      6         11           0       -1.694607   -2.565663    0.197244
      7         11           0        0.052210    0.456924    2.058047
 ---------------------------------------------------------------------

 SCF Done:  E(UB3LYP) =  -1136.12964732     A.U. after   20 cycles

 The electronic state is 2-A.
 Alpha  occ. eigenvalues --  -38.44749 -38.44726 -38.43963 -38.43743 -38.43500
 Alpha  occ. eigenvalues --  -38.43373 -38.43358  -2.20564  -2.20493  -2.19769
 Alpha  occ. eigenvalues --   -2.19577  -2.19357  -2.19297  -2.19170  -1.14242
 Alpha  occ. eigenvalues --   -1.14227  -1.14196  -1.14164  -1.14162  -1.14133
 Alpha  occ. eigenvalues --   -1.13450  -1.13433  -1.13403  -1.13248  -1.13208
 Alpha  occ. eigenvalues --   -1.13193  -1.13163  -1.13006  -1.12983  -1.12957
 Alpha  occ. eigenvalues --   -1.12913  -1.12889  -1.12841  -1.12829  -1.12805
 Alpha  occ. eigenvalues --   -0.17999  -0.13223  -0.12015  -0.10397
 Alpha virt. eigenvalues --   -0.06376  -0.05431  -0.04587  -0.03235  -0.02837
 Alpha virt. eigenvalues --   -0.02312  -0.01958  -0.01284  -0.00723  -0.00568
 Alpha virt. eigenvalues --   -0.00056   0.00328   0.00696   0.00705   0.00805

  Beta  occ. eigenvalues --  -38.44745 -38.44730 -38.43960 -38.43654 -38.43494
  Beta  occ. eigenvalues --  -38.43359 -38.43302  -2.20559  -2.20501  -2.19765
  Beta  occ. eigenvalues --   -2.19413  -2.19349  -2.19196  -2.19146  -1.14232
  Beta  occ. eigenvalues --   -1.14208  -1.14194  -1.14170  -1.14158  -1.14139
  Beta  occ. eigenvalues --   -1.13441  -1.13421  -1.13404  -1.13142  -1.13131
  Beta  occ. eigenvalues --   -1.13093  -1.13074  -1.12984  -1.12973  -1.12891
  Beta  occ. eigenvalues --   -1.12844  -1.12836  -1.12809  -1.12802  -1.12788
  Beta  occ. eigenvalues --   -0.17299  -0.13078  -0.11788
  Beta virt. eigenvalues --   -0.06560  -0.06259  -0.05446  -0.04465  -0.02545
  Beta virt. eigenvalues --   -0.02125  -0.01866  -0.01324  -0.01244  -0.00714
  Beta virt. eigenvalues --   -0.00599   0.00118   0.00368   0.00758   0.00809

 Mulliken charges and spin densities:
               1          2
     1  Na  -0.170043  -0.053088
     2  Na   0.022817  -0.092722
     3  Na   0.291081   0.060395
     4  Na  -0.015789  -0.069735
     5  Na   0.189766   0.468005
     6  Na   0.064149  -0.033609
     7  Na  -0.381981   0.720754
 Sum of Mulliken charges =  -0.00000   1.00000

 Dipole moment (field-independent basis, Debye):
    X=              0.0223    Y=              0.1066    Z=              0.1394  Tot=              0.1769
 Quadrupole moment (field-independent basis, Debye-Ang):
   XX=            -52.3188   YY=            -64.6793   ZZ=            -76.1846
   XY=              1.1645   XZ=             -1.2108   YZ=             -1.8973

 Normal termination of Gaussian 16 at Fri Dec  8 03:17:39 2023.
