 Gaussian 16, Revision B.01,
 Gaussian 16:  ES64L-G16RevB.01 20-Dec-2017

 -------------------------
 #P B3LYP/6-311+g(d) force
 -------------------------

 -----
 DPGEN
 -----
 Symbolic Z-matrix:
 Charge =  0 Multiplicity = 2

                         Standard orientation:
 ---------------------------------------------------------------------
 Center     Atomic      Atomic             Coordinates (Angstroms)
 Number     Number       Type             X           Y           Z
 ---------------------------------------------------------------------
      1         11           0        0.775885   -1.070936   -0.619827
      2         11           0       -2.059784   -0.516404   -1.455554
      3         11           0        4.565598   -1.615268   -0.232125
      4         11           0       -0.045913    2.996138   -1.180159
      5         11           0       -4.320804   -1.455549    0.497957
      6         11           0        2.296517    0.856285    1.214930
      7         11           0       -1.211499    0.805735    1.774778
 ---------------------------------------------------------------------

 SCF Done:  E(UB3LYP) =  -1136.11493521     A.U. after   27 cycles

 The electronic state is 2-A.
 Alpha  occ. eigenvalues --  -38.44651 -38.44389 -38.44226 -38.44198 -38.44117
 Alpha  occ. eigenvalues --  -38.44095 -38.43546  -2.20561  -2.20149  -2.20045
 Alpha  occ. eigenvalues --   -2.20024  -2.19987  -2.19850  -2.19477  -1.14299
 Alpha  occ. eigenvalues --   -1.14218  -1.14187  -1.13836  -1.13809  -1.13769
 Alpha  occ. eigenvalues --   -1.13751  -1.13713  -1.13708  -1.13700  -1.13679
 Alpha  occ. eigenvalues --   -1.13661  -1.13660  -1.13626  -1.13546  -1.13526
 Alpha  occ. eigenvalues --   -1.13521  -1.13467  -1.13201  -1.13106  -1.13066
 Alpha  occ. eigenvalues --   -0.17971  -0.13566  -0.11524  -0.10919
 Alpha virt. eigenvalues --   -0.07278  -0.05390  -0.04209  -0.03213  -0.02702
 Alpha virt. eigenvalues --   -0.02539  -0.02324  -0.01770  -0.00988  -0.00347
 Alpha virt. eigenvalues --   -0.00231   0.00297   0.00344   0.00564   0.00626

  Beta  occ. eigenvalues --  -38.44609 -38.44375 -38.44216 -38.44135 -38.44102
  Beta  occ. eigenvalues --  -38.44090 -38.43501  -2.20490  -2.20125  -2.20006
  Beta  occ. eigenvalues --   -2.19940  -2.19930  -2.19864  -2.19399  -1.14224
  Beta  occ. eigenvalues --   -1.14174  -1.14129  -1.13822  -1.13777  -1.13756
  Beta  occ. eigenvalues --   -1.13702  -1.13686  -1.13666  -1.13665  -1.13643
  Beta  occ. eigenvalues --   -1.13620  -1.13612  -1.13548  -1.13538  -1.13532
  Beta  occ. eigenvalues --   -1.13506  -1.13470  -1.13142  -1.13050  -1.12995
  Beta  occ. eigenvalues --   -0.17218  -0.13432  -0.11371
  Beta virt. eigenvalues --   -0.07081  -0.06967  -0.05187  -0.03817  -0.02935
  Beta virt. eigenvalues --   -0.02495  -0.02214  -0.01763  -0.01367  -0.00615
  Beta virt. eigenvalues --   -0.00329  -0.00169   0.00402   0.00485   0.00701

 Mulliken charges and spin densities:
               1          2
     1  Na  -1.677934   0.352983
     2  Na   1.066828  -0.039991
     3  Na   0.534305   0.004584
     4  Na  -0.135979   0.041620
     5  Na   0.241561   0.020928
     6  Na   0.180294   0.227999
     7  Na  -0.209075   0.391877
 Sum of Mulliken charges =  -0.00000   1.00000

 Dipole moment (field-independent basis, Debye):
    X=              0.1183    Y=              0.7688    Z=             -0.0745  Tot=              0.7814
 Quadrupole moment (field-independent basis, Debye-Ang):
   XX=            -55.3902   YY=            -67.0572   ZZ=            -71.3258
   XY=              0.7698   XZ=             -1.5365   YZ=             -2.0180

 Normal termination of Gaussian 16 at Fri Dec  8 00:38:59 2023.
