 Gaussian 16, Revision B.01,
 Gaussian 16:  ES64L-G16RevB.01 20-Dec-2017

 -------------------------
 #P B3LYP/6-311+g(d) force
 -------------------------

 -----
 DPGEN
 -----
 Symbolic Z-matrix:
 Charge =  0 Multiplicity = 2

                         Standard orientation:
 ---------------------------------------------------------------------
 Center     Atomic      Atomic             Coordinates (Angstroms)
 Number     Number       Type             X           Y           Z
 ---------------------------------------------------------------------
      1         11           0        3.153043    1.196380   -0.427164
      2         11           0        0.218744   -0.275243    2.243448
      3         11           0       -2.917832    1.076233    0.035026
      4         11           0       -0.048011   -0.275782   -1.466603
      5         11           0       -2.220464   -2.128660   -0.378322
      6         11           0       -0.230975    2.699039   -0.026761
      7         11           0        2.045495   -2.291967    0.020377
 ---------------------------------------------------------------------

 SCF Done:  E(UB3LYP) =  -1136.13269540     A.U. after   19 cycles

 The electronic state is 2-A.
 Alpha  occ. eigenvalues --  -38.44402 -38.43929 -38.43927 -38.43877 -38.43701
 Alpha  occ. eigenvalues --  -38.43209 -38.42937  -2.20188  -2.19803  -2.19756
 Alpha  occ. eigenvalues --   -2.19730  -2.19561  -2.19218  -2.18813  -1.13863
 Alpha  occ. eigenvalues --   -1.13835  -1.13830  -1.13491  -1.13468  -1.13456
 Alpha  occ. eigenvalues --   -1.13451  -1.13437  -1.13379  -1.13378  -1.13352
 Alpha  occ. eigenvalues --   -1.13341  -1.13295  -1.13205  -1.13177  -1.12903
 Alpha  occ. eigenvalues --   -1.12866  -1.12832  -1.12504  -1.12468  -1.12446
 Alpha  occ. eigenvalues --   -0.18543  -0.13264  -0.12165  -0.10818
 Alpha virt. eigenvalues --   -0.05879  -0.05536  -0.04218  -0.03298  -0.02718
 Alpha virt. eigenvalues --   -0.02678  -0.01792  -0.01246  -0.00473  -0.00179
 Alpha virt. eigenvalues --   -0.00053   0.00305   0.00713   0.00811   0.00911

  Beta  occ. eigenvalues --  -38.44392 -38.43926 -38.43925 -38.43767 -38.43693
  Beta  occ. eigenvalues --  -38.43163 -38.42933  -2.20171  -2.19802  -2.19752
  Beta  occ. eigenvalues --   -2.19548  -2.19527  -2.19134  -2.18809  -1.13838
  Beta  occ. eigenvalues --   -1.13825  -1.13821  -1.13494  -1.13470  -1.13447
  Beta  occ. eigenvalues --   -1.13433  -1.13403  -1.13378  -1.13277  -1.13247
  Beta  occ. eigenvalues --   -1.13214  -1.13199  -1.13190  -1.13164  -1.12839
  Beta  occ. eigenvalues --   -1.12810  -1.12769  -1.12502  -1.12450  -1.12438
  Beta  occ. eigenvalues --   -0.17853  -0.13029  -0.11931
  Beta virt. eigenvalues --   -0.06887  -0.05810  -0.05484  -0.04199  -0.02535
  Beta virt. eigenvalues --   -0.01987  -0.01676  -0.01604  -0.01178  -0.00513
  Beta virt. eigenvalues --   -0.00206   0.00117   0.00354   0.00794   0.00812

 Mulliken charges and spin densities:
               1          2
     1  Na   0.105300   0.025710
     2  Na  -0.595574   0.683776
     3  Na   0.151488   0.048690
     4  Na  -0.556729   0.086509
     5  Na   0.558953   0.076565
     6  Na   0.098743   0.061737
     7  Na   0.237819   0.017012
 Sum of Mulliken charges =  -0.00000   1.00000

 Dipole moment (field-independent basis, Debye):
    X=              0.3215    Y=             -0.2287    Z=              0.2139  Tot=              0.4488
 Quadrupole moment (field-independent basis, Debye-Ang):
   XX=            -53.8616   YY=            -65.3537   ZZ=            -74.3733
   XY=              0.2189   XZ=             -0.9591   YZ=             -0.0260

 Normal termination of Gaussian 16 at Thu Dec  7 09:51:27 2023.
