 Gaussian 16, Revision B.01,
 Gaussian 16:  ES64L-G16RevB.01 20-Dec-2017

 -------------------------
 #P B3LYP/6-311+g(d) force
 -------------------------

 -----
 DPGEN
 -----
 Symbolic Z-matrix:
 Charge =  0 Multiplicity = 2

                         Standard orientation:
 ---------------------------------------------------------------------
 Center     Atomic      Atomic             Coordinates (Angstroms)
 Number     Number       Type             X           Y           Z
 ---------------------------------------------------------------------
      1         11           0        0.117029   -2.905571    0.075243
      2         11           0        3.190253   -0.517561   -0.077926
      3         11           0        0.379814   -0.149694   -1.605900
      4         11           0       -1.974102    2.113490   -0.130695
      5         11           0        1.156496    2.631754   -0.028139
      6         11           0       -2.770122   -1.145808   -0.299504
      7         11           0       -0.099368   -0.026609    2.066922
 ---------------------------------------------------------------------

 SCF Done:  E(UB3LYP) =  -1136.13920191     A.U. after   19 cycles

 The electronic state is 2-A.
 Alpha  occ. eigenvalues --  -38.43995 -38.43625 -38.43578 -38.43543 -38.43510
 Alpha  occ. eigenvalues --  -38.43326 -38.43072  -2.19813  -2.19489  -2.19442
 Alpha  occ. eigenvalues --   -2.19435  -2.19391  -2.19212  -2.19074  -1.13507
 Alpha  occ. eigenvalues --   -1.13467  -1.13447  -1.13200  -1.13167  -1.13129
 Alpha  occ. eigenvalues --   -1.13123  -1.13115  -1.13101  -1.13091  -1.13068
 Alpha  occ. eigenvalues --   -1.13061  -1.13056  -1.13043  -1.13029  -1.12872
 Alpha  occ. eigenvalues --   -1.12863  -1.12844  -1.12750  -1.12709  -1.12692
 Alpha  occ. eigenvalues --   -0.18860  -0.12835  -0.12788  -0.10785
 Alpha virt. eigenvalues --   -0.05563  -0.04944  -0.04865  -0.03065  -0.03011
 Alpha virt. eigenvalues --   -0.02573  -0.01447  -0.01122  -0.00308  -0.00222
 Alpha virt. eigenvalues --   -0.00010   0.00361   0.00848   0.00893   0.00920

  Beta  occ. eigenvalues --  -38.43994 -38.43619 -38.43571 -38.43505 -38.43444
  Beta  occ. eigenvalues --  -38.43320 -38.43012  -2.19812  -2.19481  -2.19426
  Beta  occ. eigenvalues --   -2.19385  -2.19258  -2.19206  -2.18965  -1.13498
  Beta  occ. eigenvalues --   -1.13457  -1.13449  -1.13193  -1.13132  -1.13126
  Beta  occ. eigenvalues --   -1.13110  -1.13106  -1.13069  -1.13055  -1.13036
  Beta  occ. eigenvalues --   -1.13025  -1.12981  -1.12934  -1.12926  -1.12866
  Beta  occ. eigenvalues --   -1.12846  -1.12831  -1.12675  -1.12632  -1.12611
  Beta  occ. eigenvalues --   -0.18122  -0.12593  -0.12553
  Beta virt. eigenvalues --   -0.06843  -0.05554  -0.04903  -0.04847  -0.02257
  Beta virt. eigenvalues --   -0.02233  -0.01503  -0.01358  -0.01049  -0.00359
  Beta virt. eigenvalues --   -0.00276   0.00133   0.00385   0.00862   0.00908

 Mulliken charges and spin densities:
               1          2
     1  Na   0.220315  -0.050137
     2  Na   0.199366  -0.095227
     3  Na  -0.374763   0.439459
     4  Na   0.134287   0.002014
     5  Na   0.228003  -0.042356
     6  Na   0.156764  -0.001527
     7  Na  -0.563972   0.747774
 Sum of Mulliken charges =  -0.00000   1.00000

 Dipole moment (field-independent basis, Debye):
    X=              0.2748    Y=             -0.1777    Z=              0.1697  Tot=              0.3686
 Quadrupole moment (field-independent basis, Debye-Ang):
   XX=            -57.8175   YY=            -61.5098   ZZ=            -74.2409
   XY=             -0.0311   XZ=              1.1652   YZ=             -0.2339

 Normal termination of Gaussian 16 at Fri Dec  8 00:17:32 2023.
