 Gaussian 16, Revision B.01,
 Gaussian 16:  ES64L-G16RevB.01 20-Dec-2017

 -------------------------
 #P B3LYP/6-311+g(d) force
 -------------------------

 -----
 DPGEN
 -----
 Symbolic Z-matrix:
 Charge =  0 Multiplicity = 2

                         Standard orientation:
 ---------------------------------------------------------------------
 Center     Atomic      Atomic             Coordinates (Angstroms)
 Number     Number       Type             X           Y           Z
 ---------------------------------------------------------------------
      1         11           0        1.878927    2.781820    0.543548
      2         11           0       -1.605809    1.951440   -0.692862
      3         11           0        2.480788    0.041239   -0.796674
      4         11           0       -3.648455   -0.683752    0.601647
      5         11           0       -1.062619   -0.925987   -1.676508
      6         11           0        2.050778   -2.784182    0.207636
      7         11           0       -0.093610   -0.380578    1.813214
 ---------------------------------------------------------------------

 SCF Done:  E(UB3LYP) =  -1136.12871214     A.U. after   21 cycles

 The electronic state is 2-A.
 Alpha  occ. eigenvalues --  -38.44760 -38.44138 -38.43992 -38.43832 -38.43742
 Alpha  occ. eigenvalues --  -38.43437 -38.43024  -2.20564  -2.19997  -2.19853
 Alpha  occ. eigenvalues --   -2.19734  -2.19662  -2.19277  -2.18851  -1.14238
 Alpha  occ. eigenvalues --   -1.14218  -1.14197  -1.13755  -1.13663  -1.13587
 Alpha  occ. eigenvalues --   -1.13544  -1.13487  -1.13471  -1.13419  -1.13373
 Alpha  occ. eigenvalues --   -1.13368  -1.13334  -1.13331  -1.13312  -1.12947
 Alpha  occ. eigenvalues --   -1.12924  -1.12904  -1.12543  -1.12500  -1.12479
 Alpha  occ. eigenvalues --   -0.18286  -0.13619  -0.11876  -0.10757
 Alpha virt. eigenvalues --   -0.06225  -0.05364  -0.04313  -0.03646  -0.02646
 Alpha virt. eigenvalues --   -0.02496  -0.02043  -0.01169  -0.00503  -0.00252
 Alpha virt. eigenvalues --    0.00140   0.00303   0.00611   0.00686   0.00727

  Beta  occ. eigenvalues --  -38.44748 -38.44115 -38.43919 -38.43768 -38.43732
  Beta  occ. eigenvalues --  -38.43440 -38.43023  -2.20544  -2.19961  -2.19720
  Beta  occ. eigenvalues --   -2.19647  -2.19619  -2.19283  -2.18851  -1.14225
  Beta  occ. eigenvalues --   -1.14189  -1.14184  -1.13715  -1.13616  -1.13568
  Beta  occ. eigenvalues --   -1.13454  -1.13393  -1.13377  -1.13362  -1.13344
  Beta  occ. eigenvalues --   -1.13315  -1.13296  -1.13277  -1.13240  -1.12952
  Beta  occ. eigenvalues --   -1.12917  -1.12906  -1.12544  -1.12490  -1.12479
  Beta  occ. eigenvalues --   -0.17566  -0.13425  -0.11736
  Beta virt. eigenvalues --   -0.06885  -0.06029  -0.05278  -0.04190  -0.03013
  Beta virt. eigenvalues --   -0.02091  -0.01872  -0.01578  -0.01091  -0.00383
  Beta virt. eigenvalues --   -0.00138   0.00204   0.00343   0.00722   0.00771

 Mulliken charges and spin densities:
               1          2
     1  Na   0.293547  -0.126454
     2  Na  -0.085681   0.099031
     3  Na  -0.116005   0.145699
     4  Na   0.083392  -0.004532
     5  Na   0.076563   0.308080
     6  Na   0.145995  -0.101889
     7  Na  -0.397811   0.680066
 Sum of Mulliken charges =  -0.00000   1.00000

 Dipole moment (field-independent basis, Debye):
    X=             -1.1244    Y=             -0.3691    Z=              0.1458  Tot=              1.1923
 Quadrupole moment (field-independent basis, Debye-Ang):
   XX=            -55.1573   YY=            -65.8511   ZZ=            -73.0199
   XY=             -0.1391   XZ=             -1.3047   YZ=             -0.1314

 Normal termination of Gaussian 16 at Tue Dec  5 16:45:57 2023.
