 Gaussian 16, Revision B.01,
 Gaussian 16:  ES64L-G16RevB.01 20-Dec-2017

 -------------------------
 #P B3LYP/6-311+g(d) force
 -------------------------

 -----
 DPGEN
 -----
 Symbolic Z-matrix:
 Charge =  0 Multiplicity = 2

                         Standard orientation:
 ---------------------------------------------------------------------
 Center     Atomic      Atomic             Coordinates (Angstroms)
 Number     Number       Type             X           Y           Z
 ---------------------------------------------------------------------
      1         11           0        2.099644    2.233490    0.267418
      2         11           0        3.328769   -1.207750   -0.075842
      3         11           0       -0.573681   -3.019661   -0.216678
      4         11           0        0.485244   -0.071947   -1.345969
      5         11           0       -0.620183    0.028160    2.153368
      6         11           0       -1.646877    2.743649   -0.595114
      7         11           0       -3.072917   -0.705941   -0.187184
 ---------------------------------------------------------------------

 SCF Done:  E(UB3LYP) =  -1136.13369744     A.U. after   19 cycles

 The electronic state is 2-A.
 Alpha  occ. eigenvalues --  -38.44405 -38.44171 -38.44116 -38.43690 -38.43558
 Alpha  occ. eigenvalues --  -38.43525 -38.43051  -2.20189  -2.20000  -2.19931
 Alpha  occ. eigenvalues --   -2.19514  -2.19381  -2.19354  -2.19019  -1.13870
 Alpha  occ. eigenvalues --   -1.13845  -1.13828  -1.13678  -1.13664  -1.13639
 Alpha  occ. eigenvalues --   -1.13631  -1.13598  -1.13544  -1.13206  -1.13174
 Alpha  occ. eigenvalues --   -1.13142  -1.13041  -1.13029  -1.13014  -1.13003
 Alpha  occ. eigenvalues --   -1.12996  -1.12988  -1.12719  -1.12671  -1.12638
 Alpha  occ. eigenvalues --   -0.18080  -0.13089  -0.12247  -0.10307
 Alpha virt. eigenvalues --   -0.05921  -0.05498  -0.04898  -0.03139  -0.02673
 Alpha virt. eigenvalues --   -0.02266  -0.01752  -0.01336  -0.00717  -0.00677
 Alpha virt. eigenvalues --   -0.00031   0.00309   0.00722   0.00771   0.00811

  Beta  occ. eigenvalues --  -38.44407 -38.44165 -38.44111 -38.43685 -38.43542
  Beta  occ. eigenvalues --  -38.43422 -38.43012  -2.20195  -2.19993  -2.19924
  Beta  occ. eigenvalues --   -2.19507  -2.19326  -2.19191  -2.18949  -1.13867
  Beta  occ. eigenvalues --   -1.13848  -1.13833  -1.13665  -1.13650  -1.13631
  Beta  occ. eigenvalues --   -1.13625  -1.13576  -1.13544  -1.13198  -1.13156
  Beta  occ. eigenvalues --   -1.13138  -1.12999  -1.12986  -1.12976  -1.12912
  Beta  occ. eigenvalues --   -1.12880  -1.12855  -1.12660  -1.12621  -1.12585
  Beta  occ. eigenvalues --   -0.17415  -0.12911  -0.12010
  Beta virt. eigenvalues --   -0.06458  -0.05875  -0.05411  -0.04815  -0.02424
  Beta virt. eigenvalues --   -0.02018  -0.01685  -0.01282  -0.01210  -0.00752
  Beta virt. eigenvalues --   -0.00672   0.00152   0.00366   0.00774   0.00800

 Mulliken charges and spin densities:
               1          2
     1  Na   0.054207   0.019001
     2  Na   0.057251  -0.065652
     3  Na  -0.009130  -0.071800
     4  Na   0.078752   0.293264
     5  Na  -0.464103   0.702652
     6  Na  -0.009243   0.056441
     7  Na   0.292267   0.066093
 Sum of Mulliken charges =  -0.00000   1.00000

 Dipole moment (field-independent basis, Debye):
    X=              0.3400    Y=             -0.1515    Z=              0.1419  Tot=              0.3983
 Quadrupole moment (field-independent basis, Debye-Ang):
   XX=            -54.3654   YY=            -61.0404   ZZ=            -76.7858
   XY=             -0.2259   XZ=              2.2876   YZ=             -0.0624

 Normal termination of Gaussian 16 at Thu Dec  7 22:18:40 2023.
