 Gaussian 16, Revision B.01,
 Gaussian 16:  ES64L-G16RevB.01 20-Dec-2017

 -------------------------
 #P B3LYP/6-311+g(d) force
 -------------------------

 -----
 DPGEN
 -----
 Symbolic Z-matrix:
 Charge =  0 Multiplicity = 2

                         Standard orientation:
 ---------------------------------------------------------------------
 Center     Atomic      Atomic             Coordinates (Angstroms)
 Number     Number       Type             X           Y           Z
 ---------------------------------------------------------------------
      1         11           0       -0.582718   -2.518363   -0.413166
      2         11           0       -0.043526   -0.069411    2.096798
      3         11           0        2.396785    1.654252   -0.189478
      4         11           0       -0.063758    0.283677   -1.624385
      5         11           0       -3.188775   -0.643017    0.017253
      6         11           0       -1.252970    2.759245    0.013264
      7         11           0        2.734962   -1.466383    0.099714
 ---------------------------------------------------------------------

 SCF Done:  E(UB3LYP) =  -1136.13575474     A.U. after   19 cycles

 The electronic state is 2-A.
 Alpha  occ. eigenvalues --  -38.44322 -38.43800 -38.43739 -38.43666 -38.43393
 Alpha  occ. eigenvalues --  -38.43178 -38.43026  -2.20145  -2.19682  -2.19622
 Alpha  occ. eigenvalues --   -2.19527  -2.19224  -2.19196  -2.18943  -1.13818
 Alpha  occ. eigenvalues --   -1.13810  -1.13783  -1.13410  -1.13358  -1.13321
 Alpha  occ. eigenvalues --   -1.13289  -1.13248  -1.13239  -1.13179  -1.13173
 Alpha  occ. eigenvalues --   -1.13164  -1.12964  -1.12906  -1.12884  -1.12851
 Alpha  occ. eigenvalues --   -1.12831  -1.12789  -1.12620  -1.12592  -1.12558
 Alpha  occ. eigenvalues --   -0.18871  -0.13192  -0.12323  -0.10898
 Alpha virt. eigenvalues --   -0.05818  -0.05123  -0.04323  -0.03275  -0.02851
 Alpha virt. eigenvalues --   -0.02690  -0.01670  -0.01076  -0.00253  -0.00125
 Alpha virt. eigenvalues --   -0.00003   0.00354   0.00782   0.00871   0.00944

  Beta  occ. eigenvalues --  -38.44322 -38.43793 -38.43663 -38.43641 -38.43390
  Beta  occ. eigenvalues --  -38.43113 -38.43012  -2.20146  -2.19673  -2.19525
  Beta  occ. eigenvalues --   -2.19442  -2.19222  -2.19077  -2.18923  -1.13821
  Beta  occ. eigenvalues --   -1.13794  -1.13784  -1.13404  -1.13338  -1.13305
  Beta  occ. eigenvalues --   -1.13184  -1.13169  -1.13163  -1.13154  -1.13122
  Beta  occ. eigenvalues --   -1.13103  -1.12941  -1.12870  -1.12851  -1.12828
  Beta  occ. eigenvalues --   -1.12757  -1.12713  -1.12595  -1.12554  -1.12543
  Beta  occ. eigenvalues --   -0.18123  -0.12970  -0.12077
  Beta virt. eigenvalues --   -0.06936  -0.05781  -0.05114  -0.04311  -0.02479
  Beta virt. eigenvalues --   -0.02072  -0.01597  -0.01567  -0.01020  -0.00307
  Beta virt. eigenvalues --   -0.00143   0.00122   0.00374   0.00840   0.00859

 Mulliken charges and spin densities:
               1          2
     1  Na   0.319072   0.034366
     2  Na  -0.647307   0.787810
     3  Na   0.298672  -0.040611
     4  Na  -0.266250   0.350111
     5  Na   0.088719  -0.057094
     6  Na   0.057333  -0.097454
     7  Na   0.149761   0.022871
 Sum of Mulliken charges =  -0.00000   1.00000

 Dipole moment (field-independent basis, Debye):
    X=             -0.2454    Y=              0.1169    Z=              0.2785  Tot=              0.3891
 Quadrupole moment (field-independent basis, Debye-Ang):
   XX=            -54.6372   YY=            -65.0657   ZZ=            -73.7983
   XY=             -0.5932   XZ=             -0.2384   YZ=              0.5911

 Normal termination of Gaussian 16 at Thu Dec  7 10:45:34 2023.
