 Gaussian 16, Revision B.01,
 Gaussian 16:  ES64L-G16RevB.01 20-Dec-2017

 -------------------------
 #P B3LYP/6-311+g(d) force
 -------------------------

 -----
 DPGEN
 -----
 Symbolic Z-matrix:
 Charge =  0 Multiplicity = 2

                         Standard orientation:
 ---------------------------------------------------------------------
 Center     Atomic      Atomic             Coordinates (Angstroms)
 Number     Number       Type             X           Y           Z
 ---------------------------------------------------------------------
      1         11           0       -0.324001   -1.176020   -1.814859
      2         11           0        3.795691    1.198454    0.991446
      3         11           0       -4.237947   -0.583151    0.663993
      4         11           0       -2.257430    1.827901   -0.995419
      5         11           0       -0.746136   -1.299895    1.927222
      6         11           0        0.715434    1.857586   -0.005456
      7         11           0        3.054389   -1.824874   -0.766926
 ---------------------------------------------------------------------

 SCF Done:  E(UB3LYP) =  -1136.11169852     A.U. after   31 cycles

 The electronic state is 2-A.
 Alpha  occ. eigenvalues --  -38.45456 -38.45075 -38.44727 -38.44613 -38.44255
 Alpha  occ. eigenvalues --  -38.43276 -38.43047  -2.21177  -2.20857  -2.20507
 Alpha  occ. eigenvalues --   -2.20451  -2.20070  -2.19126  -2.18925  -1.14881
 Alpha  occ. eigenvalues --   -1.14855  -1.14805  -1.14518  -1.14504  -1.14469
 Alpha  occ. eigenvalues --   -1.14186  -1.14156  -1.14146  -1.14119  -1.14090
 Alpha  occ. eigenvalues --   -1.14054  -1.13729  -1.13719  -1.13695  -1.12852
 Alpha  occ. eigenvalues --   -1.12793  -1.12765  -1.12610  -1.12586  -1.12540
 Alpha  occ. eigenvalues --   -0.17521  -0.13956  -0.11441  -0.11072
 Alpha virt. eigenvalues --   -0.07479  -0.05482  -0.04492  -0.03270  -0.03190
 Alpha virt. eigenvalues --   -0.02608  -0.02247  -0.01523  -0.01181  -0.00359
 Alpha virt. eigenvalues --   -0.00178   0.00108   0.00257   0.00349   0.00482

  Beta  occ. eigenvalues --  -38.45488 -38.45017 -38.44693 -38.44530 -38.44207
  Beta  occ. eigenvalues --  -38.43281 -38.43023  -2.21237  -2.20747  -2.20445
  Beta  occ. eigenvalues --   -2.20298  -2.19981  -2.19140  -2.18887  -1.14922
  Beta  occ. eigenvalues --   -1.14895  -1.14840  -1.14440  -1.14432  -1.14398
  Beta  occ. eigenvalues --   -1.14138  -1.14113  -1.14089  -1.14021  -1.13991
  Beta  occ. eigenvalues --   -1.13935  -1.13665  -1.13660  -1.13636  -1.12848
  Beta  occ. eigenvalues --   -1.12790  -1.12772  -1.12592  -1.12553  -1.12495
  Beta  occ. eigenvalues --   -0.16965  -0.13348  -0.10901
  Beta virt. eigenvalues --   -0.07814  -0.07392  -0.05064  -0.03929  -0.03114
  Beta virt. eigenvalues --   -0.02829  -0.02307  -0.01803  -0.01344  -0.00853
  Beta virt. eigenvalues --   -0.00197  -0.00106   0.00186   0.00379   0.00542

 Mulliken charges and spin densities:
               1          2
     1  Na   0.040287   0.372860
     2  Na   0.513718   0.279497
     3  Na   0.056240   0.246884
     4  Na   0.512051  -0.056189
     5  Na  -0.110074  -0.077942
     6  Na  -0.930532   0.069850
     7  Na  -0.081690   0.165040
 Sum of Mulliken charges =  -0.00000   1.00000

 Dipole moment (field-independent basis, Debye):
    X=             -0.1565    Y=             -0.7471    Z=              0.0446  Tot=              0.7647
 Quadrupole moment (field-independent basis, Debye-Ang):
   XX=            -52.0832   YY=            -78.1500   ZZ=            -68.2514
   XY=             -2.9168   XZ=              3.4739   YZ=              3.1261

 Normal termination of Gaussian 16 at Mon Dec  4 00:18:49 2023.
