 Gaussian 16, Revision B.01,
 Gaussian 16:  ES64L-G16RevB.01 20-Dec-2017

 -------------------------
 #P B3LYP/6-311+g(d) force
 -------------------------

 -----
 DPGEN
 -----
 Symbolic Z-matrix:
 Charge =  0 Multiplicity = 2

                         Standard orientation:
 ---------------------------------------------------------------------
 Center     Atomic      Atomic             Coordinates (Angstroms)
 Number     Number       Type             X           Y           Z
 ---------------------------------------------------------------------
      1         11           0       -1.605727   -2.362637    0.339127
      2         11           0        0.294760    3.043491    0.500003
      3         11           0        0.044562    0.171780   -1.670007
      4         11           0        1.958403   -2.194928    0.591637
      5         11           0       -1.221789    0.703283    1.981756
      6         11           0       -3.109762    0.276532   -1.196594
      7         11           0        3.639553    0.362479   -0.545922
 ---------------------------------------------------------------------

 SCF Done:  E(UB3LYP) =  -1136.12982147     A.U. after   20 cycles

 The electronic state is 2-A.
 Alpha  occ. eigenvalues --  -38.44535 -38.44471 -38.44013 -38.43845 -38.43616
 Alpha  occ. eigenvalues --  -38.43270 -38.43224  -2.20394  -2.20257  -2.19910
 Alpha  occ. eigenvalues --   -2.19726  -2.19432  -2.19130  -2.19039  -1.14089
 Alpha  occ. eigenvalues --   -1.14024  -1.14015  -1.13935  -1.13915  -1.13891
 Alpha  occ. eigenvalues --   -1.13591  -1.13551  -1.13539  -1.13396  -1.13364
 Alpha  occ. eigenvalues --   -1.13357  -1.13105  -1.13099  -1.13072  -1.12806
 Alpha  occ. eigenvalues --   -1.12796  -1.12765  -1.12726  -1.12691  -1.12671
 Alpha  occ. eigenvalues --   -0.18062  -0.13238  -0.12039  -0.11220
 Alpha virt. eigenvalues --   -0.06172  -0.05011  -0.04626  -0.03256  -0.03000
 Alpha virt. eigenvalues --   -0.02762  -0.01983  -0.00934  -0.00669  -0.00189
 Alpha virt. eigenvalues --   -0.00101   0.00284   0.00554   0.00822   0.00841

  Beta  occ. eigenvalues --  -38.44487 -38.44466 -38.43959 -38.43773 -38.43610
  Beta  occ. eigenvalues --  -38.43257 -38.43218  -2.20309  -2.20248  -2.19814
  Beta  occ. eigenvalues --   -2.19592  -2.19423  -2.19110  -2.19032  -1.14016
  Beta  occ. eigenvalues --   -1.13967  -1.13956  -1.13927  -1.13907  -1.13885
  Beta  occ. eigenvalues --   -1.13525  -1.13491  -1.13454  -1.13307  -1.13271
  Beta  occ. eigenvalues --   -1.13259  -1.13098  -1.13094  -1.13055  -1.12793
  Beta  occ. eigenvalues --   -1.12774  -1.12736  -1.12710  -1.12681  -1.12665
  Beta  occ. eigenvalues --   -0.17381  -0.13035  -0.11723
  Beta virt. eigenvalues --   -0.07403  -0.06012  -0.04843  -0.04387  -0.02884
  Beta virt. eigenvalues --   -0.02362  -0.01958  -0.01671  -0.00842  -0.00528
  Beta virt. eigenvalues --   -0.00153   0.00042   0.00351   0.00674   0.00868

 Mulliken charges and spin densities:
               1          2
     1  Na  -0.069908   0.245505
     2  Na  -0.363144  -0.075726
     3  Na  -0.132057   0.303910
     4  Na  -0.440356   0.003184
     5  Na   0.062683   0.436700
     6  Na   0.500729   0.070231
     7  Na   0.442053   0.016196
 Sum of Mulliken charges =  -0.00000   1.00000

 Dipole moment (field-independent basis, Debye):
    X=             -0.0194    Y=              0.1680    Z=             -0.1276  Tot=              0.2118
 Quadrupole moment (field-independent basis, Debye-Ang):
   XX=            -54.7098   YY=            -69.1314   ZZ=            -71.4664
   XY=              1.7676   XZ=              0.6945   YZ=             -2.2657

 Normal termination of Gaussian 16 at Tue Dec  5 23:07:19 2023.
