 Gaussian 16, Revision B.01,
 Gaussian 16:  ES64L-G16RevB.01 20-Dec-2017

 -------------------------
 #P B3LYP/6-311+g(d) force
 -------------------------

 -----
 DPGEN
 -----
 Symbolic Z-matrix:
 Charge =  0 Multiplicity = 2

                         Standard orientation:
 ---------------------------------------------------------------------
 Center     Atomic      Atomic             Coordinates (Angstroms)
 Number     Number       Type             X           Y           Z
 ---------------------------------------------------------------------
      1         11           0        2.498470    2.290762    1.516930
      2         11           0       -4.032022   -0.784911    0.703662
      3         11           0       -1.776846   -2.929344    0.391560
      4         11           0        2.045480   -3.198242   -0.268422
      5         11           0        4.046938   -0.882800   -0.808875
      6         11           0       -3.123799    1.690895   -1.180183
      7         11           0        0.341779    3.813639   -0.354671
 ---------------------------------------------------------------------

 SCF Done:  E(UB3LYP) =  -1136.10646215     A.U. after   19 cycles

 The electronic state is 2-A.
 Alpha  occ. eigenvalues --  -38.44644 -38.44614 -38.44510 -38.44489 -38.44403
 Alpha  occ. eigenvalues --  -38.44344 -38.44151  -2.20426  -2.20415  -2.20315
 Alpha  occ. eigenvalues --   -2.20273  -2.20207  -2.20131  -2.19967  -1.14106
 Alpha  occ. eigenvalues --   -1.14098  -1.14084  -1.14068  -1.14065  -1.14046
 Alpha  occ. eigenvalues --   -1.14024  -1.14002  -1.13976  -1.13945  -1.13933
 Alpha  occ. eigenvalues --   -1.13903  -1.13853  -1.13836  -1.13817  -1.13800
 Alpha  occ. eigenvalues --   -1.13790  -1.13770  -1.13615  -1.13601  -1.13590
 Alpha  occ. eigenvalues --   -0.15545  -0.13936  -0.13257  -0.10717
 Alpha virt. eigenvalues --   -0.07421  -0.05114  -0.04412  -0.03585  -0.03319
 Alpha virt. eigenvalues --   -0.02373  -0.02095  -0.01676  -0.01294  -0.01188
 Alpha virt. eigenvalues --   -0.00690  -0.00149   0.00160   0.00344   0.00634

  Beta  occ. eigenvalues --  -38.44607 -38.44576 -38.44513 -38.44494 -38.44343
  Beta  occ. eigenvalues --  -38.44320 -38.44080  -2.20358  -2.20345  -2.20332
  Beta  occ. eigenvalues --   -2.20282  -2.20135  -2.20052  -2.19835  -1.14058
  Beta  occ. eigenvalues --   -1.14057  -1.14039  -1.14020  -1.14018  -1.14017
  Beta  occ. eigenvalues --   -1.13995  -1.13994  -1.13974  -1.13955  -1.13940
  Beta  occ. eigenvalues --   -1.13883  -1.13806  -1.13796  -1.13746  -1.13740
  Beta  occ. eigenvalues --   -1.13734  -1.13722  -1.13525  -1.13514  -1.13506
  Beta  occ. eigenvalues --   -0.14982  -0.13335  -0.12634
  Beta virt. eigenvalues --   -0.07554  -0.07363  -0.04640  -0.04143  -0.03331
  Beta virt. eigenvalues --   -0.02918  -0.02209  -0.01812  -0.01477  -0.01256
  Beta virt. eigenvalues --   -0.00894  -0.00364   0.00073   0.00305   0.00396

 Mulliken charges and spin densities:
               1          2
     1  Na  -0.128270   0.165574
     2  Na   0.263001  -0.029248
     3  Na  -0.102613   0.344061
     4  Na   0.124408  -0.006141
     5  Na  -0.092038   0.153951
     6  Na  -0.149079   0.397439
     7  Na   0.084593  -0.025635
 Sum of Mulliken charges =  -0.00000   1.00000

 Dipole moment (field-independent basis, Debye):
    X=              0.4282    Y=              0.3341    Z=              0.0587  Tot=              0.5462
 Quadrupole moment (field-independent basis, Debye-Ang):
   XX=            -63.6301   YY=            -70.2103   ZZ=            -68.7984
   XY=              1.3112   XZ=             -0.6896   YZ=             -2.6966

 Normal termination of Gaussian 16 at Mon Dec  4 00:40:29 2023.
