 Gaussian 16, Revision B.01,
 Gaussian 16:  ES64L-G16RevB.01 20-Dec-2017

 -------------------------
 #P B3LYP/6-311+g(d) force
 -------------------------

 -----
 DPGEN
 -----
 Symbolic Z-matrix:
 Charge =  0 Multiplicity = 2

                         Standard orientation:
 ---------------------------------------------------------------------
 Center     Atomic      Atomic             Coordinates (Angstroms)
 Number     Number       Type             X           Y           Z
 ---------------------------------------------------------------------
      1         11           0        1.791403   -2.368526    0.061949
      2         11           0       -1.798071    2.935458    0.751706
      3         11           0       -1.410864   -1.298462    2.353144
      4         11           0       -2.469361   -2.263517   -1.191877
      5         11           0       -1.416415    0.476769   -1.592545
      6         11           0        1.391357    2.807402   -0.340226
      7         11           0        3.911952   -0.289125   -0.042151
 ---------------------------------------------------------------------

 SCF Done:  E(UB3LYP) =  -1136.11780121     A.U. after   19 cycles

 The electronic state is 2-A.
 Alpha  occ. eigenvalues --  -38.44714 -38.44520 -38.44430 -38.44356 -38.43965
 Alpha  occ. eigenvalues --  -38.43888 -38.43745  -2.20483  -2.20323  -2.20229
 Alpha  occ. eigenvalues --   -2.20139  -2.19848  -2.19731  -2.19559  -1.14175
 Alpha  occ. eigenvalues --   -1.14156  -1.14110  -1.13997  -1.13975  -1.13944
 Alpha  occ. eigenvalues --   -1.13943  -1.13896  -1.13868  -1.13790  -1.13775
 Alpha  occ. eigenvalues --   -1.13750  -1.13628  -1.13516  -1.13490  -1.13368
 Alpha  occ. eigenvalues --   -1.13339  -1.13325  -1.13233  -1.13208  -1.13188
 Alpha  occ. eigenvalues --   -0.16870  -0.12982  -0.12928  -0.10865
 Alpha virt. eigenvalues --   -0.06307  -0.05503  -0.05009  -0.03516  -0.02871
 Alpha virt. eigenvalues --   -0.02694  -0.01605  -0.01373  -0.01159  -0.00664
 Alpha virt. eigenvalues --   -0.00254   0.00230   0.00435   0.00473   0.00678

  Beta  occ. eigenvalues --  -38.44715 -38.44507 -38.44430 -38.44256 -38.43916
  Beta  occ. eigenvalues --  -38.43856 -38.43747  -2.20485  -2.20298  -2.20229
  Beta  occ. eigenvalues --   -2.19952  -2.19762  -2.19676  -2.19562  -1.14172
  Beta  occ. eigenvalues --   -1.14158  -1.14111  -1.13980  -1.13956  -1.13946
  Beta  occ. eigenvalues --   -1.13926  -1.13886  -1.13870  -1.13662  -1.13645
  Beta  occ. eigenvalues --   -1.13626  -1.13567  -1.13459  -1.13420  -1.13333
  Beta  occ. eigenvalues --   -1.13293  -1.13266  -1.13236  -1.13208  -1.13190
  Beta  occ. eigenvalues --   -0.16348  -0.12892  -0.12594
  Beta virt. eigenvalues --   -0.07021  -0.06146  -0.05318  -0.04726  -0.03037
  Beta virt. eigenvalues --   -0.02507  -0.01820  -0.01484  -0.01296  -0.01066
  Beta virt. eigenvalues --   -0.00637   0.00076   0.00405   0.00536   0.00684

 Mulliken charges and spin densities:
               1          2
     1  Na  -0.344204   0.076533
     2  Na   0.220817   0.124757
     3  Na  -0.089360   0.601084
     4  Na   0.311327   0.029116
     5  Na  -0.157420   0.236400
     6  Na  -0.154949   0.011745
     7  Na   0.213789  -0.079635
 Sum of Mulliken charges =  -0.00000   1.00000

 Dipole moment (field-independent basis, Debye):
    X=             -0.1172    Y=              0.6935    Z=              0.1513  Tot=              0.7194
 Quadrupole moment (field-independent basis, Debye-Ang):
   XX=            -63.4452   YY=            -61.6281   ZZ=            -74.1572
   XY=              1.9530   XZ=             -1.8248   YZ=              2.0445

 Normal termination of Gaussian 16 at Sun Dec  3 22:03:34 2023.
