 Gaussian 16, Revision B.01,
 Gaussian 16:  ES64L-G16RevB.01 20-Dec-2017

 -------------------------
 #P B3LYP/6-311+g(d) force
 -------------------------

 -----
 DPGEN
 -----
 Symbolic Z-matrix:
 Charge =  0 Multiplicity = 2

                         Standard orientation:
 ---------------------------------------------------------------------
 Center     Atomic      Atomic             Coordinates (Angstroms)
 Number     Number       Type             X           Y           Z
 ---------------------------------------------------------------------
      1         11           0       -0.067259   -0.367935    1.805271
      2         11           0        0.397317   -2.123740   -0.411254
      3         11           0       -2.314517   -1.282385    0.133848
      4         11           0       -1.918317    1.650266   -0.318017
      5         11           0        0.836041    2.078187    0.538175
      6         11           0        0.316400    0.347669   -1.784052
      7         11           0        2.750334   -0.302062    0.036029
 ---------------------------------------------------------------------

 SCF Done:  E(UB3LYP) =  -1136.10305521     A.U. after   19 cycles

 The electronic state is 2-A.
 Alpha  occ. eigenvalues --  -38.43985 -38.43978 -38.43616 -38.43550 -38.43366
 Alpha  occ. eigenvalues --  -38.43275 -38.43250  -2.20150  -2.20149  -2.19622
 Alpha  occ. eigenvalues --   -2.19581  -2.19408  -2.19404  -2.19344  -1.13951
 Alpha  occ. eigenvalues --   -1.13899  -1.13880  -1.13831  -1.13781  -1.13762
 Alpha  occ. eigenvalues --   -1.13377  -1.13321  -1.13302  -1.13290  -1.13257
 Alpha  occ. eigenvalues --   -1.13212  -1.13196  -1.13050  -1.13043  -1.13029
 Alpha  occ. eigenvalues --   -1.12999  -1.12977  -1.12966  -1.12918  -1.12852
 Alpha  occ. eigenvalues --   -0.21075  -0.13635  -0.12860  -0.12135
 Alpha virt. eigenvalues --   -0.05111  -0.04337  -0.04114  -0.03600  -0.03289
 Alpha virt. eigenvalues --   -0.02998  -0.01158  -0.00501  -0.00107   0.00369
 Alpha virt. eigenvalues --    0.00692   0.00723   0.01021   0.01114   0.01161

  Beta  occ. eigenvalues --  -38.43895 -38.43890 -38.43609 -38.43543 -38.43356
  Beta  occ. eigenvalues --  -38.43254 -38.43228  -2.19991  -2.19987  -2.19613
  Beta  occ. eigenvalues --   -2.19573  -2.19391  -2.19377  -2.19311  -1.13860
  Beta  occ. eigenvalues --   -1.13785  -1.13767  -1.13724  -1.13672  -1.13648
  Beta  occ. eigenvalues --   -1.13369  -1.13312  -1.13299  -1.13282  -1.13214
  Beta  occ. eigenvalues --   -1.13187  -1.13161  -1.13023  -1.13005  -1.12979
  Beta  occ. eigenvalues --   -1.12963  -1.12950  -1.12906  -1.12902  -1.12837
  Beta  occ. eigenvalues --   -0.20260  -0.13302  -0.12536
  Beta virt. eigenvalues --   -0.07954  -0.05118  -0.04326  -0.04098  -0.02693
  Beta virt. eigenvalues --   -0.02413  -0.01842  -0.01090  -0.00463   0.00049
  Beta virt. eigenvalues --    0.00393   0.00671   0.00700   0.01059   0.01097

 Mulliken charges and spin densities:
               1          2
     1  Na  -0.296469   0.426394
     2  Na   0.154213   0.094300
     3  Na   0.115342   0.016534
     4  Na   0.103908   0.032109
     5  Na   0.183363   0.109586
     6  Na  -0.256414   0.429537
     7  Na  -0.003942  -0.108461
 Sum of Mulliken charges =  -0.00000   1.00000

 Dipole moment (field-independent basis, Debye):
    X=              0.1015    Y=              0.0444    Z=              0.0348  Tot=              0.1161
 Quadrupole moment (field-independent basis, Debye-Ang):
   XX=            -59.2385   YY=            -69.3566   ZZ=            -68.5021
   XY=             -0.0907   XZ=              0.7004   YZ=              0.7812

 Normal termination of Gaussian 16 at Sat Dec  9 05:37:42 2023.
