 Gaussian 16, Revision B.01,
 Gaussian 16:  ES64L-G16RevB.01 20-Dec-2017

 -------------------------
 #P B3LYP/6-311+g(d) force
 -------------------------

 -----
 DPGEN
 -----
 Symbolic Z-matrix:
 Charge =  0 Multiplicity = 2

                         Standard orientation:
 ---------------------------------------------------------------------
 Center     Atomic      Atomic             Coordinates (Angstroms)
 Number     Number       Type             X           Y           Z
 ---------------------------------------------------------------------
      1         11           0        0.070874    0.046960   -1.383758
      2         11           0        2.725168   -1.666473   -0.585856
      3         11           0       -0.278255    0.106767    2.360137
      4         11           0       -3.154159    0.028306   -0.761888
      5         11           0       -0.860814    2.995399   -0.093677
      6         11           0        2.734289    1.351250    0.111522
      7         11           0       -1.237104   -2.862209    0.353519
 ---------------------------------------------------------------------

 SCF Done:  E(UB3LYP) =  -1136.13338946     A.U. after   19 cycles

 The electronic state is 2-A.
 Alpha  occ. eigenvalues --  -38.44247 -38.44167 -38.43930 -38.43740 -38.43516
 Alpha  occ. eigenvalues --  -38.43330 -38.43144  -2.20066  -2.19998  -2.19790
 Alpha  occ. eigenvalues --   -2.19594  -2.19313  -2.19141  -2.19140  -1.13762
 Alpha  occ. eigenvalues --   -1.13715  -1.13681  -1.13649  -1.13629  -1.13606
 Alpha  occ. eigenvalues --   -1.13512  -1.13458  -1.13430  -1.13276  -1.13234
 Alpha  occ. eigenvalues --   -1.13209  -1.12984  -1.12977  -1.12956  -1.12859
 Alpha  occ. eigenvalues --   -1.12826  -1.12804  -1.12783  -1.12772  -1.12749
 Alpha  occ. eigenvalues --   -0.18189  -0.13157  -0.12021  -0.10999
 Alpha virt. eigenvalues --   -0.05597  -0.05112  -0.04830  -0.03243  -0.02879
 Alpha virt. eigenvalues --   -0.02823  -0.01617  -0.01149  -0.00511  -0.00348
 Alpha virt. eigenvalues --   -0.00045   0.00328   0.00746   0.00846   0.00866

  Beta  occ. eigenvalues --  -38.44224 -38.44055 -38.43927 -38.43732 -38.43511
  Beta  occ. eigenvalues --  -38.43330 -38.43106  -2.20026  -2.19792  -2.19787
  Beta  occ. eigenvalues --   -2.19580  -2.19306  -2.19144  -2.19072  -1.13724
  Beta  occ. eigenvalues --   -1.13686  -1.13654  -1.13515  -1.13507  -1.13489
  Beta  occ. eigenvalues --   -1.13455  -1.13453  -1.13417  -1.13259  -1.13224
  Beta  occ. eigenvalues --   -1.13198  -1.12976  -1.12960  -1.12953  -1.12846
  Beta  occ. eigenvalues --   -1.12803  -1.12772  -1.12768  -1.12729  -1.12712
  Beta  occ. eigenvalues --   -0.17516  -0.12886  -0.11838
  Beta virt. eigenvalues --   -0.07058  -0.05502  -0.05054  -0.04732  -0.02568
  Beta virt. eigenvalues --   -0.02162  -0.01800  -0.01482  -0.01085  -0.00485
  Beta virt. eigenvalues --   -0.00367   0.00112   0.00380   0.00836   0.00858

 Mulliken charges and spin densities:
               1          2
     1  Na  -0.213943  -0.039922
     2  Na   0.270340   0.053461
     3  Na  -0.501523   0.714229
     4  Na   0.224266   0.057485
     5  Na   0.008680   0.038341
     6  Na   0.196778   0.099135
     7  Na   0.015402   0.077271
 Sum of Mulliken charges =  -0.00000   1.00000

 Dipole moment (field-independent basis, Debye):
    X=             -0.0733    Y=              0.0189    Z=              0.2118  Tot=              0.2249
 Quadrupole moment (field-independent basis, Debye-Ang):
   XX=            -57.6928   YY=            -62.9131   ZZ=            -73.3671
   XY=             -0.2219   XZ=              1.1448   YZ=              0.4382

 Normal termination of Gaussian 16 at Thu Dec  7 06:16:17 2023.
