 Gaussian 16, Revision B.01,
 Gaussian 16:  ES64L-G16RevB.01 20-Dec-2017

 -------------------------
 #P B3LYP/6-311+g(d) force
 -------------------------

 -----
 DPGEN
 -----
 Symbolic Z-matrix:
 Charge =  0 Multiplicity = 2

                         Standard orientation:
 ---------------------------------------------------------------------
 Center     Atomic      Atomic             Coordinates (Angstroms)
 Number     Number       Type             X           Y           Z
 ---------------------------------------------------------------------
      1         11           0        3.012811   -1.430173   -0.168020
      2         11           0        0.372596   -0.454957    2.291079
      3         11           0       -1.523717    2.397475   -0.492202
      4         11           0       -1.263092   -2.642265   -0.916223
      5         11           0        0.025032    0.284857   -1.849641
      6         11           0        1.965139    2.100024    0.160276
      7         11           0       -2.588768   -0.254962    0.974731
 ---------------------------------------------------------------------

 SCF Done:  E(UB3LYP) =  -1136.12962776     A.U. after   20 cycles

 The electronic state is 2-A.
 Alpha  occ. eigenvalues --  -38.44502 -38.44091 -38.43793 -38.43789 -38.43729
 Alpha  occ. eigenvalues --  -38.43540 -38.43089  -2.20352  -2.19862  -2.19763
 Alpha  occ. eigenvalues --   -2.19616  -2.19569  -2.19444  -2.18994  -1.14024
 Alpha  occ. eigenvalues --   -1.13984  -1.13969  -1.13540  -1.13516  -1.13507
 Alpha  occ. eigenvalues --   -1.13486  -1.13419  -1.13406  -1.13285  -1.13272
 Alpha  occ. eigenvalues --   -1.13253  -1.13243  -1.13238  -1.13173  -1.13131
 Alpha  occ. eigenvalues --   -1.13101  -1.13066  -1.12690  -1.12637  -1.12601
 Alpha  occ. eigenvalues --   -0.18505  -0.12813  -0.12091  -0.11831
 Alpha virt. eigenvalues --   -0.05586  -0.04950  -0.04253  -0.03606  -0.03416
 Alpha virt. eigenvalues --   -0.03134  -0.01298  -0.01001  -0.00308   0.00075
 Alpha virt. eigenvalues --    0.00113   0.00411   0.00744   0.00806   0.00845

  Beta  occ. eigenvalues --  -38.44414 -38.44095 -38.43761 -38.43726 -38.43725
  Beta  occ. eigenvalues --  -38.43517 -38.43084  -2.20191  -2.19870  -2.19642
  Beta  occ. eigenvalues --   -2.19567  -2.19563  -2.19405  -2.18988  -1.13914
  Beta  occ. eigenvalues --   -1.13873  -1.13850  -1.13537  -1.13523  -1.13512
  Beta  occ. eigenvalues --   -1.13402  -1.13340  -1.13330  -1.13249  -1.13238
  Beta  occ. eigenvalues --   -1.13232  -1.13211  -1.13210  -1.13171  -1.13098
  Beta  occ. eigenvalues --   -1.13070  -1.13029  -1.12675  -1.12620  -1.12601
  Beta  occ. eigenvalues --   -0.17734  -0.12637  -0.11849
  Beta virt. eigenvalues --   -0.07824  -0.05518  -0.04765  -0.04063  -0.02964
  Beta virt. eigenvalues --   -0.02722  -0.02218  -0.01220  -0.00896  -0.00160
  Beta virt. eigenvalues --    0.00089   0.00151   0.00444   0.00831   0.00858

 Mulliken charges and spin densities:
               1          2
     1  Na  -0.124328  -0.094847
     2  Na  -0.156279   0.374646
     3  Na   0.133596   0.070309
     4  Na  -0.132470   0.051271
     5  Na   0.197803   0.286342
     6  Na  -0.023011   0.057148
     7  Na   0.104688   0.255131
 Sum of Mulliken charges =  -0.00000   1.00000

 Dipole moment (field-independent basis, Debye):
    X=              0.5156    Y=             -0.2520    Z=              0.2360  Tot=              0.6205
 Quadrupole moment (field-independent basis, Debye-Ang):
   XX=            -61.7867   YY=            -65.7386   ZZ=            -68.6841
   XY=             -0.5532   XZ=             -0.6123   YZ=              2.7127

 Normal termination of Gaussian 16 at Tue Dec  5 13:43:04 2023.
