 Gaussian 16, Revision B.01,
 Gaussian 16:  ES64L-G16RevB.01 20-Dec-2017

 -------------------------
 #P B3LYP/6-311+g(d) force
 -------------------------

 -----
 DPGEN
 -----
 Symbolic Z-matrix:
 Charge =  0 Multiplicity = 2

                         Standard orientation:
 ---------------------------------------------------------------------
 Center     Atomic      Atomic             Coordinates (Angstroms)
 Number     Number       Type             X           Y           Z
 ---------------------------------------------------------------------
      1         11           0        0.266760    0.338420   -1.904507
      2         11           0        1.239122   -2.291774    0.356653
      3         11           0        3.063207   -0.045907   -0.344395
      4         11           0        0.268066    0.325575    1.989155
      5         11           0       -2.244862   -2.188086   -0.174364
      6         11           0       -2.564055    0.788718   -0.078319
      7         11           0       -0.028238    3.073056    0.155777
 ---------------------------------------------------------------------

 SCF Done:  E(UB3LYP) =  -1136.13371881     A.U. after   19 cycles

 The electronic state is 2-A.
 Alpha  occ. eigenvalues --  -38.43963 -38.43807 -38.43750 -38.43570 -38.43434
 Alpha  occ. eigenvalues --  -38.43380 -38.43316  -2.19858  -2.19738  -2.19688
 Alpha  occ. eigenvalues --   -2.19491  -2.19363  -2.19236  -2.19171  -1.13596
 Alpha  occ. eigenvalues --   -1.13536  -1.13486  -1.13412  -1.13384  -1.13359
 Alpha  occ. eigenvalues --   -1.13353  -1.13320  -1.13309  -1.13218  -1.13153
 Alpha  occ. eigenvalues --   -1.13136  -1.13037  -1.13010  -1.12987  -1.12906
 Alpha  occ. eigenvalues --   -1.12891  -1.12875  -1.12825  -1.12814  -1.12803
 Alpha  occ. eigenvalues --   -0.19009  -0.13254  -0.12482  -0.11282
 Alpha virt. eigenvalues --   -0.05357  -0.04888  -0.04697  -0.03505  -0.03029
 Alpha virt. eigenvalues --   -0.02915  -0.01276  -0.01090  -0.00128  -0.00004
 Alpha virt. eigenvalues --    0.00085   0.00373   0.00887   0.00913   0.00920

  Beta  occ. eigenvalues --  -38.43953 -38.43718 -38.43670 -38.43564 -38.43423
  Beta  occ. eigenvalues --  -38.43375 -38.43317  -2.19844  -2.19574  -2.19541
  Beta  occ. eigenvalues --   -2.19483  -2.19346  -2.19232  -2.19176  -1.13588
  Beta  occ. eigenvalues --   -1.13505  -1.13464  -1.13309  -1.13270  -1.13257
  Beta  occ. eigenvalues --   -1.13249  -1.13227  -1.13213  -1.13202  -1.13130
  Beta  occ. eigenvalues --   -1.13114  -1.13020  -1.12983  -1.12968  -1.12895
  Beta  occ. eigenvalues --   -1.12879  -1.12867  -1.12830  -1.12810  -1.12798
  Beta  occ. eigenvalues --   -0.18246  -0.12993  -0.12257
  Beta virt. eigenvalues --   -0.07324  -0.05313  -0.04826  -0.04661  -0.02652
  Beta virt. eigenvalues --   -0.02277  -0.01871  -0.01188  -0.01034  -0.00119
  Beta virt. eigenvalues --    0.00049   0.00105   0.00399   0.00900   0.00915

 Mulliken charges and spin densities:
               1          2
     1  Na  -0.317948   0.558705
     2  Na   0.105588   0.140310
     3  Na   0.294825  -0.069834
     4  Na  -0.290139   0.477462
     5  Na  -0.188569  -0.078727
     6  Na   0.142237   0.062382
     7  Na   0.254006  -0.090297
 Sum of Mulliken charges =  -0.00000   1.00000

 Dipole moment (field-independent basis, Debye):
    X=              0.3659    Y=              0.2806    Z=             -0.0111  Tot=              0.4612
 Quadrupole moment (field-independent basis, Debye-Ang):
   XX=            -61.3361   YY=            -63.0427   ZZ=            -71.6115
   XY=              0.6049   XZ=             -0.1453   YZ=             -0.0350

 Normal termination of Gaussian 16 at Sun Dec  3 16:00:51 2023.
