 Gaussian 16, Revision B.01,
 Gaussian 16:  ES64L-G16RevB.01 20-Dec-2017

 -------------------------
 #P B3LYP/6-311+g(d) force
 -------------------------

 -----
 DPGEN
 -----
 Symbolic Z-matrix:
 Charge =  0 Multiplicity = 2

                         Standard orientation:
 ---------------------------------------------------------------------
 Center     Atomic      Atomic             Coordinates (Angstroms)
 Number     Number       Type             X           Y           Z
 ---------------------------------------------------------------------
      1         11           0       -0.237819    0.167519    2.285619
      2         11           0       -2.728574   -2.220105   -0.066870
      3         11           0       -2.595058    1.245891   -0.448164
      4         11           0        0.299771    3.324323   -0.105643
      5         11           0        1.774937   -2.469995   -0.040508
      6         11           0       -0.004636   -0.220002   -1.422528
      7         11           0        3.491379    0.172369   -0.201906
 ---------------------------------------------------------------------

 SCF Done:  E(UB3LYP) =  -1136.12934641     A.U. after   19 cycles

 The electronic state is 2-A.
 Alpha  occ. eigenvalues --  -38.44670 -38.43949 -38.43927 -38.43862 -38.43779
 Alpha  occ. eigenvalues --  -38.43485 -38.43457  -2.20468  -2.19803  -2.19735
 Alpha  occ. eigenvalues --   -2.19711  -2.19607  -2.19437  -2.19235  -1.14145
 Alpha  occ. eigenvalues --   -1.14131  -1.14108  -1.13518  -1.13475  -1.13454
 Alpha  occ. eigenvalues --   -1.13427  -1.13404  -1.13382  -1.13378  -1.13358
 Alpha  occ. eigenvalues --   -1.13316  -1.13261  -1.13235  -1.13215  -1.13127
 Alpha  occ. eigenvalues --   -1.13091  -1.13036  -1.12904  -1.12895  -1.12881
 Alpha  occ. eigenvalues --   -0.17986  -0.13290  -0.11926  -0.10524
 Alpha virt. eigenvalues --   -0.05983  -0.05282  -0.04997  -0.03177  -0.02673
 Alpha virt. eigenvalues --   -0.02517  -0.01863  -0.01381  -0.00721  -0.00534
 Alpha virt. eigenvalues --   -0.00062   0.00284   0.00668   0.00779   0.00807

  Beta  occ. eigenvalues --  -38.44668 -38.43945 -38.43928 -38.43848 -38.43663
  Beta  occ. eigenvalues --  -38.43458 -38.43444  -2.20467  -2.19798  -2.19715
  Beta  occ. eigenvalues --   -2.19712  -2.19394  -2.19362  -2.19238  -1.14146
  Beta  occ. eigenvalues --   -1.14120  -1.14108  -1.13510  -1.13455  -1.13443
  Beta  occ. eigenvalues --   -1.13416  -1.13391  -1.13368  -1.13363  -1.13355
  Beta  occ. eigenvalues --   -1.13307  -1.13120  -1.13089  -1.13065  -1.13063
  Beta  occ. eigenvalues --   -1.13037  -1.12983  -1.12900  -1.12890  -1.12885
  Beta  occ. eigenvalues --   -0.17300  -0.13091  -0.11784
  Beta virt. eigenvalues --   -0.06518  -0.05931  -0.05276  -0.04929  -0.02470
  Beta virt. eigenvalues --   -0.01932  -0.01775  -0.01489  -0.01310  -0.00746
  Beta virt. eigenvalues --   -0.00549   0.00126   0.00336   0.00726   0.00797

 Mulliken charges and spin densities:
               1          2
     1  Na  -0.584541   0.791680
     2  Na   0.131759   0.013528
     3  Na   0.342878   0.073772
     4  Na  -0.057620  -0.037337
     5  Na   0.255662   0.045453
     6  Na  -0.136695   0.132291
     7  Na   0.048557  -0.019388
 Sum of Mulliken charges =  -0.00000   1.00000

 Dipole moment (field-independent basis, Debye):
    X=              0.4556    Y=             -0.2111    Z=              0.0606  Tot=              0.5058
 Quadrupole moment (field-independent basis, Debye-Ang):
   XX=            -55.2315   YY=            -61.6825   ZZ=            -76.5191
   XY=              2.3642   XZ=              0.1859   YZ=             -0.8037

 Normal termination of Gaussian 16 at Fri Dec  8 01:13:38 2023.
