 Gaussian 16, Revision B.01,
 Gaussian 16:  ES64L-G16RevB.01 20-Dec-2017

 -------------------------
 #P B3LYP/6-311+g(d) force
 -------------------------

 -----
 DPGEN
 -----
 Symbolic Z-matrix:
 Charge =  0 Multiplicity = 2

                         Standard orientation:
 ---------------------------------------------------------------------
 Center     Atomic      Atomic             Coordinates (Angstroms)
 Number     Number       Type             X           Y           Z
 ---------------------------------------------------------------------
      1         11           0        0.797957    0.985302    0.694163
      2         11           0       -1.113772    2.980547   -1.150860
      3         11           0       -5.111453   -0.909110    0.908419
      4         11           0       -2.227916   -0.137264    0.166937
      5         11           0       -0.006351   -2.120935   -1.003581
      6         11           0        4.403752    0.147241    1.674733
      7         11           0        3.257784   -0.945781   -1.289811
 ---------------------------------------------------------------------

 SCF Done:  E(UB3LYP) =  -1136.11327615     A.U. after   24 cycles

 The electronic state is 2-A.
 Alpha  occ. eigenvalues --  -38.44795 -38.44784 -38.44375 -38.44318 -38.43764
 Alpha  occ. eigenvalues --  -38.43420 -38.42974  -2.20605  -2.20598  -2.20224
 Alpha  occ. eigenvalues --   -2.20142  -2.19654  -2.19212  -2.18918  -1.14289
 Alpha  occ. eigenvalues --   -1.14272  -1.14263  -1.14249  -1.14243  -1.14186
 Alpha  occ. eigenvalues --   -1.13896  -1.13873  -1.13836  -1.13813  -1.13766
 Alpha  occ. eigenvalues --   -1.13753  -1.13366  -1.13345  -1.13247  -1.12889
 Alpha  occ. eigenvalues --   -1.12883  -1.12848  -1.12651  -1.12608  -1.12503
 Alpha  occ. eigenvalues --   -0.17422  -0.14175  -0.11650  -0.11446
 Alpha virt. eigenvalues --   -0.06759  -0.05360  -0.04144  -0.03696  -0.02757
 Alpha virt. eigenvalues --   -0.02489  -0.02016  -0.01431  -0.01173  -0.00499
 Alpha virt. eigenvalues --   -0.00347   0.00052   0.00309   0.00443   0.00714

  Beta  occ. eigenvalues --  -38.44775 -38.44723 -38.44311 -38.44229 -38.43753
  Beta  occ. eigenvalues --  -38.43443 -38.42972  -2.20588  -2.20469  -2.20107
  Beta  occ. eigenvalues --   -2.19977  -2.19635  -2.19256  -2.18921  -1.14277
  Beta  occ. eigenvalues --   -1.14260  -1.14216  -1.14159  -1.14150  -1.14114
  Beta  occ. eigenvalues --   -1.13816  -1.13795  -1.13756  -1.13699  -1.13654
  Beta  occ. eigenvalues --   -1.13644  -1.13361  -1.13311  -1.13241  -1.12921
  Beta  occ. eigenvalues --   -1.12912  -1.12873  -1.12625  -1.12603  -1.12506
  Beta  occ. eigenvalues --   -0.16894  -0.13458  -0.11113
  Beta virt. eigenvalues --   -0.08149  -0.06526  -0.04909  -0.03787  -0.03493
  Beta virt. eigenvalues --   -0.02627  -0.02106  -0.01540  -0.01160  -0.00810
  Beta virt. eigenvalues --   -0.00355  -0.00135   0.00192   0.00463   0.00548

 Mulliken charges and spin densities:
               1          2
     1  Na   0.801981   0.018455
     2  Na   0.716841  -0.076196
     3  Na  -0.923949   0.206927
     4  Na  -1.486735   0.254102
     5  Na   0.685994   0.221365
     6  Na   0.222905   0.304444
     7  Na  -0.017037   0.070904
 Sum of Mulliken charges =  -0.00000   1.00000

 Dipole moment (field-independent basis, Debye):
    X=              1.2882    Y=              0.0355    Z=             -0.3550  Tot=              1.3367
 Quadrupole moment (field-independent basis, Debye-Ang):
   XX=            -57.8767   YY=            -73.8025   ZZ=            -63.7349
   XY=             -2.5191   XZ=              1.0528   YZ=             -1.6662

 Normal termination of Gaussian 16 at Fri Dec  8 19:40:45 2023.
