 Gaussian 16, Revision B.01,
 Gaussian 16:  ES64L-G16RevB.01 20-Dec-2017

 -------------------------
 #P B3LYP/6-311+g(d) force
 -------------------------

 -----
 DPGEN
 -----
 Symbolic Z-matrix:
 Charge =  0 Multiplicity = 2

                         Standard orientation:
 ---------------------------------------------------------------------
 Center     Atomic      Atomic             Coordinates (Angstroms)
 Number     Number       Type             X           Y           Z
 ---------------------------------------------------------------------
      1         11           0        0.642900   -0.080936    2.212090
      2         11           0        3.968007   -1.049833    0.355120
      3         11           0       -4.449917    0.037615    0.843773
      4         11           0       -1.868065   -1.796511   -0.814539
      5         11           0        2.082498    2.366003   -0.307991
      6         11           0        1.193616   -1.113563   -1.284070
      7         11           0       -1.569039    1.637226   -1.004382
 ---------------------------------------------------------------------

 SCF Done:  E(UB3LYP) =  -1136.11250891     A.U. after   28 cycles

 The electronic state is 2-A.
 Alpha  occ. eigenvalues --  -38.47035 -38.44948 -38.44671 -38.43513 -38.43486
 Alpha  occ. eigenvalues --  -38.43250 -38.43047  -2.22778  -2.20735  -2.20473
 Alpha  occ. eigenvalues --   -2.19378  -2.19301  -2.19177  -2.18839  -1.16459
 Alpha  occ. eigenvalues --   -1.16411  -1.16400  -1.14389  -1.14384  -1.14347
 Alpha  occ. eigenvalues --   -1.14161  -1.14120  -1.14101  -1.13110  -1.13047
 Alpha  occ. eigenvalues --   -1.13019  -1.12986  -1.12976  -1.12904  -1.12860
 Alpha  occ. eigenvalues --   -1.12817  -1.12790  -1.12529  -1.12498  -1.12479
 Alpha  occ. eigenvalues --   -0.17818  -0.14092  -0.11125  -0.10629
 Alpha virt. eigenvalues --   -0.07855  -0.05209  -0.04659  -0.03283  -0.03101
 Alpha virt. eigenvalues --   -0.02405  -0.02211  -0.01557  -0.01296  -0.00422
 Alpha virt. eigenvalues --   -0.00308   0.00113   0.00163   0.00524   0.00606

  Beta  occ. eigenvalues --  -38.46996 -38.44882 -38.44659 -38.43485 -38.43471
  Beta  occ. eigenvalues --  -38.43199 -38.43059  -2.22705  -2.20611  -2.20449
  Beta  occ. eigenvalues --   -2.19334  -2.19275  -2.19089  -2.18863  -1.16406
  Beta  occ. eigenvalues --   -1.16362  -1.16346  -1.14303  -1.14298  -1.14268
  Beta  occ. eigenvalues --   -1.14146  -1.14107  -1.14079  -1.13059  -1.13020
  Beta  occ. eigenvalues --   -1.12974  -1.12959  -1.12945  -1.12886  -1.12805
  Beta  occ. eigenvalues --   -1.12743  -1.12717  -1.12544  -1.12514  -1.12487
  Beta  occ. eigenvalues --   -0.17187  -0.13675  -0.10496
  Beta virt. eigenvalues --   -0.07502  -0.07422  -0.05166  -0.04135  -0.02946
  Beta virt. eigenvalues --   -0.02828  -0.01990  -0.01757  -0.01229  -0.00976
  Beta virt. eigenvalues --   -0.00341  -0.00166   0.00171   0.00332   0.00600

 Mulliken charges and spin densities:
               1          2
     1  Na  -0.238337   0.256711
     2  Na   0.647607   0.171294
     3  Na   0.171214   0.431407
     4  Na   0.139631  -0.008827
     5  Na  -0.013000  -0.070058
     6  Na  -0.461503   0.195672
     7  Na  -0.245611   0.023803
 Sum of Mulliken charges =  -0.00000   1.00000

 Dipole moment (field-independent basis, Debye):
    X=              0.0948    Y=              0.0114    Z=              1.2573  Tot=              1.2609
 Quadrupole moment (field-independent basis, Debye-Ang):
   XX=            -51.6877   YY=            -80.7672   ZZ=            -65.7430
   XY=              0.5074   XZ=             -1.5216   YZ=             -1.7928

 Normal termination of Gaussian 16 at Fri Dec  8 03:47:50 2023.
