 Gaussian 16, Revision B.01,
 Gaussian 16:  ES64L-G16RevB.01 20-Dec-2017

 -------------------------
 #P B3LYP/6-311+g(d) force
 -------------------------

 -----
 DPGEN
 -----
 Symbolic Z-matrix:
 Charge =  0 Multiplicity = 2

                         Standard orientation:
 ---------------------------------------------------------------------
 Center     Atomic      Atomic             Coordinates (Angstroms)
 Number     Number       Type             X           Y           Z
 ---------------------------------------------------------------------
      1         11           0        0.002100   -0.227379   -0.185294
      2         11           0       -0.426492    3.255621    0.043244
      3         11           0        2.947419    2.138155    0.049550
      4         11           0        3.289251   -1.479839   -0.095418
      5         11           0        0.452911   -3.050081    0.224957
      6         11           0       -2.927392   -1.921321   -0.094711
      7         11           0       -3.337796    1.284844    0.057673
 ---------------------------------------------------------------------

 SCF Done:  E(UB3LYP) =  -1136.12505186     A.U. after   51 cycles

 The electronic state is 2-A.
 Alpha  occ. eigenvalues --  -38.44610 -38.44415 -38.44110 -38.44001 -38.43761
 Alpha  occ. eigenvalues --  -38.43151 -38.43020  -2.20451  -2.20254  -2.20075
 Alpha  occ. eigenvalues --   -2.19916  -2.19589  -2.19036  -2.18857  -1.14124
 Alpha  occ. eigenvalues --   -1.14117  -1.14093  -1.13929  -1.13921  -1.13911
 Alpha  occ. eigenvalues --   -1.13897  -1.13791  -1.13678  -1.13562  -1.13530
 Alpha  occ. eigenvalues --   -1.13506  -1.13268  -1.13263  -1.13213  -1.12688
 Alpha  occ. eigenvalues --   -1.12681  -1.12669  -1.12511  -1.12502  -1.12481
 Alpha  occ. eigenvalues --   -0.17673  -0.14073  -0.13516  -0.09491
 Alpha virt. eigenvalues --   -0.06912  -0.05483  -0.04481  -0.02873  -0.02570
 Alpha virt. eigenvalues --   -0.02314  -0.02086  -0.01871  -0.01436  -0.00029
 Alpha virt. eigenvalues --    0.00176   0.00501   0.00551   0.00686   0.00709

  Beta  occ. eigenvalues --  -38.44586 -38.44392 -38.44124 -38.43982 -38.43739
  Beta  occ. eigenvalues --  -38.43097 -38.42952  -2.20414  -2.20218  -2.20098
  Beta  occ. eigenvalues --   -2.19885  -2.19553  -2.18936  -2.18729  -1.14104
  Beta  occ. eigenvalues --   -1.14095  -1.14028  -1.13927  -1.13910  -1.13894
  Beta  occ. eigenvalues --   -1.13832  -1.13804  -1.13699  -1.13547  -1.13528
  Beta  occ. eigenvalues --   -1.13444  -1.13248  -1.13245  -1.13148  -1.12625
  Beta  occ. eigenvalues --   -1.12611  -1.12603  -1.12424  -1.12417  -1.12399
  Beta  occ. eigenvalues --   -0.17424  -0.13366  -0.12832
  Beta virt. eigenvalues --   -0.06947  -0.06201  -0.05228  -0.04376  -0.02444
  Beta virt. eigenvalues --   -0.02099  -0.01995  -0.01704  -0.01535  -0.01331
  Beta virt. eigenvalues --    0.00062   0.00433   0.00547   0.00622   0.00766

 Mulliken charges and spin densities:
               1          2
     1  Na  -5.416748  -0.269839
     2  Na   0.414738   0.147376
     3  Na   0.907480   0.480079
     4  Na   0.741046   0.095633
     5  Na   1.507600   0.132146
     6  Na   0.731388   0.315627
     7  Na   1.114496   0.098978
 Sum of Mulliken charges =  -0.00000   1.00000

 Dipole moment (field-independent basis, Debye):
    X=             -0.0517    Y=             -0.6492    Z=              0.1036  Tot=              0.6594
 Quadrupole moment (field-independent basis, Debye-Ang):
   XX=            -59.3662   YY=            -66.2986   ZZ=            -72.1335
   XY=             -4.2820   XZ=             -0.4667   YZ=             -0.2544

 Normal termination of Gaussian 16 at Fri Dec  8 05:15:40 2023.
