 Gaussian 16, Revision B.01,
 Gaussian 16:  ES64L-G16RevB.01 20-Dec-2017

 -------------------------
 #P B3LYP/6-311+g(d) force
 -------------------------

 -----
 DPGEN
 -----
 Symbolic Z-matrix:
 Charge =  0 Multiplicity = 2

                         Standard orientation:
 ---------------------------------------------------------------------
 Center     Atomic      Atomic             Coordinates (Angstroms)
 Number     Number       Type             X           Y           Z
 ---------------------------------------------------------------------
      1         11           0        3.175674   -0.959523   -0.705431
      2         11           0       -0.793363   -2.681041   -1.485771
      3         11           0       -0.374868   -1.297718    2.752864
      4         11           0       -0.108673   -0.394507   -0.092977
      5         11           0        2.062530    2.165022    0.485638
      6         11           0       -0.823803    2.534552   -0.826604
      7         11           0       -3.137496    0.633214   -0.127719
 ---------------------------------------------------------------------

 SCF Done:  E(UB3LYP) =  -1136.11353608     A.U. after   20 cycles

 The electronic state is 2-A.
 Alpha  occ. eigenvalues --  -38.44746 -38.44533 -38.44338 -38.44168 -38.43465
 Alpha  occ. eigenvalues --  -38.43169 -38.42352  -2.20586  -2.20315  -2.20184
 Alpha  occ. eigenvalues --   -2.20020  -2.19315  -2.19089  -2.18556  -1.14275
 Alpha  occ. eigenvalues --   -1.14181  -1.14175  -1.13986  -1.13979  -1.13975
 Alpha  occ. eigenvalues --   -1.13944  -1.13794  -1.13764  -1.13728  -1.13669
 Alpha  occ. eigenvalues --   -1.13651  -1.13023  -1.12977  -1.12947  -1.12802
 Alpha  occ. eigenvalues --   -1.12724  -1.12708  -1.12314  -1.12215  -1.12140
 Alpha  occ. eigenvalues --   -0.18174  -0.12636  -0.12424  -0.11290
 Alpha virt. eigenvalues --   -0.06038  -0.04747  -0.04467  -0.03252  -0.02847
 Alpha virt. eigenvalues --   -0.02552  -0.01669  -0.01009  -0.00474  -0.00205
 Alpha virt. eigenvalues --   -0.00003   0.00364   0.00748   0.00801   0.00908

  Beta  occ. eigenvalues --  -38.44618 -38.44526 -38.44297 -38.44165 -38.43466
  Beta  occ. eigenvalues --  -38.43166 -38.42329  -2.20350  -2.20301  -2.20109
  Beta  occ. eigenvalues --   -2.20017  -2.19316  -2.19085  -2.18525  -1.14114
  Beta  occ. eigenvalues --   -1.14020  -1.14014  -1.13972  -1.13968  -1.13934
  Beta  occ. eigenvalues --   -1.13929  -1.13737  -1.13726  -1.13710  -1.13658
  Beta  occ. eigenvalues --   -1.13648  -1.13025  -1.12971  -1.12949  -1.12799
  Beta  occ. eigenvalues --   -1.12718  -1.12704  -1.12217  -1.12193  -1.12129
  Beta  occ. eigenvalues --   -0.17554  -0.12517  -0.12091
  Beta virt. eigenvalues --   -0.07219  -0.05951  -0.04625  -0.04117  -0.02702
  Beta virt. eigenvalues --   -0.02318  -0.01820  -0.01602  -0.00869  -0.00223
  Beta virt. eigenvalues --   -0.00114   0.00098   0.00416   0.00790   0.00835

 Mulliken charges and spin densities:
               1          2
     1  Na   0.224830  -0.048041
     2  Na   0.300838   0.520670
     3  Na   0.028772   0.504165
     4  Na  -1.716925   0.184433
     5  Na   0.502236  -0.068746
     6  Na  -0.079127  -0.282348
     7  Na   0.739376   0.189867
 Sum of Mulliken charges =  -0.00000   1.00000

 Dipole moment (field-independent basis, Debye):
    X=              0.0785    Y=             -0.3977    Z=              0.0744  Tot=              0.4122
 Quadrupole moment (field-independent basis, Debye-Ang):
   XX=            -56.9707   YY=            -66.0616   ZZ=            -68.4692
   XY=             -0.1542   XZ=             -0.1531   YZ=              1.6643

 Normal termination of Gaussian 16 at Fri Dec  8 04:33:07 2023.
