 Gaussian 16, Revision B.01,
 Gaussian 16:  ES64L-G16RevB.01 20-Dec-2017

 -------------------------
 #P B3LYP/6-311+g(d) force
 -------------------------

 -----
 DPGEN
 -----
 Symbolic Z-matrix:
 Charge =  0 Multiplicity = 2

                         Standard orientation:
 ---------------------------------------------------------------------
 Center     Atomic      Atomic             Coordinates (Angstroms)
 Number     Number       Type             X           Y           Z
 ---------------------------------------------------------------------
      1         11           0        1.290200    3.445015    0.099146
      2         11           0        3.869423    2.027300    0.058835
      3         11           0       -2.997772    2.183253   -0.045110
      4         11           0        3.855698   -2.284694   -0.009375
      5         11           0        0.793971   -2.922057   -0.717509
      6         11           0       -4.779061   -0.148421   -0.496242
      7         11           0       -2.032459   -2.300395    1.110254
 ---------------------------------------------------------------------

 SCF Done:  E(UB3LYP) =  -1136.10519219     A.U. after   19 cycles

 The electronic state is 2-A.
 Alpha  occ. eigenvalues --  -38.45109 -38.45050 -38.44726 -38.44450 -38.43937
 Alpha  occ. eigenvalues --  -38.43867 -38.43830  -2.20921  -2.20869  -2.20525
 Alpha  occ. eigenvalues --   -2.20253  -2.19751  -2.19678  -2.19626  -1.14723
 Alpha  occ. eigenvalues --   -1.14573  -1.14557  -1.14516  -1.14493  -1.14436
 Alpha  occ. eigenvalues --   -1.14250  -1.14180  -1.14157  -1.13906  -1.13901
 Alpha  occ. eigenvalues --   -1.13861  -1.13413  -1.13393  -1.13386  -1.13382
 Alpha  occ. eigenvalues --   -1.13321  -1.13312  -1.13295  -1.13295  -1.13235
 Alpha  occ. eigenvalues --   -0.15666  -0.14001  -0.13174  -0.10786
 Alpha virt. eigenvalues --   -0.07296  -0.05081  -0.04331  -0.03629  -0.03098
 Alpha virt. eigenvalues --   -0.02786  -0.02341  -0.01999  -0.00993  -0.00702
 Alpha virt. eigenvalues --   -0.00451  -0.00321   0.00097   0.00376   0.00405

  Beta  occ. eigenvalues --  -38.45074 -38.45040 -38.44724 -38.44360 -38.43918
  Beta  occ. eigenvalues --  -38.43837 -38.43792  -2.20865  -2.20848  -2.20524
  Beta  occ. eigenvalues --   -2.20087  -2.19718  -2.19647  -2.19537  -1.14686
  Beta  occ. eigenvalues --   -1.14538  -1.14513  -1.14503  -1.14471  -1.14403
  Beta  occ. eigenvalues --   -1.14238  -1.14182  -1.14150  -1.13794  -1.13787
  Beta  occ. eigenvalues --   -1.13751  -1.13390  -1.13371  -1.13362  -1.13344
  Beta  occ. eigenvalues --   -1.13323  -1.13292  -1.13220  -1.13209  -1.13175
  Beta  occ. eigenvalues --   -0.15103  -0.13469  -0.12541
  Beta virt. eigenvalues --   -0.07487  -0.07297  -0.04741  -0.03941  -0.03310
  Beta virt. eigenvalues --   -0.02752  -0.02588  -0.02157  -0.01771  -0.00866
  Beta virt. eigenvalues --   -0.00349  -0.00203  -0.00018   0.00206   0.00407

 Mulliken charges and spin densities:
               1          2
     1  Na   0.178276   0.041155
     2  Na  -0.177623   0.041156
     3  Na  -0.139783   0.153352
     4  Na   0.292397   0.326656
     5  Na  -0.455700  -0.019962
     6  Na   0.426905   0.032599
     7  Na  -0.124473   0.425043
 Sum of Mulliken charges =  -0.00000   1.00000

 Dipole moment (field-independent basis, Debye):
    X=             -1.3410    Y=              0.4214    Z=              0.0460  Tot=              1.4065
 Quadrupole moment (field-independent basis, Debye-Ang):
   XX=            -55.2270   YY=            -74.1170   ZZ=            -71.8633
   XY=              3.1641   XZ=              1.8147   YZ=              0.8883

 Normal termination of Gaussian 16 at Sun Dec  3 12:09:49 2023.
