 Gaussian 16, Revision B.01,
 Gaussian 16:  ES64L-G16RevB.01 20-Dec-2017

 -------------------------
 #P B3LYP/6-311+g(d) force
 -------------------------

 -----
 DPGEN
 -----
 Symbolic Z-matrix:
 Charge =  0 Multiplicity = 2

                         Standard orientation:
 ---------------------------------------------------------------------
 Center     Atomic      Atomic             Coordinates (Angstroms)
 Number     Number       Type             X           Y           Z
 ---------------------------------------------------------------------
      1         11           0        1.949451    2.024349    0.543100
      2         11           0        1.085367    0.172413   -1.770835
      3         11           0       -1.363386    1.978180   -0.471728
      4         11           0       -3.768837   -0.350437    0.464724
      5         11           0        0.122285   -0.511758    1.902197
      6         11           0       -1.030719   -1.799291   -0.927831
      7         11           0        3.005838   -1.513456    0.260373
 ---------------------------------------------------------------------

 SCF Done:  E(UB3LYP) =  -1136.12762093     A.U. after   22 cycles

 The electronic state is 2-A.
 Alpha  occ. eigenvalues --  -38.44877 -38.44266 -38.44113 -38.43471 -38.43406
 Alpha  occ. eigenvalues --  -38.43132 -38.42782  -2.20672  -2.20164  -2.19946
 Alpha  occ. eigenvalues --   -2.19444  -2.19387  -2.19038  -2.18665  -1.14340
 Alpha  occ. eigenvalues --   -1.14334  -1.14306  -1.13857  -1.13810  -1.13775
 Alpha  occ. eigenvalues --   -1.13637  -1.13598  -1.13578  -1.13267  -1.13111
 Alpha  occ. eigenvalues --   -1.13058  -1.13045  -1.13006  -1.12951  -1.12713
 Alpha  occ. eigenvalues --   -1.12706  -1.12643  -1.12368  -1.12341  -1.12270
 Alpha  occ. eigenvalues --   -0.19032  -0.13668  -0.11486  -0.11362
 Alpha virt. eigenvalues --   -0.06643  -0.04885  -0.03928  -0.03218  -0.02855
 Alpha virt. eigenvalues --   -0.02666  -0.02214  -0.00978  -0.00488   0.00057
 Alpha virt. eigenvalues --    0.00209   0.00293   0.00461   0.00805   0.00854

  Beta  occ. eigenvalues --  -38.44874 -38.44197 -38.44110 -38.43436 -38.43327
  Beta  occ. eigenvalues --  -38.43119 -38.42774  -2.20668  -2.20038  -2.19944
  Beta  occ. eigenvalues --   -2.19330  -2.19298  -2.19017  -2.18654  -1.14335
  Beta  occ. eigenvalues --   -1.14330  -1.14303  -1.13774  -1.13716  -1.13686
  Beta  occ. eigenvalues --   -1.13630  -1.13581  -1.13575  -1.13177  -1.13024
  Beta  occ. eigenvalues --   -1.13001  -1.12951  -1.12945  -1.12888  -1.12691
  Beta  occ. eigenvalues --   -1.12678  -1.12622  -1.12356  -1.12311  -1.12268
  Beta  occ. eigenvalues --   -0.18242  -0.13488  -0.11198
  Beta virt. eigenvalues --   -0.07378  -0.06465  -0.04889  -0.03487  -0.02957
  Beta virt. eigenvalues --   -0.02144  -0.01989  -0.01723  -0.00919  -0.00227
  Beta virt. eigenvalues --    0.00080   0.00224   0.00299   0.00661   0.00834

 Mulliken charges and spin densities:
               1          2
     1  Na   0.026150   0.076022
     2  Na   0.473678   0.386362
     3  Na  -0.349620  -0.011709
     4  Na   0.243348   0.025935
     5  Na  -0.263602   0.647920
     6  Na  -0.179588  -0.032242
     7  Na   0.049633  -0.092287
 Sum of Mulliken charges =  -0.00000   1.00000

 Dipole moment (field-independent basis, Debye):
    X=             -0.4150    Y=             -0.2360    Z=              0.5248  Tot=              0.7094
 Quadrupole moment (field-independent basis, Debye-Ang):
   XX=            -48.3317   YY=            -74.3363   ZZ=            -70.1140
   XY=             -0.4134   XZ=             -0.6135   YZ=              0.8148

 Normal termination of Gaussian 16 at Tue Dec  5 14:12:57 2023.
