 Gaussian 16, Revision B.01,
 Gaussian 16:  ES64L-G16RevB.01 20-Dec-2017

 -------------------------
 #P B3LYP/6-311+g(d) force
 -------------------------

 -----
 DPGEN
 -----
 Symbolic Z-matrix:
 Charge =  0 Multiplicity = 2

                         Standard orientation:
 ---------------------------------------------------------------------
 Center     Atomic      Atomic             Coordinates (Angstroms)
 Number     Number       Type             X           Y           Z
 ---------------------------------------------------------------------
      1         11           0        0.583639    0.403258   -2.021769
      2         11           0       -2.989805    1.312394   -0.154961
      3         11           0        0.650168    2.843089    0.066033
      4         11           0       -0.154508   -0.242539    2.061899
      5         11           0        3.515763    0.002973    0.500431
      6         11           0        0.831497   -2.671990   -0.571434
      7         11           0       -2.436755   -1.647185    0.119801
 ---------------------------------------------------------------------

 SCF Done:  E(UB3LYP) =  -1136.13016471     A.U. after   20 cycles

 The electronic state is 2-A.
 Alpha  occ. eigenvalues --  -38.45130 -38.44201 -38.44192 -38.43793 -38.43467
 Alpha  occ. eigenvalues --  -38.43376 -38.43146  -2.20878  -2.20058  -2.20012
 Alpha  occ. eigenvalues --   -2.19671  -2.19355  -2.19192  -2.18982  -1.14554
 Alpha  occ. eigenvalues --   -1.14527  -1.14516  -1.13742  -1.13729  -1.13698
 Alpha  occ. eigenvalues --   -1.13678  -1.13664  -1.13634  -1.13344  -1.13324
 Alpha  occ. eigenvalues --   -1.13286  -1.13028  -1.13019  -1.12988  -1.12883
 Alpha  occ. eigenvalues --   -1.12861  -1.12808  -1.12670  -1.12637  -1.12610
 Alpha  occ. eigenvalues --   -0.18109  -0.13054  -0.12002  -0.11016
 Alpha virt. eigenvalues --   -0.06428  -0.04797  -0.04465  -0.03502  -0.03009
 Alpha virt. eigenvalues --   -0.02830  -0.02021  -0.00883  -0.00421  -0.00270
 Alpha virt. eigenvalues --   -0.00085   0.00342   0.00560   0.00764   0.00855

  Beta  occ. eigenvalues --  -38.45120 -38.44193 -38.44124 -38.43716 -38.43465
  Beta  occ. eigenvalues --  -38.43373 -38.43131  -2.20861  -2.20016  -2.19915
  Beta  occ. eigenvalues --   -2.19529  -2.19354  -2.19189  -2.18957  -1.14527
  Beta  occ. eigenvalues --   -1.14517  -1.14506  -1.13745  -1.13658  -1.13641
  Beta  occ. eigenvalues --   -1.13633  -1.13597  -1.13571  -1.13251  -1.13219
  Beta  occ. eigenvalues --   -1.13188  -1.13028  -1.13011  -1.12975  -1.12874
  Beta  occ. eigenvalues --   -1.12845  -1.12806  -1.12646  -1.12605  -1.12597
  Beta  occ. eigenvalues --   -0.17381  -0.12859  -0.11775
  Beta virt. eigenvalues --   -0.07187  -0.06299  -0.04793  -0.04313  -0.02807
  Beta virt. eigenvalues --   -0.02286  -0.01870  -0.01851  -0.00823  -0.00455
  Beta virt. eigenvalues --   -0.00270   0.00044   0.00379   0.00737   0.00817

 Mulliken charges and spin densities:
               1          2
     1  Na  -0.153153   0.531446
     2  Na   0.006071  -0.109238
     3  Na   0.047899  -0.086458
     4  Na  -0.290857   0.642019
     5  Na   0.060519  -0.013246
     6  Na   0.073393  -0.008018
     7  Na   0.256128   0.043495
 Sum of Mulliken charges =  -0.00000   1.00000

 Dipole moment (field-independent basis, Debye):
    X=              0.5582    Y=              0.1808    Z=              0.2015  Tot=              0.6205
 Quadrupole moment (field-independent basis, Debye-Ang):
   XX=            -54.6926   YY=            -68.0741   ZZ=            -72.0457
   XY=             -0.7486   XZ=              1.8504   YZ=              1.1502

 Normal termination of Gaussian 16 at Sun Dec  3 20:43:55 2023.
