 Gaussian 16, Revision B.01,
 Gaussian 16:  ES64L-G16RevB.01 20-Dec-2017

 -------------------------
 #P B3LYP/6-311+g(d) force
 -------------------------

 -----
 DPGEN
 -----
 Symbolic Z-matrix:
 Charge =  0 Multiplicity = 2

                         Standard orientation:
 ---------------------------------------------------------------------
 Center     Atomic      Atomic             Coordinates (Angstroms)
 Number     Number       Type             X           Y           Z
 ---------------------------------------------------------------------
      1         11           0       -1.607905    2.178802    0.242478
      2         11           0        0.840489    0.438388    1.728664
      3         11           0        2.714622   -1.755811   -0.574594
      4         11           0       -0.085339   -0.204802   -1.301149
      5         11           0       -3.222126   -0.381451   -0.751906
      6         11           0       -1.074988   -2.086655    1.035761
      7         11           0        2.435247    1.811529   -0.379255
 ---------------------------------------------------------------------

 SCF Done:  E(UB3LYP) =  -1136.12713988     A.U. after   21 cycles

 The electronic state is 2-A.
 Alpha  occ. eigenvalues --  -38.44115 -38.43985 -38.43972 -38.43286 -38.43196
 Alpha  occ. eigenvalues --  -38.43159 -38.43138  -2.20018  -2.19860  -2.19817
 Alpha  occ. eigenvalues --   -2.19251  -2.19227  -2.19178  -2.19053  -1.13703
 Alpha  occ. eigenvalues --   -1.13671  -1.13659  -1.13606  -1.13534  -1.13506
 Alpha  occ. eigenvalues --   -1.13475  -1.13453  -1.13432  -1.13042  -1.12936
 Alpha  occ. eigenvalues --   -1.12911  -1.12899  -1.12866  -1.12847  -1.12815
 Alpha  occ. eigenvalues --   -1.12806  -1.12780  -1.12718  -1.12690  -1.12657
 Alpha  occ. eigenvalues --   -0.19252  -0.13912  -0.11753  -0.10990
 Alpha virt. eigenvalues --   -0.05837  -0.05423  -0.03957  -0.03307  -0.02662
 Alpha virt. eigenvalues --   -0.02244  -0.01898  -0.01092  -0.00405   0.00080
 Alpha virt. eigenvalues --    0.00229   0.00327   0.00715   0.00792   0.00885

  Beta  occ. eigenvalues --  -38.44097 -38.43968 -38.43963 -38.43280 -38.43121
  Beta  occ. eigenvalues --  -38.43117 -38.43102  -2.19986  -2.19847  -2.19789
  Beta  occ. eigenvalues --   -2.19184  -2.19171  -2.19085  -2.18991  -1.13678
  Beta  occ. eigenvalues --   -1.13649  -1.13631  -1.13592  -1.13513  -1.13480
  Beta  occ. eigenvalues --   -1.13459  -1.13431  -1.13411  -1.12980  -1.12906
  Beta  occ. eigenvalues --   -1.12855  -1.12831  -1.12800  -1.12788  -1.12783
  Beta  occ. eigenvalues --   -1.12760  -1.12704  -1.12669  -1.12621  -1.12616
  Beta  occ. eigenvalues --   -0.18545  -0.13594  -0.11513
  Beta virt. eigenvalues --   -0.07069  -0.05682  -0.05379  -0.03666  -0.02871
  Beta virt. eigenvalues --   -0.02007  -0.01734  -0.01259  -0.01072  -0.00198
  Beta virt. eigenvalues --    0.00136   0.00235   0.00374   0.00801   0.00823

 Mulliken charges and spin densities:
               1          2
     1  Na  -0.141289  -0.002582
     2  Na   0.272090   0.413202
     3  Na   0.039182   0.077646
     4  Na  -0.870947   0.252403
     5  Na   0.676282   0.105539
     6  Na  -0.160712   0.091343
     7  Na   0.185395   0.062449
 Sum of Mulliken charges =  -0.00000   1.00000

 Dipole moment (field-independent basis, Debye):
    X=              0.1875    Y=             -0.0152    Z=             -0.0599  Tot=              0.1974
 Quadrupole moment (field-independent basis, Debye-Ang):
   XX=            -51.7674   YY=            -68.3385   ZZ=            -72.0515
   XY=              0.3144   XZ=             -0.6229   YZ=             -0.6799

 Normal termination of Gaussian 16 at Thu Dec  7 12:00:06 2023.
