 Gaussian 16, Revision B.01,
 Gaussian 16:  ES64L-G16RevB.01 20-Dec-2017

 -------------------------
 #P B3LYP/6-311+g(d) force
 -------------------------

 -----
 DPGEN
 -----
 Symbolic Z-matrix:
 Charge =  0 Multiplicity = 2

                         Standard orientation:
 ---------------------------------------------------------------------
 Center     Atomic      Atomic             Coordinates (Angstroms)
 Number     Number       Type             X           Y           Z
 ---------------------------------------------------------------------
      1         11           0        0.975207    1.306573   -1.127297
      2         11           0       -2.177285    2.924109    0.411185
      3         11           0        0.147881   -0.067908    1.963412
      4         11           0        1.500872   -1.646737   -0.925463
      5         11           0       -2.016511   -2.830105    0.506303
      6         11           0        3.737498    0.431467    0.392725
      7         11           0       -2.167661   -0.117398   -1.220866
 ---------------------------------------------------------------------

 SCF Done:  E(UB3LYP) =  -1136.12947603     A.U. after   20 cycles

 The electronic state is 2-A.
 Alpha  occ. eigenvalues --  -38.44708 -38.44036 -38.44019 -38.43508 -38.43486
 Alpha  occ. eigenvalues --  -38.43432 -38.43332  -2.20540  -2.19929  -2.19890
 Alpha  occ. eigenvalues --   -2.19467  -2.19375  -2.19214  -2.19142  -1.14217
 Alpha  occ. eigenvalues --   -1.14194  -1.14179  -1.13703  -1.13604  -1.13568
 Alpha  occ. eigenvalues --   -1.13512  -1.13505  -1.13498  -1.13188  -1.13130
 Alpha  occ. eigenvalues --   -1.13080  -1.13055  -1.13031  -1.13001  -1.12887
 Alpha  occ. eigenvalues --   -1.12877  -1.12842  -1.12813  -1.12797  -1.12768
 Alpha  occ. eigenvalues --   -0.18438  -0.13434  -0.11763  -0.10779
 Alpha virt. eigenvalues --   -0.06228  -0.05215  -0.04424  -0.03289  -0.02669
 Alpha virt. eigenvalues --   -0.02572  -0.02054  -0.01281  -0.00530  -0.00143
 Alpha virt. eigenvalues --    0.00198   0.00285   0.00653   0.00664   0.00800

  Beta  occ. eigenvalues --  -38.44705 -38.43988 -38.43949 -38.43470 -38.43463
  Beta  occ. eigenvalues --  -38.43434 -38.43332  -2.20537  -2.19877  -2.19729
  Beta  occ. eigenvalues --   -2.19403  -2.19333  -2.19217  -2.19144  -1.14217
  Beta  occ. eigenvalues --   -1.14190  -1.14164  -1.13663  -1.13530  -1.13475
  Beta  occ. eigenvalues --   -1.13468  -1.13396  -1.13382  -1.13145  -1.13059
  Beta  occ. eigenvalues --   -1.13033  -1.13024  -1.12992  -1.12976  -1.12889
  Beta  occ. eigenvalues --   -1.12870  -1.12844  -1.12813  -1.12785  -1.12770
  Beta  occ. eigenvalues --   -0.17651  -0.13283  -0.11628
  Beta virt. eigenvalues --   -0.06830  -0.06065  -0.05140  -0.04225  -0.02784
  Beta virt. eigenvalues --   -0.02113  -0.01958  -0.01567  -0.01164  -0.00219
  Beta virt. eigenvalues --   -0.00180   0.00241   0.00348   0.00707   0.00756

 Mulliken charges and spin densities:
               1          2
     1  Na  -0.227235   0.232898
     2  Na  -0.023393  -0.183230
     3  Na  -0.518077   0.834189
     4  Na  -0.061590   0.087850
     5  Na   0.148214  -0.155320
     6  Na   0.572246  -0.012826
     7  Na   0.109835   0.196439
 Sum of Mulliken charges =  -0.00000   1.00000

 Dipole moment (field-independent basis, Debye):
    X=              1.0589    Y=              0.0180    Z=              0.3164  Tot=              1.1053
 Quadrupole moment (field-independent basis, Debye-Ang):
   XX=            -53.1351   YY=            -66.4133   ZZ=            -72.6737
   XY=              0.7675   XZ=              0.7851   YZ=              1.2524

 Normal termination of Gaussian 16 at Tue Dec  5 21:16:55 2023.
