 Gaussian 16, Revision B.01,
 Gaussian 16:  ES64L-G16RevB.01 20-Dec-2017

 -------------------------
 #P B3LYP/6-311+g(d) force
 -------------------------

 -----
 DPGEN
 -----
 Symbolic Z-matrix:
 Charge =  0 Multiplicity = 2

                         Standard orientation:
 ---------------------------------------------------------------------
 Center     Atomic      Atomic             Coordinates (Angstroms)
 Number     Number       Type             X           Y           Z
 ---------------------------------------------------------------------
      1         11           0        2.865125    2.614670   -0.889934
      2         11           0        5.125828    0.600238    0.454283
      3         11           0        2.912875   -1.689910    1.134475
      4         11           0        0.836203   -2.235361   -1.262786
      5         11           0       -1.407332   -0.303042   -0.273685
      6         11           0       -3.924508    0.922520    1.189845
      7         11           0       -6.408189    0.090885   -0.352197
 ---------------------------------------------------------------------

 SCF Done:  E(UB3LYP) =  -1136.10750327     A.U. after   20 cycles

 The electronic state is 2-A.
 Alpha  occ. eigenvalues --  -38.45023 -38.44521 -38.44402 -38.44256 -38.43862
 Alpha  occ. eigenvalues --  -38.43755 -38.43572  -2.20828  -2.20310  -2.20254
 Alpha  occ. eigenvalues --   -2.20105  -2.19716  -2.19592  -2.19385  -1.14508
 Alpha  occ. eigenvalues --   -1.14469  -1.14464  -1.13962  -1.13950  -1.13945
 Alpha  occ. eigenvalues --   -1.13931  -1.13898  -1.13897  -1.13778  -1.13742
 Alpha  occ. eigenvalues --   -1.13739  -1.13428  -1.13369  -1.13354  -1.13257
 Alpha  occ. eigenvalues --   -1.13242  -1.13208  -1.13062  -1.13050  -1.13038
 Alpha  occ. eigenvalues --   -0.16077  -0.14596  -0.12121  -0.10734
 Alpha virt. eigenvalues --   -0.07110  -0.05038  -0.04321  -0.03690  -0.03142
 Alpha virt. eigenvalues --   -0.02598  -0.01978  -0.01797  -0.01345  -0.00646
 Alpha virt. eigenvalues --   -0.00127  -0.00088   0.00289   0.00331   0.00512

  Beta  occ. eigenvalues --  -38.44980 -38.44438 -38.44408 -38.44186 -38.43828
  Beta  occ. eigenvalues --  -38.43767 -38.43584  -2.20748  -2.20268  -2.20155
  Beta  occ. eigenvalues --   -2.19976  -2.19652  -2.19617  -2.19411  -1.14458
  Beta  occ. eigenvalues --   -1.14414  -1.14409  -1.13944  -1.13912  -1.13894
  Beta  occ. eigenvalues --   -1.13856  -1.13838  -1.13830  -1.13691  -1.13659
  Beta  occ. eigenvalues --   -1.13651  -1.13406  -1.13325  -1.13312  -1.13264
  Beta  occ. eigenvalues --   -1.13256  -1.13204  -1.13077  -1.13071  -1.13030
  Beta  occ. eigenvalues --   -0.15593  -0.14159  -0.11821
  Beta virt. eigenvalues --   -0.07512  -0.06377  -0.04698  -0.04122  -0.03445
  Beta virt. eigenvalues --   -0.02641  -0.02490  -0.01695  -0.01573  -0.01056
  Beta virt. eigenvalues --   -0.00404  -0.00045   0.00142   0.00418   0.00519

 Mulliken charges and spin densities:
               1          2
     1  Na   0.129999   0.443188
     2  Na  -0.041517  -0.113969
     3  Na   0.308741   0.406287
     4  Na   0.563866   0.064249
     5  Na  -1.305523   0.015836
     6  Na   0.197245  -0.031458
     7  Na   0.147190   0.215866
 Sum of Mulliken charges =  -0.00000   1.00000

 Dipole moment (field-independent basis, Debye):
    X=             -1.4395    Y=             -0.1561    Z=             -0.2538  Tot=              1.4700
 Quadrupole moment (field-independent basis, Debye-Ang):
   XX=            -59.7234   YY=            -71.7783   ZZ=            -66.2936
   XY=             -0.9459   XZ=              3.5444   YZ=              2.0376

 Normal termination of Gaussian 16 at Mon Nov 27 04:21:59 2023.
