 Gaussian 16, Revision B.01,
 Gaussian 16:  ES64L-G16RevB.01 20-Dec-2017

 -------------------------
 #P B3LYP/6-311+g(d) force
 -------------------------

 -----
 DPGEN
 -----
 Symbolic Z-matrix:
 Charge =  0 Multiplicity = 2

                         Standard orientation:
 ---------------------------------------------------------------------
 Center     Atomic      Atomic             Coordinates (Angstroms)
 Number     Number       Type             X           Y           Z
 ---------------------------------------------------------------------
      1         11           0       -0.031020   -0.020179    2.049911
      2         11           0        1.203310   -2.548014   -0.497085
      3         11           0       -2.556911   -2.147361    0.200794
      4         11           0       -2.762451    1.380035   -0.355298
      5         11           0        0.295432    0.235187   -1.623351
      6         11           0        3.361520   -0.070322    0.196056
      7         11           0        0.490120    3.170654    0.028973
 ---------------------------------------------------------------------

 SCF Done:  E(UB3LYP) =  -1136.13542716     A.U. after   21 cycles

 The electronic state is 2-A.
 Alpha  occ. eigenvalues --  -38.44414 -38.44128 -38.43695 -38.43692 -38.43624
 Alpha  occ. eigenvalues --  -38.43514 -38.43250  -2.20217  -2.19937  -2.19549
 Alpha  occ. eigenvalues --   -2.19478  -2.19427  -2.19382  -2.19201  -1.13886
 Alpha  occ. eigenvalues --   -1.13876  -1.13863  -1.13626  -1.13601  -1.13560
 Alpha  occ. eigenvalues --   -1.13224  -1.13181  -1.13168  -1.13146  -1.13136
 Alpha  occ. eigenvalues --   -1.13131  -1.13122  -1.13110  -1.13087  -1.13062
 Alpha  occ. eigenvalues --   -1.13034  -1.12992  -1.12877  -1.12829  -1.12814
 Alpha  occ. eigenvalues --   -0.18197  -0.12952  -0.12236  -0.10568
 Alpha virt. eigenvalues --   -0.05880  -0.05252  -0.04837  -0.03163  -0.02806
 Alpha virt. eigenvalues --   -0.02511  -0.01720  -0.01289  -0.00559  -0.00477
 Alpha virt. eigenvalues --   -0.00021   0.00337   0.00755   0.00797   0.00861

  Beta  occ. eigenvalues --  -38.44411 -38.44121 -38.43692 -38.43624 -38.43601
  Beta  occ. eigenvalues --  -38.43499 -38.43188  -2.20215  -2.19926  -2.19480
  Beta  occ. eigenvalues --   -2.19428  -2.19377  -2.19358  -2.19090  -1.13880
  Beta  occ. eigenvalues --   -1.13871  -1.13853  -1.13609  -1.13588  -1.13555
  Beta  occ. eigenvalues --   -1.13140  -1.13137  -1.13131  -1.13113  -1.13109
  Beta  occ. eigenvalues --   -1.13091  -1.13082  -1.13060  -1.13057  -1.13032
  Beta  occ. eigenvalues --   -1.13001  -1.12978  -1.12802  -1.12750  -1.12734
  Beta  occ. eigenvalues --   -0.17478  -0.12738  -0.12033
  Beta virt. eigenvalues --   -0.06684  -0.05829  -0.05219  -0.04780  -0.02421
  Beta virt. eigenvalues --   -0.02101  -0.01618  -0.01467  -0.01213  -0.00601
  Beta virt. eigenvalues --   -0.00489   0.00120   0.00368   0.00784   0.00821

 Mulliken charges and spin densities:
               1          2
     1  Na  -0.411952   0.847501
     2  Na   0.191463   0.006796
     3  Na  -0.014670  -0.045346
     4  Na   0.067561  -0.057109
     5  Na   0.113130   0.372685
     6  Na   0.078568  -0.027509
     7  Na  -0.024101  -0.097018
 Sum of Mulliken charges =  -0.00000   1.00000

 Dipole moment (field-independent basis, Debye):
    X=              0.2438    Y=              0.1974    Z=              0.1416  Tot=              0.3442
 Quadrupole moment (field-independent basis, Debye-Ang):
   XX=            -55.2534   YY=            -61.8919   ZZ=            -75.5675
   XY=              0.6679   XZ=              1.0646   YZ=              0.5372

 Normal termination of Gaussian 16 at Fri Dec  8 02:14:22 2023.
