 Gaussian 16, Revision B.01,
 Gaussian 16:  ES64L-G16RevB.01 20-Dec-2017

 -------------------------
 #P B3LYP/6-311+g(d) force
 -------------------------

 -----
 DPGEN
 -----
 Symbolic Z-matrix:
 Charge =  0 Multiplicity = 2

                         Standard orientation:
 ---------------------------------------------------------------------
 Center     Atomic      Atomic             Coordinates (Angstroms)
 Number     Number       Type             X           Y           Z
 ---------------------------------------------------------------------
      1         11           0       -2.899617    0.115373   -1.287690
      2         11           0       -1.706279   -2.673891    0.560281
      3         11           0       -0.421496    2.709403   -0.843319
      4         11           0        3.877801   -1.343093   -0.534400
      5         11           0       -1.464775    0.450287    1.966090
      6         11           0        2.114321    1.493522    1.083697
      7         11           0        0.500045   -0.751601   -0.944660
 ---------------------------------------------------------------------

 SCF Done:  E(UB3LYP) =  -1136.13212644     A.U. after   20 cycles

 The electronic state is 2-A.
 Alpha  occ. eigenvalues --  -38.44324 -38.44031 -38.43991 -38.43889 -38.43641
 Alpha  occ. eigenvalues --  -38.43246 -38.43067  -2.20181  -2.19904  -2.19766
 Alpha  occ. eigenvalues --   -2.19728  -2.19487  -2.19182  -2.18912  -1.13859
 Alpha  occ. eigenvalues --   -1.13836  -1.13790  -1.13585  -1.13551  -1.13506
 Alpha  occ. eigenvalues --   -1.13438  -1.13426  -1.13423  -1.13407  -1.13401
 Alpha  occ. eigenvalues --   -1.13324  -1.13176  -1.13142  -1.13114  -1.12891
 Alpha  occ. eigenvalues --   -1.12852  -1.12791  -1.12595  -1.12563  -1.12553
 Alpha  occ. eigenvalues --   -0.18267  -0.13302  -0.11858  -0.10988
 Alpha virt. eigenvalues --   -0.06204  -0.05153  -0.04550  -0.03228  -0.02783
 Alpha virt. eigenvalues --   -0.02546  -0.01913  -0.01082  -0.00686  -0.00173
 Alpha virt. eigenvalues --   -0.00022   0.00237   0.00418   0.00673   0.00802

  Beta  occ. eigenvalues --  -38.44277 -38.43988 -38.43956 -38.43872 -38.43629
  Beta  occ. eigenvalues --  -38.43224 -38.43056  -2.20097  -2.19767  -2.19761
  Beta  occ. eigenvalues --   -2.19697  -2.19467  -2.19145  -2.18896  -1.13790
  Beta  occ. eigenvalues --   -1.13785  -1.13724  -1.13490  -1.13455  -1.13431
  Beta  occ. eigenvalues --   -1.13423  -1.13410  -1.13403  -1.13393  -1.13380
  Beta  occ. eigenvalues --   -1.13298  -1.13165  -1.13106  -1.13105  -1.12847
  Beta  occ. eigenvalues --   -1.12827  -1.12765  -1.12584  -1.12555  -1.12518
  Beta  occ. eigenvalues --   -0.17568  -0.13117  -0.11599
  Beta virt. eigenvalues --   -0.07161  -0.06012  -0.04975  -0.04279  -0.02812
  Beta virt. eigenvalues --   -0.02236  -0.02037  -0.01407  -0.00993  -0.00425
  Beta virt. eigenvalues --   -0.00048   0.00059   0.00295   0.00510   0.00721

 Mulliken charges and spin densities:
               1          2
     1  Na   0.665238   0.134089
     2  Na   0.245834  -0.062009
     3  Na   0.161502   0.044024
     4  Na   0.359234  -0.018893
     5  Na  -0.354987   0.485780
     6  Na   0.141408   0.000281
     7  Na  -1.218229   0.416727
 Sum of Mulliken charges =  -0.00000   1.00000

 Dipole moment (field-independent basis, Debye):
    X=             -0.2488    Y=             -0.0446    Z=              0.2491  Tot=              0.3548
 Quadrupole moment (field-independent basis, Debye-Ang):
   XX=            -55.3600   YY=            -66.8218   ZZ=            -70.5604
   XY=              0.7691   XZ=              1.6696   YZ=             -0.3510

 Normal termination of Gaussian 16 at Tue Dec  5 13:07:03 2023.
