 Gaussian 16, Revision B.01,
 Gaussian 16:  ES64L-G16RevB.01 20-Dec-2017

 -------------------------
 #P B3LYP/6-311+g(d) force
 -------------------------

 -----
 DPGEN
 -----
 Symbolic Z-matrix:
 Charge =  0 Multiplicity = 2

                         Standard orientation:
 ---------------------------------------------------------------------
 Center     Atomic      Atomic             Coordinates (Angstroms)
 Number     Number       Type             X           Y           Z
 ---------------------------------------------------------------------
      1         11           0        2.565025    0.546634    2.100270
      2         11           0       -0.490228   -0.556180    1.418758
      3         11           0       -0.496781    3.073821   -0.170073
      4         11           0       -3.118021    0.881683   -0.829758
      5         11           0        3.732005   -1.290707   -1.116416
      6         11           0       -3.201180   -2.398344    0.423074
      7         11           0        1.009180   -0.256908   -1.825855
 ---------------------------------------------------------------------

 SCF Done:  E(UB3LYP) =  -1136.11967333     A.U. after   24 cycles

 The electronic state is 2-A.
 Alpha  occ. eigenvalues --  -38.45154 -38.45033 -38.44566 -38.44519 -38.44276
 Alpha  occ. eigenvalues --  -38.42780 -38.42592  -2.20967  -2.20885  -2.20377
 Alpha  occ. eigenvalues --   -2.20349  -2.20148  -2.18589  -2.18384  -1.14648
 Alpha  occ. eigenvalues --   -1.14595  -1.14574  -1.14567  -1.14556  -1.14508
 Alpha  occ. eigenvalues --   -1.14076  -1.14043  -1.14022  -1.13990  -1.13978
 Alpha  occ. eigenvalues --   -1.13956  -1.13855  -1.13791  -1.13769  -1.12258
 Alpha  occ. eigenvalues --   -1.12249  -1.12231  -1.12061  -1.12041  -1.12036
 Alpha  occ. eigenvalues --   -0.17507  -0.13770  -0.12015  -0.11074
 Alpha virt. eigenvalues --   -0.06485  -0.04918  -0.04776  -0.03429  -0.03287
 Alpha virt. eigenvalues --   -0.02384  -0.02276  -0.01390  -0.00874  -0.00316
 Alpha virt. eigenvalues --    0.00031   0.00192   0.00242   0.00458   0.00604

  Beta  occ. eigenvalues --  -38.45068 -38.44977 -38.44556 -38.44485 -38.44231
  Beta  occ. eigenvalues --  -38.42781 -38.42596  -2.20810  -2.20784  -2.20359
  Beta  occ. eigenvalues --   -2.20291  -2.20070  -2.18591  -2.18393  -1.14526
  Beta  occ. eigenvalues --   -1.14501  -1.14490  -1.14486  -1.14464  -1.14430
  Beta  occ. eigenvalues --   -1.14062  -1.14031  -1.13965  -1.13964  -1.13952
  Beta  occ. eigenvalues --   -1.13918  -1.13805  -1.13740  -1.13688  -1.12257
  Beta  occ. eigenvalues --   -1.12251  -1.12233  -1.12068  -1.12045  -1.12036
  Beta  occ. eigenvalues --   -0.16829  -0.13422  -0.10981
  Beta virt. eigenvalues --   -0.07946  -0.06310  -0.04667  -0.04436  -0.03072
  Beta virt. eigenvalues --   -0.02488  -0.02213  -0.01910  -0.01030  -0.00692
  Beta virt. eigenvalues --   -0.00284   0.00111   0.00339   0.00412   0.00588

 Mulliken charges and spin densities:
               1          2
     1  Na   0.506303   0.108900
     2  Na  -1.234142   0.448356
     3  Na  -0.225224  -0.077079
     4  Na   0.395070   0.069934
     5  Na   0.099953  -0.082394
     6  Na   0.692561   0.009360
     7  Na  -0.234521   0.522922
 Sum of Mulliken charges =  -0.00000   1.00000

 Dipole moment (field-independent basis, Debye):
    X=              1.2208    Y=              0.0839    Z=             -0.1421  Tot=              1.2319
 Quadrupole moment (field-independent basis, Debye-Ang):
   XX=            -54.5562   YY=            -73.2308   ZZ=            -68.9926
   XY=             -1.0241   XZ=              5.6760   YZ=              2.5692

 Normal termination of Gaussian 16 at Sun Dec  3 19:23:26 2023.
