 Gaussian 16, Revision B.01,
 Gaussian 16:  ES64L-G16RevB.01 20-Dec-2017

 -------------------------
 #P B3LYP/6-311+g(d) force
 -------------------------

 -----
 DPGEN
 -----
 Symbolic Z-matrix:
 Charge =  0 Multiplicity = 2

                         Standard orientation:
 ---------------------------------------------------------------------
 Center     Atomic      Atomic             Coordinates (Angstroms)
 Number     Number       Type             X           Y           Z
 ---------------------------------------------------------------------
      1         11           0        0.865748   -2.586568   -0.420951
      2         11           0        0.067107    0.085144   -1.820012
      3         11           0       -2.411090   -1.618793    0.378798
      4         11           0       -2.323779    1.742639   -0.410757
      5         11           0       -0.062446   -0.164407    1.896840
      6         11           0        0.981539    2.607867    0.273688
      7         11           0        2.882922   -0.065883    0.102394
 ---------------------------------------------------------------------

 SCF Done:  E(UB3LYP) =  -1136.13909464     A.U. after   17 cycles

 The electronic state is 2-A.
 Alpha  occ. eigenvalues --  -38.43548 -38.43475 -38.43470 -38.43466 -38.43437
 Alpha  occ. eigenvalues --  -38.43201 -38.43197  -2.19524  -2.19442  -2.19373
 Alpha  occ. eigenvalues --   -2.19351  -2.19346  -2.19116  -2.19097  -1.13228
 Alpha  occ. eigenvalues --   -1.13198  -1.13156  -1.13143  -1.13130  -1.13089
 Alpha  occ. eigenvalues --   -1.13038  -1.13033  -1.13027  -1.13013  -1.13007
 Alpha  occ. eigenvalues --   -1.12997  -1.12990  -1.12986  -1.12949  -1.12793
 Alpha  occ. eigenvalues --   -1.12771  -1.12764  -1.12759  -1.12727  -1.12718
 Alpha  occ. eigenvalues --   -0.19326  -0.13029  -0.12699  -0.11290
 Alpha virt. eigenvalues --   -0.05061  -0.04933  -0.04588  -0.03311  -0.03155
 Alpha virt. eigenvalues --   -0.02806  -0.01197  -0.00983  -0.00124   0.00092
 Alpha virt. eigenvalues --    0.00120   0.00375   0.00908   0.00962   0.00974

  Beta  occ. eigenvalues --  -38.43465 -38.43464 -38.43461 -38.43460 -38.43356
  Beta  occ. eigenvalues --  -38.43194 -38.43185  -2.19371  -2.19367  -2.19337
  Beta  occ. eigenvalues --   -2.19332  -2.19295  -2.19098  -2.19088  -1.13144
  Beta  occ. eigenvalues --   -1.13113  -1.13079  -1.13053  -1.13049  -1.13036
  Beta  occ. eigenvalues --   -1.13020  -1.13007  -1.12993  -1.12980  -1.12974
  Beta  occ. eigenvalues --   -1.12961  -1.12954  -1.12941  -1.12923  -1.12770
  Beta  occ. eigenvalues --   -1.12761  -1.12737  -1.12737  -1.12709  -1.12706
  Beta  occ. eigenvalues --   -0.18575  -0.12745  -0.12411
  Beta virt. eigenvalues --   -0.07326  -0.05038  -0.04917  -0.04571  -0.02486
  Beta virt. eigenvalues --   -0.02341  -0.01727  -0.01115  -0.00907  -0.00068
  Beta virt. eigenvalues --    0.00054   0.00137   0.00390   0.00949   0.00956

 Mulliken charges and spin densities:
               1          2
     1  Na   0.281873  -0.011021
     2  Na  -0.359026   0.559713
     3  Na   0.150845  -0.019833
     4  Na   0.098861  -0.043603
     5  Na  -0.409306   0.614659
     6  Na   0.106017  -0.040755
     7  Na   0.130736  -0.059159
 Sum of Mulliken charges =  -0.00000   1.00000

 Dipole moment (field-independent basis, Debye):
    X=             -0.0707    Y=              0.0216    Z=              0.0664  Tot=              0.0994
 Quadrupole moment (field-independent basis, Debye-Ang):
   XX=            -59.7128   YY=            -63.2469   ZZ=            -71.7327
   XY=              0.0181   XZ=              0.4012   YZ=              0.4294

 Normal termination of Gaussian 16 at Thu Dec  7 07:21:21 2023.
