 Gaussian 16, Revision B.01,
 Gaussian 16:  ES64L-G16RevB.01 20-Dec-2017

 -------------------------
 #P B3LYP/6-311+g(d) force
 -------------------------

 -----
 DPGEN
 -----
 Symbolic Z-matrix:
 Charge =  0 Multiplicity = 2

                         Standard orientation:
 ---------------------------------------------------------------------
 Center     Atomic      Atomic             Coordinates (Angstroms)
 Number     Number       Type             X           Y           Z
 ---------------------------------------------------------------------
      1         11           0       -3.283049   -0.303583    0.248779
      2         11           0       -0.903325    2.938554   -0.466307
      3         11           0        2.470369    1.628925    0.110557
      4         11           0        2.738350   -1.705040   -0.315396
      5         11           0       -0.844794   -2.608559   -0.008832
      6         11           0       -0.364049   -0.163066   -1.631457
      7         11           0        0.186499    0.212768    2.062656
 ---------------------------------------------------------------------

 SCF Done:  E(UB3LYP) =  -1136.13581879     A.U. after   19 cycles

 The electronic state is 2-A.
 Alpha  occ. eigenvalues --  -38.44386 -38.43765 -38.43722 -38.43721 -38.43416
 Alpha  occ. eigenvalues --  -38.43378 -38.43275  -2.20199  -2.19616  -2.19601
 Alpha  occ. eigenvalues --   -2.19537  -2.19282  -2.19251  -2.19230  -1.13868
 Alpha  occ. eigenvalues --   -1.13859  -1.13841  -1.13338  -1.13294  -1.13264
 Alpha  occ. eigenvalues --   -1.13254  -1.13219  -1.13209  -1.13204  -1.13184
 Alpha  occ. eigenvalues --   -1.13175  -1.13127  -1.12955  -1.12930  -1.12896
 Alpha  occ. eigenvalues --   -1.12886  -1.12876  -1.12863  -1.12842  -1.12825
 Alpha  occ. eigenvalues --   -0.18533  -0.13078  -0.12324  -0.10731
 Alpha virt. eigenvalues --   -0.05823  -0.05128  -0.04643  -0.03281  -0.02835
 Alpha virt. eigenvalues --   -0.02520  -0.01693  -0.01128  -0.00410  -0.00283
 Alpha virt. eigenvalues --   -0.00021   0.00349   0.00777   0.00854   0.00896

  Beta  occ. eigenvalues --  -38.44382 -38.43760 -38.43717 -38.43629 -38.43405
  Beta  occ. eigenvalues --  -38.43370 -38.43212  -2.20194  -2.19611  -2.19533
  Beta  occ. eigenvalues --   -2.19430  -2.19269  -2.19214  -2.19141  -1.13862
  Beta  occ. eigenvalues --   -1.13843  -1.13839  -1.13314  -1.13278  -1.13249
  Beta  occ. eigenvalues --   -1.13192  -1.13184  -1.13169  -1.13152  -1.13105
  Beta  occ. eigenvalues --   -1.13093  -1.13087  -1.12917  -1.12902  -1.12871
  Beta  occ. eigenvalues --   -1.12865  -1.12853  -1.12828  -1.12774  -1.12758
  Beta  occ. eigenvalues --   -0.17814  -0.12871  -0.12058
  Beta virt. eigenvalues --   -0.06855  -0.05755  -0.05101  -0.04587  -0.02498
  Beta virt. eigenvalues --   -0.02115  -0.01597  -0.01488  -0.01046  -0.00442
  Beta virt. eigenvalues --   -0.00328   0.00121   0.00375   0.00834   0.00852

 Mulliken charges and spin densities:
               1          2
     1  Na   0.119880  -0.025022
     2  Na  -0.001474  -0.074405
     3  Na   0.232986   0.003283
     4  Na   0.011753  -0.053288
     5  Na   0.246419   0.012794
     6  Na  -0.209282   0.484195
     7  Na  -0.400282   0.652441
 Sum of Mulliken charges =  -0.00000   1.00000

 Dipole moment (field-independent basis, Debye):
    X=             -0.2717    Y=              0.0315    Z=              0.1978  Tot=              0.3375
 Quadrupole moment (field-independent basis, Debye-Ang):
   XX=            -55.0250   YY=            -63.8052   ZZ=            -74.4218
   XY=             -0.6320   XZ=             -1.4696   YZ=             -0.6172

 Normal termination of Gaussian 16 at Thu Dec  7 16:21:02 2023.
