 Gaussian 16, Revision B.01,
 Gaussian 16:  ES64L-G16RevB.01 20-Dec-2017

 -------------------------
 #P B3LYP/6-311+g(d) force
 -------------------------

 -----
 DPGEN
 -----
 Symbolic Z-matrix:
 Charge =  0 Multiplicity = 2

                         Standard orientation:
 ---------------------------------------------------------------------
 Center     Atomic      Atomic             Coordinates (Angstroms)
 Number     Number       Type             X           Y           Z
 ---------------------------------------------------------------------
      1         11           0        0.941484   -1.602958    0.312939
      2         11           0       -0.015091    0.371951    2.034271
      3         11           0        2.811164    0.190573   -0.128306
      4         11           0       -0.204276   -0.509833   -1.993746
      5         11           0       -2.194770    1.189486   -0.162143
      6         11           0       -1.794503   -1.475688    0.283336
      7         11           0        0.455992    1.836469   -0.346351
 ---------------------------------------------------------------------

 SCF Done:  E(UB3LYP) =  -1136.07477429     A.U. after   22 cycles

 The electronic state is 2-A.
 Alpha  occ. eigenvalues --  -38.44726 -38.44546 -38.44417 -38.43804 -38.43611
 Alpha  occ. eigenvalues --  -38.43608 -38.43111  -2.20873  -2.20696  -2.20446
 Alpha  occ. eigenvalues --   -2.19925  -2.19896  -2.19757  -2.19317  -1.14685
 Alpha  occ. eigenvalues --   -1.14543  -1.14507  -1.14466  -1.14401  -1.14349
 Alpha  occ. eigenvalues --   -1.14298  -1.14134  -1.14013  -1.13835  -1.13754
 Alpha  occ. eigenvalues --   -1.13716  -1.13509  -1.13477  -1.13416  -1.13349
 Alpha  occ. eigenvalues --   -1.13266  -1.13191  -1.12959  -1.12953  -1.12877
 Alpha  occ. eigenvalues --   -0.21765  -0.13978  -0.13121  -0.12177
 Alpha virt. eigenvalues --   -0.05394  -0.04155  -0.03955  -0.03816  -0.03197
 Alpha virt. eigenvalues --   -0.03093  -0.01205  -0.00363  -0.00218   0.00318
 Alpha virt. eigenvalues --    0.00737   0.00916   0.01046   0.01119   0.01185

  Beta  occ. eigenvalues --  -38.44628 -38.44457 -38.44414 -38.43792 -38.43589
  Beta  occ. eigenvalues --  -38.43584 -38.43086  -2.20697  -2.20535  -2.20443
  Beta  occ. eigenvalues --   -2.19907  -2.19857  -2.19730  -2.19279  -1.14574
  Beta  occ. eigenvalues --   -1.14425  -1.14415  -1.14403  -1.14314  -1.14223
  Beta  occ. eigenvalues --   -1.14189  -1.14129  -1.13984  -1.13826  -1.13738
  Beta  occ. eigenvalues --   -1.13699  -1.13450  -1.13399  -1.13378  -1.13277
  Beta  occ. eigenvalues --   -1.13253  -1.13178  -1.12942  -1.12864  -1.12859
  Beta  occ. eigenvalues --   -0.20824  -0.13631  -0.11929
  Beta virt. eigenvalues --   -0.08721  -0.05385  -0.03881  -0.03550  -0.03129
  Beta virt. eigenvalues --   -0.02502  -0.02177  -0.01127  -0.00213  -0.00108
  Beta virt. eigenvalues --    0.00349   0.00774   0.00925   0.01100   0.01177

 Mulliken charges and spin densities:
               1          2
     1  Na  -0.404626  -0.019683
     2  Na   0.180278   0.454127
     3  Na  -0.048126  -0.039046
     4  Na   0.179962   0.505077
     5  Na   0.130596   0.025688
     6  Na   0.151110   0.001373
     7  Na  -0.189194   0.072464
 Sum of Mulliken charges =  -0.00000   1.00000

 Dipole moment (field-independent basis, Debye):
    X=              0.1679    Y=              0.1863    Z=             -0.0448  Tot=              0.2547
 Quadrupole moment (field-independent basis, Debye-Ang):
   XX=            -59.3094   YY=            -75.5876   ZZ=            -63.4555
   XY=              0.4294   XZ=             -0.4389   YZ=             -1.8381

 Normal termination of Gaussian 16 at Sat Dec  9 06:14:59 2023.
