 Gaussian 16, Revision B.01,
 Gaussian 16:  ES64L-G16RevB.01 20-Dec-2017

 -------------------------
 #P B3LYP/6-311+g(d) force
 -------------------------

 -----
 DPGEN
 -----
 Symbolic Z-matrix:
 Charge =  0 Multiplicity = 2

                         Standard orientation:
 ---------------------------------------------------------------------
 Center     Atomic      Atomic             Coordinates (Angstroms)
 Number     Number       Type             X           Y           Z
 ---------------------------------------------------------------------
      1         11           0       -0.028708   -0.028812   -1.646362
      2         11           0        1.974654   -2.439166   -0.645488
      3         11           0       -2.063522   -2.177052   -0.017272
      4         11           0        0.248683   -0.662087    2.073533
      5         11           0        3.089935    1.252843    0.388599
      6         11           0        0.007571    2.999340   -0.314784
      7         11           0       -3.228612    1.054935    0.161773
 ---------------------------------------------------------------------

 SCF Done:  E(UB3LYP) =  -1136.13429488     A.U. after   19 cycles

 The electronic state is 2-A.
 Alpha  occ. eigenvalues --  -38.44329 -38.44211 -38.43854 -38.43849 -38.43822
 Alpha  occ. eigenvalues --  -38.43363 -38.43278  -2.20107  -2.19996  -2.19701
 Alpha  occ. eigenvalues --   -2.19667  -2.19663  -2.19219  -2.19175  -1.13783
 Alpha  occ. eigenvalues --   -1.13757  -1.13750  -1.13673  -1.13654  -1.13641
 Alpha  occ. eigenvalues --   -1.13384  -1.13360  -1.13352  -1.13349  -1.13338
 Alpha  occ. eigenvalues --   -1.13305  -1.13300  -1.13296  -1.13281  -1.12927
 Alpha  occ. eigenvalues --   -1.12893  -1.12843  -1.12841  -1.12814  -1.12794
 Alpha  occ. eigenvalues --   -0.18056  -0.12855  -0.12313  -0.10651
 Alpha virt. eigenvalues --   -0.05819  -0.05594  -0.04635  -0.03185  -0.02868
 Alpha virt. eigenvalues --   -0.02526  -0.01676  -0.01387  -0.00545  -0.00504
 Alpha virt. eigenvalues --   -0.00040   0.00333   0.00730   0.00786   0.00835

  Beta  occ. eigenvalues --  -38.44322 -38.44213 -38.43829 -38.43817 -38.43770
  Beta  occ. eigenvalues --  -38.43360 -38.43212  -2.20094  -2.20000  -2.19659
  Beta  occ. eigenvalues --   -2.19633  -2.19546  -2.19172  -2.19101  -1.13759
  Beta  occ. eigenvalues --   -1.13749  -1.13745  -1.13672  -1.13656  -1.13641
  Beta  occ. eigenvalues --   -1.13354  -1.13325  -1.13319  -1.13288  -1.13279
  Beta  occ. eigenvalues --   -1.13272  -1.13256  -1.13222  -1.13199  -1.12890
  Beta  occ. eigenvalues --   -1.12833  -1.12814  -1.12796  -1.12764  -1.12741
  Beta  occ. eigenvalues --   -0.17367  -0.12654  -0.12070
  Beta virt. eigenvalues --   -0.06816  -0.05686  -0.05573  -0.04545  -0.02493
  Beta virt. eigenvalues --   -0.02202  -0.01563  -0.01509  -0.01283  -0.00600
  Beta virt. eigenvalues --   -0.00506   0.00116   0.00374   0.00790   0.00807

 Mulliken charges and spin densities:
               1          2
     1  Na   0.098283   0.442385
     2  Na   0.162748  -0.012505
     3  Na   0.294937   0.011214
     4  Na  -0.353801   0.656094
     5  Na  -0.065730   0.019767
     6  Na   0.004781  -0.061580
     7  Na  -0.141220  -0.055375
 Sum of Mulliken charges =  -0.00000   1.00000

 Dipole moment (field-independent basis, Debye):
    X=              0.0578    Y=             -0.1510    Z=              0.2173  Tot=              0.2708
 Quadrupole moment (field-independent basis, Debye-Ang):
   XX=            -55.0361   YY=            -63.3570   ZZ=            -74.9356
   XY=             -0.6277   XZ=             -0.4586   YZ=              1.5208

 Normal termination of Gaussian 16 at Thu Dec  7 05:41:37 2023.
