 Gaussian 16, Revision B.01,
 Gaussian 16:  ES64L-G16RevB.01 20-Dec-2017

 -------------------------
 #P B3LYP/6-311+g(d) force
 -------------------------

 -----
 DPGEN
 -----
 Symbolic Z-matrix:
 Charge =  0 Multiplicity = 2

                         Standard orientation:
 ---------------------------------------------------------------------
 Center     Atomic      Atomic             Coordinates (Angstroms)
 Number     Number       Type             X           Y           Z
 ---------------------------------------------------------------------
      1         11           0       -2.722907   -2.469667   -0.433977
      2         11           0        0.375157   -0.377800   -1.752665
      3         11           0       -2.510520    0.649966    0.413650
      4         11           0       -0.539582    3.507712   -0.577351
      5         11           0        3.368937   -1.763883   -0.425405
      6         11           0        2.040727    1.407663    0.813014
      7         11           0       -0.011811   -0.953990    1.962734
 ---------------------------------------------------------------------

 SCF Done:  E(UB3LYP) =  -1136.13091483     A.U. after   18 cycles

 The electronic state is 2-A.
 Alpha  occ. eigenvalues --  -38.44200 -38.44145 -38.44099 -38.43966 -38.43942
 Alpha  occ. eigenvalues --  -38.43829 -38.43062  -2.19991  -2.19978  -2.19900
 Alpha  occ. eigenvalues --   -2.19842  -2.19795  -2.19699  -2.18851  -1.13688
 Alpha  occ. eigenvalues --   -1.13655  -1.13648  -1.13631  -1.13620  -1.13589
 Alpha  occ. eigenvalues --   -1.13585  -1.13560  -1.13556  -1.13542  -1.13503
 Alpha  occ. eigenvalues --   -1.13475  -1.13466  -1.13435  -1.13386  -1.13378
 Alpha  occ. eigenvalues --   -1.13373  -1.13292  -1.12521  -1.12515  -1.12489
 Alpha  occ. eigenvalues --   -0.17965  -0.13131  -0.11939  -0.10853
 Alpha virt. eigenvalues --   -0.05847  -0.05619  -0.04570  -0.03431  -0.02708
 Alpha virt. eigenvalues --   -0.02612  -0.01829  -0.01496  -0.00468  -0.00448
 Alpha virt. eigenvalues --    0.00091   0.00288   0.00636   0.00755   0.00772

  Beta  occ. eigenvalues --  -38.44196 -38.44096 -38.44085 -38.43922 -38.43877
  Beta  occ. eigenvalues --  -38.43822 -38.43058  -2.19971  -2.19897  -2.19879
  Beta  occ. eigenvalues --   -2.19762  -2.19689  -2.19679  -2.18845  -1.13646
  Beta  occ. eigenvalues --   -1.13632  -1.13616  -1.13601  -1.13587  -1.13556
  Beta  occ. eigenvalues --   -1.13541  -1.13538  -1.13518  -1.13491  -1.13435
  Beta  occ. eigenvalues --   -1.13423  -1.13377  -1.13366  -1.13357  -1.13342
  Beta  occ. eigenvalues --   -1.13311  -1.13288  -1.12518  -1.12505  -1.12486
  Beta  occ. eigenvalues --   -0.17223  -0.12952  -0.11780
  Beta virt. eigenvalues --   -0.06980  -0.05679  -0.05491  -0.04446  -0.02765
  Beta virt. eigenvalues --   -0.02219  -0.01752  -0.01659  -0.01367  -0.00494
  Beta virt. eigenvalues --   -0.00219   0.00174   0.00324   0.00743   0.00784

 Mulliken charges and spin densities:
               1          2
     1  Na  -0.038374  -0.063180
     2  Na  -0.227440   0.612538
     3  Na   0.022551   0.178606
     4  Na   0.119901  -0.111033
     5  Na  -0.069965  -0.061658
     6  Na   0.102866   0.156968
     7  Na   0.090460   0.287759
 Sum of Mulliken charges =  -0.00000   1.00000

 Dipole moment (field-independent basis, Debye):
    X=              0.1998    Y=             -0.9236    Z=             -0.0521  Tot=              0.9464
 Quadrupole moment (field-independent basis, Debye-Ang):
   XX=            -58.2044   YY=            -62.3454   ZZ=            -73.0808
   XY=              0.3807   XZ=              1.1077   YZ=              0.7645

 Normal termination of Gaussian 16 at Thu Dec  7 04:12:49 2023.
