 Gaussian 16, Revision B.01,
 Gaussian 16:  ES64L-G16RevB.01 20-Dec-2017

 -------------------------
 #P B3LYP/6-311+g(d) force
 -------------------------

 -----
 DPGEN
 -----
 Symbolic Z-matrix:
 Charge =  0 Multiplicity = 2

                         Standard orientation:
 ---------------------------------------------------------------------
 Center     Atomic      Atomic             Coordinates (Angstroms)
 Number     Number       Type             X           Y           Z
 ---------------------------------------------------------------------
      1         11           0       -2.479120    1.347706   -0.704796
      2         11           0       -2.099070   -1.146560    1.476199
      3         11           0        1.214961   -1.977952    0.894581
      4         11           0        0.447293    1.383635    2.357020
      5         11           0       -1.001014   -1.670993   -2.153017
      6         11           0        3.400178   -0.007188   -0.686212
      7         11           0        0.516772    2.071353   -1.183777
 ---------------------------------------------------------------------

 SCF Done:  E(UB3LYP) =  -1136.12729921     A.U. after   22 cycles

 The electronic state is 2-A.
 Alpha  occ. eigenvalues --  -38.45634 -38.45405 -38.44040 -38.43638 -38.43299
 Alpha  occ. eigenvalues --  -38.42836 -38.42645  -2.21437  -2.21195  -2.19832
 Alpha  occ. eigenvalues --   -2.19483  -2.19164  -2.18677  -2.18499  -1.15091
 Alpha  occ. eigenvalues --   -1.15062  -1.15060  -1.14851  -1.14824  -1.14816
 Alpha  occ. eigenvalues --   -1.13500  -1.13494  -1.13469  -1.13167  -1.13146
 Alpha  occ. eigenvalues --   -1.13122  -1.12865  -1.12824  -1.12797  -1.12362
 Alpha  occ. eigenvalues --   -1.12357  -1.12310  -1.12182  -1.12168  -1.12131
 Alpha  occ. eigenvalues --   -0.18048  -0.12669  -0.12326  -0.11542
 Alpha virt. eigenvalues --   -0.05980  -0.04851  -0.04492  -0.03561  -0.03419
 Alpha virt. eigenvalues --   -0.03305  -0.01259  -0.01052  -0.00534   0.00080
 Alpha virt. eigenvalues --    0.00193   0.00267   0.00425   0.00587   0.00804

  Beta  occ. eigenvalues --  -38.45547 -38.45330 -38.44031 -38.43624 -38.43298
  Beta  occ. eigenvalues --  -38.42834 -38.42640  -2.21276  -2.21055  -2.19816
  Beta  occ. eigenvalues --   -2.19459  -2.19166  -2.18677  -2.18492  -1.14982
  Beta  occ. eigenvalues --   -1.14951  -1.14941  -1.14753  -1.14727  -1.14721
  Beta  occ. eigenvalues --   -1.13486  -1.13482  -1.13460  -1.13152  -1.13131
  Beta  occ. eigenvalues --   -1.13085  -1.12867  -1.12822  -1.12786  -1.12364
  Beta  occ. eigenvalues --   -1.12329  -1.12315  -1.12180  -1.12144  -1.12129
  Beta  occ. eigenvalues --   -0.17222  -0.12481  -0.11377
  Beta virt. eigenvalues --   -0.08445  -0.05473  -0.04516  -0.04239  -0.03308
  Beta virt. eigenvalues --   -0.02839  -0.02506  -0.01192  -0.00575  -0.00462
  Beta virt. eigenvalues --    0.00182   0.00220   0.00317   0.00477   0.00769

 Mulliken charges and spin densities:
               1          2
     1  Na   0.096649   0.071325
     2  Na   0.325439   0.071501
     3  Na  -0.008697  -0.054338
     4  Na  -0.272811   0.472559
     5  Na  -0.271691   0.431365
     6  Na   0.164902   0.020318
     7  Na  -0.033791  -0.012730
 Sum of Mulliken charges =  -0.00000   1.00000

 Dipole moment (field-independent basis, Debye):
    X=              0.0049    Y=             -0.1655    Z=              0.0378  Tot=              0.1698
 Quadrupole moment (field-independent basis, Debye-Ang):
   XX=            -62.4418   YY=            -74.1014   ZZ=            -60.6359
   XY=              0.7956   XZ=             -0.9125   YZ=              6.8839

 Normal termination of Gaussian 16 at Sun Dec  3 22:14:41 2023.
