 Gaussian 16, Revision B.01,
 Gaussian 16:  ES64L-G16RevB.01 20-Dec-2017

 -------------------------
 #P B3LYP/6-311+g(d) force
 -------------------------

 -----
 DPGEN
 -----
 Symbolic Z-matrix:
 Charge =  0 Multiplicity = 2

                         Standard orientation:
 ---------------------------------------------------------------------
 Center     Atomic      Atomic             Coordinates (Angstroms)
 Number     Number       Type             X           Y           Z
 ---------------------------------------------------------------------
      1         11           0       -2.674405    0.819733   -0.368284
      2         11           0       -2.793795   -2.077603    0.100665
      3         11           0        0.024666   -0.559184    1.651141
      4         11           0        0.362860   -0.471536   -1.544082
      5         11           0        2.702957   -2.084951   -0.032905
      6         11           0        2.694422    1.193392   -0.011268
      7         11           0       -0.316706    3.180149    0.204733
 ---------------------------------------------------------------------

 SCF Done:  E(UB3LYP) =  -1136.12887346     A.U. after   21 cycles

 The electronic state is 2-A.
 Alpha  occ. eigenvalues --  -38.44433 -38.44204 -38.44179 -38.43877 -38.43444
 Alpha  occ. eigenvalues --  -38.43208 -38.42968  -2.20308  -2.20058  -2.20046
 Alpha  occ. eigenvalues --   -2.19794  -2.19413  -2.19142  -2.18779  -1.14011
 Alpha  occ. eigenvalues --   -1.13976  -1.13938  -1.13837  -1.13724  -1.13698
 Alpha  occ. eigenvalues --   -1.13691  -1.13688  -1.13688  -1.13459  -1.13442
 Alpha  occ. eigenvalues --   -1.13405  -1.13137  -1.13040  -1.13024  -1.12839
 Alpha  occ. eigenvalues --   -1.12761  -1.12748  -1.12454  -1.12439  -1.12424
 Alpha  occ. eigenvalues --   -0.18728  -0.13971  -0.12095  -0.10124
 Alpha virt. eigenvalues --   -0.06086  -0.05748  -0.04549  -0.03458  -0.02326
 Alpha virt. eigenvalues --   -0.02027  -0.01943  -0.01396  -0.00691  -0.00225
 Alpha virt. eigenvalues --    0.00022   0.00297   0.00674   0.00732   0.00857

  Beta  occ. eigenvalues --  -38.44424 -38.44203 -38.44173 -38.43867 -38.43380
  Beta  occ. eigenvalues --  -38.43128 -38.42969  -2.20297  -2.20060  -2.20039
  Beta  occ. eigenvalues --   -2.19778  -2.19298  -2.18997  -2.18782  -1.14002
  Beta  occ. eigenvalues --   -1.13949  -1.13925  -1.13840  -1.13717  -1.13692
  Beta  occ. eigenvalues --   -1.13687  -1.13678  -1.13659  -1.13448  -1.13406
  Beta  occ. eigenvalues --   -1.13402  -1.13050  -1.12959  -1.12938  -1.12737
  Beta  occ. eigenvalues --   -1.12656  -1.12642  -1.12459  -1.12428  -1.12425
  Beta  occ. eigenvalues --   -0.18027  -0.13714  -0.11909
  Beta virt. eigenvalues --   -0.06282  -0.06019  -0.05702  -0.04497  -0.02633
  Beta virt. eigenvalues --   -0.01915  -0.01709  -0.01346  -0.01001  -0.00747
  Beta virt. eigenvalues --   -0.00188   0.00191   0.00339   0.00735   0.00746

 Mulliken charges and spin densities:
               1          2
     1  Na   0.071209   0.113004
     2  Na   0.230604   0.000896
     3  Na  -0.248621   0.533679
     4  Na  -0.095117   0.292430
     5  Na   0.309161   0.048519
     6  Na   0.072818   0.079664
     7  Na  -0.340054  -0.068192
 Sum of Mulliken charges =  -0.00000   1.00000

 Dipole moment (field-independent basis, Debye):
    X=              0.4242    Y=             -0.6457    Z=              0.0687  Tot=              0.7757
 Quadrupole moment (field-independent basis, Debye-Ang):
   XX=            -52.6404   YY=            -61.8651   ZZ=            -77.8084
   XY=              0.3606   XZ=              0.6760   YZ=              0.0920

 Normal termination of Gaussian 16 at Thu Dec  7 03:40:19 2023.
