 Gaussian 16, Revision B.01,
 Gaussian 16:  ES64L-G16RevB.01 20-Dec-2017

 -------------------------
 #P B3LYP/6-311+g(d) force
 -------------------------

 -----
 DPGEN
 -----
 Symbolic Z-matrix:
 Charge =  0 Multiplicity = 2

                         Standard orientation:
 ---------------------------------------------------------------------
 Center     Atomic      Atomic             Coordinates (Angstroms)
 Number     Number       Type             X           Y           Z
 ---------------------------------------------------------------------
      1         11           0       -8.346801   -0.836992   -0.053529
      2         11           0       -5.282001   -1.128154   -0.592010
      3         11           0        0.240437    0.956714    1.719895
      4         11           0        3.058352    2.322270   -0.399235
      5         11           0       -2.289431    1.314271   -0.069552
      6         11           0        6.688945   -2.218400    0.877813
      7         11           0        5.930499   -0.409708   -1.483383
 ---------------------------------------------------------------------

 SCF Done:  E(UB3LYP) =  -1136.10389084     A.U. after   18 cycles

 The electronic state is 2-A.
 Alpha  occ. eigenvalues --  -38.44983 -38.44599 -38.44491 -38.44471 -38.44394
 Alpha  occ. eigenvalues --  -38.44209 -38.43947  -2.20758  -2.20384  -2.20303
 Alpha  occ. eigenvalues --   -2.20277  -2.20187  -2.19994  -2.19733  -1.14410
 Alpha  occ. eigenvalues --   -1.14395  -1.14359  -1.14121  -1.14056  -1.14031
 Alpha  occ. eigenvalues --   -1.13967  -1.13953  -1.13944  -1.13917  -1.13915
 Alpha  occ. eigenvalues --   -1.13892  -1.13852  -1.13833  -1.13832  -1.13662
 Alpha  occ. eigenvalues --   -1.13646  -1.13635  -1.13404  -1.13398  -1.13377
 Alpha  occ. eigenvalues --   -0.15076  -0.13978  -0.12876  -0.11048
 Alpha virt. eigenvalues --   -0.06959  -0.05255  -0.04553  -0.03352  -0.03005
 Alpha virt. eigenvalues --   -0.02701  -0.02365  -0.01854  -0.01658  -0.01298
 Alpha virt. eigenvalues --   -0.00779  -0.00358  -0.00119   0.00298   0.00377

  Beta  occ. eigenvalues --  -38.44874 -38.44617 -38.44438 -38.44423 -38.44358
  Beta  occ. eigenvalues --  -38.44220 -38.43956  -2.20554  -2.20420  -2.20203
  Beta  occ. eigenvalues --   -2.20187  -2.20120  -2.20018  -2.19752  -1.14271
  Beta  occ. eigenvalues --   -1.14257  -1.14225  -1.14121  -1.14084  -1.14039
  Beta  occ. eigenvalues --   -1.13917  -1.13885  -1.13875  -1.13856  -1.13853
  Beta  occ. eigenvalues --   -1.13845  -1.13810  -1.13787  -1.13786  -1.13682
  Beta  occ. eigenvalues --   -1.13663  -1.13618  -1.13420  -1.13414  -1.13365
  Beta  occ. eigenvalues --   -0.14464  -0.13425  -0.12522
  Beta virt. eigenvalues --   -0.07837  -0.06426  -0.04854  -0.04368  -0.03143
  Beta virt. eigenvalues --   -0.02775  -0.02457  -0.02232  -0.01644  -0.01401
  Beta virt. eigenvalues --   -0.00917  -0.00545  -0.00076   0.00070   0.00361

 Mulliken charges and spin densities:
               1          2
     1  Na   0.397388   0.163430
     2  Na  -0.412940  -0.033224
     3  Na  -0.039072  -0.060906
     4  Na   0.029350   0.548637
     5  Na  -0.020360   0.218878
     6  Na   0.218234   0.211174
     7  Na  -0.172600  -0.047990
 Sum of Mulliken charges =  -0.00000   1.00000

 Dipole moment (field-independent basis, Debye):
    X=              0.0984    Y=              0.0682    Z=              0.4922  Tot=              0.5065
 Quadrupole moment (field-independent basis, Debye-Ang):
   XX=            -62.7466   YY=            -70.3562   ZZ=            -65.1571
   XY=             -2.8938   XZ=              1.5756   YZ=             -5.0463

 Normal termination of Gaussian 16 at Sun Dec  3 20:23:59 2023.
