 Gaussian 16, Revision B.01,
 Gaussian 16:  ES64L-G16RevB.01 20-Dec-2017

 -------------------------
 #P B3LYP/6-311+g(d) force
 -------------------------

 -----
 DPGEN
 -----
 Symbolic Z-matrix:
 Charge =  0 Multiplicity = 2

                         Standard orientation:
 ---------------------------------------------------------------------
 Center     Atomic      Atomic             Coordinates (Angstroms)
 Number     Number       Type             X           Y           Z
 ---------------------------------------------------------------------
      1         11           0        1.602087   -2.392940   -1.654473
      2         11           0        5.060340   -0.656273    1.825921
      3         11           0        3.105655    0.553757   -0.462342
      4         11           0        0.677049    3.087353   -0.896483
      5         11           0       -0.297612   -0.044203   -0.166502
      6         11           0       -4.072421    0.002072    1.812105
      7         11           0       -6.075098   -0.549766   -0.458226
 ---------------------------------------------------------------------

 SCF Done:  E(UB3LYP) =  -1136.10710420     A.U. after   21 cycles

 The electronic state is 2-A.
 Alpha  occ. eigenvalues --  -38.44961 -38.44945 -38.44602 -38.44236 -38.43554
 Alpha  occ. eigenvalues --  -38.43430 -38.43355  -2.20772  -2.20739  -2.20395
 Alpha  occ. eigenvalues --   -2.20080  -2.19349  -2.19252  -2.19243  -1.14430
 Alpha  occ. eigenvalues --   -1.14421  -1.14414  -1.14396  -1.14393  -1.14373
 Alpha  occ. eigenvalues --   -1.14052  -1.14040  -1.14028  -1.13772  -1.13738
 Alpha  occ. eigenvalues --   -1.13722  -1.13034  -1.12995  -1.12978  -1.12940
 Alpha  occ. eigenvalues --   -1.12931  -1.12912  -1.12901  -1.12879  -1.12821
 Alpha  occ. eigenvalues --   -0.16576  -0.13707  -0.11651  -0.11481
 Alpha virt. eigenvalues --   -0.06802  -0.05038  -0.04681  -0.03251  -0.03068
 Alpha virt. eigenvalues --   -0.02503  -0.02156  -0.01541  -0.01166  -0.00875
 Alpha virt. eigenvalues --   -0.00663  -0.00334   0.00138   0.00444   0.00549

  Beta  occ. eigenvalues --  -38.44966 -38.44845 -38.44600 -38.44227 -38.43498
  Beta  occ. eigenvalues --  -38.43390 -38.43339  -2.20749  -2.20588  -2.20390
  Beta  occ. eigenvalues --   -2.20069  -2.19246  -2.19219  -2.19177  -1.14435
  Beta  occ. eigenvalues --   -1.14402  -1.14399  -1.14293  -1.14286  -1.14251
  Beta  occ. eigenvalues --   -1.14049  -1.14038  -1.14028  -1.13767  -1.13732
  Beta  occ. eigenvalues --   -1.13682  -1.12972  -1.12929  -1.12921  -1.12910
  Beta  occ. eigenvalues --   -1.12888  -1.12858  -1.12850  -1.12836  -1.12791
  Beta  occ. eigenvalues --   -0.15851  -0.13668  -0.10928
  Beta virt. eigenvalues --   -0.07812  -0.06695  -0.04858  -0.04179  -0.03008
  Beta virt. eigenvalues --   -0.02864  -0.02261  -0.01657  -0.01343  -0.00965
  Beta virt. eigenvalues --   -0.00620  -0.00409  -0.00108   0.00209   0.00510

 Mulliken charges and spin densities:
               1          2
     1  Na   0.815152   0.260699
     2  Na   0.367299   0.209164
     3  Na  -0.284134   0.311919
     4  Na   0.384724   0.191250
     5  Na  -1.233710   0.045355
     6  Na  -0.248229   0.007735
     7  Na   0.198897  -0.026122
 Sum of Mulliken charges =  -0.00000   1.00000

 Dipole moment (field-independent basis, Debye):
    X=             -2.1208    Y=             -0.4817    Z=             -0.5404  Tot=              2.2410
 Quadrupole moment (field-independent basis, Debye-Ang):
   XX=            -66.5202   YY=            -68.1748   ZZ=            -62.7242
   XY=              0.9596   XZ=              3.9265   YZ=              1.4689

 Normal termination of Gaussian 16 at Tue Nov 28 22:13:02 2023.
