 Gaussian 16, Revision B.01,
 Gaussian 16:  ES64L-G16RevB.01 20-Dec-2017

 -------------------------
 #P B3LYP/6-311+g(d) force
 -------------------------

 -----
 DPGEN
 -----
 Symbolic Z-matrix:
 Charge =  0 Multiplicity = 2

                         Standard orientation:
 ---------------------------------------------------------------------
 Center     Atomic      Atomic             Coordinates (Angstroms)
 Number     Number       Type             X           Y           Z
 ---------------------------------------------------------------------
      1         11           0        0.126418   -0.112543    1.889064
      2         11           0        1.192894    2.591853   -0.352645
      3         11           0        0.539352   -2.686655   -0.043834
      4         11           0       -2.222446    1.875204    0.594935
      5         11           0       -0.263647    0.324203   -1.834486
      6         11           0        3.095156   -0.411905    0.075434
      7         11           0       -2.467727   -1.580158   -0.328469
 ---------------------------------------------------------------------

 SCF Done:  E(UB3LYP) =  -1136.13936240     A.U. after   18 cycles

 The electronic state is 2-A.
 Alpha  occ. eigenvalues --  -38.43695 -38.43585 -38.43530 -38.43459 -38.43455
 Alpha  occ. eigenvalues --  -38.43434 -38.43192  -2.19528  -2.19482  -2.19449
 Alpha  occ. eigenvalues --   -2.19432  -2.19331  -2.19320  -2.19096  -1.13214
 Alpha  occ. eigenvalues --   -1.13203  -1.13194  -1.13179  -1.13169  -1.13155
 Alpha  occ. eigenvalues --   -1.13126  -1.13108  -1.13094  -1.13080  -1.13071
 Alpha  occ. eigenvalues --   -1.13039  -1.13003  -1.12985  -1.12974  -1.12956
 Alpha  occ. eigenvalues --   -1.12946  -1.12936  -1.12773  -1.12756  -1.12713
 Alpha  occ. eigenvalues --   -0.19016  -0.12856  -0.12747  -0.11131
 Alpha virt. eigenvalues --   -0.05259  -0.04963  -0.04673  -0.03223  -0.03162
 Alpha virt. eigenvalues --   -0.02725  -0.01308  -0.01043  -0.00190  -0.00040
 Alpha virt. eigenvalues --    0.00043   0.00369   0.00870   0.00927   0.00947

  Beta  occ. eigenvalues --  -38.43694 -38.43567 -38.43448 -38.43444 -38.43426
  Beta  occ. eigenvalues --  -38.43382 -38.43187  -2.19530  -2.19419  -2.19334
  Beta  occ. eigenvalues --   -2.19316  -2.19308  -2.19290  -2.19090  -1.13202
  Beta  occ. eigenvalues --   -1.13196  -1.13168  -1.13141  -1.13112  -1.13082
  Beta  occ. eigenvalues --   -1.13067  -1.13062  -1.13030  -1.13017  -1.12983
  Beta  occ. eigenvalues --   -1.12975  -1.12964  -1.12951  -1.12940  -1.12932
  Beta  occ. eigenvalues --   -1.12923  -1.12889  -1.12765  -1.12737  -1.12702
  Beta  occ. eigenvalues --   -0.18277  -0.12602  -0.12468
  Beta virt. eigenvalues --   -0.07189  -0.05226  -0.04948  -0.04627  -0.02453
  Beta virt. eigenvalues --   -0.02360  -0.01669  -0.01217  -0.00953  -0.00185
  Beta virt. eigenvalues --   -0.00077   0.00121   0.00391   0.00912   0.00931

 Mulliken charges and spin densities:
               1          2
     1  Na  -0.321350   0.637748
     2  Na   0.173612  -0.053329
     3  Na   0.092063  -0.063209
     4  Na   0.106033   0.024748
     5  Na  -0.266103   0.573618
     6  Na  -0.008202  -0.101141
     7  Na   0.223947  -0.018434
 Sum of Mulliken charges =  -0.00000   1.00000

 Dipole moment (field-independent basis, Debye):
    X=              0.0385    Y=              0.1334    Z=              0.0560  Tot=              0.1497
 Quadrupole moment (field-independent basis, Debye-Ang):
   XX=            -58.6524   YY=            -63.3115   ZZ=            -72.4133
   XY=             -0.0839   XZ=             -0.7443   YZ=              1.0468

 Normal termination of Gaussian 16 at Thu Dec  7 19:47:07 2023.
