 Gaussian 16, Revision B.01,
 Gaussian 16:  ES64L-G16RevB.01 20-Dec-2017

 -------------------------
 #P B3LYP/6-311+g(d) force
 -------------------------

 -----
 DPGEN
 -----
 Symbolic Z-matrix:
 Charge =  0 Multiplicity = 2

                         Standard orientation:
 ---------------------------------------------------------------------
 Center     Atomic      Atomic             Coordinates (Angstroms)
 Number     Number       Type             X           Y           Z
 ---------------------------------------------------------------------
      1         11           0        3.481084    0.760014    0.082472
      2         11           0       -0.253638   -0.697641    2.156693
      3         11           0        2.004035   -2.297122   -0.254546
      4         11           0       -3.062294    0.871463    0.365104
      5         11           0        0.030597    3.370033   -0.208432
      6         11           0       -0.362823    0.447813   -1.383173
      7         11           0       -1.836960   -2.454560   -0.758117
 ---------------------------------------------------------------------

 SCF Done:  E(UB3LYP) =  -1136.13035759     A.U. after   19 cycles

 The electronic state is 2-A.
 Alpha  occ. eigenvalues --  -38.44562 -38.44525 -38.43815 -38.43794 -38.43772
 Alpha  occ. eigenvalues --  -38.43627 -38.43084  -2.20345  -2.20316  -2.19636
 Alpha  occ. eigenvalues --   -2.19604  -2.19584  -2.19464  -2.19047  -1.14032
 Alpha  occ. eigenvalues --   -1.14011  -1.13996  -1.13973  -1.13965  -1.13958
 Alpha  occ. eigenvalues --   -1.13310  -1.13300  -1.13277  -1.13262  -1.13261
 Alpha  occ. eigenvalues --   -1.13257  -1.13238  -1.13228  -1.13216  -1.13153
 Alpha  occ. eigenvalues --   -1.13106  -1.13096  -1.12736  -1.12685  -1.12680
 Alpha  occ. eigenvalues --   -0.17941  -0.12891  -0.12270  -0.10477
 Alpha virt. eigenvalues --   -0.06165  -0.05302  -0.04952  -0.03114  -0.02729
 Alpha virt. eigenvalues --   -0.02387  -0.01705  -0.01335  -0.00930  -0.00625
 Alpha virt. eigenvalues --   -0.00042   0.00315   0.00709   0.00751   0.00774

  Beta  occ. eigenvalues --  -38.44565 -38.44514 -38.43815 -38.43769 -38.43698
  Beta  occ. eigenvalues --  -38.43600 -38.43042  -2.20327  -2.20324  -2.19605
  Beta  occ. eigenvalues --   -2.19580  -2.19459  -2.19418  -2.18971  -1.14021
  Beta  occ. eigenvalues --   -1.13996  -1.13977  -1.13974  -1.13964  -1.13957
  Beta  occ. eigenvalues --   -1.13306  -1.13258  -1.13257  -1.13244  -1.13230
  Beta  occ. eigenvalues --   -1.13211  -1.13177  -1.13147  -1.13119  -1.13111
  Beta  occ. eigenvalues --   -1.13069  -1.13059  -1.12678  -1.12633  -1.12617
  Beta  occ. eigenvalues --   -0.17258  -0.12745  -0.12052
  Beta virt. eigenvalues --   -0.06573  -0.06068  -0.05269  -0.04825  -0.02430
  Beta virt. eigenvalues --   -0.02132  -0.01635  -0.01405  -0.01172  -0.00902
  Beta virt. eigenvalues --   -0.00668   0.00140   0.00374   0.00749   0.00820

 Mulliken charges and spin densities:
               1          2
     1  Na  -0.142150  -0.056622
     2  Na  -0.401120   0.683089
     3  Na   0.062151   0.005290
     4  Na   0.104926   0.087347
     5  Na  -0.050729  -0.062428
     6  Na   0.152307   0.258400
     7  Na   0.274616   0.084924
 Sum of Mulliken charges =  -0.00000   1.00000

 Dipole moment (field-independent basis, Debye):
    X=             -0.0656    Y=              0.1486    Z=              0.2515  Tot=              0.2994
 Quadrupole moment (field-independent basis, Debye-Ang):
   XX=            -55.2587   YY=            -61.4387   ZZ=            -76.2132
   XY=              0.7730   XZ=             -0.0234   YZ=              2.5665

 Normal termination of Gaussian 16 at Thu Dec  7 06:23:50 2023.
