 Gaussian 16, Revision B.01,
 Gaussian 16:  ES64L-G16RevB.01 20-Dec-2017

 -------------------------
 #P B3LYP/6-311+g(d) force
 -------------------------

 -----
 DPGEN
 -----
 Symbolic Z-matrix:
 Charge =  0 Multiplicity = 2

                         Standard orientation:
 ---------------------------------------------------------------------
 Center     Atomic      Atomic             Coordinates (Angstroms)
 Number     Number       Type             X           Y           Z
 ---------------------------------------------------------------------
      1         11           0       -2.819268    1.458246   -0.970350
      2         11           0       -0.856117    3.456793    0.569340
      3         11           0        3.552725   -0.023188    1.301709
      4         11           0       -4.738169   -1.491093    0.135671
      5         11           0        5.887615   -1.080478   -0.881800
      6         11           0        0.908862    0.688389   -0.470216
      7         11           0       -1.935648   -3.008668    0.315645
 ---------------------------------------------------------------------

 SCF Done:  E(UB3LYP) =  -1136.11391250     A.U. after   18 cycles

 The electronic state is 2-A.
 Alpha  occ. eigenvalues --  -38.44641 -38.44395 -38.44178 -38.44146 -38.44124
 Alpha  occ. eigenvalues --  -38.44045 -38.43848  -2.20419  -2.20207  -2.19978
 Alpha  occ. eigenvalues --   -2.19971  -2.19924  -2.19885  -2.19651  -1.14086
 Alpha  occ. eigenvalues --   -1.14069  -1.14067  -1.13894  -1.13868  -1.13858
 Alpha  occ. eigenvalues --   -1.13662  -1.13636  -1.13615  -1.13615  -1.13593
 Alpha  occ. eigenvalues --   -1.13591  -1.13588  -1.13581  -1.13570  -1.13558
 Alpha  occ. eigenvalues --   -1.13547  -1.13493  -1.13322  -1.13317  -1.13293
 Alpha  occ. eigenvalues --   -0.16172  -0.13839  -0.12598  -0.10334
 Alpha virt. eigenvalues --   -0.06476  -0.05874  -0.04634  -0.03602  -0.02894
 Alpha virt. eigenvalues --   -0.02344  -0.02086  -0.01621  -0.01038  -0.00781
 Alpha virt. eigenvalues --   -0.00417  -0.00287   0.00062   0.00249   0.00534

  Beta  occ. eigenvalues --  -38.44614 -38.44399 -38.44120 -38.44105 -38.44093
  Beta  occ. eigenvalues --  -38.44000 -38.43858  -2.20368  -2.20216  -2.19920
  Beta  occ. eigenvalues --   -2.19903  -2.19810  -2.19801  -2.19676  -1.14051
  Beta  occ. eigenvalues --   -1.14036  -1.14029  -1.13892  -1.13874  -1.13855
  Beta  occ. eigenvalues --   -1.13608  -1.13587  -1.13584  -1.13572  -1.13561
  Beta  occ. eigenvalues --   -1.13523  -1.13519  -1.13505  -1.13504  -1.13490
  Beta  occ. eigenvalues --   -1.13486  -1.13449  -1.13344  -1.13328  -1.13271
  Beta  occ. eigenvalues --   -0.15695  -0.13388  -0.12308
  Beta virt. eigenvalues --   -0.07169  -0.05804  -0.05558  -0.04302  -0.03331
  Beta virt. eigenvalues --   -0.02651  -0.02258  -0.01883  -0.01225  -0.00975
  Beta virt. eigenvalues --   -0.00407  -0.00194  -0.00047   0.00251   0.00446

 Mulliken charges and spin densities:
               1          2
     1  Na   0.093524   0.400805
     2  Na   0.641605   0.083981
     3  Na   0.299248   0.002207
     4  Na   0.148008  -0.001615
     5  Na   0.115193   0.425504
     6  Na  -1.326133  -0.074746
     7  Na   0.028556   0.163864
 Sum of Mulliken charges =  -0.00000   1.00000

 Dipole moment (field-independent basis, Debye):
    X=             -0.8906    Y=              0.4410    Z=              0.3038  Tot=              1.0392
 Quadrupole moment (field-independent basis, Debye-Ang):
   XX=            -69.7929   YY=            -65.0679   ZZ=            -66.7277
   XY=              0.5085   XZ=             -1.6590   YZ=              3.7918

 Normal termination of Gaussian 16 at Wed Nov 29 02:28:16 2023.
