 Gaussian 16, Revision B.01,
 Gaussian 16:  ES64L-G16RevB.01 20-Dec-2017

 -------------------------
 #P B3LYP/6-311+g(d) force
 -------------------------

 -----
 DPGEN
 -----
 Symbolic Z-matrix:
 Charge =  0 Multiplicity = 2

                         Standard orientation:
 ---------------------------------------------------------------------
 Center     Atomic      Atomic             Coordinates (Angstroms)
 Number     Number       Type             X           Y           Z
 ---------------------------------------------------------------------
      1         11           0        2.559304   -2.043933   -0.822940
      2         11           0       -1.368570    3.683123   -0.716782
      3         11           0        1.262109    0.723993    1.526526
      4         11           0       -0.792682   -1.780722    0.833142
      5         11           0       -3.458950   -2.355015   -0.597326
      6         11           0       -2.866029    1.124465    0.155186
      7         11           0        4.664818    0.648090   -0.377805
 ---------------------------------------------------------------------

 SCF Done:  E(UB3LYP) =  -1136.11709284     A.U. after   20 cycles

 The electronic state is 2-A.
 Alpha  occ. eigenvalues --  -38.45768 -38.44891 -38.44542 -38.43528 -38.43485
 Alpha  occ. eigenvalues --  -38.43481 -38.43073  -2.21532  -2.20703  -2.20342
 Alpha  occ. eigenvalues --   -2.19372  -2.19328  -2.19276  -2.18988  -1.15222
 Alpha  occ. eigenvalues --   -1.15186  -1.15171  -1.14396  -1.14362  -1.14295
 Alpha  occ. eigenvalues --   -1.13995  -1.13989  -1.13955  -1.13075  -1.13063
 Alpha  occ. eigenvalues --   -1.13019  -1.13013  -1.13007  -1.12987  -1.12932
 Alpha  occ. eigenvalues --   -1.12912  -1.12857  -1.12667  -1.12655  -1.12608
 Alpha  occ. eigenvalues --   -0.16967  -0.14100  -0.11896  -0.10750
 Alpha virt. eigenvalues --   -0.07142  -0.05036  -0.04175  -0.03939  -0.03140
 Alpha virt. eigenvalues --   -0.02202  -0.01756  -0.01492  -0.01246  -0.00773
 Alpha virt. eigenvalues --   -0.00611   0.00195   0.00310   0.00440   0.00617

  Beta  occ. eigenvalues --  -38.45769 -38.44832 -38.44471 -38.43490 -38.43485
  Beta  occ. eigenvalues --  -38.43469 -38.43040  -2.21538  -2.20599  -2.20211
  Beta  occ. eigenvalues --   -2.19308  -2.19300  -2.19276  -2.18935  -1.15231
  Beta  occ. eigenvalues --   -1.15182  -1.15151  -1.14309  -1.14282  -1.14231
  Beta  occ. eigenvalues --   -1.13903  -1.13896  -1.13873  -1.13065  -1.13021
  Beta  occ. eigenvalues --   -1.12990  -1.12985  -1.12965  -1.12948  -1.12932
  Beta  occ. eigenvalues --   -1.12910  -1.12847  -1.12629  -1.12626  -1.12533
  Beta  occ. eigenvalues --   -0.16256  -0.13505  -0.11799
  Beta virt. eigenvalues --   -0.07162  -0.06935  -0.04889  -0.03791  -0.03534
  Beta virt. eigenvalues --   -0.02774  -0.02046  -0.01414  -0.01101  -0.00976
  Beta virt. eigenvalues --   -0.00710  -0.00345   0.00343   0.00437   0.00561

 Mulliken charges and spin densities:
               1          2
     1  Na   0.090538  -0.035511
     2  Na   0.163286  -0.022452
     3  Na  -0.110425   0.008905
     4  Na  -0.151860   0.173838
     5  Na   0.375971   0.212942
     6  Na  -0.410869   0.193197
     7  Na   0.043359   0.469082
 Sum of Mulliken charges =  -0.00000   1.00000

 Dipole moment (field-independent basis, Debye):
    X=              1.5203    Y=             -0.5727    Z=             -0.3297  Tot=              1.6577
 Quadrupole moment (field-independent basis, Debye-Ang):
   XX=            -66.8901   YY=            -64.2377   ZZ=            -69.0249
   XY=              3.4883   XZ=              1.5325   YZ=              3.2840

 Normal termination of Gaussian 16 at Sun Dec  3 12:24:58 2023.
