 Gaussian 16, Revision B.01,
 Gaussian 16:  ES64L-G16RevB.01 20-Dec-2017

 -------------------------
 #P B3LYP/6-311+g(d) force
 -------------------------

 -----
 DPGEN
 -----
 Symbolic Z-matrix:
 Charge =  0 Multiplicity = 2

                         Standard orientation:
 ---------------------------------------------------------------------
 Center     Atomic      Atomic             Coordinates (Angstroms)
 Number     Number       Type             X           Y           Z
 ---------------------------------------------------------------------
      1         11           0        2.468997    1.300432   -0.844960
      2         11           0        0.314343   -0.782042    1.906592
      3         11           0       -0.607670   -1.442121   -1.203129
      4         11           0        0.839311    2.405953    1.052557
      5         11           0        2.305855   -2.309864   -0.304797
      6         11           0       -3.297641   -0.894571    0.511138
      7         11           0       -2.023195    1.722213   -1.117401
 ---------------------------------------------------------------------

 SCF Done:  E(UB3LYP) =  -1136.12585334     A.U. after   21 cycles

 The electronic state is 2-A.
 Alpha  occ. eigenvalues --  -38.44476 -38.44400 -38.44146 -38.43577 -38.43406
 Alpha  occ. eigenvalues --  -38.43401 -38.43268  -2.20309  -2.20281  -2.19977
 Alpha  occ. eigenvalues --   -2.19496  -2.19351  -2.19265  -2.19192  -1.14105
 Alpha  occ. eigenvalues --   -1.13988  -1.13965  -1.13955  -1.13911  -1.13880
 Alpha  occ. eigenvalues --   -1.13663  -1.13635  -1.13587  -1.13191  -1.13146
 Alpha  occ. eigenvalues --   -1.13119  -1.13036  -1.13025  -1.13013  -1.12915
 Alpha  occ. eigenvalues --   -1.12900  -1.12877  -1.12875  -1.12821  -1.12787
 Alpha  occ. eigenvalues --   -0.18504  -0.13440  -0.12332  -0.10929
 Alpha virt. eigenvalues --   -0.05921  -0.05285  -0.04096  -0.03650  -0.03277
 Alpha virt. eigenvalues --   -0.02554  -0.01676  -0.01070  -0.00242  -0.00095
 Alpha virt. eigenvalues --    0.00221   0.00348   0.00543   0.00717   0.00807

  Beta  occ. eigenvalues --  -38.44474 -38.44387 -38.44121 -38.43491 -38.43393
  Beta  occ. eigenvalues --  -38.43380 -38.43250  -2.20306  -2.20258  -2.19931
  Beta  occ. eigenvalues --   -2.19338  -2.19306  -2.19253  -2.19162  -1.14085
  Beta  occ. eigenvalues --   -1.13988  -1.13965  -1.13933  -1.13886  -1.13866
  Beta  occ. eigenvalues --   -1.13624  -1.13602  -1.13558  -1.13104  -1.13043
  Beta  occ. eigenvalues --   -1.13015  -1.12996  -1.12990  -1.12952  -1.12895
  Beta  occ. eigenvalues --   -1.12882  -1.12859  -1.12858  -1.12791  -1.12751
  Beta  occ. eigenvalues --   -0.17794  -0.13223  -0.12153
  Beta virt. eigenvalues --   -0.07091  -0.05759  -0.05181  -0.03988  -0.02996
  Beta virt. eigenvalues --   -0.02627  -0.01628  -0.01545  -0.00993  -0.00085
  Beta virt. eigenvalues --   -0.00008   0.00261   0.00404   0.00650   0.00761

 Mulliken charges and spin densities:
               1          2
     1  Na  -0.311561  -0.058926
     2  Na  -0.399234   0.363990
     3  Na  -0.578417   0.472513
     4  Na   0.322724   0.186402
     5  Na   0.589123   0.098277
     6  Na   0.364566  -0.065700
     7  Na   0.012799   0.003444
 Sum of Mulliken charges =  -0.00000   1.00000

 Dipole moment (field-independent basis, Debye):
    X=             -0.5872    Y=             -0.2170    Z=             -0.1100  Tot=              0.6356
 Quadrupole moment (field-independent basis, Debye-Ang):
   XX=            -56.0425   YY=            -68.7476   ZZ=            -70.6783
   XY=             -1.0757   XZ=             -2.7557   YZ=             -1.2746

 Normal termination of Gaussian 16 at Tue Dec  5 12:19:17 2023.
