 Gaussian 16, Revision B.01,
 Gaussian 16:  ES64L-G16RevB.01 20-Dec-2017

 -------------------------
 #P B3LYP/6-311+g(d) force
 -------------------------

 -----
 DPGEN
 -----
 Symbolic Z-matrix:
 Charge =  0 Multiplicity = 2

                         Standard orientation:
 ---------------------------------------------------------------------
 Center     Atomic      Atomic             Coordinates (Angstroms)
 Number     Number       Type             X           Y           Z
 ---------------------------------------------------------------------
      1         11           0        2.660490   -1.951986   -0.251150
      2         11           0       -0.109951   -0.180582    2.093576
      3         11           0       -0.526514    2.971451    0.119209
      4         11           0       -0.289558   -0.236470   -1.680985
      5         11           0       -2.167515   -2.566733    0.175582
      6         11           0       -2.835043    0.870632   -0.384389
      7         11           0        3.268091    1.093688   -0.071842
 ---------------------------------------------------------------------

 SCF Done:  E(UB3LYP) =  -1136.12954777     A.U. after   20 cycles

 The electronic state is 2-A.
 Alpha  occ. eigenvalues --  -38.44639 -38.44258 -38.43996 -38.43824 -38.43785
 Alpha  occ. eigenvalues --  -38.43535 -38.42933  -2.20435  -2.20075  -2.19910
 Alpha  occ. eigenvalues --   -2.19702  -2.19671  -2.19343  -2.18772  -1.14132
 Alpha  occ. eigenvalues --   -1.14100  -1.14073  -1.13736  -1.13726  -1.13713
 Alpha  occ. eigenvalues --   -1.13668  -1.13565  -1.13529  -1.13378  -1.13334
 Alpha  occ. eigenvalues --   -1.13330  -1.13311  -1.13301  -1.13284  -1.13009
 Alpha  occ. eigenvalues --   -1.13000  -1.12993  -1.12447  -1.12429  -1.12421
 Alpha  occ. eigenvalues --   -0.18159  -0.13515  -0.11869  -0.10689
 Alpha virt. eigenvalues --   -0.05939  -0.05586  -0.04552  -0.03387  -0.02703
 Alpha virt. eigenvalues --   -0.02615  -0.01759  -0.01310  -0.00662  -0.00431
 Alpha virt. eigenvalues --   -0.00046   0.00323   0.00693   0.00766   0.00833

  Beta  occ. eigenvalues --  -38.44640 -38.44253 -38.43981 -38.43727 -38.43723
  Beta  occ. eigenvalues --  -38.43533 -38.42931  -2.20438  -2.20068  -2.19888
  Beta  occ. eigenvalues --   -2.19596  -2.19485  -2.19342  -2.18771  -1.14136
  Beta  occ. eigenvalues --   -1.14092  -1.14073  -1.13724  -1.13722  -1.13705
  Beta  occ. eigenvalues --   -1.13638  -1.13534  -1.13512  -1.13305  -1.13254
  Beta  occ. eigenvalues --   -1.13240  -1.13208  -1.13172  -1.13148  -1.13008
  Beta  occ. eigenvalues --   -1.12994  -1.12979  -1.12450  -1.12427  -1.12401
  Beta  occ. eigenvalues --   -0.17443  -0.13317  -0.11671
  Beta virt. eigenvalues --   -0.06779  -0.05839  -0.05562  -0.04488  -0.02681
  Beta virt. eigenvalues --   -0.01979  -0.01659  -0.01602  -0.01198  -0.00713
  Beta virt. eigenvalues --   -0.00447   0.00116   0.00370   0.00758   0.00799

 Mulliken charges and spin densities:
               1          2
     1  Na   0.132916  -0.057409
     2  Na  -0.351673   0.764401
     3  Na  -0.223253  -0.058278
     4  Na   0.053844   0.313652
     5  Na  -0.020101  -0.081002
     6  Na   0.488029   0.135023
     7  Na  -0.079762  -0.016387
 Sum of Mulliken charges =  -0.00000   1.00000

 Dipole moment (field-independent basis, Debye):
    X=              0.5175    Y=             -0.2418    Z=              0.0256  Tot=              0.5718
 Quadrupole moment (field-independent basis, Debye-Ang):
   XX=            -56.1299   YY=            -63.7245   ZZ=            -75.0658
   XY=              1.5510   XZ=             -0.1129   YZ=             -0.0005

 Normal termination of Gaussian 16 at Fri Dec  8 02:07:24 2023.
