 Gaussian 16, Revision B.01,
 Gaussian 16:  ES64L-G16RevB.01 20-Dec-2017

 -------------------------
 #P B3LYP/6-311+g(d) force
 -------------------------

 -----
 DPGEN
 -----
 Symbolic Z-matrix:
 Charge =  0 Multiplicity = 2

                         Standard orientation:
 ---------------------------------------------------------------------
 Center     Atomic      Atomic             Coordinates (Angstroms)
 Number     Number       Type             X           Y           Z
 ---------------------------------------------------------------------
      1         11           0        1.267016   -1.137346    1.970493
      2         11           0       -3.533882    0.668336   -1.135345
      3         11           0       -2.664208   -1.457852    1.103797
      4         11           0       -0.485556    2.023364    0.659657
      5         11           0        2.922404    1.712668    0.291384
      6         11           0       -0.438021   -0.356387   -1.298068
      7         11           0        2.932248   -1.452783   -1.591918
 ---------------------------------------------------------------------

 SCF Done:  E(UB3LYP) =  -1136.12023942     A.U. after   28 cycles

 The electronic state is 2-A.
 Alpha  occ. eigenvalues --  -38.44872 -38.44607 -38.44534 -38.44280 -38.44229
 Alpha  occ. eigenvalues --  -38.43418 -38.42522  -2.20733  -2.20416  -2.20371
 Alpha  occ. eigenvalues --   -2.20166  -2.20085  -2.19227  -2.18394  -1.14415
 Alpha  occ. eigenvalues --   -1.14397  -1.14351  -1.14096  -1.14048  -1.14042
 Alpha  occ. eigenvalues --   -1.14037  -1.14025  -1.14004  -1.13894  -1.13822
 Alpha  occ. eigenvalues --   -1.13772  -1.13769  -1.13732  -1.13720  -1.12894
 Alpha  occ. eigenvalues --   -1.12880  -1.12849  -1.12137  -1.12056  -1.11986
 Alpha  occ. eigenvalues --   -0.18271  -0.14220  -0.11380  -0.10694
 Alpha virt. eigenvalues --   -0.06726  -0.05545  -0.04887  -0.03181  -0.02640
 Alpha virt. eigenvalues --   -0.02508  -0.02100  -0.01270  -0.00902  -0.00287
 Alpha virt. eigenvalues --    0.00103   0.00193   0.00293   0.00480   0.00678

  Beta  occ. eigenvalues --  -38.44848 -38.44546 -38.44504 -38.44278 -38.44201
  Beta  occ. eigenvalues --  -38.43378 -38.42521  -2.20689  -2.20318  -2.20303
  Beta  occ. eigenvalues --   -2.20118  -2.20081  -2.19153  -2.18396  -1.14377
  Beta  occ. eigenvalues --   -1.14371  -1.14322  -1.14020  -1.14003  -1.13988
  Beta  occ. eigenvalues --   -1.13967  -1.13957  -1.13949  -1.13854  -1.13778
  Beta  occ. eigenvalues --   -1.13759  -1.13736  -1.13730  -1.13715  -1.12838
  Beta  occ. eigenvalues --   -1.12828  -1.12805  -1.12141  -1.12040  -1.11985
  Beta  occ. eigenvalues --   -0.17631  -0.13974  -0.10445
  Beta virt. eigenvalues --   -0.07596  -0.06573  -0.05092  -0.04531  -0.02836
  Beta virt. eigenvalues --   -0.02454  -0.02036  -0.01529  -0.00956  -0.00590
  Beta virt. eigenvalues --   -0.00155   0.00132   0.00274   0.00424   0.00534

 Mulliken charges and spin densities:
               1          2
     1  Na  -0.102326   0.310037
     2  Na   1.880565  -0.053169
     3  Na  -0.160131   0.222393
     4  Na  -0.226591   0.037897
     5  Na   0.137648   0.035792
     6  Na  -2.057041   0.261692
     7  Na   0.527877   0.185357
 Sum of Mulliken charges =  -0.00000   1.00000

 Dipole moment (field-independent basis, Debye):
    X=             -0.8504    Y=              0.1190    Z=              0.2703  Tot=              0.9003
 Quadrupole moment (field-independent basis, Debye-Ang):
   XX=            -46.7986   YY=            -78.9741   ZZ=            -68.1773
   XY=              0.6556   XZ=              2.3577   YZ=             -3.7146

 Normal termination of Gaussian 16 at Thu Dec  7 05:40:57 2023.
