 Gaussian 16, Revision B.01,
 Gaussian 16:  ES64L-G16RevB.01 20-Dec-2017

 -------------------------
 #P B3LYP/6-311+g(d) force
 -------------------------

 -----
 DPGEN
 -----
 Symbolic Z-matrix:
 Charge =  0 Multiplicity = 2

                         Standard orientation:
 ---------------------------------------------------------------------
 Center     Atomic      Atomic             Coordinates (Angstroms)
 Number     Number       Type             X           Y           Z
 ---------------------------------------------------------------------
      1         11           0        0.558933   -0.504892    2.192911
      2         11           0       -1.650582   -2.460039   -0.162055
      3         11           0       -3.585760    0.266222    0.066459
      4         11           0       -0.623056    2.855636   -0.031030
      5         11           0       -0.190948    0.033760   -1.520994
      6         11           0        2.596475    1.628291   -0.046728
      7         11           0        2.894939   -1.818979   -0.498563
 ---------------------------------------------------------------------

 SCF Done:  E(UB3LYP) =  -1136.13091218     A.U. after   21 cycles

 The electronic state is 2-A.
 Alpha  occ. eigenvalues --  -38.45024 -38.44146 -38.44018 -38.43749 -38.43644
 Alpha  occ. eigenvalues --  -38.43449 -38.42946  -2.20803  -2.19938  -2.19861
 Alpha  occ. eigenvalues --   -2.19590  -2.19482  -2.19397  -2.18782  -1.14476
 Alpha  occ. eigenvalues --   -1.14459  -1.14445  -1.13609  -1.13602  -1.13580
 Alpha  occ. eigenvalues --   -1.13535  -1.13531  -1.13486  -1.13317  -1.13249
 Alpha  occ. eigenvalues --   -1.13211  -1.13139  -1.13107  -1.13100  -1.13090
 Alpha  occ. eigenvalues --   -1.13053  -1.13004  -1.12475  -1.12438  -1.12410
 Alpha  occ. eigenvalues --   -0.18102  -0.13363  -0.11947  -0.10458
 Alpha virt. eigenvalues --   -0.06413  -0.05488  -0.04346  -0.03303  -0.02718
 Alpha virt. eigenvalues --   -0.02351  -0.02110  -0.01291  -0.00665  -0.00367
 Alpha virt. eigenvalues --   -0.00082   0.00267   0.00652   0.00774   0.00803

  Beta  occ. eigenvalues --  -38.45027 -38.44135 -38.44012 -38.43744 -38.43541
  Beta  occ. eigenvalues --  -38.43400 -38.42944  -2.20809  -2.19919  -2.19854
  Beta  occ. eigenvalues --   -2.19584  -2.19310  -2.19291  -2.18781  -1.14471
  Beta  occ. eigenvalues --   -1.14466  -1.14450  -1.13599  -1.13575  -1.13566
  Beta  occ. eigenvalues --   -1.13529  -1.13502  -1.13485  -1.13305  -1.13226
  Beta  occ. eigenvalues --   -1.13209  -1.13031  -1.13003  -1.12994  -1.12972
  Beta  occ. eigenvalues --   -1.12968  -1.12938  -1.12471  -1.12424  -1.12412
  Beta  occ. eigenvalues --   -0.17427  -0.13185  -0.11742
  Beta virt. eigenvalues --   -0.06552  -0.06317  -0.05474  -0.04290  -0.02616
  Beta virt. eigenvalues --   -0.02031  -0.01909  -0.01387  -0.01219  -0.00684
  Beta virt. eigenvalues --   -0.00395   0.00113   0.00317   0.00748   0.00781

 Mulliken charges and spin densities:
               1          2
     1  Na  -0.502335   0.698668
     2  Na   0.174056  -0.066848
     3  Na   0.010583  -0.010310
     4  Na  -0.083047  -0.038149
     5  Na   0.049318   0.332199
     6  Na   0.218190   0.082710
     7  Na   0.133236   0.001730
 Sum of Mulliken charges =  -0.00000   1.00000

 Dipole moment (field-independent basis, Debye):
    X=             -0.4019    Y=             -0.1678    Z=              0.0975  Tot=              0.4463
 Quadrupole moment (field-independent basis, Debye-Ang):
   XX=            -50.7611   YY=            -66.0413   ZZ=            -76.0447
   XY=             -0.9498   XZ=             -1.6707   YZ=              1.4786

 Normal termination of Gaussian 16 at Thu Dec  7 13:53:16 2023.
