 Gaussian 16, Revision B.01,
 Gaussian 16:  ES64L-G16RevB.01 20-Dec-2017

 -------------------------
 #P B3LYP/6-311+g(d) force
 -------------------------

 -----
 DPGEN
 -----
 Symbolic Z-matrix:
 Charge =  0 Multiplicity = 2

                         Standard orientation:
 ---------------------------------------------------------------------
 Center     Atomic      Atomic             Coordinates (Angstroms)
 Number     Number       Type             X           Y           Z
 ---------------------------------------------------------------------
      1         11           0       -0.866237   -0.961683   -1.661057
      2         11           0        4.213842    0.732781    0.712386
      3         11           0        2.062483   -1.848460   -0.705910
      4         11           0        0.193936   -0.529368    1.919844
      5         11           0       -2.988180    1.787733   -0.102517
      6         11           0        1.090955    1.745013   -0.889323
      7         11           0       -3.706798   -0.926016    0.726578
 ---------------------------------------------------------------------

 SCF Done:  E(UB3LYP) =  -1136.11306404     A.U. after   27 cycles

 The electronic state is 2-A.
 Alpha  occ. eigenvalues --  -38.46087 -38.45014 -38.44234 -38.44225 -38.43727
 Alpha  occ. eigenvalues --  -38.43693 -38.42477  -2.21876  -2.20862  -2.20079
 Alpha  occ. eigenvalues --   -2.20068  -2.19564  -2.19510  -2.18392  -1.15568
 Alpha  occ. eigenvalues --   -1.15515  -1.15482  -1.14588  -1.14507  -1.14478
 Alpha  occ. eigenvalues --   -1.13777  -1.13741  -1.13731  -1.13719  -1.13702
 Alpha  occ. eigenvalues --   -1.13681  -1.13249  -1.13239  -1.13207  -1.13177
 Alpha  occ. eigenvalues --   -1.13169  -1.13133  -1.12089  -1.12041  -1.12019
 Alpha  occ. eigenvalues --   -0.18209  -0.14271  -0.11318  -0.10545
 Alpha virt. eigenvalues --   -0.07513  -0.05525  -0.04564  -0.03210  -0.03115
 Alpha virt. eigenvalues --   -0.02402  -0.02300  -0.01420  -0.01088  -0.00429
 Alpha virt. eigenvalues --   -0.00086   0.00105   0.00273   0.00577   0.00591

  Beta  occ. eigenvalues --  -38.46034 -38.44990 -38.44215 -38.44174 -38.43716
  Beta  occ. eigenvalues --  -38.43694 -38.42451  -2.21778  -2.20817  -2.20052
  Beta  occ. eigenvalues --   -2.19971  -2.19569  -2.19489  -2.18348  -1.15494
  Beta  occ. eigenvalues --   -1.15449  -1.15410  -1.14562  -1.14472  -1.14444
  Beta  occ. eigenvalues --   -1.13730  -1.13710  -1.13706  -1.13671  -1.13655
  Beta  occ. eigenvalues --   -1.13589  -1.13242  -1.13233  -1.13205  -1.13169
  Beta  occ. eigenvalues --   -1.13151  -1.13121  -1.12049  -1.12008  -1.11979
  Beta  occ. eigenvalues --   -0.17474  -0.14055  -0.10463
  Beta virt. eigenvalues --   -0.07506  -0.07155  -0.05283  -0.04134  -0.02970
  Beta virt. eigenvalues --   -0.02738  -0.01910  -0.01701  -0.01167  -0.00856
  Beta virt. eigenvalues --   -0.00337  -0.00032   0.00207   0.00357   0.00645

 Mulliken charges and spin densities:
               1          2
     1  Na  -0.010241   0.238528
     2  Na   0.186827   0.066442
     3  Na   0.253869  -0.033860
     4  Na  -0.378386   0.345911
     5  Na  -0.193547   0.044153
     6  Na  -0.333305   0.200904
     7  Na   0.474782   0.137922
 Sum of Mulliken charges =  -0.00000   1.00000

 Dipole moment (field-independent basis, Debye):
    X=             -0.6637    Y=             -0.8216    Z=              0.4554  Tot=              1.1502
 Quadrupole moment (field-independent basis, Debye-Ang):
   XX=            -58.7381   YY=            -72.9305   ZZ=            -69.8481
   XY=             -1.6513   XZ=             -0.7820   YZ=             -2.7262

 Normal termination of Gaussian 16 at Thu Dec  7 07:48:40 2023.
