 Gaussian 16, Revision B.01,
 Gaussian 16:  ES64L-G16RevB.01 20-Dec-2017

 -------------------------
 #P B3LYP/6-311+g(d) force
 -------------------------

 -----
 DPGEN
 -----
 Symbolic Z-matrix:
 Charge =  0 Multiplicity = 2

                         Standard orientation:
 ---------------------------------------------------------------------
 Center     Atomic      Atomic             Coordinates (Angstroms)
 Number     Number       Type             X           Y           Z
 ---------------------------------------------------------------------
      1         11           0       -2.722599    2.282052   -0.444667
      2         11           0        0.374921    2.622034    1.000305
      3         11           0        2.977961    2.032241   -0.576697
      4         11           0        4.804859   -1.326476   -0.201727
      5         11           0        1.706770   -2.306047    0.314380
      6         11           0       -2.118926   -2.447408    0.035917
      7         11           0       -5.022986   -0.856397   -0.127512
 ---------------------------------------------------------------------

 SCF Done:  E(UB3LYP) =  -1136.11032801     A.U. after   25 cycles

 The electronic state is 2-A.
 Alpha  occ. eigenvalues --  -38.45974 -38.45795 -38.44177 -38.44167 -38.44088
 Alpha  occ. eigenvalues --  -38.43784 -38.43534  -2.21711  -2.21574  -2.19966
 Alpha  occ. eigenvalues --   -2.19953  -2.19883  -2.19593  -2.19363  -1.15406
 Alpha  occ. eigenvalues --   -1.15388  -1.15319  -1.15275  -1.15248  -1.15183
 Alpha  occ. eigenvalues --   -1.13652  -1.13642  -1.13637  -1.13623  -1.13615
 Alpha  occ. eigenvalues --   -1.13590  -1.13544  -1.13518  -1.13501  -1.13248
 Alpha  occ. eigenvalues --   -1.13244  -1.13220  -1.13050  -1.13008  -1.12999
 Alpha  occ. eigenvalues --   -0.15938  -0.13991  -0.12826  -0.10516
 Alpha virt. eigenvalues --   -0.07726  -0.04884  -0.04558  -0.03680  -0.03280
 Alpha virt. eigenvalues --   -0.02651  -0.01934  -0.01850  -0.01244  -0.00527
 Alpha virt. eigenvalues --   -0.00355  -0.00298   0.00109   0.00370   0.00572

  Beta  occ. eigenvalues --  -38.45962 -38.45780 -38.44143 -38.44133 -38.44059
  Beta  occ. eigenvalues --  -38.43745 -38.43521  -2.21690  -2.21549  -2.19908
  Beta  occ. eigenvalues --   -2.19893  -2.19828  -2.19519  -2.19338  -1.15394
  Beta  occ. eigenvalues --   -1.15374  -1.15291  -1.15254  -1.15231  -1.15154
  Beta  occ. eigenvalues --   -1.13618  -1.13603  -1.13600  -1.13585  -1.13562
  Beta  occ. eigenvalues --   -1.13520  -1.13506  -1.13472  -1.13454  -1.13197
  Beta  occ. eigenvalues --   -1.13196  -1.13167  -1.13032  -1.12991  -1.12983
  Beta  occ. eigenvalues --   -0.15479  -0.13588  -0.12362
  Beta virt. eigenvalues --   -0.07794  -0.06986  -0.04573  -0.03952  -0.03482
  Beta virt. eigenvalues --   -0.02805  -0.02527  -0.01783  -0.01761  -0.00902
  Beta virt. eigenvalues --   -0.00351  -0.00222   0.00013   0.00349   0.00391

 Mulliken charges and spin densities:
               1          2
     1  Na   0.087903   0.099970
     2  Na  -0.510700   0.135365
     3  Na   0.132965   0.052303
     4  Na   0.759259   0.393567
     5  Na  -0.291220   0.150501
     6  Na  -0.382521  -0.092557
     7  Na   0.204314   0.260850
 Sum of Mulliken charges =  -0.00000   1.00000

 Dipole moment (field-independent basis, Debye):
    X=             -0.0954    Y=              1.1178    Z=             -0.3468  Tot=              1.1742
 Quadrupole moment (field-independent basis, Debye-Ang):
   XX=            -58.7563   YY=            -68.5684   ZZ=            -71.4049
   XY=              1.1230   XZ=             -0.6157   YZ=             -2.2299

 Normal termination of Gaussian 16 at Sun Dec  3 17:08:53 2023.
