 Gaussian 16, Revision B.01,
 Gaussian 16:  ES64L-G16RevB.01 20-Dec-2017

 -------------------------
 #P B3LYP/6-311+g(d) force
 -------------------------

 -----
 DPGEN
 -----
 Symbolic Z-matrix:
 Charge =  0 Multiplicity = 2

                         Standard orientation:
 ---------------------------------------------------------------------
 Center     Atomic      Atomic             Coordinates (Angstroms)
 Number     Number       Type             X           Y           Z
 ---------------------------------------------------------------------
      1         11           0       -0.013361    0.010233   -1.821516
      2         11           0       -0.061570    0.106399    1.955464
      3         11           0        0.358245   -2.541578   -0.309255
      4         11           0       -2.493419    1.925577   -0.593643
      5         11           0        1.355059    2.684711    0.351691
      6         11           0        3.438717   -0.592071   -0.111559
      7         11           0       -2.583672   -1.593270    0.528818
 ---------------------------------------------------------------------

 SCF Done:  E(UB3LYP) =  -1136.13324382     A.U. after   19 cycles

 The electronic state is 2-A.
 Alpha  occ. eigenvalues --  -38.44439 -38.43849 -38.43751 -38.43691 -38.43682
 Alpha  occ. eigenvalues --  -38.43645 -38.43008  -2.20204  -2.19661  -2.19655
 Alpha  occ. eigenvalues --   -2.19636  -2.19515  -2.19488  -2.18937  -1.13886
 Alpha  occ. eigenvalues --   -1.13856  -1.13846  -1.13373  -1.13362  -1.13333
 Alpha  occ. eigenvalues --   -1.13318  -1.13310  -1.13292  -1.13283  -1.13265
 Alpha  occ. eigenvalues --   -1.13227  -1.13188  -1.13178  -1.13164  -1.13148
 Alpha  occ. eigenvalues --   -1.13144  -1.13105  -1.12646  -1.12588  -1.12534
 Alpha  occ. eigenvalues --   -0.18529  -0.12810  -0.12303  -0.11071
 Alpha virt. eigenvalues --   -0.05916  -0.05114  -0.04304  -0.03228  -0.03033
 Alpha virt. eigenvalues --   -0.02743  -0.01783  -0.01135  -0.00381  -0.00118
 Alpha virt. eigenvalues --    0.00007   0.00324   0.00766   0.00834   0.00859

  Beta  occ. eigenvalues --  -38.44443 -38.43832 -38.43675 -38.43668 -38.43632
  Beta  occ. eigenvalues --  -38.43615 -38.42997  -2.20213  -2.19628  -2.19508
  Beta  occ. eigenvalues --   -2.19499  -2.19494  -2.19477  -2.18922  -1.13887
  Beta  occ. eigenvalues --   -1.13857  -1.13852  -1.13322  -1.13290  -1.13275
  Beta  occ. eigenvalues --   -1.13271  -1.13238  -1.13226  -1.13187  -1.13178
  Beta  occ. eigenvalues --   -1.13173  -1.13146  -1.13138  -1.13129  -1.13121
  Beta  occ. eigenvalues --   -1.13110  -1.13099  -1.12629  -1.12557  -1.12522
  Beta  occ. eigenvalues --   -0.17790  -0.12581  -0.12007
  Beta virt. eigenvalues --   -0.07177  -0.05866  -0.05046  -0.04265  -0.02522
  Beta virt. eigenvalues --   -0.02268  -0.01756  -0.01652  -0.01026  -0.00392
  Beta virt. eigenvalues --   -0.00111   0.00088   0.00348   0.00832   0.00842

 Mulliken charges and spin densities:
               1          2
     1  Na  -0.090602   0.565783
     2  Na  -0.191885   0.595302
     3  Na   0.218274  -0.015152
     4  Na  -0.034057  -0.019386
     5  Na  -0.055098  -0.093320
     6  Na  -0.103146  -0.117059
     7  Na   0.256514   0.083832
 Sum of Mulliken charges =  -0.00000   1.00000

 Dipole moment (field-independent basis, Debye):
    X=              0.2287    Y=              0.2207    Z=              0.1161  Tot=              0.3384
 Quadrupole moment (field-independent basis, Debye-Ang):
   XX=            -54.6062   YY=            -65.8142   ZZ=            -73.0193
   XY=              0.0584   XZ=             -0.1791   YZ=             -0.6741

 Normal termination of Gaussian 16 at Thu Dec  7 11:42:17 2023.
