 Gaussian 16, Revision B.01,
 Gaussian 16:  ES64L-G16RevB.01 20-Dec-2017

 -------------------------
 #P B3LYP/6-311+g(d) force
 -------------------------

 -----
 DPGEN
 -----
 Symbolic Z-matrix:
 Charge =  0 Multiplicity = 2

                         Standard orientation:
 ---------------------------------------------------------------------
 Center     Atomic      Atomic             Coordinates (Angstroms)
 Number     Number       Type             X           Y           Z
 ---------------------------------------------------------------------
      1         11           0       -3.098075    0.650843   -0.044069
      2         11           0       -0.321685    2.915187    0.033685
      3         11           0        2.922268    1.175479   -0.048737
      4         11           0        0.142108    0.104926   -1.599225
      5         11           0        0.145978   -0.330729    2.023708
      6         11           0       -1.538335   -2.265535   -0.178673
      7         11           0        1.747741   -2.250171   -0.186688
 ---------------------------------------------------------------------

 SCF Done:  E(UB3LYP) =  -1136.13876048     A.U. after   20 cycles

 The electronic state is 2-A.
 Alpha  occ. eigenvalues --  -38.43936 -38.43812 -38.43557 -38.43477 -38.43391
 Alpha  occ. eigenvalues --  -38.43222 -38.43021  -2.19764  -2.19642  -2.19396
 Alpha  occ. eigenvalues --   -2.19390  -2.19306  -2.19149  -2.19047  -1.13446
 Alpha  occ. eigenvalues --   -1.13424  -1.13401  -1.13317  -1.13304  -1.13290
 Alpha  occ. eigenvalues --   -1.13094  -1.13093  -1.13061  -1.13027  -1.13017
 Alpha  occ. eigenvalues --   -1.13016  -1.13011  -1.12948  -1.12937  -1.12855
 Alpha  occ. eigenvalues --   -1.12803  -1.12766  -1.12716  -1.12671  -1.12654
 Alpha  occ. eigenvalues --   -0.18981  -0.12944  -0.12699  -0.10765
 Alpha virt. eigenvalues --   -0.05573  -0.05038  -0.04741  -0.03035  -0.02949
 Alpha virt. eigenvalues --   -0.02527  -0.01471  -0.01092  -0.00342  -0.00173
 Alpha virt. eigenvalues --   -0.00002   0.00358   0.00842   0.00905   0.00924

  Beta  occ. eigenvalues --  -38.43933 -38.43811 -38.43555 -38.43382 -38.43381
  Beta  occ. eigenvalues --  -38.43212 -38.42956  -2.19761  -2.19643  -2.19390
  Beta  occ. eigenvalues --   -2.19292  -2.19217  -2.19136  -2.18929  -1.13437
  Beta  occ. eigenvalues --   -1.13408  -1.13403  -1.13319  -1.13294  -1.13288
  Beta  occ. eigenvalues --   -1.13087  -1.13042  -1.13036  -1.13014  -1.12957
  Beta  occ. eigenvalues --   -1.12938  -1.12925  -1.12890  -1.12868  -1.12834
  Beta  occ. eigenvalues --   -1.12763  -1.12757  -1.12639  -1.12585  -1.12571
  Beta  occ. eigenvalues --   -0.18234  -0.12714  -0.12449
  Beta virt. eigenvalues --   -0.06797  -0.05570  -0.05029  -0.04704  -0.02258
  Beta virt. eigenvalues --   -0.02147  -0.01433  -0.01403  -0.01022  -0.00390
  Beta virt. eigenvalues --   -0.00234   0.00143   0.00381   0.00872   0.00908

 Mulliken charges and spin densities:
               1          2
     1  Na  -0.000669  -0.062469
     2  Na   0.040289  -0.091196
     3  Na   0.129937  -0.085366
     4  Na  -0.390861   0.440435
     5  Na  -0.639299   0.795440
     6  Na   0.373816   0.015541
     7  Na   0.486788  -0.012385
 Sum of Mulliken charges =  -0.00000   1.00000

 Dipole moment (field-independent basis, Debye):
    X=              0.1422    Y=              0.2335    Z=              0.1883  Tot=              0.3319
 Quadrupole moment (field-independent basis, Debye-Ang):
   XX=            -56.5388   YY=            -62.2607   ZZ=            -74.3978
   XY=             -0.1214   XZ=             -0.0331   YZ=              0.9990

 Normal termination of Gaussian 16 at Tue Dec  5 16:26:28 2023.
