 Gaussian 16, Revision B.01,
 Gaussian 16:  ES64L-G16RevB.01 20-Dec-2017

 -------------------------
 #P B3LYP/6-311+g(d) force
 -------------------------

 -----
 DPGEN
 -----
 Symbolic Z-matrix:
 Charge =  0 Multiplicity = 2

                         Standard orientation:
 ---------------------------------------------------------------------
 Center     Atomic      Atomic             Coordinates (Angstroms)
 Number     Number       Type             X           Y           Z
 ---------------------------------------------------------------------
      1         11           0       -0.904044    0.414179    1.928167
      2         11           0       -0.105458   -1.301022   -0.815390
      3         11           0       -2.342493    1.140446   -1.505295
      4         11           0        0.572546    2.529197   -0.628798
      5         11           0       -3.390412   -1.713918    0.462685
      6         11           0        3.672207   -1.430803   -1.137063
      7         11           0        2.497653    0.361921    1.695694
 ---------------------------------------------------------------------

 SCF Done:  E(UB3LYP) =  -1136.12836238     A.U. after   22 cycles

 The electronic state is 2-A.
 Alpha  occ. eigenvalues --  -38.44258 -38.44247 -38.44162 -38.44106 -38.43837
 Alpha  occ. eigenvalues --  -38.43762 -38.42850  -2.20113  -2.20088  -2.20071
 Alpha  occ. eigenvalues --   -2.19981  -2.19617  -2.19580  -2.18687  -1.13868
 Alpha  occ. eigenvalues --   -1.13809  -1.13797  -1.13753  -1.13740  -1.13712
 Alpha  occ. eigenvalues --   -1.13708  -1.13695  -1.13661  -1.13652  -1.13623
 Alpha  occ. eigenvalues --   -1.13582  -1.13279  -1.13276  -1.13248  -1.13245
 Alpha  occ. eigenvalues --   -1.13242  -1.13211  -1.12365  -1.12345  -1.12332
 Alpha  occ. eigenvalues --   -0.18252  -0.13613  -0.11508  -0.11362
 Alpha virt. eigenvalues --   -0.06207  -0.05233  -0.04876  -0.03275  -0.02848
 Alpha virt. eigenvalues --   -0.02316  -0.02204  -0.01143  -0.00922  -0.00079
 Alpha virt. eigenvalues --    0.00157   0.00200   0.00315   0.00474   0.00660

  Beta  occ. eigenvalues --  -38.44231 -38.44228 -38.44087 -38.44063 -38.43808
  Beta  occ. eigenvalues --  -38.43757 -38.42848  -2.20080  -2.20040  -2.19934
  Beta  occ. eigenvalues --   -2.19902  -2.19572  -2.19564  -2.18685  -1.13823
  Beta  occ. eigenvalues --   -1.13770  -1.13745  -1.13719  -1.13692  -1.13670
  Beta  occ. eigenvalues --   -1.13654  -1.13605  -1.13601  -1.13573  -1.13552
  Beta  occ. eigenvalues --   -1.13526  -1.13243  -1.13241  -1.13238  -1.13227
  Beta  occ. eigenvalues --   -1.13209  -1.13207  -1.12360  -1.12348  -1.12312
  Beta  occ. eigenvalues --   -0.17568  -0.13350  -0.11046
  Beta virt. eigenvalues --   -0.07746  -0.06048  -0.04854  -0.04507  -0.02896
  Beta virt. eigenvalues --   -0.02329  -0.02091  -0.01736  -0.00945  -0.00536
  Beta virt. eigenvalues --   -0.00013   0.00191   0.00356   0.00464   0.00536

 Mulliken charges and spin densities:
               1          2
     1  Na  -0.219702   0.389839
     2  Na  -0.874661   0.373478
     3  Na   0.188676   0.072056
     4  Na  -0.131350   0.055955
     5  Na   0.693723  -0.037042
     6  Na  -0.002005   0.098948
     7  Na   0.345320   0.046767
 Sum of Mulliken charges =  -0.00000   1.00000

 Dipole moment (field-independent basis, Debye):
    X=             -0.4966    Y=              0.2771    Z=              0.1014  Tot=              0.5777
 Quadrupole moment (field-independent basis, Debye-Ang):
   XX=            -54.0553   YY=            -74.4809   ZZ=            -67.0453
   XY=              2.6118   XZ=              0.7633   YZ=              0.4436

 Normal termination of Gaussian 16 at Tue Dec  5 18:32:20 2023.
