 Gaussian 16, Revision B.01,
 Gaussian 16:  ES64L-G16RevB.01 20-Dec-2017

 -------------------------
 #P B3LYP/6-311+g(d) force
 -------------------------

 -----
 DPGEN
 -----
 Symbolic Z-matrix:
 Charge =  0 Multiplicity = 2

                         Standard orientation:
 ---------------------------------------------------------------------
 Center     Atomic      Atomic             Coordinates (Angstroms)
 Number     Number       Type             X           Y           Z
 ---------------------------------------------------------------------
      1         11           0        2.273341    1.390238   -1.080016
      2         11           0       -1.808840    2.058075   -0.588073
      3         11           0        3.923967   -1.224885   -0.190457
      4         11           0        1.037375    0.820518    2.001187
      5         11           0       -2.274705   -0.699288    1.735146
      6         11           0       -3.207047   -0.937151   -1.261070
      7         11           0        0.055910   -1.407506   -0.616717
 ---------------------------------------------------------------------

 SCF Done:  E(UB3LYP) =  -1136.12146794     A.U. after   26 cycles

 The electronic state is 2-A.
 Alpha  occ. eigenvalues --  -38.44497 -38.44392 -38.44354 -38.44324 -38.43852
 Alpha  occ. eigenvalues --  -38.43524 -38.43081  -2.20362  -2.20295  -2.20192
 Alpha  occ. eigenvalues --   -2.20150  -2.19690  -2.19418  -2.18932  -1.14053
 Alpha  occ. eigenvalues --   -1.14038  -1.13990  -1.13981  -1.13959  -1.13908
 Alpha  occ. eigenvalues --   -1.13904  -1.13864  -1.13821  -1.13809  -1.13792
 Alpha  occ. eigenvalues --   -1.13771  -1.13368  -1.13348  -1.13301  -1.13085
 Alpha  occ. eigenvalues --   -1.13068  -1.13053  -1.12624  -1.12587  -1.12551
 Alpha  occ. eigenvalues --   -0.18415  -0.14457  -0.11301  -0.10676
 Alpha virt. eigenvalues --   -0.06713  -0.05486  -0.04953  -0.03111  -0.02668
 Alpha virt. eigenvalues --   -0.02521  -0.02165  -0.01206  -0.00836  -0.00314
 Alpha virt. eigenvalues --    0.00121   0.00231   0.00364   0.00443   0.00641

  Beta  occ. eigenvalues --  -38.44474 -38.44361 -38.44340 -38.44305 -38.43794
  Beta  occ. eigenvalues --  -38.43509 -38.43056  -2.20318  -2.20201  -2.20165
  Beta  occ. eigenvalues --   -2.20161  -2.19584  -2.19393  -2.18887  -1.14020
  Beta  occ. eigenvalues --   -1.14010  -1.13958  -1.13926  -1.13885  -1.13857
  Beta  occ. eigenvalues --   -1.13841  -1.13834  -1.13823  -1.13819  -1.13784
  Beta  occ. eigenvalues --   -1.13768  -1.13291  -1.13275  -1.13225  -1.13068
  Beta  occ. eigenvalues --   -1.13052  -1.13015  -1.12592  -1.12537  -1.12524
  Beta  occ. eigenvalues --   -0.17715  -0.14289  -0.10475
  Beta virt. eigenvalues --   -0.07417  -0.06540  -0.05138  -0.04555  -0.02765
  Beta virt. eigenvalues --   -0.02561  -0.02001  -0.01537  -0.00961  -0.00441
  Beta virt. eigenvalues --   -0.00212   0.00168   0.00302   0.00438   0.00542

 Mulliken charges and spin densities:
               1          2
     1  Na   0.306465  -0.013202
     2  Na  -0.559807   0.420490
     3  Na   0.339756  -0.011285
     4  Na  -0.193600   0.109199
     5  Na   0.197231   0.080860
     6  Na   1.099911   0.039429
     7  Na  -1.189956   0.374509
 Sum of Mulliken charges =  -0.00000   1.00000

 Dipole moment (field-independent basis, Debye):
    X=              0.3082    Y=              0.2331    Z=              0.2801  Tot=              0.4772
 Quadrupole moment (field-independent basis, Debye-Ang):
   XX=            -52.4487   YY=            -74.9419   ZZ=            -69.2904
   XY=             -0.2927   XZ=              0.3382   YZ=             -5.0811

 Normal termination of Gaussian 16 at Tue Dec  5 10:30:43 2023.
