 Gaussian 16, Revision B.01,
 Gaussian 16:  ES64L-G16RevB.01 20-Dec-2017

 -------------------------
 #P B3LYP/6-311+g(d) force
 -------------------------

 -----
 DPGEN
 -----
 Symbolic Z-matrix:
 Charge =  0 Multiplicity = 2

                         Standard orientation:
 ---------------------------------------------------------------------
 Center     Atomic      Atomic             Coordinates (Angstroms)
 Number     Number       Type             X           Y           Z
 ---------------------------------------------------------------------
      1         11           0        3.685294   -0.763455   -0.726244
      2         11           0        2.647668    2.338214    0.203852
      3         11           0        1.198528   -2.216296    0.885632
      4         11           0       -1.394038    1.397536    1.803341
      5         11           0       -2.806007   -1.567679    0.316147
      6         11           0       -3.572033    0.883105   -1.330735
      7         11           0        0.240587   -0.071425   -1.151993
 ---------------------------------------------------------------------

 SCF Done:  E(UB3LYP) =  -1136.11787348     A.U. after   25 cycles

 The electronic state is 2-A.
 Alpha  occ. eigenvalues --  -38.44822 -38.44714 -38.44553 -38.44318 -38.44147
 Alpha  occ. eigenvalues --  -38.43433 -38.42847  -2.20712  -2.20571  -2.20404
 Alpha  occ. eigenvalues --   -2.20179  -2.19965  -2.19214  -2.18706  -1.14449
 Alpha  occ. eigenvalues --   -1.14365  -1.14335  -1.14283  -1.14234  -1.14208
 Alpha  occ. eigenvalues --   -1.14085  -1.14050  -1.14023  -1.13831  -1.13818
 Alpha  occ. eigenvalues --   -1.13781  -1.13621  -1.13607  -1.13583  -1.12895
 Alpha  occ. eigenvalues --   -1.12876  -1.12866  -1.12412  -1.12354  -1.12331
 Alpha  occ. eigenvalues --   -0.17945  -0.14595  -0.10955  -0.10705
 Alpha virt. eigenvalues --   -0.06693  -0.05947  -0.04751  -0.03080  -0.02856
 Alpha virt. eigenvalues --   -0.02519  -0.02116  -0.01311  -0.00799  -0.00530
 Alpha virt. eigenvalues --   -0.00013   0.00105   0.00309   0.00339   0.00626

  Beta  occ. eigenvalues --  -38.44817 -38.44698 -38.44533 -38.44251 -38.44067
  Beta  occ. eigenvalues --  -38.43445 -38.42841  -2.20705  -2.20548  -2.20365
  Beta  occ. eigenvalues --   -2.20055  -2.19817  -2.19238  -2.18696  -1.14422
  Beta  occ. eigenvalues --   -1.14363  -1.14334  -1.14254  -1.14218  -1.14164
  Beta  occ. eigenvalues --   -1.14057  -1.14025  -1.14002  -1.13749  -1.13731
  Beta  occ. eigenvalues --   -1.13696  -1.13518  -1.13497  -1.13484  -1.12914
  Beta  occ. eigenvalues --   -1.12894  -1.12868  -1.12406  -1.12348  -1.12312
  Beta  occ. eigenvalues --   -0.17360  -0.14195  -0.10785
  Beta virt. eigenvalues --   -0.07045  -0.06461  -0.05809  -0.04220  -0.02900
  Beta virt. eigenvalues --   -0.02654  -0.01924  -0.01452  -0.01288  -0.00496
  Beta virt. eigenvalues --   -0.00232   0.00068   0.00160   0.00454   0.00486

 Mulliken charges and spin densities:
               1          2
     1  Na   1.296752   0.088571
     2  Na  -0.135733   0.031842
     3  Na  -0.142365   0.083660
     4  Na  -0.311849   0.438185
     5  Na   0.257693   0.212109
     6  Na   0.602334   0.391513
     7  Na  -1.566832  -0.245879
 Sum of Mulliken charges =  -0.00000   1.00000

 Dipole moment (field-independent basis, Debye):
    X=             -0.1942    Y=             -0.2766    Z=              0.1876  Tot=              0.3865
 Quadrupole moment (field-independent basis, Debye-Ang):
   XX=            -54.8229   YY=            -74.6000   ZZ=            -68.7817
   XY=             -1.6139   XZ=             -2.1884   YZ=             -1.4269

 Normal termination of Gaussian 16 at Fri Dec  8 00:41:07 2023.
