 Gaussian 16, Revision B.01,
 Gaussian 16:  ES64L-G16RevB.01 20-Dec-2017

 -------------------------
 #P B3LYP/6-311+g(d) force
 -------------------------

 -----
 DPGEN
 -----
 Symbolic Z-matrix:
 Charge =  0 Multiplicity = 2

                         Standard orientation:
 ---------------------------------------------------------------------
 Center     Atomic      Atomic             Coordinates (Angstroms)
 Number     Number       Type             X           Y           Z
 ---------------------------------------------------------------------
      1         11           0       -3.269314    2.328017   -0.873770
      2         11           0       -5.938369    0.197504    0.887239
      3         11           0       -3.974186   -2.042092   -0.948736
      4         11           0       -0.640981   -0.742921   -0.180725
      5         11           0        1.882369    0.764388    1.546821
      6         11           0        4.937854   -1.108483    0.662988
      7         11           0        7.002626    0.603586   -1.093818
 ---------------------------------------------------------------------

 SCF Done:  E(UB3LYP) =  -1136.10339259     A.U. after   23 cycles

 The electronic state is 2-A.
 Alpha  occ. eigenvalues --  -38.45508 -38.45141 -38.44354 -38.44229 -38.44228
 Alpha  occ. eigenvalues --  -38.44071 -38.43828  -2.21247  -2.20913  -2.20121
 Alpha  occ. eigenvalues --   -2.20042  -2.19996  -2.19861  -2.19611  -1.14931
 Alpha  occ. eigenvalues --   -1.14913  -1.14888  -1.14571  -1.14547  -1.14516
 Alpha  occ. eigenvalues --   -1.13796  -1.13785  -1.13761  -1.13701  -1.13689
 Alpha  occ. eigenvalues --   -1.13677  -1.13659  -1.13657  -1.13653  -1.13535
 Alpha  occ. eigenvalues --   -1.13520  -1.13471  -1.13298  -1.13284  -1.13235
 Alpha  occ. eigenvalues --   -0.15827  -0.13931  -0.11500  -0.10914
 Alpha virt. eigenvalues --   -0.07720  -0.05470  -0.04550  -0.03335  -0.02871
 Alpha virt. eigenvalues --   -0.02710  -0.02296  -0.02027  -0.01546  -0.00915
 Alpha virt. eigenvalues --   -0.00574  -0.00223   0.00031   0.00157   0.00292

  Beta  occ. eigenvalues --  -38.45519 -38.45036 -38.44354 -38.44231 -38.44148
  Beta  occ. eigenvalues --  -38.44071 -38.43814  -2.21270  -2.20719  -2.20122
  Beta  occ. eigenvalues --   -2.20000  -2.19893  -2.19860  -2.19587  -1.14950
  Beta  occ. eigenvalues --   -1.14914  -1.14897  -1.14437  -1.14412  -1.14384
  Beta  occ. eigenvalues --   -1.13796  -1.13786  -1.13762  -1.13679  -1.13661
  Beta  occ. eigenvalues --   -1.13659  -1.13598  -1.13584  -1.13554  -1.13534
  Beta  occ. eigenvalues --   -1.13519  -1.13471  -1.13284  -1.13264  -1.13203
  Beta  occ. eigenvalues --   -0.15091  -0.13840  -0.11508
  Beta virt. eigenvalues --   -0.07502  -0.06836  -0.05279  -0.04286  -0.03241
  Beta virt. eigenvalues --   -0.02368  -0.02187  -0.02015  -0.01866  -0.01164
  Beta virt. eigenvalues --   -0.00814  -0.00333  -0.00014   0.00082   0.00318

 Mulliken charges and spin densities:
               1          2
     1  Na   0.000780   0.622788
     2  Na   0.101628  -0.055248
     3  Na   0.257501   0.353468
     4  Na  -0.701157   0.101276
     5  Na   0.375054  -0.006329
     6  Na  -0.179735  -0.006960
     7  Na   0.145930  -0.008995
 Sum of Mulliken charges =  -0.00000   1.00000

 Dipole moment (field-independent basis, Debye):
    X=             -1.0247    Y=              0.5021    Z=              0.2297  Tot=              1.1640
 Quadrupole moment (field-independent basis, Debye-Ang):
   XX=            -58.4943   YY=            -70.8072   ZZ=            -66.1051
   XY=              4.4051   XZ=             -6.3476   YZ=             -0.7366

 Normal termination of Gaussian 16 at Sun Dec  3 18:06:34 2023.
