 Gaussian 16, Revision B.01,
 Gaussian 16:  ES64L-G16RevB.01 20-Dec-2017

 -------------------------
 #P B3LYP/6-311+g(d) force
 -------------------------

 -----
 DPGEN
 -----
 Symbolic Z-matrix:
 Charge =  0 Multiplicity = 2

                         Standard orientation:
 ---------------------------------------------------------------------
 Center     Atomic      Atomic             Coordinates (Angstroms)
 Number     Number       Type             X           Y           Z
 ---------------------------------------------------------------------
      1         11           0       -4.445252   -0.703936    0.469911
      2         11           0       -3.052135    2.947669    0.463701
      3         11           0        1.917784   -1.949297   -0.190513
      4         11           0        4.380240   -0.131296    1.302783
      5         11           0        3.659805    1.538784   -0.815737
      6         11           0       -1.890405   -2.710714   -0.338711
      7         11           0       -0.570038    1.008791   -0.891433
 ---------------------------------------------------------------------

 SCF Done:  E(UB3LYP) =  -1136.11015134     A.U. after   24 cycles

 The electronic state is 2-A.
 Alpha  occ. eigenvalues --  -38.45827 -38.45139 -38.44444 -38.44276 -38.43991
 Alpha  occ. eigenvalues --  -38.43606 -38.43150  -2.21669  -2.21033  -2.20246
 Alpha  occ. eigenvalues --   -2.20077  -2.19796  -2.19370  -2.18933  -1.15480
 Alpha  occ. eigenvalues --   -1.15308  -1.15287  -1.14678  -1.14647  -1.14644
 Alpha  occ. eigenvalues --   -1.13907  -1.13896  -1.13847  -1.13776  -1.13746
 Alpha  occ. eigenvalues --   -1.13681  -1.13489  -1.13446  -1.13405  -1.13046
 Alpha  occ. eigenvalues --   -1.13033  -1.13017  -1.12620  -1.12614  -1.12569
 Alpha  occ. eigenvalues --   -0.16826  -0.14650  -0.11311  -0.10908
 Alpha virt. eigenvalues --   -0.07288  -0.05301  -0.04589  -0.03880  -0.03018
 Alpha virt. eigenvalues --   -0.02458  -0.02113  -0.01593  -0.00878  -0.00599
 Alpha virt. eigenvalues --   -0.00440   0.00004   0.00193   0.00346   0.00553

  Beta  occ. eigenvalues --  -38.45819 -38.45099 -38.44361 -38.44253 -38.43929
  Beta  occ. eigenvalues --  -38.43614 -38.43149  -2.21660  -2.20959  -2.20092
  Beta  occ. eigenvalues --   -2.20037  -2.19682  -2.19386  -2.18936  -1.15456
  Beta  occ. eigenvalues --   -1.15306  -1.15262  -1.14627  -1.14599  -1.14592
  Beta  occ. eigenvalues --   -1.13803  -1.13793  -1.13748  -1.13740  -1.13708
  Beta  occ. eigenvalues --   -1.13657  -1.13413  -1.13371  -1.13318  -1.13058
  Beta  occ. eigenvalues --   -1.13034  -1.13025  -1.12626  -1.12619  -1.12538
  Beta  occ. eigenvalues --   -0.16259  -0.13997  -0.11105
  Beta virt. eigenvalues --   -0.07422  -0.07123  -0.04791  -0.04319  -0.03656
  Beta virt. eigenvalues --   -0.02530  -0.02139  -0.01943  -0.01215  -0.00776
  Beta virt. eigenvalues --   -0.00393  -0.00306   0.00271   0.00314   0.00439

 Mulliken charges and spin densities:
               1          2
     1  Na   0.010105   0.423532
     2  Na   0.755245  -0.024916
     3  Na  -0.514550  -0.038932
     4  Na   0.931317   0.331955
     5  Na  -0.141452   0.032805
     6  Na   0.176909   0.003480
     7  Na  -1.217574   0.272077
 Sum of Mulliken charges =  -0.00000   1.00000

 Dipole moment (field-independent basis, Debye):
    X=              2.0697    Y=              0.4738    Z=              0.3406  Tot=              2.1504
 Quadrupole moment (field-independent basis, Debye-Ang):
   XX=            -59.4080   YY=            -70.8772   ZZ=            -67.8408
   XY=             -1.9284   XZ=             -1.1383   YZ=             -2.2581

 Normal termination of Gaussian 16 at Sun Dec  3 14:33:07 2023.
