 Gaussian 16, Revision B.01,
 Gaussian 16:  ES64L-G16RevB.01 20-Dec-2017

 -------------------------
 #P B3LYP/6-311+g(d) force
 -------------------------

 -----
 DPGEN
 -----
 Symbolic Z-matrix:
 Charge =  0 Multiplicity = 2

                         Standard orientation:
 ---------------------------------------------------------------------
 Center     Atomic      Atomic             Coordinates (Angstroms)
 Number     Number       Type             X           Y           Z
 ---------------------------------------------------------------------
      1         11           0       -1.078702    2.177616    1.592014
      2         11           0       -2.806534    0.529771   -0.674149
      3         11           0        1.751389   -0.649747   -1.034400
      4         11           0       -2.562274   -2.662314   -0.437609
      5         11           0        4.608668   -0.736418    0.330666
      6         11           0        0.438713    2.553478   -1.176981
      7         11           0       -0.351260   -1.212387    1.400459
 ---------------------------------------------------------------------

 SCF Done:  E(UB3LYP) =  -1136.11809749     A.U. after   22 cycles

 The electronic state is 2-A.
 Alpha  occ. eigenvalues --  -38.45367 -38.44582 -38.43894 -38.43779 -38.43717
 Alpha  occ. eigenvalues --  -38.43440 -38.43352  -2.21122  -2.20453  -2.19757
 Alpha  occ. eigenvalues --   -2.19684  -2.19563  -2.19290  -2.19251  -1.14792
 Alpha  occ. eigenvalues --   -1.14781  -1.14772  -1.14145  -1.14121  -1.14073
 Alpha  occ. eigenvalues --   -1.13487  -1.13414  -1.13389  -1.13353  -1.13329
 Alpha  occ. eigenvalues --   -1.13305  -1.13240  -1.13228  -1.13185  -1.12956
 Alpha  occ. eigenvalues --   -1.12935  -1.12929  -1.12923  -1.12897  -1.12861
 Alpha  occ. eigenvalues --   -0.17965  -0.13281  -0.12368  -0.10466
 Alpha virt. eigenvalues --   -0.07224  -0.05110  -0.03677  -0.03614  -0.03156
 Alpha virt. eigenvalues --   -0.02662  -0.02002  -0.01135  -0.00751  -0.00436
 Alpha virt. eigenvalues --   -0.00008   0.00133   0.00279   0.00653   0.00805

  Beta  occ. eigenvalues --  -38.45380 -38.44554 -38.43877 -38.43725 -38.43682
  Beta  occ. eigenvalues --  -38.43428 -38.43306  -2.21146  -2.20404  -2.19728
  Beta  occ. eigenvalues --   -2.19587  -2.19499  -2.19269  -2.19169  -1.14808
  Beta  occ. eigenvalues --   -1.14797  -1.14787  -1.14094  -1.14083  -1.14040
  Beta  occ. eigenvalues --   -1.13453  -1.13387  -1.13362  -1.13298  -1.13245
  Beta  occ. eigenvalues --   -1.13240  -1.13194  -1.13177  -1.13142  -1.12934
  Beta  occ. eigenvalues --   -1.12918  -1.12914  -1.12870  -1.12841  -1.12785
  Beta  occ. eigenvalues --   -0.17270  -0.13133  -0.12224
  Beta virt. eigenvalues --   -0.07009  -0.06624  -0.04988  -0.03495  -0.03196
  Beta virt. eigenvalues --   -0.02646  -0.02384  -0.01299  -0.00988  -0.00698
  Beta virt. eigenvalues --   -0.00159   0.00087   0.00281   0.00376   0.00695

 Mulliken charges and spin densities:
               1          2
     1  Na   0.249527   0.144914
     2  Na   0.037496   0.319271
     3  Na   0.069681   0.187648
     4  Na   0.291796   0.032103
     5  Na   0.110583  -0.102808
     6  Na  -0.132678   0.162999
     7  Na  -0.626403   0.255872
 Sum of Mulliken charges =  -0.00000   1.00000

 Dipole moment (field-independent basis, Debye):
    X=              0.9725    Y=              0.0694    Z=              0.2841  Tot=              1.0155
 Quadrupole moment (field-independent basis, Debye-Ang):
   XX=            -52.0380   YY=            -67.2297   ZZ=            -72.8835
   XY=             -0.3228   XZ=              3.3741   YZ=              0.6713

 Normal termination of Gaussian 16 at Tue Nov 28 23:03:35 2023.
