 Gaussian 16, Revision B.01,
 Gaussian 16:  ES64L-G16RevB.01 20-Dec-2017

 -------------------------
 #P B3LYP/6-311+g(d) force
 -------------------------

 -----
 DPGEN
 -----
 Symbolic Z-matrix:
 Charge =  0 Multiplicity = 2

                         Standard orientation:
 ---------------------------------------------------------------------
 Center     Atomic      Atomic             Coordinates (Angstroms)
 Number     Number       Type             X           Y           Z
 ---------------------------------------------------------------------
      1         11           0        2.630812   -1.650114    0.994372
      2         11           0        5.729832   -0.702631   -0.629247
      3         11           0        3.480601    1.532467    0.178627
      4         11           0        0.190375    2.343541   -0.048878
      5         11           0       -0.235318   -1.249525   -0.666560
      6         11           0       -4.550061    0.114766    0.543091
      7         11           0       -7.246240   -0.388504   -0.371406
 ---------------------------------------------------------------------

 SCF Done:  E(UB3LYP) =  -1136.11324549     A.U. after   19 cycles

 The electronic state is 2-A.
 Alpha  occ. eigenvalues --  -38.45054 -38.44386 -38.44370 -38.44213 -38.44160
 Alpha  occ. eigenvalues --  -38.43736 -38.43697  -2.20900  -2.20263  -2.20175
 Alpha  occ. eigenvalues --   -2.20022  -2.19966  -2.19556  -2.19509  -1.14585
 Alpha  occ. eigenvalues --   -1.14572  -1.14495  -1.13955  -1.13927  -1.13886
 Alpha  occ. eigenvalues --   -1.13842  -1.13836  -1.13794  -1.13684  -1.13678
 Alpha  occ. eigenvalues --   -1.13633  -1.13630  -1.13626  -1.13587  -1.13400
 Alpha  occ. eigenvalues --   -1.13211  -1.13207  -1.13143  -1.13143  -1.13044
 Alpha  occ. eigenvalues --   -0.16945  -0.13357  -0.12124  -0.11798
 Alpha virt. eigenvalues --   -0.06522  -0.05189  -0.04714  -0.03382  -0.03120
 Alpha virt. eigenvalues --   -0.02672  -0.02138  -0.01505  -0.01380  -0.01107
 Alpha virt. eigenvalues --   -0.00354  -0.00179   0.00256   0.00302   0.00444

  Beta  occ. eigenvalues --  -38.44995 -38.44333 -38.44327 -38.44157 -38.44155
  Beta  occ. eigenvalues --  -38.43735 -38.43700  -2.20794  -2.20168  -2.20097
  Beta  occ. eigenvalues --   -2.19957  -2.19922  -2.19554  -2.19516  -1.14510
  Beta  occ. eigenvalues --   -1.14504  -1.14404  -1.13894  -1.13868  -1.13798
  Beta  occ. eigenvalues --   -1.13788  -1.13774  -1.13739  -1.13625  -1.13618
  Beta  occ. eigenvalues --   -1.13616  -1.13599  -1.13578  -1.13560  -1.13404
  Beta  occ. eigenvalues --   -1.13209  -1.13206  -1.13147  -1.13147  -1.13048
  Beta  occ. eigenvalues --   -0.16135  -0.13370  -0.11897
  Beta virt. eigenvalues --   -0.07676  -0.06354  -0.04936  -0.04277  -0.03090
  Beta virt. eigenvalues --   -0.02626  -0.02412  -0.01951  -0.01445  -0.00993
  Beta virt. eigenvalues --   -0.00836  -0.00136   0.00007   0.00389   0.00449

 Mulliken charges and spin densities:
               1          2
     1  Na  -0.042081   0.287360
     2  Na   0.528241  -0.008053
     3  Na  -0.147040   0.217519
     4  Na  -0.100289   0.291481
     5  Na  -0.036336   0.277649
     6  Na  -0.846477  -0.051214
     7  Na   0.643981  -0.014742
 Sum of Mulliken charges =  -0.00000   1.00000

 Dipole moment (field-independent basis, Debye):
    X=              1.6639    Y=             -0.4121    Z=             -0.3263  Tot=              1.7449
 Quadrupole moment (field-independent basis, Debye-Ang):
   XX=            -61.0299   YY=            -69.3401   ZZ=            -69.1797
   XY=             -2.1381   XZ=              1.2850   YZ=              1.1113

 Normal termination of Gaussian 16 at Tue Nov 28 22:18:18 2023.
