 Gaussian 16, Revision B.01,
 Gaussian 16:  ES64L-G16RevB.01 20-Dec-2017

 -------------------------
 #P B3LYP/6-311+g(d) force
 -------------------------

 -----
 DPGEN
 -----
 Symbolic Z-matrix:
 Charge =  0 Multiplicity = 2

                         Standard orientation:
 ---------------------------------------------------------------------
 Center     Atomic      Atomic             Coordinates (Angstroms)
 Number     Number       Type             X           Y           Z
 ---------------------------------------------------------------------
      1         11           0       -1.587682    2.636347    0.066279
      2         11           0       -4.246496    1.465064   -0.667530
      3         11           0       -5.089632   -2.307040   -0.319146
      4         11           0        0.886656   -0.017968    1.793964
      5         11           0       -1.474837   -1.477947    0.097192
      6         11           0        7.148570   -0.788619   -0.561992
      7         11           0        4.363420    0.490163   -0.408766
 ---------------------------------------------------------------------

 SCF Done:  E(UB3LYP) =  -1136.10988441     A.U. after   21 cycles

 The electronic state is 2-A.
 Alpha  occ. eigenvalues --  -38.45477 -38.45148 -38.44872 -38.44332 -38.43818
 Alpha  occ. eigenvalues --  -38.43639 -38.43634  -2.21317  -2.20966  -2.20705
 Alpha  occ. eigenvalues --   -2.20103  -2.19623  -2.19433  -2.19424  -1.15045
 Alpha  occ. eigenvalues --   -1.14969  -1.14897  -1.14662  -1.14623  -1.14569
 Alpha  occ. eigenvalues --   -1.14390  -1.14367  -1.14298  -1.13767  -1.13761
 Alpha  occ. eigenvalues --   -1.13720  -1.13305  -1.13276  -1.13249  -1.13194
 Alpha  occ. eigenvalues --   -1.13105  -1.13099  -1.13071  -1.13070  -1.12980
 Alpha  occ. eigenvalues --   -0.16717  -0.13420  -0.12543  -0.11782
 Alpha virt. eigenvalues --   -0.06190  -0.05276  -0.04895  -0.03747  -0.03394
 Alpha virt. eigenvalues --   -0.02485  -0.01983  -0.01594  -0.01344  -0.01158
 Alpha virt. eigenvalues --   -0.00654  -0.00152  -0.00068   0.00388   0.00506

  Beta  occ. eigenvalues --  -38.45397 -38.45095 -38.44824 -38.44292 -38.43798
  Beta  occ. eigenvalues --  -38.43640 -38.43629  -2.21174  -2.20869  -2.20624
  Beta  occ. eigenvalues --   -2.20030  -2.19588  -2.19434  -2.19417  -1.14934
  Beta  occ. eigenvalues --   -1.14876  -1.14789  -1.14596  -1.14560  -1.14488
  Beta  occ. eigenvalues --   -1.14326  -1.14318  -1.14215  -1.13718  -1.13703
  Beta  occ. eigenvalues --   -1.13676  -1.13268  -1.13254  -1.13232  -1.13191
  Beta  occ. eigenvalues --   -1.13105  -1.13098  -1.13067  -1.13065  -1.12977
  Beta  occ. eigenvalues --   -0.15800  -0.13158  -0.11562
  Beta virt. eigenvalues --   -0.08596  -0.05999  -0.04890  -0.04657  -0.03176
  Beta virt. eigenvalues --   -0.02939  -0.02346  -0.01878  -0.01384  -0.01056
  Beta virt. eigenvalues --   -0.00841  -0.00381  -0.00031   0.00113   0.00479

 Mulliken charges and spin densities:
               1          2
     1  Na   0.055277   0.329489
     2  Na   0.041443   0.081371
     3  Na   0.559622   0.079115
     4  Na  -0.335294   0.077077
     5  Na  -0.437385   0.476632
     6  Na   0.560408  -0.026399
     7  Na  -0.444071  -0.017285
 Sum of Mulliken charges =  -0.00000   1.00000

 Dipole moment (field-independent basis, Debye):
    X=             -1.6543    Y=              0.2435    Z=              0.1892  Tot=              1.6828
 Quadrupole moment (field-independent basis, Debye-Ang):
   XX=            -66.2445   YY=            -63.5102   ZZ=            -72.1176
   XY=             -1.9990   XZ=              1.4198   YZ=             -0.1033

 Normal termination of Gaussian 16 at Sun Dec  3 13:17:56 2023.
