 Gaussian 16, Revision B.01,
 Gaussian 16:  ES64L-G16RevB.01 20-Dec-2017

 -------------------------
 #P B3LYP/6-311+g(d) force
 -------------------------

 -----
 DPGEN
 -----
 Symbolic Z-matrix:
 Charge =  0 Multiplicity = 2

                         Standard orientation:
 ---------------------------------------------------------------------
 Center     Atomic      Atomic             Coordinates (Angstroms)
 Number     Number       Type             X           Y           Z
 ---------------------------------------------------------------------
      1         11           0        1.361401   -2.953249    0.028335
      2         11           0        3.087960    0.366278   -0.198590
      3         11           0        0.692508    3.291850    0.058745
      4         11           0        0.233422    0.244915   -1.642617
      5         11           0       -2.102996   -2.213264   -0.208402
      6         11           0        0.040280    0.024922    2.081856
      7         11           0       -3.312575    1.238548   -0.119327
 ---------------------------------------------------------------------

 SCF Done:  E(UB3LYP) =  -1136.13336444     A.U. after   20 cycles

 The electronic state is 2-A.
 Alpha  occ. eigenvalues --  -38.44324 -38.44301 -38.44109 -38.43817 -38.43686
 Alpha  occ. eigenvalues --  -38.43612 -38.43407  -2.20098  -2.20050  -2.19938
 Alpha  occ. eigenvalues --   -2.19624  -2.19488  -2.19455  -2.19316  -1.13776
 Alpha  occ. eigenvalues --   -1.13757  -1.13738  -1.13727  -1.13703  -1.13697
 Alpha  occ. eigenvalues --   -1.13646  -1.13598  -1.13553  -1.13307  -1.13297
 Alpha  occ. eigenvalues --   -1.13255  -1.13158  -1.13145  -1.13137  -1.13121
 Alpha  occ. eigenvalues --   -1.13080  -1.13068  -1.13005  -1.12952  -1.12936
 Alpha  occ. eigenvalues --   -0.17912  -0.12748  -0.12282  -0.10364
 Alpha virt. eigenvalues --   -0.06004  -0.05370  -0.05125  -0.03007  -0.02777
 Alpha virt. eigenvalues --   -0.02434  -0.01613  -0.01552  -0.00837  -0.00698
 Alpha virt. eigenvalues --   -0.00031   0.00328   0.00726   0.00750   0.00808

  Beta  occ. eigenvalues --  -38.44323 -38.44303 -38.44100 -38.43812 -38.43685
  Beta  occ. eigenvalues --  -38.43512 -38.43349  -2.20098  -2.20055  -2.19925
  Beta  occ. eigenvalues --   -2.19618  -2.19488  -2.19271  -2.19210  -1.13766
  Beta  occ. eigenvalues --   -1.13750  -1.13740  -1.13721  -1.13707  -1.13701
  Beta  occ. eigenvalues --   -1.13630  -1.13571  -1.13548  -1.13299  -1.13280
  Beta  occ. eigenvalues --   -1.13254  -1.13146  -1.13141  -1.13134  -1.13001
  Beta  occ. eigenvalues --   -1.12952  -1.12937  -1.12929  -1.12871  -1.12861
  Beta  occ. eigenvalues --   -0.17199  -0.12543  -0.12113
  Beta virt. eigenvalues --   -0.06476  -0.06013  -0.05275  -0.05080  -0.02263
  Beta virt. eigenvalues --   -0.02090  -0.01555  -0.01469  -0.01358  -0.00886
  Beta virt. eigenvalues --   -0.00741   0.00124   0.00367   0.00724   0.00793

 Mulliken charges and spin densities:
               1          2
     1  Na   0.081809  -0.031851
     2  Na   0.299722  -0.027805
     3  Na  -0.000648  -0.125082
     4  Na   0.012314   0.508110
     5  Na   0.032124  -0.053586
     6  Na  -0.372631   0.837785
     7  Na  -0.052691  -0.107571
 Sum of Mulliken charges =  -0.00000   1.00000

 Dipole moment (field-independent basis, Debye):
    X=              0.0870    Y=              0.3711    Z=              0.0343  Tot=              0.3827
 Quadrupole moment (field-independent basis, Debye-Ang):
   XX=            -58.0694   YY=            -57.5973   ZZ=            -76.8944
   XY=             -0.8439   XZ=              0.3635   YZ=              0.4837

 Normal termination of Gaussian 16 at Thu Dec  7 17:23:51 2023.
