 Gaussian 16, Revision B.01,
 Gaussian 16:  ES64L-G16RevB.01 20-Dec-2017

 -------------------------
 #P B3LYP/6-311+g(d) force
 -------------------------

 -----
 DPGEN
 -----
 Symbolic Z-matrix:
 Charge =  0 Multiplicity = 2

                         Standard orientation:
 ---------------------------------------------------------------------
 Center     Atomic      Atomic             Coordinates (Angstroms)
 Number     Number       Type             X           Y           Z
 ---------------------------------------------------------------------
      1         11           0        0.483301   -2.130879   -0.518626
      2         11           0        3.759430   -2.724000    0.002432
      3         11           0        3.143733    0.364164    0.408797
      4         11           0        1.695625    3.818690   -0.413436
      5         11           0       -0.119726    1.055385    1.013314
      6         11           0       -2.748209    0.402415   -0.946824
      7         11           0       -6.214155   -0.785773    0.454343
 ---------------------------------------------------------------------

 SCF Done:  E(UB3LYP) =  -1136.11838151     A.U. after   20 cycles

 The electronic state is 2-A.
 Alpha  occ. eigenvalues --  -38.44681 -38.44528 -38.44106 -38.44084 -38.44037
 Alpha  occ. eigenvalues --  -38.43993 -38.43812  -2.20458  -2.20345  -2.19967
 Alpha  occ. eigenvalues --   -2.19878  -2.19863  -2.19848  -2.19580  -1.14092
 Alpha  occ. eigenvalues --   -1.14092  -1.14057  -1.14040  -1.14032  -1.13938
 Alpha  occ. eigenvalues --   -1.13692  -1.13656  -1.13630  -1.13567  -1.13542
 Alpha  occ. eigenvalues --   -1.13527  -1.13522  -1.13516  -1.13515  -1.13482
 Alpha  occ. eigenvalues --   -1.13461  -1.13439  -1.13275  -1.13248  -1.13220
 Alpha  occ. eigenvalues --   -0.16969  -0.13469  -0.12405  -0.10979
 Alpha virt. eigenvalues --   -0.06161  -0.05795  -0.04892  -0.03515  -0.02622
 Alpha virt. eigenvalues --   -0.02339  -0.02136  -0.01345  -0.01275  -0.00944
 Alpha virt. eigenvalues --   -0.00463  -0.00112   0.00110   0.00385   0.00528

  Beta  occ. eigenvalues --  -38.44550 -38.44500 -38.44090 -38.44073 -38.44023
  Beta  occ. eigenvalues --  -38.43974 -38.43830  -2.20294  -2.20214  -2.19937
  Beta  occ. eigenvalues --   -2.19853  -2.19832  -2.19826  -2.19618  -1.14005
  Beta  occ. eigenvalues --   -1.13997  -1.13927  -1.13926  -1.13897  -1.13895
  Beta  occ. eigenvalues --   -1.13668  -1.13636  -1.13606  -1.13551  -1.13517
  Beta  occ. eigenvalues --   -1.13511  -1.13507  -1.13497  -1.13497  -1.13464
  Beta  occ. eigenvalues --   -1.13443  -1.13412  -1.13305  -1.13277  -1.13208
  Beta  occ. eigenvalues --   -0.16594  -0.12996  -0.11872
  Beta virt. eigenvalues --   -0.07432  -0.06036  -0.05241  -0.04725  -0.03236
  Beta virt. eigenvalues --   -0.02397  -0.02204  -0.01784  -0.01163  -0.00775
  Beta virt. eigenvalues --   -0.00493  -0.00295   0.00112   0.00308   0.00525

 Mulliken charges and spin densities:
               1          2
     1  Na  -0.239626   0.086364
     2  Na   0.535126   0.073119
     3  Na  -0.314167   0.194322
     4  Na   0.255072   0.050661
     5  Na  -0.332132   0.055162
     6  Na   0.127363  -0.137098
     7  Na  -0.031636   0.677470
 Sum of Mulliken charges =  -0.00000   1.00000

 Dipole moment (field-independent basis, Debye):
    X=              1.2591    Y=             -0.3745    Z=             -0.2889  Tot=              1.3450
 Quadrupole moment (field-independent basis, Debye-Ang):
   XX=            -70.3295   YY=            -61.5153   ZZ=            -68.7767
   XY=             -3.7614   XZ=             -1.2743   YZ=             -2.6671

 Normal termination of Gaussian 16 at Tue Nov 28 19:17:41 2023.
