 Gaussian 16, Revision B.01,
 Gaussian 16:  ES64L-G16RevB.01 20-Dec-2017

 -------------------------
 #P B3LYP/6-311+g(d) force
 -------------------------

 -----
 DPGEN
 -----
 Symbolic Z-matrix:
 Charge =  0 Multiplicity = 2

                         Standard orientation:
 ---------------------------------------------------------------------
 Center     Atomic      Atomic             Coordinates (Angstroms)
 Number     Number       Type             X           Y           Z
 ---------------------------------------------------------------------
      1         11           0       -3.888821   -0.780983    0.832233
      2         11           0        3.838953    0.070382    1.030170
      3         11           0        1.547705    1.885536   -0.938672
      4         11           0        1.796760   -1.760116   -0.707076
      5         11           0       -2.103472    2.085801   -0.222489
      6         11           0       -1.055013   -1.218984   -1.673370
      7         11           0       -0.136112   -0.281636    1.679205
 ---------------------------------------------------------------------

 SCF Done:  E(UB3LYP) =  -1136.12190462     A.U. after   26 cycles

 The electronic state is 2-A.
 Alpha  occ. eigenvalues --  -38.45697 -38.45101 -38.44707 -38.43406 -38.43324
 Alpha  occ. eigenvalues --  -38.43081 -38.42777  -2.21519  -2.20895  -2.20539
 Alpha  occ. eigenvalues --   -2.19235  -2.19148  -2.18978  -2.18712  -1.15229
 Alpha  occ. eigenvalues --   -1.15171  -1.15136  -1.14562  -1.14536  -1.14513
 Alpha  occ. eigenvalues --   -1.14210  -1.14183  -1.14162  -1.12916  -1.12903
 Alpha  occ. eigenvalues --   -1.12866  -1.12833  -1.12823  -1.12773  -1.12714
 Alpha  occ. eigenvalues --   -1.12613  -1.12604  -1.12384  -1.12372  -1.12331
 Alpha  occ. eigenvalues --   -0.18303  -0.14251  -0.11139  -0.10907
 Alpha virt. eigenvalues --   -0.07134  -0.05259  -0.04626  -0.03093  -0.03029
 Alpha virt. eigenvalues --   -0.02454  -0.02154  -0.01307  -0.00860  -0.00299
 Alpha virt. eigenvalues --   -0.00026   0.00236   0.00337   0.00546   0.00742

  Beta  occ. eigenvalues --  -38.45682 -38.45055 -38.44669 -38.43382 -38.43317
  Beta  occ. eigenvalues --  -38.43032 -38.42763  -2.21491  -2.20808  -2.20466
  Beta  occ. eigenvalues --   -2.19194  -2.19138  -2.18892  -2.18693  -1.15197
  Beta  occ. eigenvalues --   -1.15159  -1.15112  -1.14499  -1.14477  -1.14457
  Beta  occ. eigenvalues --   -1.14161  -1.14130  -1.14116  -1.12889  -1.12868
  Beta  occ. eigenvalues --   -1.12830  -1.12823  -1.12814  -1.12745  -1.12653
  Beta  occ. eigenvalues --   -1.12554  -1.12532  -1.12376  -1.12343  -1.12298
  Beta  occ. eigenvalues --   -0.17684  -0.13849  -0.10590
  Beta virt. eigenvalues --   -0.07593  -0.06843  -0.05043  -0.04176  -0.02882
  Beta virt. eigenvalues --   -0.02698  -0.01942  -0.01480  -0.01023  -0.00721
  Beta virt. eigenvalues --   -0.00201   0.00059   0.00291   0.00404   0.00666

 Mulliken charges and spin densities:
               1          2
     1  Na   0.544018   0.238662
     2  Na   0.871723   0.182094
     3  Na  -0.501825   0.089099
     4  Na   0.008096   0.136673
     5  Na  -0.044608   0.056040
     6  Na  -0.252255   0.221526
     7  Na  -0.625151   0.075907
 Sum of Mulliken charges =  -0.00000   1.00000

 Dipole moment (field-independent basis, Debye):
    X=             -0.3501    Y=             -0.2574    Z=              0.7045  Tot=              0.8277
 Quadrupole moment (field-independent basis, Debye-Ang):
   XX=            -48.2246   YY=            -79.8652   ZZ=            -67.1805
   XY=              1.0801   XZ=              1.0267   YZ=             -2.9313

 Normal termination of Gaussian 16 at Tue Dec  5 17:43:27 2023.
