 Gaussian 16, Revision B.01,
 Gaussian 16:  ES64L-G16RevB.01 20-Dec-2017

 -------------------------
 #P B3LYP/6-311+g(d) force
 -------------------------

 -----
 DPGEN
 -----
 Symbolic Z-matrix:
 Charge =  0 Multiplicity = 2

                         Standard orientation:
 ---------------------------------------------------------------------
 Center     Atomic      Atomic             Coordinates (Angstroms)
 Number     Number       Type             X           Y           Z
 ---------------------------------------------------------------------
      1         11           0        3.171235    0.778117   -0.621278
      2         11           0       -3.531066   -0.730097    0.243631
      3         11           0        1.103605    0.165502    2.418121
      4         11           0        1.937935   -2.080374   -1.656795
      5         11           0        0.391581    3.073189    0.409996
      6         11           0       -0.608981   -2.895890    0.677076
      7         11           0       -2.464308    1.689552   -1.470751
 ---------------------------------------------------------------------

 SCF Done:  E(UB3LYP) =  -1136.11957846     A.U. after   20 cycles

 The electronic state is 2-A.
 Alpha  occ. eigenvalues --  -38.44843 -38.44581 -38.44374 -38.44165 -38.44149
 Alpha  occ. eigenvalues --  -38.44008 -38.43832  -2.20642  -2.20388  -2.20160
 Alpha  occ. eigenvalues --   -2.19974  -2.19924  -2.19809  -2.19612  -1.14305
 Alpha  occ. eigenvalues --   -1.14280  -1.14251  -1.14073  -1.14058  -1.14011
 Alpha  occ. eigenvalues --   -1.13860  -1.13826  -1.13803  -1.13634  -1.13625
 Alpha  occ. eigenvalues --   -1.13608  -1.13602  -1.13596  -1.13555  -1.13465
 Alpha  occ. eigenvalues --   -1.13460  -1.13439  -1.13282  -1.13277  -1.13252
 Alpha  occ. eigenvalues --   -0.16767  -0.13278  -0.12411  -0.11234
 Alpha virt. eigenvalues --   -0.06445  -0.05725  -0.04273  -0.03710  -0.03588
 Alpha virt. eigenvalues --   -0.02725  -0.01471  -0.00934  -0.00853  -0.00597
 Alpha virt. eigenvalues --   -0.00289  -0.00096   0.00327   0.00443   0.00654

  Beta  occ. eigenvalues --  -38.44756 -38.44555 -38.44378 -38.44147 -38.44117
  Beta  occ. eigenvalues --  -38.43982 -38.43818  -2.20481  -2.20343  -2.20169
  Beta  occ. eigenvalues --   -2.19923  -2.19887  -2.19760  -2.19588  -1.14196
  Beta  occ. eigenvalues --   -1.14175  -1.14132  -1.14036  -1.14031  -1.13961
  Beta  occ. eigenvalues --   -1.13859  -1.13833  -1.13803  -1.13599  -1.13596
  Beta  occ. eigenvalues --   -1.13575  -1.13565  -1.13548  -1.13537  -1.13432
  Beta  occ. eigenvalues --   -1.13429  -1.13407  -1.13263  -1.13251  -1.13240
  Beta  occ. eigenvalues --   -0.16141  -0.12855  -0.12220
  Beta virt. eigenvalues --   -0.07637  -0.06421  -0.05292  -0.03724  -0.03506
  Beta virt. eigenvalues --   -0.03041  -0.02117  -0.01405  -0.00890  -0.00750
  Beta virt. eigenvalues --   -0.00439   0.00002   0.00097   0.00445   0.00606

 Mulliken charges and spin densities:
               1          2
     1  Na  -0.052529   0.258726
     2  Na   0.191394  -0.102687
     3  Na   0.147204   0.366369
     4  Na   0.187621   0.041247
     5  Na  -0.018724  -0.007252
     6  Na  -0.317423   0.270403
     7  Na  -0.137542   0.173193
 Sum of Mulliken charges =  -0.00000   1.00000

 Dipole moment (field-independent basis, Debye):
    X=              0.2313    Y=              0.2500    Z=              0.1055  Tot=              0.3566
 Quadrupole moment (field-independent basis, Debye-Ang):
   XX=            -65.3102   YY=            -67.0803   ZZ=            -68.2162
   XY=              3.2214   XZ=             -0.9828   YZ=             -0.9168

 Normal termination of Gaussian 16 at Sun Dec  3 17:20:47 2023.
