 Gaussian 16, Revision B.01,
 Gaussian 16:  ES64L-G16RevB.01 20-Dec-2017

 -------------------------
 #P B3LYP/6-311+g(d) force
 -------------------------

 -----
 DPGEN
 -----
 Symbolic Z-matrix:
 Charge =  0 Multiplicity = 2

                         Standard orientation:
 ---------------------------------------------------------------------
 Center     Atomic      Atomic             Coordinates (Angstroms)
 Number     Number       Type             X           Y           Z
 ---------------------------------------------------------------------
      1         11           0       -1.917208    2.358484   -0.007767
      2         11           0        0.481663    0.458184    1.823458
      3         11           0        1.226837    1.545530   -1.436715
      4         11           0        1.077904   -2.416843   -0.508147
      5         11           0        3.864598    0.047894    0.511603
      6         11           0       -1.783332   -0.904845   -1.446557
      7         11           0       -2.950463   -1.088405    1.064125
 ---------------------------------------------------------------------

 SCF Done:  E(UB3LYP) =  -1136.12580171     A.U. after   21 cycles

 The electronic state is 2-A.
 Alpha  occ. eigenvalues --  -38.45025 -38.44561 -38.44202 -38.43610 -38.43568
 Alpha  occ. eigenvalues --  -38.43521 -38.43068  -2.20805  -2.20435  -2.20058
 Alpha  occ. eigenvalues --   -2.19469  -2.19417  -2.19411  -2.18903  -1.14480
 Alpha  occ. eigenvalues --   -1.14460  -1.14433  -1.14248  -1.14062  -1.14024
 Alpha  occ. eigenvalues --   -1.13749  -1.13706  -1.13671  -1.13163  -1.13143
 Alpha  occ. eigenvalues --   -1.13101  -1.13089  -1.13083  -1.13069  -1.13053
 Alpha  occ. eigenvalues --   -1.13032  -1.13010  -1.12578  -1.12569  -1.12543
 Alpha  occ. eigenvalues --   -0.18283  -0.13681  -0.11450  -0.11002
 Alpha virt. eigenvalues --   -0.06648  -0.05055  -0.04465  -0.03384  -0.02692
 Alpha virt. eigenvalues --   -0.02567  -0.02294  -0.00880  -0.00715  -0.00184
 Alpha virt. eigenvalues --    0.00133   0.00266   0.00314   0.00707   0.00796

  Beta  occ. eigenvalues --  -38.45018 -38.44539 -38.44148 -38.43595 -38.43524
  Beta  occ. eigenvalues --  -38.43489 -38.43066  -2.20793  -2.20394  -2.19958
  Beta  occ. eigenvalues --   -2.19413  -2.19387  -2.19337  -2.18904  -1.14463
  Beta  occ. eigenvalues --   -1.14452  -1.14427  -1.14221  -1.14027  -1.13993
  Beta  occ. eigenvalues --   -1.13679  -1.13636  -1.13594  -1.13118  -1.13104
  Beta  occ. eigenvalues --   -1.13064  -1.13051  -1.13047  -1.13022  -1.13000
  Beta  occ. eigenvalues --   -1.12988  -1.12976  -1.12573  -1.12570  -1.12529
  Beta  occ. eigenvalues --   -0.17563  -0.13503  -0.11214
  Beta virt. eigenvalues --   -0.07209  -0.06471  -0.05014  -0.03831  -0.03224
  Beta virt. eigenvalues --   -0.02212  -0.02023  -0.01643  -0.00845  -0.00393
  Beta virt. eigenvalues --   -0.00119   0.00145   0.00297   0.00453   0.00778

 Mulliken charges and spin densities:
               1          2
     1  Na   0.080361   0.030059
     2  Na  -0.301165   0.424100
     3  Na  -0.308578   0.226471
     4  Na  -0.283503  -0.015537
     5  Na   0.399764   0.035631
     6  Na   0.199321   0.207160
     7  Na   0.213799   0.092115
 Sum of Mulliken charges =  -0.00000   1.00000

 Dipole moment (field-independent basis, Debye):
    X=              0.9169    Y=              0.0923    Z=              0.4029  Tot=              1.0057
 Quadrupole moment (field-independent basis, Debye-Ang):
   XX=            -49.7018   YY=            -74.2581   ZZ=            -69.7650
   XY=             -0.6583   XZ=             -1.2661   YZ=             -1.5826

 Normal termination of Gaussian 16 at Tue Dec  5 22:46:32 2023.
