 Gaussian 16, Revision B.01,
 Gaussian 16:  ES64L-G16RevB.01 20-Dec-2017

 -------------------------
 #P B3LYP/6-311+g(d) force
 -------------------------

 -----
 DPGEN
 -----
 Symbolic Z-matrix:
 Charge =  0 Multiplicity = 2

                         Standard orientation:
 ---------------------------------------------------------------------
 Center     Atomic      Atomic             Coordinates (Angstroms)
 Number     Number       Type             X           Y           Z
 ---------------------------------------------------------------------
      1         11           0        0.066391    3.133452   -0.144798
      2         11           0        0.144791    0.136711    2.044063
      3         11           0       -0.779129   -0.016100   -1.681895
      4         11           0        3.107756    0.701105   -0.170673
      5         11           0       -2.873511    0.904572    0.086549
      6         11           0       -1.540417   -2.720074    0.166328
      7         11           0        1.874118   -2.139666   -0.299574
 ---------------------------------------------------------------------

 SCF Done:  E(UB3LYP) =  -1136.13455068     A.U. after   19 cycles

 The electronic state is 2-A.
 Alpha  occ. eigenvalues --  -38.44175 -38.43967 -38.43799 -38.43711 -38.43556
 Alpha  occ. eigenvalues --  -38.43443 -38.43428  -2.20049  -2.19764  -2.19625
 Alpha  occ. eigenvalues --   -2.19541  -2.19432  -2.19392  -2.19314  -1.13838
 Alpha  occ. eigenvalues --   -1.13696  -1.13645  -1.13444  -1.13427  -1.13399
 Alpha  occ. eigenvalues --   -1.13342  -1.13284  -1.13258  -1.13226  -1.13204
 Alpha  occ. eigenvalues --   -1.13186  -1.13100  -1.13062  -1.13060  -1.13049
 Alpha  occ. eigenvalues --   -1.13035  -1.12986  -1.12975  -1.12968  -1.12943
 Alpha  occ. eigenvalues --   -0.18482  -0.13023  -0.12534  -0.10645
 Alpha virt. eigenvalues --   -0.05748  -0.05113  -0.04932  -0.03228  -0.02961
 Alpha virt. eigenvalues --   -0.02492  -0.01378  -0.01284  -0.00522  -0.00358
 Alpha virt. eigenvalues --   -0.00017   0.00363   0.00801   0.00882   0.00892

  Beta  occ. eigenvalues --  -38.44168 -38.43964 -38.43797 -38.43707 -38.43462
  Beta  occ. eigenvalues --  -38.43436 -38.43368  -2.20040  -2.19762  -2.19622
  Beta  occ. eigenvalues --   -2.19537  -2.19304  -2.19283  -2.19256  -1.13821
  Beta  occ. eigenvalues --   -1.13667  -1.13643  -1.13432  -1.13418  -1.13400
  Beta  occ. eigenvalues --   -1.13342  -1.13267  -1.13258  -1.13219  -1.13188
  Beta  occ. eigenvalues --   -1.13178  -1.12997  -1.12988  -1.12971  -1.12955
  Beta  occ. eigenvalues --   -1.12944  -1.12937  -1.12927  -1.12922  -1.12903
  Beta  occ. eigenvalues --   -0.17763  -0.12786  -0.12337
  Beta virt. eigenvalues --   -0.06760  -0.05732  -0.05053  -0.04863  -0.02440
  Beta virt. eigenvalues --   -0.02212  -0.01463  -0.01305  -0.01215  -0.00570
  Beta virt. eigenvalues --   -0.00396   0.00133   0.00398   0.00806   0.00893

 Mulliken charges and spin densities:
               1          2
     1  Na  -0.015150  -0.119192
     2  Na  -0.409406   0.783899
     3  Na  -0.103996   0.539927
     4  Na  -0.052666  -0.060728
     5  Na   0.377709  -0.084385
     6  Na   0.173929  -0.032177
     7  Na   0.029580  -0.027344
 Sum of Mulliken charges =  -0.00000   1.00000

 Dipole moment (field-independent basis, Debye):
    X=             -0.2646    Y=              0.2435    Z=              0.1289  Tot=              0.3820
 Quadrupole moment (field-independent basis, Debye-Ang):
   XX=            -59.7760   YY=            -59.7742   ZZ=            -74.6656
   XY=              1.2668   XZ=             -1.8569   YZ=             -0.4756

 Normal termination of Gaussian 16 at Fri Dec  8 01:25:36 2023.
