 Gaussian 16, Revision B.01,
 Gaussian 16:  ES64L-G16RevB.01 20-Dec-2017

 -------------------------
 #P B3LYP/6-311+g(d) force
 -------------------------

 -----
 DPGEN
 -----
 Symbolic Z-matrix:
 Charge =  0 Multiplicity = 2

                         Standard orientation:
 ---------------------------------------------------------------------
 Center     Atomic      Atomic             Coordinates (Angstroms)
 Number     Number       Type             X           Y           Z
 ---------------------------------------------------------------------
      1         11           0        0.912800    2.315305    0.313110
      2         11           0        6.214064   -0.074049   -0.450650
      3         11           0       -4.392735   -0.373833   -1.812892
      4         11           0       -0.206768   -0.629102    1.855227
      5         11           0       -2.865754    1.874907    0.132735
      6         11           0        3.338662   -1.166284   -0.756848
      7         11           0       -3.000269   -1.946945    0.719318
 ---------------------------------------------------------------------

 SCF Done:  E(UB3LYP) =  -1136.11582482     A.U. after   19 cycles

 The electronic state is 2-A.
 Alpha  occ. eigenvalues --  -38.44951 -38.44319 -38.44174 -38.43981 -38.43979
 Alpha  occ. eigenvalues --  -38.43850 -38.43819  -2.20767  -2.20178  -2.19954
 Alpha  occ. eigenvalues --   -2.19818  -2.19771  -2.19679  -2.19604  -1.14461
 Alpha  occ. eigenvalues --   -1.14422  -1.14365  -1.13857  -1.13846  -1.13795
 Alpha  occ. eigenvalues --   -1.13629  -1.13604  -1.13585  -1.13493  -1.13483
 Alpha  occ. eigenvalues --   -1.13478  -1.13442  -1.13422  -1.13413  -1.13342
 Alpha  occ. eigenvalues --   -1.13336  -1.13314  -1.13259  -1.13258  -1.13220
 Alpha  occ. eigenvalues --   -0.16815  -0.13613  -0.11687  -0.11649
 Alpha virt. eigenvalues --   -0.06395  -0.05444  -0.04398  -0.03635  -0.03222
 Alpha virt. eigenvalues --   -0.02650  -0.02199  -0.01172  -0.00939  -0.00817
 Alpha virt. eigenvalues --   -0.00339  -0.00194   0.00287   0.00329   0.00592

  Beta  occ. eigenvalues --  -38.44895 -38.44258 -38.44151 -38.43977 -38.43931
  Beta  occ. eigenvalues --  -38.43836 -38.43823  -2.20664  -2.20069  -2.19910
  Beta  occ. eigenvalues --   -2.19768  -2.19729  -2.19654  -2.19612  -1.14387
  Beta  occ. eigenvalues --   -1.14354  -1.14283  -1.13777  -1.13775  -1.13704
  Beta  occ. eigenvalues --   -1.13599  -1.13576  -1.13549  -1.13477  -1.13438
  Beta  occ. eigenvalues --   -1.13432  -1.13425  -1.13413  -1.13339  -1.13321
  Beta  occ. eigenvalues --   -1.13308  -1.13301  -1.13265  -1.13263  -1.13224
  Beta  occ. eigenvalues --   -0.16006  -0.13568  -0.11525
  Beta virt. eigenvalues --   -0.07650  -0.06210  -0.05015  -0.04091  -0.03438
  Beta virt. eigenvalues --   -0.02647  -0.02161  -0.02059  -0.01008  -0.00787
  Beta virt. eigenvalues --   -0.00663  -0.00105  -0.00006   0.00395   0.00498

 Mulliken charges and spin densities:
               1          2
     1  Na   0.100172   0.182242
     2  Na   0.420136   0.027726
     3  Na   0.167587   0.010861
     4  Na  -0.024797   0.267101
     5  Na  -0.148481   0.397902
     6  Na  -0.477203  -0.069372
     7  Na  -0.037415   0.183540
 Sum of Mulliken charges =  -0.00000   1.00000

 Dipole moment (field-independent basis, Debye):
    X=             -0.6835    Y=              0.5238    Z=             -0.1493  Tot=              0.8739
 Quadrupole moment (field-independent basis, Debye-Ang):
   XX=            -64.5779   YY=            -66.8149   ZZ=            -69.4857
   XY=              5.1397   XZ=              3.1789   YZ=              0.4723

 Normal termination of Gaussian 16 at Mon Dec  4 04:18:36 2023.
