 Gaussian 16, Revision B.01,
 Gaussian 16:  ES64L-G16RevB.01 20-Dec-2017

 -------------------------
 #P B3LYP/6-311+g(d) force
 -------------------------

 -----
 DPGEN
 -----
 Symbolic Z-matrix:
 Charge =  0 Multiplicity = 2

                         Standard orientation:
 ---------------------------------------------------------------------
 Center     Atomic      Atomic             Coordinates (Angstroms)
 Number     Number       Type             X           Y           Z
 ---------------------------------------------------------------------
      1         11           0        3.249188   -0.571070   -1.227432
      2         11           0        0.026222   -0.291218   -1.189215
      3         11           0        1.930260    2.162084    0.195715
      4         11           0       -0.942347    1.306684    1.586847
      5         11           0       -3.244244    1.107848   -0.899101
      6         11           0       -2.275774   -2.033428   -0.083021
      7         11           0        1.256695   -1.680900    1.616206
 ---------------------------------------------------------------------

 SCF Done:  E(UB3LYP) =  -1136.12824906     A.U. after   22 cycles

 The electronic state is 2-A.
 Alpha  occ. eigenvalues --  -38.44418 -38.44253 -38.43726 -38.43663 -38.43398
 Alpha  occ. eigenvalues --  -38.43268 -38.43045  -2.20258  -2.20116  -2.19575
 Alpha  occ. eigenvalues --   -2.19518  -2.19429  -2.19131  -2.18959  -1.13929
 Alpha  occ. eigenvalues --   -1.13904  -1.13891  -1.13799  -1.13756  -1.13738
 Alpha  occ. eigenvalues --   -1.13292  -1.13261  -1.13215  -1.13195  -1.13176
 Alpha  occ. eigenvalues --   -1.13135  -1.13132  -1.13048  -1.13044  -1.12820
 Alpha  occ. eigenvalues --   -1.12800  -1.12767  -1.12644  -1.12591  -1.12575
 Alpha  occ. eigenvalues --   -0.18660  -0.14023  -0.11241  -0.11218
 Alpha virt. eigenvalues --   -0.06047  -0.05266  -0.04474  -0.03134  -0.02735
 Alpha virt. eigenvalues --   -0.02395  -0.02120  -0.00975  -0.00707  -0.00070
 Alpha virt. eigenvalues --    0.00240   0.00381   0.00463   0.00694   0.00780

  Beta  occ. eigenvalues --  -38.44394 -38.44212 -38.43668 -38.43662 -38.43377
  Beta  occ. eigenvalues --  -38.43262 -38.42998  -2.20214  -2.20040  -2.19520
  Beta  occ. eigenvalues --   -2.19471  -2.19392  -2.19124  -2.18875  -1.13896
  Beta  occ. eigenvalues --   -1.13878  -1.13858  -1.13740  -1.13709  -1.13683
  Beta  occ. eigenvalues --   -1.13283  -1.13197  -1.13172  -1.13130  -1.13127
  Beta  occ. eigenvalues --   -1.13115  -1.13088  -1.13027  -1.13019  -1.12814
  Beta  occ. eigenvalues --   -1.12778  -1.12755  -1.12592  -1.12523  -1.12509
  Beta  occ. eigenvalues --   -0.17967  -0.13627  -0.11025
  Beta virt. eigenvalues --   -0.07436  -0.05844  -0.05225  -0.03854  -0.02989
  Beta virt. eigenvalues --   -0.02128  -0.01947  -0.01488  -0.00929  -0.00367
  Beta virt. eigenvalues --    0.00015   0.00294   0.00367   0.00551   0.00787

 Mulliken charges and spin densities:
               1          2
     1  Na   0.854177   0.146877
     2  Na  -0.900052   0.031393
     3  Na  -0.263103   0.057445
     4  Na   0.185377   0.276540
     5  Na   0.245166   0.067024
     6  Na   0.221180   0.132389
     7  Na  -0.342745   0.288331
 Sum of Mulliken charges =  -0.00000   1.00000

 Dipole moment (field-independent basis, Debye):
    X=             -0.1314    Y=             -0.1349    Z=             -0.0449  Tot=              0.1936
 Quadrupole moment (field-independent basis, Debye-Ang):
   XX=            -51.0287   YY=            -73.1628   ZZ=            -68.4493
   XY=             -1.0808   XZ=              0.6545   YZ=             -2.4027

 Normal termination of Gaussian 16 at Tue Dec  5 19:10:27 2023.
