 Gaussian 16, Revision B.01,
 Gaussian 16:  ES64L-G16RevB.01 20-Dec-2017

 -------------------------
 #P B3LYP/6-311+g(d) force
 -------------------------

 -----
 DPGEN
 -----
 Symbolic Z-matrix:
 Charge =  0 Multiplicity = 2

                         Standard orientation:
 ---------------------------------------------------------------------
 Center     Atomic      Atomic             Coordinates (Angstroms)
 Number     Number       Type             X           Y           Z
 ---------------------------------------------------------------------
      1         11           0        1.232237    2.817063   -0.255393
      2         11           0       -2.790007   -1.445781   -0.038179
      3         11           0        0.994281   -2.690295   -0.099302
      4         11           0       -0.208396   -0.213583   -1.793168
      5         11           0        0.059438   -0.058558    2.098253
      6         11           0        3.359580   -0.109736    0.006810
      7         11           0       -2.647133    1.700889    0.080979
 ---------------------------------------------------------------------

 SCF Done:  E(UB3LYP) =  -1136.13503813     A.U. after   19 cycles

 The electronic state is 2-A.
 Alpha  occ. eigenvalues --  -38.44661 -38.44049 -38.44011 -38.43875 -38.43526
 Alpha  occ. eigenvalues --  -38.43293 -38.43088  -2.20449  -2.19904  -2.19843
 Alpha  occ. eigenvalues --   -2.19730  -2.19450  -2.19083  -2.18944  -1.14126
 Alpha  occ. eigenvalues --   -1.14101  -1.14094  -1.13641  -1.13574  -1.13548
 Alpha  occ. eigenvalues --   -1.13505  -1.13488  -1.13454  -1.13396  -1.13358
 Alpha  occ. eigenvalues --   -1.13347  -1.13136  -1.13090  -1.13070  -1.12761
 Alpha  occ. eigenvalues --   -1.12747  -1.12723  -1.12632  -1.12608  -1.12569
 Alpha  occ. eigenvalues --   -0.18318  -0.13282  -0.11953  -0.10769
 Alpha virt. eigenvalues --   -0.06124  -0.05280  -0.04434  -0.03401  -0.02776
 Alpha virt. eigenvalues --   -0.02649  -0.01835  -0.01089  -0.00510  -0.00406
 Alpha virt. eigenvalues --   -0.00052   0.00357   0.00717   0.00799   0.00862

  Beta  occ. eigenvalues --  -38.44662 -38.44045 -38.44008 -38.43781 -38.43455
  Beta  occ. eigenvalues --  -38.43290 -38.43082  -2.20453  -2.19900  -2.19840
  Beta  occ. eigenvalues --   -2.19556  -2.19320  -2.19080  -2.18937  -1.14112
  Beta  occ. eigenvalues --   -1.14105  -1.14099  -1.13642  -1.13555  -1.13535
  Beta  occ. eigenvalues --   -1.13488  -1.13479  -1.13456  -1.13281  -1.13235
  Beta  occ. eigenvalues --   -1.13222  -1.13050  -1.12995  -1.12976  -1.12750
  Beta  occ. eigenvalues --   -1.12739  -1.12724  -1.12625  -1.12578  -1.12567
  Beta  occ. eigenvalues --   -0.17574  -0.13099  -0.11726
  Beta virt. eigenvalues --   -0.06863  -0.06043  -0.05302  -0.04372  -0.02617
  Beta virt. eigenvalues --   -0.01987  -0.01732  -0.01639  -0.01031  -0.00556
  Beta virt. eigenvalues --   -0.00463   0.00103   0.00380   0.00789   0.00851

 Mulliken charges and spin densities:
               1          2
     1  Na  -0.096371  -0.110656
     2  Na   0.344008  -0.042109
     3  Na   0.174772  -0.114500
     4  Na  -0.077258   0.635611
     5  Na  -0.395744   0.754888
     6  Na   0.045697  -0.071365
     7  Na   0.004896  -0.051869
 Sum of Mulliken charges =  -0.00000   1.00000

 Dipole moment (field-independent basis, Debye):
    X=              0.0487    Y=             -0.0794    Z=              0.1230  Tot=              0.1543
 Quadrupole moment (field-independent basis, Debye-Ang):
   XX=            -53.6429   YY=            -66.0233   ZZ=            -74.3055
   XY=             -0.3699   XZ=             -0.3495   YZ=             -0.3023

 Normal termination of Gaussian 16 at Tue Dec  5 17:11:32 2023.
