 Gaussian 16, Revision B.01,
 Gaussian 16:  ES64L-G16RevB.01 20-Dec-2017

 -------------------------
 #P B3LYP/6-311+g(d) force
 -------------------------

 -----
 DPGEN
 -----
 Symbolic Z-matrix:
 Charge =  0 Multiplicity = 2

                         Standard orientation:
 ---------------------------------------------------------------------
 Center     Atomic      Atomic             Coordinates (Angstroms)
 Number     Number       Type             X           Y           Z
 ---------------------------------------------------------------------
      1         11           0        0.834931    2.853720    0.760652
      2         11           0        0.548325   -1.578866    1.944187
      3         11           0        1.794567   -2.270107   -0.990420
      4         11           0       -0.713253   -0.460055   -1.613330
      5         11           0       -2.899732   -1.598648    0.571777
      6         11           0       -2.514830    2.088998   -0.470002
      7         11           0        2.949992    0.964958   -0.202865
 ---------------------------------------------------------------------

 SCF Done:  E(UB3LYP) =  -1136.12674914     A.U. after   20 cycles

 The electronic state is 2-A.
 Alpha  occ. eigenvalues --  -38.44619 -38.44204 -38.44143 -38.44139 -38.43657
 Alpha  occ. eigenvalues --  -38.43529 -38.43418  -2.20417  -2.20002  -2.19979
 Alpha  occ. eigenvalues --   -2.19975  -2.19545  -2.19456  -2.19245  -1.14099
 Alpha  occ. eigenvalues --   -1.14079  -1.14041  -1.13707  -1.13695  -1.13663
 Alpha  occ. eigenvalues --   -1.13644  -1.13636  -1.13633  -1.13623  -1.13607
 Alpha  occ. eigenvalues --   -1.13590  -1.13274  -1.13188  -1.13169  -1.13115
 Alpha  occ. eigenvalues --   -1.13102  -1.13063  -1.12928  -1.12896  -1.12871
 Alpha  occ. eigenvalues --   -0.17894  -0.13152  -0.12599  -0.10829
 Alpha virt. eigenvalues --   -0.06194  -0.05315  -0.04618  -0.03495  -0.03197
 Alpha virt. eigenvalues --   -0.02461  -0.01521  -0.01309  -0.00492  -0.00299
 Alpha virt. eigenvalues --   -0.00088   0.00356   0.00404   0.00705   0.00765

  Beta  occ. eigenvalues --  -38.44602 -38.44197 -38.44136 -38.44076 -38.43626
  Beta  occ. eigenvalues --  -38.43475 -38.43409  -2.20389  -2.19991  -2.19974
  Beta  occ. eigenvalues --   -2.19852  -2.19491  -2.19358  -2.19230  -1.14080
  Beta  occ. eigenvalues --   -1.14056  -1.14011  -1.13701  -1.13679  -1.13655
  Beta  occ. eigenvalues --   -1.13621  -1.13620  -1.13605  -1.13559  -1.13549
  Beta  occ. eigenvalues --   -1.13498  -1.13221  -1.13139  -1.13131  -1.13045
  Beta  occ. eigenvalues --   -1.13039  -1.12988  -1.12920  -1.12883  -1.12857
  Beta  occ. eigenvalues --   -0.17269  -0.12954  -0.12317
  Beta virt. eigenvalues --   -0.07069  -0.06102  -0.05184  -0.04323  -0.02946
  Beta virt. eigenvalues --   -0.02575  -0.01605  -0.01416  -0.01199  -0.00504
  Beta virt. eigenvalues --   -0.00237   0.00119   0.00437   0.00568   0.00718

 Mulliken charges and spin densities:
               1          2
     1  Na  -0.276410  -0.029742
     2  Na  -0.120504   0.532654
     3  Na   0.384107   0.169048
     4  Na   0.377815   0.114291
     5  Na  -0.366017   0.079197
     6  Na   0.175315   0.062669
     7  Na  -0.174307   0.071883
 Sum of Mulliken charges =  -0.00000   1.00000

 Dipole moment (field-independent basis, Debye):
    X=             -0.5260    Y=             -0.3292    Z=              0.1925  Tot=              0.6497
 Quadrupole moment (field-independent basis, Debye-Ang):
   XX=            -57.6233   YY=            -66.3037   ZZ=            -72.5321
   XY=             -2.1124   XZ=             -1.8008   YZ=              0.4181

 Normal termination of Gaussian 16 at Mon Dec  4 03:23:12 2023.
