 Gaussian 16, Revision B.01,
 Gaussian 16:  ES64L-G16RevB.01 20-Dec-2017

 -------------------------
 #P B3LYP/6-311+g(d) force
 -------------------------

 -----
 DPGEN
 -----
 Symbolic Z-matrix:
 Charge =  0 Multiplicity = 2

                         Standard orientation:
 ---------------------------------------------------------------------
 Center     Atomic      Atomic             Coordinates (Angstroms)
 Number     Number       Type             X           Y           Z
 ---------------------------------------------------------------------
      1         11           0        1.544868   -0.513101    1.406247
      2         11           0        4.797220   -0.734984    0.018703
      3         11           0       -2.512845    0.579724   -1.385556
      4         11           0       -1.279074    1.052670    1.488194
      5         11           0        1.552309    2.117209   -0.677755
      6         11           0       -4.973056   -1.028975    0.350541
      7         11           0        0.870577   -1.472542   -1.200374
 ---------------------------------------------------------------------

 SCF Done:  E(UB3LYP) =  -1136.10239006     A.U. after   29 cycles

 The electronic state is 2-A.
 Alpha  occ. eigenvalues --  -38.45806 -38.45203 -38.44253 -38.44228 -38.43996
 Alpha  occ. eigenvalues --  -38.43654 -38.43564  -2.21663  -2.21012  -2.20210
 Alpha  occ. eigenvalues --   -2.20012  -2.19841  -2.19459  -2.19415  -1.15451
 Alpha  occ. eigenvalues --   -1.15290  -1.15219  -1.14693  -1.14672  -1.14634
 Alpha  occ. eigenvalues --   -1.13960  -1.13850  -1.13777  -1.13695  -1.13685
 Alpha  occ. eigenvalues --   -1.13628  -1.13569  -1.13521  -1.13430  -1.13160
 Alpha  occ. eigenvalues --   -1.13122  -1.13085  -1.13083  -1.13046  -1.13031
 Alpha  occ. eigenvalues --   -0.18251  -0.13741  -0.11041  -0.10604
 Alpha virt. eigenvalues --   -0.07959  -0.05629  -0.04265  -0.03225  -0.02972
 Alpha virt. eigenvalues --   -0.02338  -0.02101  -0.01979  -0.01275  -0.00673
 Alpha virt. eigenvalues --   -0.00166   0.00210   0.00252   0.00448   0.00560

  Beta  occ. eigenvalues --  -38.45747 -38.45191 -38.44257 -38.44183 -38.43978
  Beta  occ. eigenvalues --  -38.43656 -38.43518  -2.21556  -2.20992  -2.20131
  Beta  occ. eigenvalues --   -2.20020  -2.19809  -2.19417  -2.19378  -1.15371
  Beta  occ. eigenvalues --   -1.15213  -1.15136  -1.14676  -1.14636  -1.14625
  Beta  occ. eigenvalues --   -1.13897  -1.13797  -1.13712  -1.13701  -1.13681
  Beta  occ. eigenvalues --   -1.13630  -1.13547  -1.13496  -1.13395  -1.13098
  Beta  occ. eigenvalues --   -1.13087  -1.13083  -1.13060  -1.13048  -1.12974
  Beta  occ. eigenvalues --   -0.17528  -0.13633  -0.10705
  Beta virt. eigenvalues --   -0.07708  -0.06875  -0.05567  -0.03732  -0.03068
  Beta virt. eigenvalues --   -0.02720  -0.02016  -0.01736  -0.01270  -0.00906
  Beta virt. eigenvalues --   -0.00650  -0.00110   0.00254   0.00397   0.00509

 Mulliken charges and spin densities:
               1          2
     1  Na  -0.205494   0.248638
     2  Na   0.275725  -0.064852
     3  Na  -0.038277   0.122673
     4  Na   0.163191   0.232749
     5  Na  -0.159489   0.123135
     6  Na  -0.010281  -0.041285
     7  Na  -0.025375   0.378941
 Sum of Mulliken charges =  -0.00000   1.00000

 Dipole moment (field-independent basis, Debye):
    X=              1.2581    Y=              0.9258    Z=             -0.5928  Tot=              1.6707
 Quadrupole moment (field-independent basis, Debye-Ang):
   XX=            -64.1953   YY=            -66.2089   ZZ=            -72.6588
   XY=              6.7118   XZ=             -4.1823   YZ=             -3.4151

 Normal termination of Gaussian 16 at Fri Dec  8 05:18:51 2023.
