 Gaussian 16, Revision B.01,
 Gaussian 16:  ES64L-G16RevB.01 20-Dec-2017

 -------------------------
 #P B3LYP/6-311+g(d) force
 -------------------------

 -----
 DPGEN
 -----
 Symbolic Z-matrix:
 Charge =  0 Multiplicity = 2

                         Standard orientation:
 ---------------------------------------------------------------------
 Center     Atomic      Atomic             Coordinates (Angstroms)
 Number     Number       Type             X           Y           Z
 ---------------------------------------------------------------------
      1         11           0       -3.202820   -0.130880   -0.230518
      2         11           0       -0.933229   -2.683170    0.081071
      3         11           0        2.481791   -2.051768    0.065535
      4         11           0       -0.872006    0.589926    1.719581
      5         11           0        2.873711    1.245728    0.177424
      6         11           0       -0.050400    0.014285   -1.517342
      7         11           0       -0.297048    3.015879   -0.295751
 ---------------------------------------------------------------------

 SCF Done:  E(UB3LYP) =  -1136.13382212     A.U. after   20 cycles

 The electronic state is 2-A.
 Alpha  occ. eigenvalues --  -38.44414 -38.44225 -38.43678 -38.43654 -38.43632
 Alpha  occ. eigenvalues --  -38.43122 -38.42760  -2.20283  -2.20040  -2.19543
 Alpha  occ. eigenvalues --   -2.19501  -2.19479  -2.19079  -2.18771  -1.13978
 Alpha  occ. eigenvalues --   -1.13942  -1.13913  -1.13715  -1.13712  -1.13676
 Alpha  occ. eigenvalues --   -1.13241  -1.13219  -1.13206  -1.13171  -1.13160
 Alpha  occ. eigenvalues --   -1.13150  -1.13142  -1.13138  -1.13099  -1.12758
 Alpha  occ. eigenvalues --   -1.12714  -1.12692  -1.12461  -1.12406  -1.12386
 Alpha  occ. eigenvalues --   -0.18722  -0.13249  -0.12738  -0.10115
 Alpha virt. eigenvalues --   -0.06025  -0.05237  -0.04973  -0.03028  -0.02775
 Alpha virt. eigenvalues --   -0.01913  -0.01714  -0.01204  -0.00634  -0.00485
 Alpha virt. eigenvalues --    0.00046   0.00338   0.00794   0.00815   0.00873

  Beta  occ. eigenvalues --  -38.44406 -38.44222 -38.43667 -38.43653 -38.43625
  Beta  occ. eigenvalues --  -38.43050 -38.42689  -2.20272  -2.20037  -2.19527
  Beta  occ. eigenvalues --   -2.19493  -2.19479  -2.18946  -2.18643  -1.13967
  Beta  occ. eigenvalues --   -1.13913  -1.13900  -1.13715  -1.13693  -1.13678
  Beta  occ. eigenvalues --   -1.13234  -1.13202  -1.13174  -1.13156  -1.13154
  Beta  occ. eigenvalues --   -1.13141  -1.13133  -1.13126  -1.13099  -1.12667
  Beta  occ. eigenvalues --   -1.12620  -1.12596  -1.12370  -1.12311  -1.12291
  Beta  occ. eigenvalues --   -0.18039  -0.13014  -0.12500
  Beta virt. eigenvalues --   -0.06279  -0.05960  -0.05208  -0.04918  -0.02288
  Beta virt. eigenvalues --   -0.02035  -0.01648  -0.01148  -0.00947  -0.00665
  Beta virt. eigenvalues --   -0.00511   0.00214   0.00389   0.00802   0.00833

 Mulliken charges and spin densities:
               1          2
     1  Na   0.529348  -0.029471
     2  Na  -0.014503  -0.001221
     3  Na  -0.134297  -0.036367
     4  Na  -0.364851   0.666423
     5  Na  -0.030851  -0.015215
     6  Na  -0.189948   0.507069
     7  Na   0.205102  -0.091217
 Sum of Mulliken charges =  -0.00000   1.00000

 Dipole moment (field-independent basis, Debye):
    X=             -0.1486    Y=              0.1338    Z=             -0.0141  Tot=              0.2005
 Quadrupole moment (field-independent basis, Debye-Ang):
   XX=            -54.6135   YY=            -60.1201   ZZ=            -77.4709
   XY=              0.7995   XZ=              1.9035   YZ=             -1.0760

 Normal termination of Gaussian 16 at Wed Nov 29 04:14:04 2023.
