 Gaussian 16, Revision B.01,
 Gaussian 16:  ES64L-G16RevB.01 20-Dec-2017

 -------------------------
 #P B3LYP/6-311+g(d) force
 -------------------------

 -----
 DPGEN
 -----
 Symbolic Z-matrix:
 Charge =  0 Multiplicity = 2

                         Standard orientation:
 ---------------------------------------------------------------------
 Center     Atomic      Atomic             Coordinates (Angstroms)
 Number     Number       Type             X           Y           Z
 ---------------------------------------------------------------------
      1         11           0        0.209051   -0.111171   -1.616143
      2         11           0       -3.216515    0.502655   -0.564457
      3         11           0       -1.196107   -2.822930    0.404418
      4         11           0        2.519437   -1.794438   -0.420607
      5         11           0       -0.522501   -0.216350    1.710015
      6         11           0        2.564979    1.458371    0.387782
      7         11           0       -0.358344    2.983863    0.098993
 ---------------------------------------------------------------------

 SCF Done:  E(UB3LYP) =  -1136.13533911     A.U. after   19 cycles

 The electronic state is 2-A.
 Alpha  occ. eigenvalues --  -38.44206 -38.43813 -38.43655 -38.43546 -38.43469
 Alpha  occ. eigenvalues --  -38.43256 -38.43224  -2.20006  -2.19666  -2.19517
 Alpha  occ. eigenvalues --   -2.19419  -2.19312  -2.19219  -2.19202  -1.13680
 Alpha  occ. eigenvalues --   -1.13655  -1.13639  -1.13423  -1.13308  -1.13275
 Alpha  occ. eigenvalues --   -1.13247  -1.13185  -1.13138  -1.13109  -1.13083
 Alpha  occ. eigenvalues --   -1.13054  -1.12985  -1.12979  -1.12937  -1.12925
 Alpha  occ. eigenvalues --   -1.12860  -1.12840  -1.12826  -1.12824  -1.12811
 Alpha  occ. eigenvalues --   -0.18654  -0.13014  -0.12636  -0.10528
 Alpha virt. eigenvalues --   -0.05678  -0.05111  -0.04852  -0.03173  -0.02865
 Alpha virt. eigenvalues --   -0.02165  -0.01619  -0.01273  -0.00486  -0.00299
 Alpha virt. eigenvalues --    0.00027   0.00325   0.00793   0.00836   0.00898

  Beta  occ. eigenvalues --  -38.44186 -38.43796 -38.43644 -38.43538 -38.43466
  Beta  occ. eigenvalues --  -38.43186 -38.43162  -2.19970  -2.19639  -2.19499
  Beta  occ. eigenvalues --   -2.19407  -2.19309  -2.19091  -2.19089  -1.13642
  Beta  occ. eigenvalues --   -1.13634  -1.13614  -1.13389  -1.13276  -1.13262
  Beta  occ. eigenvalues --   -1.13224  -1.13169  -1.13121  -1.13104  -1.13066
  Beta  occ. eigenvalues --   -1.13034  -1.12976  -1.12971  -1.12923  -1.12848
  Beta  occ. eigenvalues --   -1.12777  -1.12751  -1.12742  -1.12740  -1.12725
  Beta  occ. eigenvalues --   -0.18006  -0.12720  -0.12329
  Beta virt. eigenvalues --   -0.06768  -0.05580  -0.05006  -0.04837  -0.02458
  Beta virt. eigenvalues --   -0.02166  -0.01468  -0.01220  -0.01170  -0.00483
  Beta virt. eigenvalues --   -0.00327   0.00145   0.00378   0.00823   0.00871

 Mulliken charges and spin densities:
               1          2
     1  Na  -0.220839   0.505591
     2  Na  -0.059385   0.035645
     3  Na   0.086360  -0.048879
     4  Na   0.281033   0.028183
     5  Na  -0.086860   0.472820
     6  Na   0.012000   0.042429
     7  Na  -0.012307  -0.035789
 Sum of Mulliken charges =  -0.00000   1.00000

 Dipole moment (field-independent basis, Debye):
    X=             -0.2686    Y=             -0.1048    Z=             -0.0146  Tot=              0.2887
 Quadrupole moment (field-independent basis, Debye-Ang):
   XX=            -56.9323   YY=            -60.5209   ZZ=            -75.2475
   XY=             -0.4649   XZ=              1.9038   YZ=              0.5435

 Normal termination of Gaussian 16 at Sun Dec  3 16:51:48 2023.
