 Gaussian 16, Revision B.01,
 Gaussian 16:  ES64L-G16RevB.01 20-Dec-2017

 -------------------------
 #P B3LYP/6-311+g(d) force
 -------------------------

 -----
 DPGEN
 -----
 Symbolic Z-matrix:
 Charge =  0 Multiplicity = 2

                         Standard orientation:
 ---------------------------------------------------------------------
 Center     Atomic      Atomic             Coordinates (Angstroms)
 Number     Number       Type             X           Y           Z
 ---------------------------------------------------------------------
      1         11           0        0.004263   -0.017310   -1.838585
      2         11           0       -2.605854    1.242984    0.006251
      3         11           0        0.063976   -0.020275    1.857349
      4         11           0        2.807157    0.448021   -0.180658
      5         11           0        0.402354    2.779821    0.093841
      6         11           0        1.323655   -2.404940    0.150039
      7         11           0       -1.995551   -2.028301   -0.088237
 ---------------------------------------------------------------------

 SCF Done:  E(UB3LYP) =  -1136.14034701     A.U. after   18 cycles

 The electronic state is 2-A.
 Alpha  occ. eigenvalues --  -38.43458 -38.43412 -38.43351 -38.43328 -38.43322
 Alpha  occ. eigenvalues --  -38.43246 -38.43224  -2.19349  -2.19344  -2.19328
 Alpha  occ. eigenvalues --   -2.19323  -2.19229  -2.19158  -2.19145  -1.13094
 Alpha  occ. eigenvalues --   -1.13064  -1.13040  -1.13023  -1.13018  -1.13002
 Alpha  occ. eigenvalues --   -1.12995  -1.12991  -1.12974  -1.12951  -1.12945
 Alpha  occ. eigenvalues --   -1.12924  -1.12885  -1.12877  -1.12861  -1.12818
 Alpha  occ. eigenvalues --   -1.12806  -1.12803  -1.12799  -1.12770  -1.12760
 Alpha  occ. eigenvalues --   -0.19489  -0.13047  -0.12842  -0.11135
 Alpha virt. eigenvalues --   -0.05053  -0.04916  -0.04737  -0.03203  -0.03097
 Alpha virt. eigenvalues --   -0.02686  -0.01148  -0.01012  -0.00035   0.00019
 Alpha virt. eigenvalues --    0.00074   0.00381   0.00925   0.00977   0.00982

  Beta  occ. eigenvalues --  -38.43454 -38.43404 -38.43322 -38.43266 -38.43240
  Beta  occ. eigenvalues --  -38.43239 -38.43216  -2.19340  -2.19318  -2.19222
  Beta  occ. eigenvalues --   -2.19193  -2.19171  -2.19147  -2.19139  -1.13055
  Beta  occ. eigenvalues --   -1.13045  -1.13008  -1.12992  -1.12985  -1.12970
  Beta  occ. eigenvalues --   -1.12958  -1.12914  -1.12904  -1.12876  -1.12872
  Beta  occ. eigenvalues --   -1.12863  -1.12847  -1.12835  -1.12810  -1.12799
  Beta  occ. eigenvalues --   -1.12777  -1.12772  -1.12767  -1.12759  -1.12749
  Beta  occ. eigenvalues --   -0.18720  -0.12771  -0.12562
  Beta virt. eigenvalues --   -0.07157  -0.05051  -0.04921  -0.04723  -0.02352
  Beta virt. eigenvalues --   -0.02250  -0.01600  -0.01075  -0.00947  -0.00045
  Beta virt. eigenvalues --   -0.00019   0.00118   0.00388   0.00953   0.00967

 Mulliken charges and spin densities:
               1          2
     1  Na  -0.525319   0.674777
     2  Na   0.107738  -0.098010
     3  Na  -0.529774   0.682017
     4  Na   0.262878  -0.047120
     5  Na   0.171947  -0.088048
     6  Na   0.328565  -0.041203
     7  Na   0.183965  -0.082412
 Sum of Mulliken charges =  -0.00000   1.00000

 Dipole moment (field-independent basis, Debye):
    X=             -0.0664    Y=              0.0561    Z=             -0.0013  Tot=              0.0870
 Quadrupole moment (field-independent basis, Debye-Ang):
   XX=            -59.9769   YY=            -62.0880   ZZ=            -72.3998
   XY=              0.1115   XZ=             -0.1681   YZ=              0.0152

 Normal termination of Gaussian 16 at Fri Dec  8 06:37:16 2023.
