 Gaussian 16, Revision B.01,
 Gaussian 16:  ES64L-G16RevB.01 20-Dec-2017

 -------------------------
 #P B3LYP/6-311+g(d) force
 -------------------------

 -----
 DPGEN
 -----
 Symbolic Z-matrix:
 Charge =  0 Multiplicity = 2

                         Standard orientation:
 ---------------------------------------------------------------------
 Center     Atomic      Atomic             Coordinates (Angstroms)
 Number     Number       Type             X           Y           Z
 ---------------------------------------------------------------------
      1         11           0       -0.221562    2.870195   -0.532076
      2         11           0       -1.821815   -2.274888   -0.158517
      3         11           0        2.402832   -2.099649   -0.343725
      4         11           0       -3.244403    0.657584    0.146195
      5         11           0        0.008455   -0.375153   -1.366054
      6         11           0        2.643540    1.405713    0.157633
      7         11           0        0.232953   -0.183802    2.096545
 ---------------------------------------------------------------------

 SCF Done:  E(UB3LYP) =  -1136.13209618     A.U. after   19 cycles

 The electronic state is 2-A.
 Alpha  occ. eigenvalues --  -38.44397 -38.43866 -38.43852 -38.43845 -38.43636
 Alpha  occ. eigenvalues --  -38.43074 -38.42994  -2.20205  -2.19758  -2.19713
 Alpha  occ. eigenvalues --   -2.19693  -2.19518  -2.19055  -2.18919  -1.13877
 Alpha  occ. eigenvalues --   -1.13870  -1.13850  -1.13540  -1.13410  -1.13398
 Alpha  occ. eigenvalues --   -1.13393  -1.13382  -1.13363  -1.13358  -1.13334
 Alpha  occ. eigenvalues --   -1.13312  -1.13189  -1.13139  -1.13128  -1.12730
 Alpha  occ. eigenvalues --   -1.12714  -1.12669  -1.12587  -1.12570  -1.12554
 Alpha  occ. eigenvalues --   -0.18717  -0.13322  -0.12288  -0.10620
 Alpha virt. eigenvalues --   -0.05853  -0.05400  -0.04447  -0.03260  -0.02651
 Alpha virt. eigenvalues --   -0.02430  -0.01747  -0.01202  -0.00401  -0.00289
 Alpha virt. eigenvalues --    0.00005   0.00331   0.00763   0.00831   0.00892

  Beta  occ. eigenvalues --  -38.44397 -38.43859 -38.43843 -38.43839 -38.43535
  Beta  occ. eigenvalues --  -38.43065 -38.42940  -2.20207  -2.19750  -2.19707
  Beta  occ. eigenvalues --   -2.19681  -2.19332  -2.18960  -2.18904  -1.13881
  Beta  occ. eigenvalues --   -1.13858  -1.13852  -1.13526  -1.13401  -1.13384
  Beta  occ. eigenvalues --   -1.13371  -1.13359  -1.13353  -1.13348  -1.13319
  Beta  occ. eigenvalues --   -1.13304  -1.13066  -1.13009  -1.12996  -1.12657
  Beta  occ. eigenvalues --   -1.12653  -1.12608  -1.12558  -1.12547  -1.12544
  Beta  occ. eigenvalues --   -0.18009  -0.13113  -0.12028
  Beta virt. eigenvalues --   -0.06697  -0.05801  -0.05374  -0.04394  -0.02473
  Beta virt. eigenvalues --   -0.01957  -0.01661  -0.01347  -0.01138  -0.00446
  Beta virt. eigenvalues --   -0.00292   0.00154   0.00367   0.00814   0.00837

 Mulliken charges and spin densities:
               1          2
     1  Na   0.048112   0.035741
     2  Na   0.376091   0.028863
     3  Na   0.253068   0.019903
     4  Na   0.008974   0.038708
     5  Na  -0.445781   0.108902
     6  Na   0.256067   0.098320
     7  Na  -0.496531   0.669563
 Sum of Mulliken charges =  -0.00000   1.00000

 Dipole moment (field-independent basis, Debye):
    X=             -0.1562    Y=             -0.1759    Z=              0.3109  Tot=              0.3899
 Quadrupole moment (field-independent basis, Debye-Ang):
   XX=            -53.3486   YY=            -63.8672   ZZ=            -75.4836
   XY=             -1.1203   XZ=             -0.5808   YZ=             -0.1048

 Normal termination of Gaussian 16 at Thu Dec  7 08:35:00 2023.
