 Gaussian 16, Revision B.01,
 Gaussian 16:  ES64L-G16RevB.01 20-Dec-2017

 -------------------------
 #P B3LYP/6-311+g(d) force
 -------------------------

 -----
 DPGEN
 -----
 Symbolic Z-matrix:
 Charge =  0 Multiplicity = 2

                         Standard orientation:
 ---------------------------------------------------------------------
 Center     Atomic      Atomic             Coordinates (Angstroms)
 Number     Number       Type             X           Y           Z
 ---------------------------------------------------------------------
      1         11           0        3.331514   -2.416672   -0.719593
      2         11           0       -6.313216    0.403183    0.188091
      3         11           0       -0.371207   -2.553746   -0.374809
      4         11           0       -4.057110   -1.872925    0.773380
      5         11           0        6.539214    3.037180    0.134845
      6         11           0        6.074463   -0.009123    0.504659
      7         11           0       -5.203659    3.412103   -0.506574
 ---------------------------------------------------------------------

 SCF Done:  E(UB3LYP) =  -1136.10210923     A.U. after   20 cycles

 The electronic state is 2-A.
 Alpha  occ. eigenvalues --  -38.45401 -38.44718 -38.44675 -38.44669 -38.44488
 Alpha  occ. eigenvalues --  -38.44458 -38.44062  -2.21194  -2.20520  -2.20472
 Alpha  occ. eigenvalues --   -2.20435  -2.20262  -2.20197  -2.19849  -1.14831
 Alpha  occ. eigenvalues --   -1.14830  -1.14818  -1.14175  -1.14167  -1.14148
 Alpha  occ. eigenvalues --   -1.14136  -1.14115  -1.14114  -1.14097  -1.14089
 Alpha  occ. eigenvalues --   -1.14040  -1.13933  -1.13926  -1.13924  -1.13898
 Alpha  occ. eigenvalues --   -1.13897  -1.13833  -1.13519  -1.13517  -1.13501
 Alpha  occ. eigenvalues --   -0.15115  -0.14249  -0.12673  -0.11538
 Alpha virt. eigenvalues --   -0.07503  -0.05546  -0.03917  -0.03349  -0.03241
 Alpha virt. eigenvalues --   -0.02744  -0.02659  -0.02144  -0.01565  -0.01169
 Alpha virt. eigenvalues --   -0.01085  -0.00527  -0.00360   0.00161   0.00410

  Beta  occ. eigenvalues --  -38.45311 -38.44641 -38.44633 -38.44601 -38.44529
  Beta  occ. eigenvalues --  -38.44472 -38.44072  -2.21026  -2.20394  -2.20375
  Beta  occ. eigenvalues --   -2.20308  -2.20295  -2.20275  -2.19871  -1.14717
  Beta  occ. eigenvalues --   -1.14714  -1.14709  -1.14090  -1.14087  -1.14070
  Beta  occ. eigenvalues --   -1.14061  -1.14060  -1.14056  -1.14009  -1.14003
  Beta  occ. eigenvalues --   -1.13964  -1.13961  -1.13955  -1.13953  -1.13949
  Beta  occ. eigenvalues --   -1.13893  -1.13860  -1.13537  -1.13534  -1.13489
  Beta  occ. eigenvalues --   -0.14457  -0.13727  -0.12202
  Beta virt. eigenvalues --   -0.08429  -0.06986  -0.05152  -0.03591  -0.03173
  Beta virt. eigenvalues --   -0.02961  -0.02558  -0.02448  -0.01841  -0.01310
  Beta virt. eigenvalues --   -0.01074  -0.00637  -0.00302  -0.00059   0.00211

 Mulliken charges and spin densities:
               1          2
     1  Na  -0.017592   0.355611
     2  Na  -0.050058  -0.048326
     3  Na   0.018324  -0.220210
     4  Na   0.032294   0.347695
     5  Na   0.225045   0.185212
     6  Na  -0.288923  -0.044997
     7  Na   0.080908   0.425015
 Sum of Mulliken charges =  -0.00000   1.00000

 Dipole moment (field-independent basis, Debye):
    X=             -0.6839    Y=              1.6985    Z=             -0.1696  Tot=              1.8389
 Quadrupole moment (field-independent basis, Debye-Ang):
   XX=            -61.4588   YY=            -58.7958   ZZ=            -74.3990
   XY=              1.9517   XZ=             -1.0130   YZ=             -2.4305

 Normal termination of Gaussian 16 at Mon Dec  4 01:49:10 2023.
