 Gaussian 16, Revision B.01,
 Gaussian 16:  ES64L-G16RevB.01 20-Dec-2017

 -------------------------
 #P B3LYP/6-311+g(d) force
 -------------------------

 -----
 DPGEN
 -----
 Symbolic Z-matrix:
 Charge =  0 Multiplicity = 2

                         Standard orientation:
 ---------------------------------------------------------------------
 Center     Atomic      Atomic             Coordinates (Angstroms)
 Number     Number       Type             X           Y           Z
 ---------------------------------------------------------------------
      1         11           0        2.806034   -1.610104   -0.638319
      2         11           0       -3.313207   -0.423282   -0.278496
      3         11           0       -0.964156   -1.067570    2.061477
      4         11           0       -2.685598    2.568230   -0.537628
      5         11           0       -0.483265   -2.568180   -0.806613
      6         11           0        0.649549    1.386433   -0.067614
      7         11           0        3.990642    1.714473    0.267193
 ---------------------------------------------------------------------

 SCF Done:  E(UB3LYP) =  -1136.12176443     A.U. after   25 cycles

 The electronic state is 2-A.
 Alpha  occ. eigenvalues --  -38.44864 -38.44853 -38.44225 -38.44222 -38.43704
 Alpha  occ. eigenvalues --  -38.43405 -38.43248  -2.20720  -2.20648  -2.20054
 Alpha  occ. eigenvalues --   -2.20037  -2.19589  -2.19243  -2.19104  -1.14402
 Alpha  occ. eigenvalues --   -1.14389  -1.14359  -1.14316  -1.14309  -1.14281
 Alpha  occ. eigenvalues --   -1.13765  -1.13742  -1.13716  -1.13701  -1.13660
 Alpha  occ. eigenvalues --   -1.13644  -1.13239  -1.13227  -1.13211  -1.12920
 Alpha  occ. eigenvalues --   -1.12890  -1.12877  -1.12778  -1.12773  -1.12739
 Alpha  occ. eigenvalues --   -0.17706  -0.14030  -0.12272  -0.10175
 Alpha virt. eigenvalues --   -0.07039  -0.05890  -0.04301  -0.03261  -0.02715
 Alpha virt. eigenvalues --   -0.02586  -0.01780  -0.01778  -0.01111  -0.00371
 Alpha virt. eigenvalues --   -0.00235   0.00078   0.00364   0.00523   0.00669

  Beta  occ. eigenvalues --  -38.44856 -38.44837 -38.44217 -38.44180 -38.43616
  Beta  occ. eigenvalues --  -38.43389 -38.43234  -2.20696  -2.20634  -2.20041
  Beta  occ. eigenvalues --   -2.19960  -2.19425  -2.19214  -2.19081  -1.14387
  Beta  occ. eigenvalues --   -1.14371  -1.14320  -1.14305  -1.14294  -1.14273
  Beta  occ. eigenvalues --   -1.13736  -1.13732  -1.13667  -1.13656  -1.13648
  Beta  occ. eigenvalues --   -1.13583  -1.13128  -1.13117  -1.13102  -1.12896
  Beta  occ. eigenvalues --   -1.12872  -1.12854  -1.12765  -1.12756  -1.12698
  Beta  occ. eigenvalues --   -0.17211  -0.13698  -0.11912
  Beta virt. eigenvalues --   -0.06930  -0.06657  -0.05466  -0.04149  -0.02771
  Beta virt. eigenvalues --   -0.02632  -0.02081  -0.01647  -0.01173  -0.00857
  Beta virt. eigenvalues --   -0.00315   0.00081   0.00159   0.00541   0.00616

 Mulliken charges and spin densities:
               1          2
     1  Na  -0.045534   0.231857
     2  Na  -0.200047   0.291529
     3  Na   0.179050   0.316965
     4  Na   1.692475   0.131255
     5  Na   0.320463   0.046773
     6  Na  -2.814869   0.064486
     7  Na   0.868462  -0.082864
 Sum of Mulliken charges =  -0.00000   1.00000

 Dipole moment (field-independent basis, Debye):
    X=              0.8599    Y=              0.1470    Z=              0.4362  Tot=              0.9753
 Quadrupole moment (field-independent basis, Debye-Ang):
   XX=            -51.9909   YY=            -69.6856   ZZ=            -74.2064
   XY=              5.8627   XZ=              1.3657   YZ=              0.7246

 Normal termination of Gaussian 16 at Tue Dec  5 09:47:49 2023.
