 Gaussian 16, Revision B.01,
 Gaussian 16:  ES64L-G16RevB.01 20-Dec-2017

 -------------------------
 #P B3LYP/6-311+g(d) force
 -------------------------

 -----
 DPGEN
 -----
 Symbolic Z-matrix:
 Charge =  0 Multiplicity = 2

                         Standard orientation:
 ---------------------------------------------------------------------
 Center     Atomic      Atomic             Coordinates (Angstroms)
 Number     Number       Type             X           Y           Z
 ---------------------------------------------------------------------
      1         11           0        3.018688    1.177763   -0.209480
      2         11           0       -3.002772    0.534680   -0.311647
      3         11           0       -0.142059    0.275343   -1.559628
      4         11           0       -0.438833    2.806729    0.267019
      5         11           0        2.329327   -2.035065   -0.182983
      6         11           0       -0.117440   -0.315936    2.162063
      7         11           0       -1.646910   -2.443515   -0.165344
 ---------------------------------------------------------------------

 SCF Done:  E(UB3LYP) =  -1136.13639234     A.U. after   20 cycles

 The electronic state is 2-A.
 Alpha  occ. eigenvalues --  -38.44116 -38.44010 -38.43795 -38.43711 -38.43318
 Alpha  occ. eigenvalues --  -38.43267 -38.43083  -2.19933  -2.19901  -2.19614
 Alpha  occ. eigenvalues --   -2.19581  -2.19268  -2.19179  -2.18950  -1.13615
 Alpha  occ. eigenvalues --   -1.13609  -1.13600  -1.13573  -1.13550  -1.13533
 Alpha  occ. eigenvalues --   -1.13287  -1.13279  -1.13251  -1.13239  -1.13207
 Alpha  occ. eigenvalues --   -1.13198  -1.12973  -1.12935  -1.12896  -1.12843
 Alpha  occ. eigenvalues --   -1.12837  -1.12814  -1.12627  -1.12607  -1.12573
 Alpha  occ. eigenvalues --   -0.18658  -0.13281  -0.12211  -0.10843
 Alpha virt. eigenvalues --   -0.05681  -0.05318  -0.04462  -0.03236  -0.02914
 Alpha virt. eigenvalues --   -0.02608  -0.01612  -0.01065  -0.00377  -0.00328
 Alpha virt. eigenvalues --   -0.00024   0.00347   0.00764   0.00873   0.00896

  Beta  occ. eigenvalues --  -38.44114 -38.43999 -38.43792 -38.43606 -38.43312
  Beta  occ. eigenvalues --  -38.43214 -38.43075  -2.19930  -2.19885  -2.19612
  Beta  occ. eigenvalues --   -2.19388  -2.19174  -2.19172  -2.18939  -1.13607
  Beta  occ. eigenvalues --   -1.13597  -1.13590  -1.13570  -1.13532  -1.13514
  Beta  occ. eigenvalues --   -1.13278  -1.13272  -1.13245  -1.13114  -1.13073
  Beta  occ. eigenvalues --   -1.13059  -1.12909  -1.12888  -1.12834  -1.12823
  Beta  occ. eigenvalues --   -1.12810  -1.12796  -1.12617  -1.12574  -1.12569
  Beta  occ. eigenvalues --   -0.17936  -0.13038  -0.11995
  Beta virt. eigenvalues --   -0.06886  -0.05613  -0.05335  -0.04410  -0.02485
  Beta virt. eigenvalues --   -0.02106  -0.01578  -0.01488  -0.01012  -0.00424
  Beta virt. eigenvalues --   -0.00354   0.00130   0.00386   0.00844   0.00865

 Mulliken charges and spin densities:
               1          2
     1  Na   0.087256  -0.032319
     2  Na   0.468187   0.067924
     3  Na  -0.300394   0.272219
     4  Na   0.109145   0.031610
     5  Na   0.064435  -0.056730
     6  Na  -0.579209   0.755788
     7  Na   0.150581  -0.038492
 Sum of Mulliken charges =  -0.00000   1.00000

 Dipole moment (field-independent basis, Debye):
    X=              0.1503    Y=             -0.0197    Z=              0.1461  Tot=              0.2105
 Quadrupole moment (field-independent basis, Debye-Ang):
   XX=            -55.9881   YY=            -64.0132   ZZ=            -73.9424
   XY=              0.2634   XZ=              0.0875   YZ=              1.2097

 Normal termination of Gaussian 16 at Fri Dec  8 03:25:59 2023.
