 Gaussian 16, Revision B.01,
 Gaussian 16:  ES64L-G16RevB.01 20-Dec-2017

 -------------------------
 #P B3LYP/6-311+g(d) force
 -------------------------

 -----
 DPGEN
 -----
 Symbolic Z-matrix:
 Charge =  0 Multiplicity = 2

                         Standard orientation:
 ---------------------------------------------------------------------
 Center     Atomic      Atomic             Coordinates (Angstroms)
 Number     Number       Type             X           Y           Z
 ---------------------------------------------------------------------
      1         11           0        2.728245   -1.326099    0.189011
      2         11           0        2.177765    2.194246   -0.165149
      3         11           0       -0.040484   -0.043852    1.630188
      4         11           0       -3.251829   -0.130179   -0.211900
      5         11           0       -0.704893   -2.867887    0.082816
      6         11           0        0.397392   -0.450757   -1.592291
      7         11           0       -1.306196    2.624528    0.067325
 ---------------------------------------------------------------------

 SCF Done:  E(UB3LYP) =  -1136.13611348     A.U. after   20 cycles

 The electronic state is 2-A.
 Alpha  occ. eigenvalues --  -38.44135 -38.44053 -38.43692 -38.43646 -38.43481
 Alpha  occ. eigenvalues --  -38.42956 -38.42776  -2.19945  -2.19938  -2.19532
 Alpha  occ. eigenvalues --   -2.19522  -2.19333  -2.18971  -2.18781  -1.13655
 Alpha  occ. eigenvalues --   -1.13616  -1.13608  -1.13604  -1.13586  -1.13550
 Alpha  occ. eigenvalues --   -1.13235  -1.13207  -1.13198  -1.13195  -1.13175
 Alpha  occ. eigenvalues --   -1.13131  -1.13022  -1.12994  -1.12963  -1.12678
 Alpha  occ. eigenvalues --   -1.12596  -1.12580  -1.12466  -1.12405  -1.12390
 Alpha  occ. eigenvalues --   -0.18919  -0.13099  -0.12748  -0.10178
 Alpha virt. eigenvalues --   -0.05744  -0.05306  -0.04895  -0.02941  -0.02735
 Alpha virt. eigenvalues --   -0.01921  -0.01612  -0.01297  -0.00510  -0.00414
 Alpha virt. eigenvalues --    0.00049   0.00347   0.00817   0.00833   0.00887

  Beta  occ. eigenvalues --  -38.44133 -38.44043 -38.43687 -38.43637 -38.43477
  Beta  occ. eigenvalues --  -38.42889 -38.42698  -2.19942  -2.19925  -2.19527
  Beta  occ. eigenvalues --   -2.19511  -2.19329  -2.18848  -2.18639  -1.13645
  Beta  occ. eigenvalues --   -1.13612  -1.13595  -1.13586  -1.13566  -1.13541
  Beta  occ. eigenvalues --   -1.13228  -1.13201  -1.13178  -1.13168  -1.13159
  Beta  occ. eigenvalues --   -1.13125  -1.13014  -1.12974  -1.12966  -1.12591
  Beta  occ. eigenvalues --   -1.12509  -1.12490  -1.12368  -1.12299  -1.12289
  Beta  occ. eigenvalues --   -0.18212  -0.12859  -0.12489
  Beta virt. eigenvalues --   -0.06301  -0.05709  -0.05296  -0.04862  -0.02184
  Beta virt. eigenvalues --   -0.01968  -0.01532  -0.01237  -0.00928  -0.00565
  Beta virt. eigenvalues --   -0.00455   0.00187   0.00389   0.00835   0.00858

 Mulliken charges and spin densities:
               1          2
     1  Na   0.419311  -0.061931
     2  Na   0.043399  -0.073775
     3  Na  -0.253704   0.645547
     4  Na  -0.049627  -0.057884
     5  Na   0.245311  -0.080604
     6  Na  -0.433983   0.706869
     7  Na   0.029292  -0.078223
 Sum of Mulliken charges =  -0.00000   1.00000

 Dipole moment (field-independent basis, Debye):
    X=             -0.0051    Y=             -0.1232    Z=              0.0245  Tot=              0.1257
 Quadrupole moment (field-independent basis, Debye-Ang):
   XX=            -54.2721   YY=            -59.5799   ZZ=            -77.3867
   XY=              0.5519   XZ=              1.0864   YZ=             -0.9412

 Normal termination of Gaussian 16 at Tue Nov 28 23:33:13 2023.
