 Gaussian 16, Revision B.01,
 Gaussian 16:  ES64L-G16RevB.01 20-Dec-2017

 -------------------------
 #P B3LYP/6-311+g(d) force
 -------------------------

 -----
 DPGEN
 -----
 Symbolic Z-matrix:
 Charge =  0 Multiplicity = 2

                         Standard orientation:
 ---------------------------------------------------------------------
 Center     Atomic      Atomic             Coordinates (Angstroms)
 Number     Number       Type             X           Y           Z
 ---------------------------------------------------------------------
      1         11           0       -1.885845    2.056659    0.388601
      2         11           0        1.735111   -1.750064    0.319718
      3         11           0       -4.432519   -0.694989   -1.250436
      4         11           0        4.750838   -0.415715   -1.070752
      5         11           0       -1.653856   -1.617948   -0.032617
      6         11           0        0.206502   -0.031693    2.270920
      7         11           0        1.279768    2.453750   -0.625434
 ---------------------------------------------------------------------

 SCF Done:  E(UB3LYP) =  -1136.11727106     A.U. after   23 cycles

 The electronic state is 2-A.
 Alpha  occ. eigenvalues --  -38.45205 -38.45066 -38.44116 -38.44089 -38.43448
 Alpha  occ. eigenvalues --  -38.43410 -38.43346  -2.21111  -2.20842  -2.19928
 Alpha  occ. eigenvalues --   -2.19868  -2.19281  -2.19280  -2.19232  -1.14810
 Alpha  occ. eigenvalues --   -1.14774  -1.14687  -1.14489  -1.14479  -1.14456
 Alpha  occ. eigenvalues --   -1.13592  -1.13573  -1.13559  -1.13555  -1.13521
 Alpha  occ. eigenvalues --   -1.13492  -1.13000  -1.12979  -1.12972  -1.12966
 Alpha  occ. eigenvalues --   -1.12924  -1.12912  -1.12898  -1.12876  -1.12847
 Alpha  occ. eigenvalues --   -0.17664  -0.13661  -0.11818  -0.11655
 Alpha virt. eigenvalues --   -0.06330  -0.05382  -0.04747  -0.03424  -0.02758
 Alpha virt. eigenvalues --   -0.02370  -0.02246  -0.01487  -0.01160  -0.00349
 Alpha virt. eigenvalues --   -0.00032   0.00038   0.00185   0.00419   0.00646

  Beta  occ. eigenvalues --  -38.45139 -38.44979 -38.44076 -38.44066 -38.43449
  Beta  occ. eigenvalues --  -38.43405 -38.43342  -2.20993  -2.20679  -2.19843
  Beta  occ. eigenvalues --   -2.19835  -2.19283  -2.19280  -2.19231  -1.14734
  Beta  occ. eigenvalues --   -1.14692  -1.14596  -1.14378  -1.14367  -1.14349
  Beta  occ. eigenvalues --   -1.13542  -1.13532  -1.13509  -1.13506  -1.13491
  Beta  occ. eigenvalues --   -1.13471  -1.12990  -1.12975  -1.12973  -1.12969
  Beta  occ. eigenvalues --   -1.12926  -1.12907  -1.12878  -1.12870  -1.12808
  Beta  occ. eigenvalues --   -0.17095  -0.12815  -0.11449
  Beta virt. eigenvalues --   -0.08446  -0.05936  -0.05005  -0.04361  -0.03305
  Beta virt. eigenvalues --   -0.02339  -0.02034  -0.01869  -0.01078  -0.00942
  Beta virt. eigenvalues --   -0.00216   0.00068   0.00236   0.00273   0.00523

 Mulliken charges and spin densities:
               1          2
     1  Na  -0.253150   0.102951
     2  Na  -0.254088  -0.074656
     3  Na   0.682345   0.245792
     4  Na   0.219123   0.474613
     5  Na  -0.758960  -0.011401
     6  Na   0.426536   0.178396
     7  Na  -0.061806   0.084306
 Sum of Mulliken charges =  -0.00000   1.00000

 Dipole moment (field-independent basis, Debye):
    X=              0.3426    Y=              0.5323    Z=              0.2435  Tot=              0.6783
 Quadrupole moment (field-independent basis, Debye-Ang):
   XX=            -56.2123   YY=            -76.4559   ZZ=            -64.4159
   XY=             -0.5072   XZ=             -0.9178   YZ=             -0.4602

 Normal termination of Gaussian 16 at Mon Dec  4 03:39:34 2023.
