 Gaussian 16, Revision B.01,
 Gaussian 16:  ES64L-G16RevB.01 20-Dec-2017

 -------------------------
 #P B3LYP/6-311+g(d) force
 -------------------------

 -----
 DPGEN
 -----
 Symbolic Z-matrix:
 Charge =  0 Multiplicity = 2

                         Standard orientation:
 ---------------------------------------------------------------------
 Center     Atomic      Atomic             Coordinates (Angstroms)
 Number     Number       Type             X           Y           Z
 ---------------------------------------------------------------------
      1         11           0        8.113737    2.446009    0.245652
      2         11           0        6.470074   -0.120166    0.005599
      3         11           0       -6.656399   -0.310386   -0.151857
      4         11           0       -7.135905    2.768658   -0.372934
      5         11           0        2.996883   -2.021684   -0.591088
      6         11           0       -0.611606   -1.596328   -0.461276
      7         11           0       -3.176784   -1.166104    1.325905
 ---------------------------------------------------------------------

 SCF Done:  E(UB3LYP) =  -1136.10526031     A.U. after   19 cycles

 The electronic state is 2-A.
 Alpha  occ. eigenvalues --  -38.44988 -38.44917 -38.44724 -38.44553 -38.44488
 Alpha  occ. eigenvalues --  -38.44020 -38.43895  -2.20781  -2.20698  -2.20537
 Alpha  occ. eigenvalues --   -2.20338  -2.20297  -2.19805  -2.19682  -1.14445
 Alpha  occ. eigenvalues --   -1.14426  -1.14423  -1.14346  -1.14342  -1.14302
 Alpha  occ. eigenvalues --   -1.14198  -1.14183  -1.14159  -1.14007  -1.13996
 Alpha  occ. eigenvalues --   -1.13986  -1.13971  -1.13933  -1.13933  -1.13486
 Alpha  occ. eigenvalues --   -1.13481  -1.13463  -1.13352  -1.13351  -1.13335
 Alpha  occ. eigenvalues --   -0.15076  -0.14164  -0.13044  -0.11576
 Alpha virt. eigenvalues --   -0.06984  -0.05490  -0.04053  -0.03316  -0.03068
 Alpha virt. eigenvalues --   -0.02716  -0.02534  -0.02174  -0.01463  -0.01353
 Alpha virt. eigenvalues --   -0.01111  -0.00515  -0.00272   0.00277   0.00382

  Beta  occ. eigenvalues --  -38.44947 -38.44818 -38.44656 -38.44562 -38.44440
  Beta  occ. eigenvalues --  -38.44036 -38.43905  -2.20704  -2.20513  -2.20412
  Beta  occ. eigenvalues --   -2.20359  -2.20208  -2.19841  -2.19705  -1.14397
  Beta  occ. eigenvalues --   -1.14374  -1.14371  -1.14221  -1.14217  -1.14183
  Beta  occ. eigenvalues --   -1.14117  -1.14097  -1.14079  -1.14024  -1.14012
  Beta  occ. eigenvalues --   -1.13977  -1.13914  -1.13872  -1.13872  -1.13513
  Beta  occ. eigenvalues --   -1.13510  -1.13443  -1.13371  -1.13370  -1.13315
  Beta  occ. eigenvalues --   -0.14478  -0.13465  -0.12534
  Beta virt. eigenvalues --   -0.08489  -0.06526  -0.05141  -0.03726  -0.03131
  Beta virt. eigenvalues --   -0.02791  -0.02511  -0.02336  -0.02002  -0.01297
  Beta virt. eigenvalues --   -0.00949  -0.00704  -0.00303  -0.00038   0.00378

 Mulliken charges and spin densities:
               1          2
     1  Na   0.282571   0.159334
     2  Na  -0.359230   0.013696
     3  Na  -0.175178  -0.039428
     4  Na   0.218783   0.182798
     5  Na  -0.001442   0.497500
     6  Na   0.071833  -0.036304
     7  Na  -0.037338   0.222404
 Sum of Mulliken charges =  -0.00000   1.00000

 Dipole moment (field-independent basis, Debye):
    X=             -1.3761    Y=              1.1195    Z=              0.1051  Tot=              1.7770
 Quadrupole moment (field-independent basis, Debye-Ang):
   XX=            -57.8214   YY=            -58.8542   ZZ=            -72.6866
   XY=              1.9793   XZ=             -0.0289   YZ=              0.2678

 Normal termination of Gaussian 16 at Mon Dec  4 03:56:06 2023.
