 Gaussian 16, Revision B.01,
 Gaussian 16:  ES64L-G16RevB.01 20-Dec-2017

 -------------------------
 #P B3LYP/6-311+g(d) force
 -------------------------

 -----
 DPGEN
 -----
 Symbolic Z-matrix:
 Charge =  0 Multiplicity = 2

                         Standard orientation:
 ---------------------------------------------------------------------
 Center     Atomic      Atomic             Coordinates (Angstroms)
 Number     Number       Type             X           Y           Z
 ---------------------------------------------------------------------
      1         11           0       -0.635808    1.271784    1.496479
      2         11           0       -2.869714    1.463982   -0.659839
      3         11           0       -2.819903   -1.085304    1.197811
      4         11           0       -1.733581   -1.313592   -1.640342
      5         11           0        0.951657   -0.221627   -0.447312
      6         11           0        3.438424   -1.327059    0.770250
      7         11           0        3.668924    1.211815   -0.717046
 ---------------------------------------------------------------------

 SCF Done:  E(UB3LYP) =  -1136.08733360     A.U. after   46 cycles

 The electronic state is 2-A.
 Alpha  occ. eigenvalues --  -38.45881 -38.45680 -38.44991 -38.44851 -38.44718
 Alpha  occ. eigenvalues --  -38.42427 -38.42216  -2.21764  -2.21575  -2.20929
 Alpha  occ. eigenvalues --   -2.20786  -2.20771  -2.18382  -2.18168  -1.15528
 Alpha  occ. eigenvalues --   -1.15443  -1.15374  -1.15274  -1.15183  -1.15162
 Alpha  occ. eigenvalues --   -1.14657  -1.14594  -1.14539  -1.14488  -1.14455
 Alpha  occ. eigenvalues --   -1.14442  -1.14434  -1.14400  -1.14397  -1.12115
 Alpha  occ. eigenvalues --   -1.12010  -1.11999  -1.11858  -1.11834  -1.11799
 Alpha  occ. eigenvalues --   -0.18966  -0.15755  -0.10569  -0.10156
 Alpha virt. eigenvalues --   -0.07750  -0.06620  -0.04288  -0.03456  -0.02692
 Alpha virt. eigenvalues --   -0.01954  -0.01679  -0.01527  -0.00804  -0.00579
 Alpha virt. eigenvalues --   -0.00030   0.00227   0.00318   0.00425   0.00483

  Beta  occ. eigenvalues --  -38.45859 -38.45655 -38.44954 -38.44824 -38.44694
  Beta  occ. eigenvalues --  -38.42410 -38.42203  -2.21721  -2.21528  -2.20861
  Beta  occ. eigenvalues --   -2.20737  -2.20734  -2.18355  -2.18148  -1.15499
  Beta  occ. eigenvalues --   -1.15407  -1.15344  -1.15238  -1.15149  -1.15125
  Beta  occ. eigenvalues --   -1.14613  -1.14543  -1.14487  -1.14463  -1.14415
  Beta  occ. eigenvalues --   -1.14400  -1.14398  -1.14353  -1.14340  -1.12101
  Beta  occ. eigenvalues --   -1.11995  -1.11942  -1.11847  -1.11825  -1.11754
  Beta  occ. eigenvalues --   -0.18348  -0.15503  -0.10252
  Beta virt. eigenvalues --   -0.07541  -0.06880  -0.05668  -0.04090  -0.03306
  Beta virt. eigenvalues --   -0.02589  -0.01504  -0.01114  -0.00994  -0.00530
  Beta virt. eigenvalues --   -0.00386   0.00038   0.00276   0.00413   0.00555

 Mulliken charges and spin densities:
               1          2
     1  Na   0.166813   0.062377
     2  Na   0.222957   0.108495
     3  Na   0.086005   0.091251
     4  Na   0.242861   0.107663
     5  Na  -2.804211   0.961137
     6  Na   1.124442  -0.152459
     7  Na   0.961134  -0.178464
 Sum of Mulliken charges =  -0.00000   1.00000

 Dipole moment (field-independent basis, Debye):
    X=              1.9099    Y=              0.3199    Z=              0.3765  Tot=              1.9728
 Quadrupole moment (field-independent basis, Debye-Ang):
   XX=            -40.0620   YY=            -76.1576   ZZ=            -74.8613
   XY=             -0.3063   XZ=             -1.0496   YZ=             -8.8311

 Normal termination of Gaussian 16 at Fri Dec  8 19:07:18 2023.
