 Gaussian 16, Revision B.01,
 Gaussian 16:  ES64L-G16RevB.01 20-Dec-2017

 -------------------------
 #P B3LYP/6-311+g(d) force
 -------------------------

 -----
 DPGEN
 -----
 Symbolic Z-matrix:
 Charge =  0 Multiplicity = 2

                         Standard orientation:
 ---------------------------------------------------------------------
 Center     Atomic      Atomic             Coordinates (Angstroms)
 Number     Number       Type             X           Y           Z
 ---------------------------------------------------------------------
      1         11           0        3.144191   -0.187328    0.108376
      2         11           0       -2.654075   -1.581110   -0.143057
      3         11           0       -0.327171   -0.246097   -1.797104
      4         11           0        0.121254   -0.017968    1.844455
      5         11           0       -2.471429    1.956639    0.398440
      6         11           0        1.288064    2.781606   -0.456864
      7         11           0        0.899167   -2.705743    0.045753
 ---------------------------------------------------------------------

 SCF Done:  E(UB3LYP) =  -1136.13864246     A.U. after   19 cycles

 The electronic state is 2-A.
 Alpha  occ. eigenvalues --  -38.43947 -38.43908 -38.43868 -38.43528 -38.43438
 Alpha  occ. eigenvalues --  -38.43362 -38.43253  -2.19783  -2.19721  -2.19714
 Alpha  occ. eigenvalues --   -2.19361  -2.19332  -2.19305  -2.19140  -1.13460
 Alpha  occ. eigenvalues --   -1.13447  -1.13438  -1.13427  -1.13395  -1.13382
 Alpha  occ. eigenvalues --   -1.13369  -1.13360  -1.13328  -1.13055  -1.13010
 Alpha  occ. eigenvalues --   -1.13006  -1.12985  -1.12984  -1.12977  -1.12969
 Alpha  occ. eigenvalues --   -1.12939  -1.12923  -1.12808  -1.12805  -1.12757
 Alpha  occ. eigenvalues --   -0.18585  -0.13058  -0.12380  -0.10694
 Alpha virt. eigenvalues --   -0.05529  -0.05381  -0.04701  -0.03212  -0.02908
 Alpha virt. eigenvalues --   -0.02448  -0.01518  -0.01186  -0.00460  -0.00337
 Alpha virt. eigenvalues --   -0.00002   0.00359   0.00791   0.00861   0.00886

  Beta  occ. eigenvalues --  -38.43944 -38.43899 -38.43862 -38.43519 -38.43360
  Beta  occ. eigenvalues --  -38.43286 -38.43246  -2.19782  -2.19714  -2.19700
  Beta  occ. eigenvalues --   -2.19316  -2.19218  -2.19168  -2.19131  -1.13452
  Beta  occ. eigenvalues --   -1.13446  -1.13424  -1.13417  -1.13373  -1.13364
  Beta  occ. eigenvalues --   -1.13357  -1.13350  -1.13322  -1.12989  -1.12978
  Beta  occ. eigenvalues --   -1.12964  -1.12960  -1.12899  -1.12895  -1.12875
  Beta  occ. eigenvalues --   -1.12850  -1.12824  -1.12787  -1.12776  -1.12739
  Beta  occ. eigenvalues --   -0.17867  -0.12809  -0.12115
  Beta virt. eigenvalues --   -0.06850  -0.05473  -0.05351  -0.04644  -0.02445
  Beta virt. eigenvalues --   -0.02160  -0.01441  -0.01422  -0.01104  -0.00483
  Beta virt. eigenvalues --   -0.00393   0.00125   0.00386   0.00851   0.00867

 Mulliken charges and spin densities:
               1          2
     1  Na   0.061867  -0.057401
     2  Na   0.268286  -0.089708
     3  Na  -0.195898   0.692005
     4  Na  -0.207656   0.648021
     5  Na  -0.044265  -0.031834
     6  Na  -0.071611  -0.037137
     7  Na   0.189278  -0.123947
 Sum of Mulliken charges =  -0.00000   1.00000

 Dipole moment (field-independent basis, Debye):
    X=             -0.1228    Y=              0.0053    Z=              0.0605  Tot=              0.1370
 Quadrupole moment (field-independent basis, Debye-Ang):
   XX=            -56.2493   YY=            -62.4964   ZZ=            -74.5412
   XY=             -0.1668   XZ=             -0.8718   YZ=             -0.4510

 Normal termination of Gaussian 16 at Thu Dec  7 02:27:12 2023.
