 Gaussian 16, Revision B.01,
 Gaussian 16:  ES64L-G16RevB.01 20-Dec-2017

 -------------------------
 #P B3LYP/6-311+g(d) force
 -------------------------

 -----
 DPGEN
 -----
 Symbolic Z-matrix:
 Charge =  0 Multiplicity = 2

                         Standard orientation:
 ---------------------------------------------------------------------
 Center     Atomic      Atomic             Coordinates (Angstroms)
 Number     Number       Type             X           Y           Z
 ---------------------------------------------------------------------
      1         11           0        0.677954    1.167196    1.935641
      2         11           0       -3.660313   -1.637763    0.180392
      3         11           0       -2.662636    1.576809   -0.006459
      4         11           0       -0.725913   -1.756441   -0.554204
      5         11           0        0.591713    2.446280   -1.066987
      6         11           0        2.611736   -0.681864   -1.991644
      7         11           0        3.167459   -1.114216    1.503260
 ---------------------------------------------------------------------

 SCF Done:  E(UB3LYP) =  -1136.12542258     A.U. after   20 cycles

 The electronic state is 2-A.
 Alpha  occ. eigenvalues --  -38.44388 -38.44298 -38.44225 -38.44125 -38.44040
 Alpha  occ. eigenvalues --  -38.43680 -38.43357  -2.20196  -2.20114  -2.20050
 Alpha  occ. eigenvalues --   -2.19933  -2.19892  -2.19531  -2.19196  -1.13866
 Alpha  occ. eigenvalues --   -1.13856  -1.13817  -1.13813  -1.13788  -1.13748
 Alpha  occ. eigenvalues --   -1.13729  -1.13722  -1.13705  -1.13595  -1.13579
 Alpha  occ. eigenvalues --   -1.13571  -1.13563  -1.13552  -1.13493  -1.13194
 Alpha  occ. eigenvalues --   -1.13174  -1.13169  -1.12872  -1.12859  -1.12809
 Alpha  occ. eigenvalues --   -0.17526  -0.13783  -0.11684  -0.11401
 Alpha virt. eigenvalues --   -0.06267  -0.05367  -0.04598  -0.03373  -0.03108
 Alpha virt. eigenvalues --   -0.02673  -0.02141  -0.01079  -0.00719  -0.00307
 Alpha virt. eigenvalues --    0.00144   0.00221   0.00250   0.00423   0.00724

  Beta  occ. eigenvalues --  -38.44343 -38.44298 -38.44217 -38.44066 -38.43985
  Beta  occ. eigenvalues --  -38.43683 -38.43330  -2.20115  -2.20114  -2.20038
  Beta  occ. eigenvalues --   -2.19825  -2.19793  -2.19536  -2.19146  -1.13807
  Beta  occ. eigenvalues --   -1.13804  -1.13796  -1.13788  -1.13757  -1.13732
  Beta  occ. eigenvalues --   -1.13722  -1.13718  -1.13702  -1.13517  -1.13507
  Beta  occ. eigenvalues --   -1.13501  -1.13500  -1.13481  -1.13403  -1.13197
  Beta  occ. eigenvalues --   -1.13176  -1.13172  -1.12839  -1.12826  -1.12764
  Beta  occ. eigenvalues --   -0.16958  -0.13441  -0.11613
  Beta virt. eigenvalues --   -0.07424  -0.06183  -0.05170  -0.03995  -0.03236
  Beta virt. eigenvalues --   -0.02497  -0.02072  -0.01916  -0.00998  -0.00344
  Beta virt. eigenvalues --   -0.00236   0.00181   0.00285   0.00524   0.00569

 Mulliken charges and spin densities:
               1          2
     1  Na  -0.042021   0.416412
     2  Na   0.272284  -0.051218
     3  Na   0.076629  -0.024230
     4  Na  -0.872774   0.156945
     5  Na  -0.174891   0.177265
     6  Na   0.565515   0.340920
     7  Na   0.175259  -0.016093
 Sum of Mulliken charges =  -0.00000   1.00000

 Dipole moment (field-independent basis, Debye):
    X=             -0.2744    Y=              0.0811    Z=              0.1318  Tot=              0.3150
 Quadrupole moment (field-independent basis, Debye-Ang):
   XX=            -54.8364   YY=            -72.8335   ZZ=            -69.0778
   XY=             -2.0304   XZ=             -1.8474   YZ=             -2.3163

 Normal termination of Gaussian 16 at Mon Dec  4 00:48:28 2023.
