 Gaussian 16, Revision B.01,
 Gaussian 16:  ES64L-G16RevB.01 20-Dec-2017

 -------------------------
 #P B3LYP/6-311+g(d) force
 -------------------------

 -----
 DPGEN
 -----
 Symbolic Z-matrix:
 Charge =  0 Multiplicity = 2

                         Standard orientation:
 ---------------------------------------------------------------------
 Center     Atomic      Atomic             Coordinates (Angstroms)
 Number     Number       Type             X           Y           Z
 ---------------------------------------------------------------------
      1         11           0        2.365249   -1.086414   -1.551063
      2         11           0        2.798395    1.036933    1.222388
      3         11           0       -0.956749   -2.537239   -0.039072
      4         11           0       -3.493715    0.434445    0.324534
      5         11           0       -0.378418    2.796472   -0.389050
      6         11           0       -0.474131    0.152839   -1.853154
      7         11           0        0.139367   -0.797035    2.285417
 ---------------------------------------------------------------------

 SCF Done:  E(UB3LYP) =  -1136.12253202     A.U. after   23 cycles

 The electronic state is 2-A.
 Alpha  occ. eigenvalues --  -38.44774 -38.44536 -38.44454 -38.44118 -38.43837
 Alpha  occ. eigenvalues --  -38.43167 -38.42984  -2.20526  -2.20380  -2.20312
 Alpha  occ. eigenvalues --   -2.19930  -2.19809  -2.18986  -2.18853  -1.14217
 Alpha  occ. eigenvalues --   -1.14168  -1.14157  -1.14105  -1.14001  -1.13992
 Alpha  occ. eigenvalues --   -1.13983  -1.13960  -1.13932  -1.13608  -1.13574
 Alpha  occ. eigenvalues --   -1.13555  -1.13505  -1.13467  -1.13431  -1.12700
 Alpha  occ. eigenvalues --   -1.12644  -1.12582  -1.12551  -1.12538  -1.12454
 Alpha  occ. eigenvalues --   -0.18167  -0.12737  -0.12264  -0.11651
 Alpha virt. eigenvalues --   -0.06046  -0.04737  -0.04186  -0.03627  -0.03438
 Alpha virt. eigenvalues --   -0.03181  -0.01766  -0.00827  -0.00376   0.00052
 Alpha virt. eigenvalues --    0.00200   0.00349   0.00458   0.00809   0.00822

  Beta  occ. eigenvalues --  -38.44771 -38.44484 -38.44382 -38.44085 -38.43777
  Beta  occ. eigenvalues --  -38.43167 -38.42982  -2.20519  -2.20289  -2.20180
  Beta  occ. eigenvalues --   -2.19872  -2.19702  -2.18986  -2.18852  -1.14208
  Beta  occ. eigenvalues --   -1.14165  -1.14153  -1.14023  -1.13940  -1.13931
  Beta  occ. eigenvalues --   -1.13896  -1.13866  -1.13837  -1.13551  -1.13539
  Beta  occ. eigenvalues --   -1.13515  -1.13431  -1.13399  -1.13339  -1.12695
  Beta  occ. eigenvalues --   -1.12638  -1.12585  -1.12551  -1.12520  -1.12449
  Beta  occ. eigenvalues --   -0.17373  -0.12503  -0.11483
  Beta virt. eigenvalues --   -0.08201  -0.05988  -0.04284  -0.03904  -0.03234
  Beta virt. eigenvalues --   -0.02813  -0.02409  -0.01652  -0.00566  -0.00315
  Beta virt. eigenvalues --    0.00122   0.00211   0.00396   0.00552   0.00853

 Mulliken charges and spin densities:
               1          2
     1  Na  -0.050645   0.166227
     2  Na  -0.035207   0.199810
     3  Na  -0.058751   0.129380
     4  Na  -0.005821  -0.009919
     5  Na  -0.391533   0.165599
     6  Na   0.679896   0.020258
     7  Na  -0.137939   0.328644
 Sum of Mulliken charges =  -0.00000   1.00000

 Dipole moment (field-independent basis, Debye):
    X=             -0.1409    Y=             -0.1019    Z=              0.4270  Tot=              0.4611
 Quadrupole moment (field-independent basis, Debye-Ang):
   XX=            -56.7747   YY=            -72.1053   ZZ=            -66.8786
   XY=             -0.0170   XZ=             -2.3319   YZ=              4.7607

 Normal termination of Gaussian 16 at Sun Dec  3 18:52:44 2023.
