 Gaussian 16, Revision B.01,
 Gaussian 16:  ES64L-G16RevB.01 20-Dec-2017

 -------------------------
 #P B3LYP/6-311+g(d) force
 -------------------------

 -----
 DPGEN
 -----
 Symbolic Z-matrix:
 Charge =  0 Multiplicity = 2

                         Standard orientation:
 ---------------------------------------------------------------------
 Center     Atomic      Atomic             Coordinates (Angstroms)
 Number     Number       Type             X           Y           Z
 ---------------------------------------------------------------------
      1         11           0        2.575667   -1.750397   -0.065547
      2         11           0       -0.531916   -2.593068    0.480313
      3         11           0        0.147653    0.598407    2.242941
      4         11           0        0.213562   -0.673391   -1.772788
      5         11           0       -3.368751   -0.223163   -0.256391
      6         11           0       -1.045478    2.256622   -0.285098
      7         11           0        2.009263    2.384989   -0.343431
 ---------------------------------------------------------------------

 SCF Done:  E(UB3LYP) =  -1136.13265369     A.U. after   20 cycles

 The electronic state is 2-A.
 Alpha  occ. eigenvalues --  -38.44129 -38.43812 -38.43706 -38.43699 -38.43628
 Alpha  occ. eigenvalues --  -38.43568 -38.43208  -2.19995  -2.19672  -2.19657
 Alpha  occ. eigenvalues --   -2.19599  -2.19475  -2.19365  -2.19141  -1.13663
 Alpha  occ. eigenvalues --   -1.13628  -1.13604  -1.13485  -1.13392  -1.13337
 Alpha  occ. eigenvalues --   -1.13317  -1.13290  -1.13255  -1.13229  -1.13214
 Alpha  occ. eigenvalues --   -1.13200  -1.13185  -1.13123  -1.13108  -1.13041
 Alpha  occ. eigenvalues --   -1.13028  -1.13005  -1.12821  -1.12810  -1.12744
 Alpha  occ. eigenvalues --   -0.18611  -0.13016  -0.12370  -0.11180
 Alpha virt. eigenvalues --   -0.05340  -0.05086  -0.04650  -0.03590  -0.02941
 Alpha virt. eigenvalues --   -0.02917  -0.01399  -0.01108  -0.00172  -0.00085
 Alpha virt. eigenvalues --    0.00039   0.00359   0.00793   0.00893   0.00932

  Beta  occ. eigenvalues --  -38.44031 -38.43809 -38.43694 -38.43641 -38.43624
  Beta  occ. eigenvalues --  -38.43569 -38.43197  -2.19814  -2.19668  -2.19581
  Beta  occ. eigenvalues --   -2.19549  -2.19470  -2.19368  -2.19126  -1.13543
  Beta  occ. eigenvalues --   -1.13501  -1.13476  -1.13452  -1.13357  -1.13319
  Beta  occ. eigenvalues --   -1.13299  -1.13239  -1.13221  -1.13198  -1.13180
  Beta  occ. eigenvalues --   -1.13164  -1.13157  -1.13110  -1.13096  -1.13044
  Beta  occ. eigenvalues --   -1.13019  -1.13008  -1.12811  -1.12768  -1.12738
  Beta  occ. eigenvalues --   -0.17854  -0.12812  -0.12188
  Beta virt. eigenvalues --   -0.07217  -0.05308  -0.05007  -0.04538  -0.02783
  Beta virt. eigenvalues --   -0.02265  -0.01866  -0.01336  -0.01054  -0.00154
  Beta virt. eigenvalues --   -0.00006   0.00080   0.00379   0.00848   0.00896

 Mulliken charges and spin densities:
               1          2
     1  Na   0.298039  -0.071081
     2  Na   0.090295   0.153321
     3  Na  -0.505531   0.516593
     4  Na  -0.271122   0.422134
     5  Na   0.028765  -0.076046
     6  Na   0.165851   0.130799
     7  Na   0.193703  -0.075719
 Sum of Mulliken charges =  -0.00000   1.00000

 Dipole moment (field-independent basis, Debye):
    X=              0.3644    Y=             -0.2141    Z=              0.1945  Tot=              0.4653
 Quadrupole moment (field-independent basis, Debye-Ang):
   XX=            -59.1348   YY=            -65.2281   ZZ=            -71.0569
   XY=              0.8569   XZ=              0.0095   YZ=             -1.8943

 Normal termination of Gaussian 16 at Tue Dec  5 16:30:15 2023.
