 Gaussian 16, Revision B.01,
 Gaussian 16:  ES64L-G16RevB.01 20-Dec-2017

 -------------------------
 #P B3LYP/6-311+g(d) force
 -------------------------

 -----
 DPGEN
 -----
 Symbolic Z-matrix:
 Charge =  0 Multiplicity = 2

                         Standard orientation:
 ---------------------------------------------------------------------
 Center     Atomic      Atomic             Coordinates (Angstroms)
 Number     Number       Type             X           Y           Z
 ---------------------------------------------------------------------
      1         11           0        0.295242    1.935657    1.033285
      2         11           0       -0.744717   -1.476311    2.154554
      3         11           0       -3.001510    2.170652   -0.426418
      4         11           0       -4.376115   -0.943168   -0.767143
      5         11           0       -0.482027   -1.343423   -1.485356
      6         11           0        2.715131   -0.691365    0.419130
      7         11           0        5.593996    0.347959   -0.928051
 ---------------------------------------------------------------------

 SCF Done:  E(UB3LYP) =  -1136.11008120     A.U. after   32 cycles

 The electronic state is 2-A.
 Alpha  occ. eigenvalues --  -38.46611 -38.45299 -38.44508 -38.44475 -38.44468
 Alpha  occ. eigenvalues --  -38.43022 -38.42827  -2.22375  -2.21117  -2.20296
 Alpha  occ. eigenvalues --   -2.20274  -2.20240  -2.18864  -2.18586  -1.16059
 Alpha  occ. eigenvalues --   -1.16013  -1.15987  -1.14787  -1.14762  -1.14720
 Alpha  occ. eigenvalues --   -1.13966  -1.13959  -1.13953  -1.13937  -1.13924
 Alpha  occ. eigenvalues --   -1.13918  -1.13913  -1.13889  -1.13851  -1.12575
 Alpha  occ. eigenvalues --   -1.12568  -1.12451  -1.12256  -1.12255  -1.12227
 Alpha  occ. eigenvalues --   -0.17480  -0.13261  -0.12257  -0.10731
 Alpha virt. eigenvalues --   -0.07463  -0.05462  -0.04987  -0.03601  -0.03044
 Alpha virt. eigenvalues --   -0.02572  -0.02357  -0.01626  -0.01493  -0.00490
 Alpha virt. eigenvalues --   -0.00401  -0.00069   0.00196   0.00324   0.00389

  Beta  occ. eigenvalues --  -38.46563 -38.45214 -38.44484 -38.44463 -38.44434
  Beta  occ. eigenvalues --  -38.43018 -38.42846  -2.22287  -2.20961  -2.20253
  Beta  occ. eigenvalues --   -2.20229  -2.20201  -2.18855  -2.18622  -1.15989
  Beta  occ. eigenvalues --   -1.15953  -1.15923  -1.14681  -1.14648  -1.14605
  Beta  occ. eigenvalues --   -1.13936  -1.13919  -1.13913  -1.13902  -1.13899
  Beta  occ. eigenvalues --   -1.13894  -1.13880  -1.13869  -1.13809  -1.12562
  Beta  occ. eigenvalues --   -1.12559  -1.12455  -1.12280  -1.12279  -1.12249
  Beta  occ. eigenvalues --   -0.16648  -0.13203  -0.10794
  Beta virt. eigenvalues --   -0.08193  -0.07086  -0.05007  -0.04607  -0.03007
  Beta virt. eigenvalues --   -0.02761  -0.02116  -0.01895  -0.01595  -0.01241
  Beta virt. eigenvalues --   -0.00461  -0.00319   0.00120   0.00309   0.00456

 Mulliken charges and spin densities:
               1          2
     1  Na  -0.116650   0.387226
     2  Na   0.612993   0.220721
     3  Na  -0.013098   0.078549
     4  Na   0.077882   0.038563
     5  Na  -0.097425   0.332847
     6  Na  -0.587159   0.055840
     7  Na   0.123457  -0.113747
 Sum of Mulliken charges =  -0.00000   1.00000

 Dipole moment (field-independent basis, Debye):
    X=             -2.5991    Y=             -0.5345    Z=              0.4669  Tot=              2.6943
 Quadrupole moment (field-independent basis, Debye-Ang):
   XX=            -77.2271   YY=            -66.1743   ZZ=            -67.2012
   XY=              5.3186   XZ=             -2.5653   YZ=              0.5704

 Normal termination of Gaussian 16 at Fri Dec  8 19:54:16 2023.
