 Gaussian 16, Revision B.01,
 Gaussian 16:  ES64L-G16RevB.01 20-Dec-2017

 -------------------------
 #P B3LYP/6-311+g(d) force
 -------------------------

 -----
 DPGEN
 -----
 Symbolic Z-matrix:
 Charge =  0 Multiplicity = 2

                         Standard orientation:
 ---------------------------------------------------------------------
 Center     Atomic      Atomic             Coordinates (Angstroms)
 Number     Number       Type             X           Y           Z
 ---------------------------------------------------------------------
      1         11           0        3.595595    0.609787    0.671215
      2         11           0       -6.441091   -1.976048   -0.341381
      3         11           0        0.881691    3.226446   -0.063569
      4         11           0       -2.085014    2.600001   -0.752810
      5         11           0       -4.127971   -0.430849    1.084747
      6         11           0        2.429544   -2.723246   -0.539519
      7         11           0        5.747245   -1.306091   -0.058683
 ---------------------------------------------------------------------

 SCF Done:  E(UB3LYP) =  -1136.10356400     A.U. after   20 cycles

 The electronic state is 2-A.
 Alpha  occ. eigenvalues --  -38.45629 -38.44503 -38.44448 -38.44302 -38.44278
 Alpha  occ. eigenvalues --  -38.44089 -38.43876  -2.21446  -2.20312  -2.20240
 Alpha  occ. eigenvalues --   -2.20162  -2.20062  -2.19873  -2.19674  -1.15165
 Alpha  occ. eigenvalues --   -1.15104  -1.15065  -1.13965  -1.13958  -1.13909
 Alpha  occ. eigenvalues --   -1.13905  -1.13900  -1.13887  -1.13835  -1.13814
 Alpha  occ. eigenvalues --   -1.13781  -1.13750  -1.13716  -1.13714  -1.13540
 Alpha  occ. eigenvalues --   -1.13532  -1.13490  -1.13339  -1.13335  -1.13322
 Alpha  occ. eigenvalues --   -0.15939  -0.14036  -0.12550  -0.10370
 Alpha virt. eigenvalues --   -0.07403  -0.05817  -0.04158  -0.03681  -0.02845
 Alpha virt. eigenvalues --   -0.02721  -0.02327  -0.01986  -0.01489  -0.00873
 Alpha virt. eigenvalues --   -0.00458  -0.00352  -0.00113   0.00177   0.00411

  Beta  occ. eigenvalues --  -38.45631 -38.44431 -38.44396 -38.44264 -38.44252
  Beta  occ. eigenvalues --  -38.44092 -38.43875  -2.21453  -2.20208  -2.20112
  Beta  occ. eigenvalues --   -2.20071  -2.20037  -2.19880  -2.19673  -1.15162
  Beta  occ. eigenvalues --   -1.15113  -1.15047  -1.13892  -1.13877  -1.13866
  Beta  occ. eigenvalues --   -1.13826  -1.13821  -1.13775  -1.13771  -1.13753
  Beta  occ. eigenvalues --   -1.13736  -1.13704  -1.13699  -1.13697  -1.13546
  Beta  occ. eigenvalues --   -1.13537  -1.13486  -1.13341  -1.13337  -1.13303
  Beta  occ. eigenvalues --   -0.15298  -0.13880  -0.12376
  Beta virt. eigenvalues --   -0.07173  -0.06417  -0.05571  -0.04004  -0.03493
  Beta virt. eigenvalues --   -0.02749  -0.02250  -0.02132  -0.01643  -0.01382
  Beta virt. eigenvalues --   -0.00413  -0.00279  -0.00142   0.00229   0.00364

 Mulliken charges and spin densities:
               1          2
     1  Na  -1.087140   0.334599
     2  Na   0.279248   0.075677
     3  Na   0.152643  -0.012762
     4  Na  -0.012845   0.084660
     5  Na  -0.487716  -0.040609
     6  Na  -0.003743   0.574891
     7  Na   1.159553  -0.016457
 Sum of Mulliken charges =  -0.00000   1.00000

 Dipole moment (field-independent basis, Debye):
    X=              1.1747    Y=             -0.8209    Z=             -0.3743  Tot=              1.4811
 Quadrupole moment (field-independent basis, Debye-Ang):
   XX=            -48.2810   YY=            -72.4363   ZZ=            -71.9100
   XY=             -2.6680   XZ=              3.5659   YZ=              0.6619

 Normal termination of Gaussian 16 at Mon Dec  4 00:56:22 2023.
