 Gaussian 16, Revision B.01,
 Gaussian 16:  ES64L-G16RevB.01 20-Dec-2017

 -------------------------
 #P B3LYP/6-311+g(d) force
 -------------------------

 -----
 DPGEN
 -----
 Symbolic Z-matrix:
 Charge =  0 Multiplicity = 2

                         Standard orientation:
 ---------------------------------------------------------------------
 Center     Atomic      Atomic             Coordinates (Angstroms)
 Number     Number       Type             X           Y           Z
 ---------------------------------------------------------------------
      1         11           0        0.042717   -0.470285    1.872278
      2         11           0       -1.348351    2.435234    0.007320
      3         11           0       -1.033076   -2.494826   -0.547987
      4         11           0       -3.516533   -0.194719    0.008989
      5         11           0        2.867932   -1.666180    0.168442
      6         11           0        2.172232    2.115738    0.104848
      7         11           0        0.815079    0.275037   -1.613890
 ---------------------------------------------------------------------

 SCF Done:  E(UB3LYP) =  -1136.13185299     A.U. after   19 cycles

 The electronic state is 2-A.
 Alpha  occ. eigenvalues --  -38.44471 -38.44360 -38.43909 -38.43516 -38.43382
 Alpha  occ. eigenvalues --  -38.43326 -38.43201  -2.20269  -2.20177  -2.19798
 Alpha  occ. eigenvalues --   -2.19365  -2.19288  -2.19204  -2.19172  -1.13936
 Alpha  occ. eigenvalues --   -1.13935  -1.13914  -1.13854  -1.13839  -1.13813
 Alpha  occ. eigenvalues --   -1.13600  -1.13437  -1.13398  -1.13075  -1.13045
 Alpha  occ. eigenvalues --   -1.12979  -1.12962  -1.12915  -1.12898  -1.12879
 Alpha  occ. eigenvalues --   -1.12854  -1.12841  -1.12836  -1.12805  -1.12783
 Alpha  occ. eigenvalues --   -0.18603  -0.13300  -0.12323  -0.10445
 Alpha virt. eigenvalues --   -0.06174  -0.05489  -0.04311  -0.03214  -0.02780
 Alpha virt. eigenvalues --   -0.02242  -0.01889  -0.01266  -0.00526  -0.00197
 Alpha virt. eigenvalues --   -0.00024   0.00303   0.00766   0.00822   0.00854

  Beta  occ. eigenvalues --  -38.44474 -38.44354 -38.43902 -38.43500 -38.43322
  Beta  occ. eigenvalues --  -38.43299 -38.43137  -2.20275  -2.20169  -2.19790
  Beta  occ. eigenvalues --   -2.19338  -2.19168  -2.19136  -2.19088  -1.13943
  Beta  occ. eigenvalues --   -1.13927  -1.13918  -1.13842  -1.13815  -1.13812
  Beta  occ. eigenvalues --   -1.13583  -1.13412  -1.13395  -1.13051  -1.13000
  Beta  occ. eigenvalues --   -1.12963  -1.12875  -1.12854  -1.12824  -1.12807
  Beta  occ. eigenvalues --   -1.12802  -1.12783  -1.12775  -1.12759  -1.12710
  Beta  occ. eigenvalues --   -0.17897  -0.13108  -0.12072
  Beta virt. eigenvalues --   -0.06570  -0.06105  -0.05452  -0.04261  -0.02499
  Beta virt. eigenvalues --   -0.02030  -0.01818  -0.01250  -0.01197  -0.00532
  Beta virt. eigenvalues --   -0.00221   0.00131   0.00344   0.00817   0.00839

 Mulliken charges and spin densities:
               1          2
     1  Na  -0.438870   0.757271
     2  Na  -0.034448  -0.066837
     3  Na   0.092316  -0.025115
     4  Na  -0.056902  -0.048337
     5  Na   0.205559  -0.085650
     6  Na   0.348002  -0.035943
     7  Na  -0.115657   0.504611
 Sum of Mulliken charges =  -0.00000   1.00000

 Dipole moment (field-independent basis, Debye):
    X=              0.0993    Y=             -0.1951    Z=              0.1935  Tot=              0.2922
 Quadrupole moment (field-independent basis, Debye-Ang):
   XX=            -51.3581   YY=            -65.3992   ZZ=            -75.7862
   XY=             -0.7522   XZ=              1.1961   YZ=              1.4394

 Normal termination of Gaussian 16 at Tue Dec  5 11:06:22 2023.
