 Gaussian 16, Revision B.01,
 Gaussian 16:  ES64L-G16RevB.01 20-Dec-2017

 -------------------------
 #P B3LYP/6-311+g(d) force
 -------------------------

 -----
 DPGEN
 -----
 Symbolic Z-matrix:
 Charge =  0 Multiplicity = 2

                         Standard orientation:
 ---------------------------------------------------------------------
 Center     Atomic      Atomic             Coordinates (Angstroms)
 Number     Number       Type             X           Y           Z
 ---------------------------------------------------------------------
      1         11           0       -2.861645    0.415311   -0.551226
      2         11           0       -8.508061   -0.661908    1.253021
      3         11           0       -6.068025   -0.763600   -1.002934
      4         11           0        0.400636    1.831648    0.649888
      5         11           0        3.346912    1.412998   -0.808668
      6         11           0        5.776019   -1.470514   -0.843647
      7         11           0        7.914164   -0.763935    1.303566
 ---------------------------------------------------------------------

 SCF Done:  E(UB3LYP) =  -1136.10653318     A.U. after   19 cycles

 The electronic state is 2-A.
 Alpha  occ. eigenvalues --  -38.45134 -38.44722 -38.44666 -38.44526 -38.44314
 Alpha  occ. eigenvalues --  -38.43971 -38.43822  -2.20924  -2.20513  -2.20460
 Alpha  occ. eigenvalues --   -2.20319  -2.20106  -2.19736  -2.19607  -1.14592
 Alpha  occ. eigenvalues --   -1.14572  -1.14567  -1.14153  -1.14151  -1.14135
 Alpha  occ. eigenvalues --   -1.14126  -1.14114  -1.14112  -1.13982  -1.13976
 Alpha  occ. eigenvalues --   -1.13934  -1.13763  -1.13761  -1.13713  -1.13416
 Alpha  occ. eigenvalues --   -1.13407  -1.13393  -1.13286  -1.13280  -1.13266
 Alpha  occ. eigenvalues --   -0.14989  -0.14302  -0.12841  -0.11087
 Alpha virt. eigenvalues --   -0.07198  -0.05603  -0.03987  -0.03296  -0.03080
 Alpha virt. eigenvalues --   -0.02738  -0.02388  -0.02052  -0.01553  -0.01144
 Alpha virt. eigenvalues --   -0.00740  -0.00383  -0.00207   0.00277   0.00383

  Beta  occ. eigenvalues --  -38.45100 -38.44674 -38.44637 -38.44469 -38.44230
  Beta  occ. eigenvalues --  -38.43993 -38.43836  -2.20861  -2.20477  -2.20353
  Beta  occ. eigenvalues --   -2.20214  -2.19949  -2.19781  -2.19640  -1.14552
  Beta  occ. eigenvalues --   -1.14528  -1.14524  -1.14139  -1.14126  -1.14104
  Beta  occ. eigenvalues --   -1.14044  -1.14041  -1.14032  -1.13909  -1.13905
  Beta  occ. eigenvalues --   -1.13870  -1.13655  -1.13653  -1.13619  -1.13451
  Beta  occ. eigenvalues --   -1.13440  -1.13392  -1.13315  -1.13307  -1.13241
  Beta  occ. eigenvalues --   -0.14554  -0.13604  -0.12350
  Beta virt. eigenvalues --   -0.08008  -0.06639  -0.05228  -0.03693  -0.03172
  Beta virt. eigenvalues --   -0.02910  -0.02551  -0.02157  -0.01719  -0.01220
  Beta virt. eigenvalues --   -0.01085  -0.00342  -0.00131  -0.00023   0.00361

 Mulliken charges and spin densities:
               1          2
     1  Na  -0.248688   0.357235
     2  Na   0.062300   0.406941
     3  Na   0.341416  -0.080468
     4  Na  -0.052277  -0.055963
     5  Na  -0.275118   0.246217
     6  Na  -0.010297  -0.017576
     7  Na   0.182663   0.143614
 Sum of Mulliken charges =  -0.00000   1.00000

 Dipole moment (field-independent basis, Debye):
    X=              1.9509    Y=             -0.2683    Z=              0.7133  Tot=              2.0945
 Quadrupole moment (field-independent basis, Debye-Ang):
   XX=            -48.5481   YY=            -72.3391   ZZ=            -64.5930
   XY=              0.5793   XZ=              0.0189   YZ=              3.3441

 Normal termination of Gaussian 16 at Mon Dec  4 00:39:28 2023.
