 Gaussian 16, Revision B.01,
 Gaussian 16:  ES64L-G16RevB.01 20-Dec-2017

 -------------------------
 #P B3LYP/6-311+g(d) force
 -------------------------

 -----
 DPGEN
 -----
 Symbolic Z-matrix:
 Charge =  0 Multiplicity = 2

                         Standard orientation:
 ---------------------------------------------------------------------
 Center     Atomic      Atomic             Coordinates (Angstroms)
 Number     Number       Type             X           Y           Z
 ---------------------------------------------------------------------
      1         11           0       -1.010902   -2.420822   -0.182033
      2         11           0        0.145270    0.017858    1.681475
      3         11           0        2.486762   -1.700333    0.059996
      4         11           0        0.291887    0.051912   -1.616275
      5         11           0       -1.137248    2.493548   -0.154051
      6         11           0       -3.212910   -0.142030    0.140684
      7         11           0        2.437141    1.699867    0.070204
 ---------------------------------------------------------------------

 SCF Done:  E(UB3LYP) =  -1136.13475907     A.U. after   19 cycles

 The electronic state is 2-A.
 Alpha  occ. eigenvalues --  -38.44219 -38.43784 -38.43730 -38.43170 -38.43055
 Alpha  occ. eigenvalues --  -38.43011 -38.42888  -2.20072  -2.19686  -2.19624
 Alpha  occ. eigenvalues --   -2.19069  -2.19043  -2.18987  -2.18960  -1.13751
 Alpha  occ. eigenvalues --   -1.13728  -1.13721  -1.13396  -1.13361  -1.13324
 Alpha  occ. eigenvalues --   -1.13294  -1.13292  -1.13240  -1.12823  -1.12784
 Alpha  occ. eigenvalues --   -1.12752  -1.12711  -1.12692  -1.12680  -1.12641
 Alpha  occ. eigenvalues --   -1.12615  -1.12611  -1.12601  -1.12559  -1.12541
 Alpha  occ. eigenvalues --   -0.19464  -0.13526  -0.12486  -0.10579
 Alpha virt. eigenvalues --   -0.05808  -0.05238  -0.04247  -0.03188  -0.02646
 Alpha virt. eigenvalues --   -0.02126  -0.01718  -0.01111  -0.00209  -0.00030
 Alpha virt. eigenvalues --    0.00038   0.00345   0.00793   0.00907   0.00944

  Beta  occ. eigenvalues --  -38.44218 -38.43776 -38.43723 -38.43163 -38.43045
  Beta  occ. eigenvalues --  -38.42934 -38.42809  -2.20073  -2.19675  -2.19615
  Beta  occ. eigenvalues --   -2.19059  -2.18973  -2.18903  -2.18818  -1.13755
  Beta  occ. eigenvalues --   -1.13724  -1.13708  -1.13392  -1.13324  -1.13315
  Beta  occ. eigenvalues --   -1.13289  -1.13255  -1.13236  -1.12793  -1.12741
  Beta  occ. eigenvalues --   -1.12709  -1.12683  -1.12643  -1.12621  -1.12602
  Beta  occ. eigenvalues --   -1.12543  -1.12539  -1.12517  -1.12464  -1.12450
  Beta  occ. eigenvalues --   -0.18733  -0.13264  -0.12193
  Beta virt. eigenvalues --   -0.06627  -0.05772  -0.05245  -0.04257  -0.02376
  Beta virt. eigenvalues --   -0.01838  -0.01634  -0.01082  -0.01065  -0.00251
  Beta virt. eigenvalues --   -0.00080   0.00164   0.00378   0.00837   0.00906

 Mulliken charges and spin densities:
               1          2
     1  Na   0.305264  -0.062788
     2  Na  -0.578779   0.715302
     3  Na   0.296473  -0.062097
     4  Na  -0.501675   0.631073
     5  Na   0.229627  -0.097466
     6  Na  -0.042147  -0.038498
     7  Na   0.291238  -0.085525
 Sum of Mulliken charges =  -0.00000   1.00000

 Dipole moment (field-independent basis, Debye):
    X=              0.0437    Y=              0.0636    Z=              0.0932  Tot=              0.1210
 Quadrupole moment (field-independent basis, Debye-Ang):
   XX=            -52.1212   YY=            -64.2199   ZZ=            -75.5765
   XY=             -0.2928   XZ=              0.1021   YZ=              0.0484

 Normal termination of Gaussian 16 at Sat Dec  9 06:30:51 2023.
