 Gaussian 16, Revision B.01,
 Gaussian 16:  ES64L-G16RevB.01 20-Dec-2017

 -------------------------
 #P B3LYP/6-311+g(d) force
 -------------------------

 -----
 DPGEN
 -----
 Symbolic Z-matrix:
 Charge =  0 Multiplicity = 2

                         Standard orientation:
 ---------------------------------------------------------------------
 Center     Atomic      Atomic             Coordinates (Angstroms)
 Number     Number       Type             X           Y           Z
 ---------------------------------------------------------------------
      1         11           0       -0.958991    2.836175    0.195614
      2         11           0        3.133136   -1.351331   -0.398661
      3         11           0       -3.235686   -0.324038   -0.114761
      4         11           0        2.307167    1.654863   -0.119060
      5         11           0       -0.824170   -2.652694    0.134056
      6         11           0       -0.637906    0.074622   -1.621055
      7         11           0        0.216449   -0.237596    1.923867
 ---------------------------------------------------------------------

 SCF Done:  E(UB3LYP) =  -1136.13277200     A.U. after   20 cycles

 The electronic state is 2-A.
 Alpha  occ. eigenvalues --  -38.44576 -38.44094 -38.43572 -38.43472 -38.43394
 Alpha  occ. eigenvalues --  -38.43370 -38.43091  -2.20438  -2.19906  -2.19458
 Alpha  occ. eigenvalues --   -2.19454  -2.19294  -2.19284  -2.18936  -1.14161
 Alpha  occ. eigenvalues --   -1.14082  -1.14059  -1.13609  -1.13562  -1.13532
 Alpha  occ. eigenvalues --   -1.13157  -1.13137  -1.13128  -1.13102  -1.13092
 Alpha  occ. eigenvalues --   -1.13079  -1.13042  -1.12948  -1.12938  -1.12907
 Alpha  occ. eigenvalues --   -1.12893  -1.12877  -1.12610  -1.12596  -1.12573
 Alpha  occ. eigenvalues --   -0.18717  -0.13459  -0.12253  -0.10612
 Alpha virt. eigenvalues --   -0.06048  -0.05026  -0.04589  -0.03333  -0.02800
 Alpha virt. eigenvalues --   -0.02296  -0.01830  -0.01083  -0.00413  -0.00237
 Alpha virt. eigenvalues --   -0.00020   0.00314   0.00786   0.00850   0.00895

  Beta  occ. eigenvalues --  -38.44569 -38.44083 -38.43565 -38.43418 -38.43383
  Beta  occ. eigenvalues --  -38.43276 -38.43087  -2.20428  -2.19888  -2.19446
  Beta  occ. eigenvalues --   -2.19357  -2.19270  -2.19122  -2.18931  -1.14145
  Beta  occ. eigenvalues --   -1.14059  -1.14057  -1.13598  -1.13539  -1.13519
  Beta  occ. eigenvalues --   -1.13131  -1.13103  -1.13095  -1.13074  -1.13036
  Beta  occ. eigenvalues --   -1.13014  -1.12982  -1.12908  -1.12890  -1.12837
  Beta  occ. eigenvalues --   -1.12786  -1.12772  -1.12605  -1.12582  -1.12563
  Beta  occ. eigenvalues --   -0.18025  -0.13167  -0.12013
  Beta virt. eigenvalues --   -0.06796  -0.05902  -0.05027  -0.04540  -0.02584
  Beta virt. eigenvalues --   -0.02042  -0.01711  -0.01328  -0.01021  -0.00431
  Beta virt. eigenvalues --   -0.00265   0.00125   0.00361   0.00827   0.00884

 Mulliken charges and spin densities:
               1          2
     1  Na   0.012467  -0.081470
     2  Na  -0.063978   0.009439
     3  Na   0.386298  -0.071050
     4  Na   0.073558   0.012275
     5  Na   0.141995  -0.076042
     6  Na  -0.268352   0.577371
     7  Na  -0.281988   0.629477
 Sum of Mulliken charges =  -0.00000   1.00000

 Dipole moment (field-independent basis, Debye):
    X=             -0.3611    Y=             -0.1946    Z=              0.1011  Tot=              0.4225
 Quadrupole moment (field-independent basis, Debye-Ang):
   XX=            -54.8512   YY=            -64.2619   ZZ=            -74.6248
   XY=             -1.0242   XZ=             -1.7785   YZ=              1.1334

 Normal termination of Gaussian 16 at Tue Dec  5 19:05:53 2023.
