 Gaussian 16, Revision B.01,
 Gaussian 16:  ES64L-G16RevB.01 20-Dec-2017

 -------------------------
 #P B3LYP/6-311+g(d) force
 -------------------------

 -----
 DPGEN
 -----
 Symbolic Z-matrix:
 Charge =  0 Multiplicity = 2

                         Standard orientation:
 ---------------------------------------------------------------------
 Center     Atomic      Atomic             Coordinates (Angstroms)
 Number     Number       Type             X           Y           Z
 ---------------------------------------------------------------------
      1         11           0        1.977061    1.576122   -0.194280
      2         11           0       -0.853670    0.258265    1.660826
      3         11           0       -2.314626   -2.303641   -0.287903
      4         11           0        2.457060   -1.488707    0.735744
      5         11           0        5.008908   -0.460048   -0.917449
      6         11           0       -4.529037   -0.702612   -0.784244
      7         11           0       -1.745695    3.120621   -0.212693
 ---------------------------------------------------------------------

 SCF Done:  E(UB3LYP) =  -1136.11705796     A.U. after   19 cycles

 The electronic state is 2-A.
 Alpha  occ. eigenvalues --  -38.44826 -38.44349 -38.44085 -38.44056 -38.43898
 Alpha  occ. eigenvalues --  -38.43761 -38.43731  -2.20637  -2.20211  -2.19912
 Alpha  occ. eigenvalues --   -2.19910  -2.19743  -2.19627  -2.19507  -1.14365
 Alpha  occ. eigenvalues --   -1.14346  -1.14208  -1.13895  -1.13886  -1.13844
 Alpha  occ. eigenvalues --   -1.13778  -1.13566  -1.13561  -1.13537  -1.13524
 Alpha  occ. eigenvalues --   -1.13518  -1.13431  -1.13403  -1.13370  -1.13264
 Alpha  occ. eigenvalues --   -1.13253  -1.13208  -1.13175  -1.13162  -1.13119
 Alpha  occ. eigenvalues --   -0.16960  -0.14315  -0.11786  -0.10815
 Alpha virt. eigenvalues --   -0.06084  -0.05296  -0.05050  -0.03680  -0.02648
 Alpha virt. eigenvalues --   -0.02351  -0.02241  -0.01570  -0.00822  -0.00633
 Alpha virt. eigenvalues --   -0.00309   0.00094   0.00233   0.00461   0.00552

  Beta  occ. eigenvalues --  -38.44826 -38.44324 -38.44045 -38.44025 -38.43859
  Beta  occ. eigenvalues --  -38.43760 -38.43693  -2.20638  -2.20171  -2.19852
  Beta  occ. eigenvalues --   -2.19836  -2.19676  -2.19627  -2.19436  -1.14353
  Beta  occ. eigenvalues --   -1.14345  -1.14210  -1.13874  -1.13863  -1.13776
  Beta  occ. eigenvalues --   -1.13748  -1.13513  -1.13509  -1.13497  -1.13477
  Beta  occ. eigenvalues --   -1.13476  -1.13390  -1.13351  -1.13302  -1.13266
  Beta  occ. eigenvalues --   -1.13251  -1.13181  -1.13126  -1.13112  -1.13074
  Beta  occ. eigenvalues --   -0.16295  -0.14006  -0.11558
  Beta virt. eigenvalues --   -0.07347  -0.05860  -0.04712  -0.04637  -0.03523
  Beta virt. eigenvalues --   -0.02417  -0.02173  -0.01613  -0.01465  -0.00583
  Beta virt. eigenvalues --   -0.00322  -0.00192   0.00281   0.00350   0.00523

 Mulliken charges and spin densities:
               1          2
     1  Na  -0.463191   0.045051
     2  Na  -0.098450   0.189647
     3  Na   0.040756   0.035634
     4  Na  -0.169900   0.074514
     5  Na   0.640600   0.206556
     6  Na   0.077331   0.171659
     7  Na  -0.027147   0.276939
 Sum of Mulliken charges =  -0.00000   1.00000

 Dipole moment (field-independent basis, Debye):
    X=              0.9129    Y=              0.0582    Z=             -0.2261  Tot=              0.9423
 Quadrupole moment (field-independent basis, Debye-Ang):
   XX=            -59.5770   YY=            -69.4473   ZZ=            -69.7777
   XY=             -5.8034   XZ=             -1.5293   YZ=             -2.3195

 Normal termination of Gaussian 16 at Wed Nov 29 00:04:52 2023.
