 Gaussian 16, Revision B.01,
 Gaussian 16:  ES64L-G16RevB.01 20-Dec-2017

 -------------------------
 #P B3LYP/6-311+g(d) force
 -------------------------

 -----
 DPGEN
 -----
 Symbolic Z-matrix:
 Charge =  0 Multiplicity = 2

                         Standard orientation:
 ---------------------------------------------------------------------
 Center     Atomic      Atomic             Coordinates (Angstroms)
 Number     Number       Type             X           Y           Z
 ---------------------------------------------------------------------
      1         11           0       -0.262423   -1.018554    2.013527
      2         11           0       -2.514937    1.870940   -0.350668
      3         11           0        0.059507    0.445383   -0.781724
      4         11           0        3.313898    0.362104   -0.873812
      5         11           0        1.183279   -2.635112    0.006648
      6         11           0        0.760118    2.668889    0.771431
      7         11           0       -2.539444   -1.693650   -0.785402
 ---------------------------------------------------------------------

 SCF Done:  E(UB3LYP) =  -1136.12466590     A.U. after   19 cycles

 The electronic state is 2-A.
 Alpha  occ. eigenvalues --  -38.43849 -38.43823 -38.43779 -38.43770 -38.43761
 Alpha  occ. eigenvalues --  -38.43673 -38.42678  -2.19688  -2.19684  -2.19655
 Alpha  occ. eigenvalues --   -2.19651  -2.19611  -2.19598  -2.18864  -1.13496
 Alpha  occ. eigenvalues --   -1.13485  -1.13432  -1.13368  -1.13350  -1.13333
 Alpha  occ. eigenvalues --   -1.13325  -1.13311  -1.13286  -1.13283  -1.13278
 Alpha  occ. eigenvalues --   -1.13266  -1.13259  -1.13242  -1.13227  -1.13218
 Alpha  occ. eigenvalues --   -1.13202  -1.13162  -1.12561  -1.12503  -1.12466
 Alpha  occ. eigenvalues --   -0.18708  -0.12945  -0.12786  -0.10579
 Alpha virt. eigenvalues --   -0.05414  -0.05186  -0.04757  -0.03175  -0.02943
 Alpha virt. eigenvalues --   -0.01984  -0.01518  -0.01218  -0.00464  -0.00154
 Alpha virt. eigenvalues --    0.00024   0.00326   0.00783   0.00838   0.00873

  Beta  occ. eigenvalues --  -38.43823 -38.43820 -38.43763 -38.43747 -38.43743
  Beta  occ. eigenvalues --  -38.43588 -38.42656  -2.19686  -2.19646  -2.19637
  Beta  occ. eigenvalues --   -2.19620  -2.19540  -2.19457  -2.18830  -1.13471
  Beta  occ. eigenvalues --   -1.13447  -1.13426  -1.13339  -1.13329  -1.13311
  Beta  occ. eigenvalues --   -1.13299  -1.13286  -1.13261  -1.13251  -1.13244
  Beta  occ. eigenvalues --   -1.13233  -1.13211  -1.13195  -1.13183  -1.13173
  Beta  occ. eigenvalues --   -1.13103  -1.13067  -1.12494  -1.12483  -1.12447
  Beta  occ. eigenvalues --   -0.18063  -0.12627  -0.12467
  Beta virt. eigenvalues --   -0.06923  -0.05337  -0.04900  -0.04595  -0.02561
  Beta virt. eigenvalues --   -0.02343  -0.01338  -0.01247  -0.01113  -0.00342
  Beta virt. eigenvalues --   -0.00087   0.00146   0.00395   0.00799   0.00899

 Mulliken charges and spin densities:
               1          2
     1  Na  -0.256463   0.359364
     2  Na   0.207827   0.019162
     3  Na  -0.420550  -0.022763
     4  Na   0.391416   0.142188
     5  Na   0.319257   0.159814
     6  Na  -0.023521   0.254826
     7  Na  -0.217967   0.087410
 Sum of Mulliken charges =  -0.00000   1.00000

 Dipole moment (field-independent basis, Debye):
    X=             -0.1784    Y=             -0.1316    Z=              0.3288  Tot=              0.3965
 Quadrupole moment (field-independent basis, Debye-Ang):
   XX=            -57.9837   YY=            -60.8285   ZZ=            -72.8164
   XY=             -0.2393   XZ=             -0.0459   YZ=              2.9184

 Normal termination of Gaussian 16 at Thu Dec  7 08:10:55 2023.
