 Gaussian 16, Revision B.01,
 Gaussian 16:  ES64L-G16RevB.01 20-Dec-2017

 -------------------------
 #P B3LYP/6-311+g(d) force
 -------------------------

 -----
 DPGEN
 -----
 Symbolic Z-matrix:
 Charge =  0 Multiplicity = 2

                         Standard orientation:
 ---------------------------------------------------------------------
 Center     Atomic      Atomic             Coordinates (Angstroms)
 Number     Number       Type             X           Y           Z
 ---------------------------------------------------------------------
      1         11           0        0.270411   -2.463806   -0.911919
      2         11           0       -2.350173    1.980927   -0.235577
      3         11           0        3.475101   -0.621595    0.173890
      4         11           0        0.268220   -0.540261    1.735531
      5         11           0        0.777047    2.810771    0.350859
      6         11           0        0.376921    0.675341   -1.497841
      7         11           0       -2.817526   -1.841376    0.385057
 ---------------------------------------------------------------------

 SCF Done:  E(UB3LYP) =  -1136.12988828     A.U. after   19 cycles

 The electronic state is 2-A.
 Alpha  occ. eigenvalues --  -38.44364 -38.44038 -38.43888 -38.43685 -38.43447
 Alpha  occ. eigenvalues --  -38.43302 -38.43138  -2.20143  -2.19875  -2.19792
 Alpha  occ. eigenvalues --   -2.19488  -2.19348  -2.19226  -2.19169  -1.13818
 Alpha  occ. eigenvalues --   -1.13799  -1.13780  -1.13615  -1.13560  -1.13543
 Alpha  occ. eigenvalues --   -1.13505  -1.13432  -1.13369  -1.13160  -1.13154
 Alpha  occ. eigenvalues --   -1.13137  -1.13085  -1.13027  -1.12936  -1.12920
 Alpha  occ. eigenvalues --   -1.12864  -1.12828  -1.12817  -1.12815  -1.12742
 Alpha  occ. eigenvalues --   -0.18596  -0.12958  -0.12571  -0.10435
 Alpha virt. eigenvalues --   -0.05879  -0.05229  -0.04673  -0.03141  -0.02837
 Alpha virt. eigenvalues --   -0.02188  -0.01873  -0.01203  -0.00441  -0.00192
 Alpha virt. eigenvalues --    0.00047   0.00306   0.00755   0.00805   0.00864

  Beta  occ. eigenvalues --  -38.44362 -38.44035 -38.43880 -38.43682 -38.43414
  Beta  occ. eigenvalues --  -38.43234 -38.43076  -2.20142  -2.19871  -2.19780
  Beta  occ. eigenvalues --   -2.19483  -2.19291  -2.19101  -2.19058  -1.13811
  Beta  occ. eigenvalues --   -1.13790  -1.13781  -1.13603  -1.13548  -1.13535
  Beta  occ. eigenvalues --   -1.13499  -1.13408  -1.13359  -1.13154  -1.13138
  Beta  occ. eigenvalues --   -1.13135  -1.13042  -1.12959  -1.12900  -1.12840
  Beta  occ. eigenvalues --   -1.12776  -1.12745  -1.12735  -1.12723  -1.12663
  Beta  occ. eigenvalues --   -0.17891  -0.12726  -0.12364
  Beta virt. eigenvalues --   -0.06546  -0.05834  -0.05184  -0.04587  -0.02407
  Beta virt. eigenvalues --   -0.02213  -0.01786  -0.01215  -0.01121  -0.00425
  Beta virt. eigenvalues --   -0.00123   0.00148   0.00346   0.00775   0.00838

 Mulliken charges and spin densities:
               1          2
     1  Na  -0.006957   0.067671
     2  Na  -0.094873  -0.017503
     3  Na   0.014978  -0.036487
     4  Na  -0.348947   0.759843
     5  Na   0.142762   0.059948
     6  Na   0.268584   0.180703
     7  Na   0.024454  -0.014175
 Sum of Mulliken charges =  -0.00000   1.00000

 Dipole moment (field-independent basis, Debye):
    X=              0.2006    Y=              0.2087    Z=              0.1789  Tot=              0.3403
 Quadrupole moment (field-independent basis, Debye-Ang):
   XX=            -53.3527   YY=            -62.7924   ZZ=            -75.6231
   XY=             -0.4826   XZ=              0.1830   YZ=              1.9020

 Normal termination of Gaussian 16 at Tue Dec  5 10:44:06 2023.
