 Gaussian 16, Revision B.01,
 Gaussian 16:  ES64L-G16RevB.01 20-Dec-2017

 -------------------------
 #P B3LYP/6-311+g(d) force
 -------------------------

 -----
 DPGEN
 -----
 Symbolic Z-matrix:
 Charge =  0 Multiplicity = 2

                         Standard orientation:
 ---------------------------------------------------------------------
 Center     Atomic      Atomic             Coordinates (Angstroms)
 Number     Number       Type             X           Y           Z
 ---------------------------------------------------------------------
      1         11           0       -1.856030   -1.866156    0.367478
      2         11           0       -4.767026   -1.114058   -0.786158
      3         11           0       -5.428841    1.890287    0.640300
      4         11           0       -1.277523    1.176752   -0.646139
      5         11           0        2.010060   -0.740994    0.089821
      6         11           0        4.468793    0.000411    1.212701
      7         11           0        6.850567    0.653759   -0.878002
 ---------------------------------------------------------------------

 SCF Done:  E(UB3LYP) =  -1136.10390999     A.U. after   23 cycles

 The electronic state is 2-A.
 Alpha  occ. eigenvalues --  -38.45728 -38.44885 -38.44465 -38.44213 -38.44018
 Alpha  occ. eigenvalues --  -38.43908 -38.43765  -2.21494  -2.20664  -2.20337
 Alpha  occ. eigenvalues --   -2.20062  -2.19891  -2.19744  -2.19560  -1.15196
 Alpha  occ. eigenvalues --   -1.15186  -1.15081  -1.14321  -1.14317  -1.14307
 Alpha  occ. eigenvalues --   -1.14207  -1.13970  -1.13944  -1.13710  -1.13704
 Alpha  occ. eigenvalues --   -1.13614  -1.13588  -1.13551  -1.13512  -1.13417
 Alpha  occ. eigenvalues --   -1.13387  -1.13384  -1.13213  -1.13205  -1.13176
 Alpha  occ. eigenvalues --   -0.16385  -0.14738  -0.11802  -0.10467
 Alpha virt. eigenvalues --   -0.07525  -0.05291  -0.04520  -0.03534  -0.02845
 Alpha virt. eigenvalues --   -0.02783  -0.02168  -0.01870  -0.01094  -0.00746
 Alpha virt. eigenvalues --   -0.00468  -0.00191   0.00095   0.00273   0.00509

  Beta  occ. eigenvalues --  -38.45727 -38.44848 -38.44470 -38.44197 -38.43953
  Beta  occ. eigenvalues --  -38.43891 -38.43701  -2.21491  -2.20594  -2.20349
  Beta  occ. eigenvalues --   -2.20030  -2.19775  -2.19719  -2.19439  -1.15196
  Beta  occ. eigenvalues --   -1.15174  -1.15079  -1.14277  -1.14269  -1.14262
  Beta  occ. eigenvalues --   -1.14197  -1.13981  -1.13945  -1.13687  -1.13678
  Beta  occ. eigenvalues --   -1.13607  -1.13514  -1.13470  -1.13434  -1.13406
  Beta  occ. eigenvalues --   -1.13365  -1.13315  -1.13129  -1.13121  -1.13099
  Beta  occ. eigenvalues --   -0.15960  -0.14384  -0.11475
  Beta virt. eigenvalues --   -0.07321  -0.06762  -0.04869  -0.04453  -0.03366
  Beta virt. eigenvalues --   -0.02694  -0.02299  -0.01769  -0.01680  -0.00743
  Beta virt. eigenvalues --   -0.00612  -0.00235   0.00106   0.00184   0.00420

 Mulliken charges and spin densities:
               1          2
     1  Na  -0.282670   0.562570
     2  Na   0.191289  -0.026168
     3  Na   0.058302   0.317082
     4  Na   0.020196   0.115202
     5  Na  -0.835991  -0.084459
     6  Na   0.634093  -0.059332
     7  Na   0.214782   0.175105
 Sum of Mulliken charges =  -0.00000   1.00000

 Dipole moment (field-independent basis, Debye):
    X=              1.2197    Y=              0.1705    Z=             -0.4704  Tot=              1.3183
 Quadrupole moment (field-independent basis, Debye-Ang):
   XX=            -65.6215   YY=            -70.2290   ZZ=            -66.5061
   XY=              2.9174   XZ=             -3.2247   YZ=             -1.8216

 Normal termination of Gaussian 16 at Tue Nov 28 18:57:57 2023.
