 Gaussian 16, Revision B.01,
 Gaussian 16:  ES64L-G16RevB.01 20-Dec-2017

 -------------------------
 #P B3LYP/6-311+g(d) force
 -------------------------

 -----
 DPGEN
 -----
 Symbolic Z-matrix:
 Charge =  0 Multiplicity = 2

                         Standard orientation:
 ---------------------------------------------------------------------
 Center     Atomic      Atomic             Coordinates (Angstroms)
 Number     Number       Type             X           Y           Z
 ---------------------------------------------------------------------
      1         11           0       -3.898294   -0.189262   -0.734814
      2         11           0        1.269001   -0.587244    1.614740
      3         11           0        0.080826   -0.086446   -1.541635
      4         11           0       -1.558865   -2.098368    0.666584
      5         11           0       -1.436215    1.863738    0.742519
      6         11           0        3.775056   -1.256378   -0.678639
      7         11           0        1.768491    2.353960   -0.068754
 ---------------------------------------------------------------------

 SCF Done:  E(UB3LYP) =  -1136.12617678     A.U. after   22 cycles

 The electronic state is 2-A.
 Alpha  occ. eigenvalues --  -38.44933 -38.44548 -38.44240 -38.43438 -38.43274
 Alpha  occ. eigenvalues --  -38.43230 -38.43102  -2.20831  -2.20368  -2.20023
 Alpha  occ. eigenvalues --   -2.19315  -2.19170  -2.19146  -2.18986  -1.14554
 Alpha  occ. eigenvalues --   -1.14490  -1.14435  -1.14032  -1.14022  -1.13995
 Alpha  occ. eigenvalues --   -1.13695  -1.13674  -1.13649  -1.13018  -1.12980
 Alpha  occ. eigenvalues --   -1.12937  -1.12866  -1.12843  -1.12833  -1.12793
 Alpha  occ. eigenvalues --   -1.12773  -1.12762  -1.12676  -1.12654  -1.12595
 Alpha  occ. eigenvalues --   -0.18548  -0.13849  -0.11480  -0.10681
 Alpha virt. eigenvalues --   -0.06958  -0.05237  -0.04283  -0.03188  -0.02811
 Alpha virt. eigenvalues --   -0.02299  -0.02030  -0.01269  -0.00878  -0.00243
 Alpha virt. eigenvalues --    0.00038   0.00169   0.00379   0.00663   0.00747

  Beta  occ. eigenvalues --  -38.44911 -38.44517 -38.44210 -38.43409 -38.43270
  Beta  occ. eigenvalues --  -38.43170 -38.43092  -2.20792  -2.20310  -2.19966
  Beta  occ. eigenvalues --   -2.19266  -2.19142  -2.19063  -2.18972  -1.14511
  Beta  occ. eigenvalues --   -1.14466  -1.14406  -1.13991  -1.13981  -1.13956
  Beta  occ. eigenvalues --   -1.13655  -1.13632  -1.13610  -1.12984  -1.12930
  Beta  occ. eigenvalues --   -1.12892  -1.12839  -1.12820  -1.12784  -1.12762
  Beta  occ. eigenvalues --   -1.12708  -1.12694  -1.12670  -1.12618  -1.12586
  Beta  occ. eigenvalues --   -0.17895  -0.13515  -0.11220
  Beta virt. eigenvalues --   -0.07051  -0.06634  -0.05164  -0.03853  -0.02952
  Beta virt. eigenvalues --   -0.02463  -0.01830  -0.01331  -0.01191  -0.00535
  Beta virt. eigenvalues --   -0.00133   0.00102   0.00207   0.00523   0.00728

 Mulliken charges and spin densities:
               1          2
     1  Na   0.428655   0.227158
     2  Na   0.325447   0.004310
     3  Na  -0.331997   0.230741
     4  Na  -0.219751   0.150146
     5  Na  -0.225026   0.074654
     6  Na  -0.093311   0.263455
     7  Na   0.115983   0.049535
 Sum of Mulliken charges =  -0.00000   1.00000

 Dipole moment (field-independent basis, Debye):
    X=             -0.2855    Y=              0.1758    Z=             -0.1207  Tot=              0.3563
 Quadrupole moment (field-independent basis, Debye-Ang):
   XX=            -51.9430   YY=            -73.1260   ZZ=            -69.6921
   XY=              1.1564   XZ=              0.2646   YZ=              1.2890

 Normal termination of Gaussian 16 at Tue Dec  5 17:28:38 2023.
