 Gaussian 16, Revision B.01,
 Gaussian 16:  ES64L-G16RevB.01 20-Dec-2017

 -------------------------
 #P B3LYP/6-311+g(d) force
 -------------------------

 -----
 DPGEN
 -----
 Symbolic Z-matrix:
 Charge =  0 Multiplicity = 2

                         Standard orientation:
 ---------------------------------------------------------------------
 Center     Atomic      Atomic             Coordinates (Angstroms)
 Number     Number       Type             X           Y           Z
 ---------------------------------------------------------------------
      1         11           0        0.157329   -0.103904    2.285458
      2         11           0       -2.052267   -1.883109    0.228241
      3         11           0        3.333644    0.278523   -0.223358
      4         11           0        0.788129    2.827920    0.019075
      5         11           0        1.344542   -2.458590   -0.559745
      6         11           0       -0.326071    0.221326   -1.400097
      7         11           0       -3.245307    1.117834   -0.349574
 ---------------------------------------------------------------------

 SCF Done:  E(UB3LYP) =  -1136.13229976     A.U. after   20 cycles

 The electronic state is 2-A.
 Alpha  occ. eigenvalues --  -38.44591 -38.44347 -38.43940 -38.43441 -38.43328
 Alpha  occ. eigenvalues --  -38.43205 -38.42955  -2.20393  -2.20174  -2.19796
 Alpha  occ. eigenvalues --   -2.19347  -2.19229  -2.19157  -2.18823  -1.14067
 Alpha  occ. eigenvalues --   -1.14053  -1.14029  -1.13858  -1.13834  -1.13807
 Alpha  occ. eigenvalues --   -1.13454  -1.13419  -1.13411  -1.13083  -1.13009
 Alpha  occ. eigenvalues --   -1.12969  -1.12957  -1.12897  -1.12855  -1.12816
 Alpha  occ. eigenvalues --   -1.12794  -1.12773  -1.12512  -1.12473  -1.12454
 Alpha  occ. eigenvalues --   -0.18560  -0.13305  -0.12038  -0.10917
 Alpha virt. eigenvalues --   -0.06231  -0.04993  -0.04275  -0.03294  -0.02781
 Alpha virt. eigenvalues --   -0.02657  -0.01990  -0.01018  -0.00417  -0.00194
 Alpha virt. eigenvalues --   -0.00053   0.00294   0.00765   0.00829   0.00885

  Beta  occ. eigenvalues --  -38.44587 -38.44341 -38.43826 -38.43433 -38.43326
  Beta  occ. eigenvalues --  -38.43164 -38.42943  -2.20387  -2.20164  -2.19587
  Beta  occ. eigenvalues --   -2.19335  -2.19157  -2.19152  -2.18805  -1.14055
  Beta  occ. eigenvalues --   -1.14045  -1.14026  -1.13847  -1.13822  -1.13799
  Beta  occ. eigenvalues --   -1.13314  -1.13275  -1.13259  -1.13070  -1.12977
  Beta  occ. eigenvalues --   -1.12958  -1.12925  -1.12849  -1.12804  -1.12797
  Beta  occ. eigenvalues --   -1.12773  -1.12764  -1.12494  -1.12458  -1.12431
  Beta  occ. eigenvalues --   -0.17858  -0.13078  -0.11815
  Beta virt. eigenvalues --   -0.06940  -0.06161  -0.04934  -0.04249  -0.02558
  Beta virt. eigenvalues --   -0.01983  -0.01899  -0.01623  -0.00965  -0.00428
  Beta virt. eigenvalues --   -0.00193   0.00108   0.00343   0.00830   0.00858

 Mulliken charges and spin densities:
               1          2
     1  Na  -0.535843   0.642255
     2  Na   0.387288   0.188459
     3  Na   0.088610  -0.004206
     4  Na   0.057526   0.031129
     5  Na   0.140705   0.087649
     6  Na  -0.356508   0.026213
     7  Na   0.218221   0.028501
 Sum of Mulliken charges =  -0.00000   1.00000

 Dipole moment (field-independent basis, Debye):
    X=              0.0163    Y=              0.2634    Z=              0.2866  Tot=              0.3896
 Quadrupole moment (field-independent basis, Debye-Ang):
   XX=            -52.6119   YY=            -66.7543   ZZ=            -73.8254
   XY=             -0.5166   XZ=             -0.5198   YZ=              0.3682

 Normal termination of Gaussian 16 at Fri Dec  8 07:30:37 2023.
