 Gaussian 16, Revision B.01,
 Gaussian 16:  ES64L-G16RevB.01 20-Dec-2017

 -------------------------
 #P B3LYP/6-311+g(d) force
 -------------------------

 -----
 DPGEN
 -----
 Symbolic Z-matrix:
 Charge =  0 Multiplicity = 2

                         Standard orientation:
 ---------------------------------------------------------------------
 Center     Atomic      Atomic             Coordinates (Angstroms)
 Number     Number       Type             X           Y           Z
 ---------------------------------------------------------------------
      1         11           0        2.389725   -1.577739   -0.975856
      2         11           0       -3.947338   -0.134462    0.495453
      3         11           0       -0.867288    2.549572    0.311006
      4         11           0       -1.464306   -1.268661   -1.823735
      5         11           0        2.403022   -0.730790    2.190003
      6         11           0       -0.846943   -0.829516    0.917063
      7         11           0        2.333127    1.991597   -1.113935
 ---------------------------------------------------------------------

 SCF Done:  E(UB3LYP) =  -1136.11842266     A.U. after   21 cycles

 The electronic state is 2-A.
 Alpha  occ. eigenvalues --  -38.45405 -38.44535 -38.44308 -38.43908 -38.43787
 Alpha  occ. eigenvalues --  -38.43573 -38.42901  -2.21212  -2.20410  -2.20145
 Alpha  occ. eigenvalues --   -2.19777  -2.19736  -2.19363  -2.18691  -1.14902
 Alpha  occ. eigenvalues --   -1.14850  -1.14844  -1.14222  -1.14032  -1.13981
 Alpha  occ. eigenvalues --   -1.13806  -1.13786  -1.13764  -1.13492  -1.13418
 Alpha  occ. eigenvalues --   -1.13405  -1.13395  -1.13388  -1.13361  -1.13034
 Alpha  occ. eigenvalues --   -1.13010  -1.12997  -1.12393  -1.12371  -1.12305
 Alpha  occ. eigenvalues --   -0.17937  -0.13912  -0.11189  -0.11138
 Alpha virt. eigenvalues --   -0.06699  -0.05166  -0.04795  -0.03284  -0.02692
 Alpha virt. eigenvalues --   -0.02472  -0.02378  -0.00984  -0.00782  -0.00162
 Alpha virt. eigenvalues --   -0.00017   0.00158   0.00269   0.00569   0.00798

  Beta  occ. eigenvalues --  -38.45403 -38.44479 -38.44235 -38.43900 -38.43759
  Beta  occ. eigenvalues --  -38.43544 -38.42912  -2.21208  -2.20305  -2.20009
  Beta  occ. eigenvalues --   -2.19733  -2.19725  -2.19309  -2.18711  -1.14896
  Beta  occ. eigenvalues --   -1.14848  -1.14839  -1.14153  -1.13960  -1.13901
  Beta  occ. eigenvalues --   -1.13705  -1.13704  -1.13670  -1.13431  -1.13397
  Beta  occ. eigenvalues --   -1.13385  -1.13378  -1.13362  -1.13330  -1.12988
  Beta  occ. eigenvalues --   -1.12977  -1.12965  -1.12408  -1.12379  -1.12316
  Beta  occ. eigenvalues --   -0.17305  -0.13659  -0.10961
  Beta virt. eigenvalues --   -0.07450  -0.06447  -0.04813  -0.04311  -0.03154
  Beta virt. eigenvalues --   -0.02369  -0.01981  -0.01868  -0.00720  -0.00457
  Beta virt. eigenvalues --   -0.00105   0.00186   0.00225   0.00385   0.00702

 Mulliken charges and spin densities:
               1          2
     1  Na   0.100454   0.266390
     2  Na   1.379490   0.038414
     3  Na  -0.259805  -0.096338
     4  Na   0.162019   0.303045
     5  Na   0.617461   0.199180
     6  Na  -1.731477   0.146728
     7  Na  -0.268141   0.142581
 Sum of Mulliken charges =  -0.00000   1.00000

 Dipole moment (field-independent basis, Debye):
    X=             -1.2285    Y=             -0.4702    Z=             -0.0154  Tot=              1.3155
 Quadrupole moment (field-independent basis, Debye-Ang):
   XX=            -46.6926   YY=            -79.4858   ZZ=            -67.1061
   XY=             -1.1865   XZ=             -1.0246   YZ=              1.5250

 Normal termination of Gaussian 16 at Wed Dec  6 01:07:40 2023.
