 Gaussian 16, Revision B.01,
 Gaussian 16:  ES64L-G16RevB.01 20-Dec-2017

 -------------------------
 #P B3LYP/6-311+g(d) force
 -------------------------

 -----
 DPGEN
 -----
 Symbolic Z-matrix:
 Charge =  0 Multiplicity = 2

                         Standard orientation:
 ---------------------------------------------------------------------
 Center     Atomic      Atomic             Coordinates (Angstroms)
 Number     Number       Type             X           Y           Z
 ---------------------------------------------------------------------
      1         11           0       -3.456724   -1.982913    0.188285
      2         11           0        1.799139   -0.053943    2.112114
      3         11           0        2.198319    1.116707   -1.374403
      4         11           0       -3.551436    1.286151    1.012666
      5         11           0       -0.756505    2.404360   -0.707792
      6         11           0        4.844864   -0.981190    0.271295
      7         11           0       -1.077658   -1.789172   -1.502165
 ---------------------------------------------------------------------

 SCF Done:  E(UB3LYP) =  -1136.10881418     A.U. after   24 cycles

 The electronic state is 2-A.
 Alpha  occ. eigenvalues --  -38.46726 -38.44709 -38.44431 -38.44428 -38.44149
 Alpha  occ. eigenvalues --  -38.43252 -38.42511  -2.22463  -2.20462  -2.20275
 Alpha  occ. eigenvalues --   -2.20253  -2.19983  -2.19110  -2.18331  -1.16145
 Alpha  occ. eigenvalues --   -1.16110  -1.16067  -1.14142  -1.14138  -1.14089
 Alpha  occ. eigenvalues --   -1.13972  -1.13919  -1.13907  -1.13887  -1.13878
 Alpha  occ. eigenvalues --   -1.13875  -1.13660  -1.13656  -1.13593  -1.12808
 Alpha  occ. eigenvalues --   -1.12754  -1.12748  -1.12003  -1.12000  -1.11993
 Alpha  occ. eigenvalues --   -0.16716  -0.14231  -0.11487  -0.10999
 Alpha virt. eigenvalues --   -0.07287  -0.05438  -0.04541  -0.03366  -0.03132
 Alpha virt. eigenvalues --   -0.02814  -0.02357  -0.01403  -0.01160  -0.00320
 Alpha virt. eigenvalues --   -0.00269  -0.00006   0.00099   0.00255   0.00573

  Beta  occ. eigenvalues --  -38.46697 -38.44722 -38.44352 -38.44342 -38.44123
  Beta  occ. eigenvalues --  -38.43255 -38.42511  -2.22408  -2.20487  -2.20128
  Beta  occ. eigenvalues --   -2.20094  -2.19935  -2.19120  -2.18335  -1.16106
  Beta  occ. eigenvalues --   -1.16070  -1.16030  -1.14159  -1.14155  -1.14103
  Beta  occ. eigenvalues --   -1.13875  -1.13820  -1.13797  -1.13782  -1.13773
  Beta  occ. eigenvalues --   -1.13769  -1.13632  -1.13620  -1.13558  -1.12798
  Beta  occ. eigenvalues --   -1.12766  -1.12737  -1.12012  -1.12006  -1.11963
  Beta  occ. eigenvalues --   -0.16166  -0.13861  -0.11020
  Beta virt. eigenvalues --   -0.07588  -0.07103  -0.05117  -0.04036  -0.03066
  Beta virt. eigenvalues --   -0.02656  -0.02467  -0.02102  -0.01197  -0.01060
  Beta virt. eigenvalues --   -0.00244  -0.00060   0.00106   0.00221   0.00471

 Mulliken charges and spin densities:
               1          2
     1  Na   0.510380  -0.168195
     2  Na  -0.086631   0.158978
     3  Na  -0.086005   0.206073
     4  Na  -0.284435   0.512926
     5  Na   0.056557  -0.115856
     6  Na   0.362078  -0.075205
     7  Na  -0.471944   0.481280
 Sum of Mulliken charges =  -0.00000   1.00000

 Dipole moment (field-independent basis, Debye):
    X=              1.6390    Y=             -0.3497    Z=              0.8039  Tot=              1.8587
 Quadrupole moment (field-independent basis, Debye-Ang):
   XX=            -60.1645   YY=            -77.0844   ZZ=            -65.5470
   XY=             -2.6086   XZ=             -6.2095   YZ=              1.0169

 Normal termination of Gaussian 16 at Mon Dec  4 04:45:31 2023.
