 Gaussian 16, Revision B.01,
 Gaussian 16:  ES64L-G16RevB.01 20-Dec-2017

 -------------------------
 #P B3LYP/6-311+g(d) force
 -------------------------

 -----
 DPGEN
 -----
 Symbolic Z-matrix:
 Charge =  0 Multiplicity = 2

                         Standard orientation:
 ---------------------------------------------------------------------
 Center     Atomic      Atomic             Coordinates (Angstroms)
 Number     Number       Type             X           Y           Z
 ---------------------------------------------------------------------
      1         11           0        3.959459    0.859680   -0.568159
      2         11           0        1.404983    3.642725   -0.241938
      3         11           0        3.344248   -2.845111   -0.347709
      4         11           0        0.120497   -2.650168    1.373193
      5         11           0       -3.334004   -2.310597   -0.505628
      6         11           0       -3.983523    0.565387   -0.946596
      7         11           0       -1.511659    2.738084    1.236837
 ---------------------------------------------------------------------

 SCF Done:  E(UB3LYP) =  -1136.10473119     A.U. after   22 cycles

 The electronic state is 2-A.
 Alpha  occ. eigenvalues --  -38.44919 -38.44762 -38.44690 -38.44674 -38.44440
 Alpha  occ. eigenvalues --  -38.44402 -38.44328  -2.20647  -2.20583  -2.20502
 Alpha  occ. eigenvalues --   -2.20439  -2.20220  -2.20155  -2.20099  -1.14373
 Alpha  occ. eigenvalues --   -1.14337  -1.14314  -1.14301  -1.14233  -1.14212
 Alpha  occ. eigenvalues --   -1.14152  -1.14134  -1.14098  -1.14089  -1.14087
 Alpha  occ. eigenvalues --   -1.14047  -1.13883  -1.13880  -1.13860  -1.13838
 Alpha  occ. eigenvalues --   -1.13824  -1.13782  -1.13762  -1.13743  -1.13708
 Alpha  occ. eigenvalues --   -0.15489  -0.13716  -0.13041  -0.10676
 Alpha virt. eigenvalues --   -0.07577  -0.05292  -0.04644  -0.03596  -0.03214
 Alpha virt. eigenvalues --   -0.02404  -0.01958  -0.01816  -0.01335  -0.01275
 Alpha virt. eigenvalues --   -0.00713  -0.00165   0.00013   0.00310   0.00636

  Beta  occ. eigenvalues --  -38.44943 -38.44729 -38.44672 -38.44603 -38.44416
  Beta  occ. eigenvalues --  -38.44390 -38.44250  -2.20696  -2.20525  -2.20474
  Beta  occ. eigenvalues --   -2.20306  -2.20184  -2.20126  -2.19952  -1.14374
  Beta  occ. eigenvalues --   -1.14350  -1.14328  -1.14310  -1.14197  -1.14167
  Beta  occ. eigenvalues --   -1.14135  -1.14111  -1.14043  -1.14006  -1.13998
  Beta  occ. eigenvalues --   -1.13962  -1.13863  -1.13861  -1.13823  -1.13815
  Beta  occ. eigenvalues --   -1.13800  -1.13752  -1.13661  -1.13645  -1.13615
  Beta  occ. eigenvalues --   -0.14943  -0.13090  -0.12544
  Beta virt. eigenvalues --   -0.07544  -0.07507  -0.04880  -0.04152  -0.03384
  Beta virt. eigenvalues --   -0.02841  -0.02217  -0.01781  -0.01638  -0.01274
  Beta virt. eigenvalues --   -0.00919  -0.00528   0.00142   0.00266   0.00323

 Mulliken charges and spin densities:
               1          2
     1  Na  -0.043851   0.414710
     2  Na   0.087720  -0.106082
     3  Na   0.219794  -0.139846
     4  Na  -0.308405   0.372298
     5  Na   0.117603   0.045981
     6  Na   0.156132   0.136620
     7  Na  -0.228994   0.276319
 Sum of Mulliken charges =  -0.00000   1.00000

 Dipole moment (field-independent basis, Debye):
    X=             -0.5907    Y=             -0.4239    Z=             -0.2175  Tot=              0.7589
 Quadrupole moment (field-independent basis, Debye-Ang):
   XX=            -65.6092   YY=            -64.4080   ZZ=            -71.2897
   XY=             -3.0522   XZ=             -2.0296   YZ=             -0.1934

 Normal termination of Gaussian 16 at Sun Dec  3 12:39:29 2023.
