 Gaussian 16, Revision B.01,
 Gaussian 16:  ES64L-G16RevB.01 20-Dec-2017

 -------------------------
 #P B3LYP/6-311+g(d) force
 -------------------------

 -----
 DPGEN
 -----
 Symbolic Z-matrix:
 Charge =  0 Multiplicity = 2

                         Standard orientation:
 ---------------------------------------------------------------------
 Center     Atomic      Atomic             Coordinates (Angstroms)
 Number     Number       Type             X           Y           Z
 ---------------------------------------------------------------------
      1         11           0       -0.066769   -0.376547    1.803647
      2         11           0        0.396037   -2.123000   -0.415930
      3         11           0       -2.313876   -1.281876    0.130070
      4         11           0       -1.916985    1.652225   -0.313851
      5         11           0        0.836344    2.075932    0.542594
      6         11           0        0.317188    0.356143   -1.781354
      7         11           0        2.748060   -0.302878    0.034825
 ---------------------------------------------------------------------

 SCF Done:  E(UB3LYP) =  -1136.10287446     A.U. after   19 cycles

 The electronic state is 2-A.
 Alpha  occ. eigenvalues --  -38.43983 -38.43974 -38.43615 -38.43553 -38.43368
 Alpha  occ. eigenvalues --  -38.43280 -38.43257  -2.20148  -2.20147  -2.19621
 Alpha  occ. eigenvalues --   -2.19584  -2.19414  -2.19408  -2.19352  -1.13950
 Alpha  occ. eigenvalues --   -1.13897  -1.13879  -1.13830  -1.13780  -1.13761
 Alpha  occ. eigenvalues --   -1.13380  -1.13322  -1.13304  -1.13292  -1.13256
 Alpha  occ. eigenvalues --   -1.13215  -1.13199  -1.13054  -1.13047  -1.13034
 Alpha  occ. eigenvalues --   -1.13004  -1.12981  -1.12972  -1.12923  -1.12858
 Alpha  occ. eigenvalues --   -0.21080  -0.13635  -0.12865  -0.12134
 Alpha virt. eigenvalues --   -0.05108  -0.04339  -0.04118  -0.03598  -0.03289
 Alpha virt. eigenvalues --   -0.02995  -0.01155  -0.00501  -0.00107   0.00369
 Alpha virt. eigenvalues --    0.00693   0.00723   0.01021   0.01115   0.01161

  Beta  occ. eigenvalues --  -38.43894 -38.43886 -38.43607 -38.43546 -38.43357
  Beta  occ. eigenvalues --  -38.43260 -38.43235  -2.19989  -2.19986  -2.19612
  Beta  occ. eigenvalues --   -2.19575  -2.19393  -2.19383  -2.19319  -1.13860
  Beta  occ. eigenvalues --   -1.13785  -1.13766  -1.13723  -1.13671  -1.13647
  Beta  occ. eigenvalues --   -1.13372  -1.13312  -1.13300  -1.13283  -1.13213
  Beta  occ. eigenvalues --   -1.13190  -1.13164  -1.13028  -1.13007  -1.12983
  Beta  occ. eigenvalues --   -1.12969  -1.12954  -1.12911  -1.12909  -1.12842
  Beta  occ. eigenvalues --   -0.20265  -0.13302  -0.12542
  Beta virt. eigenvalues --   -0.07952  -0.05115  -0.04328  -0.04101  -0.02691
  Beta virt. eigenvalues --   -0.02415  -0.01838  -0.01088  -0.00463   0.00050
  Beta virt. eigenvalues --    0.00393   0.00672   0.00701   0.01059   0.01097

 Mulliken charges and spin densities:
               1          2
     1  Na  -0.298095   0.425076
     2  Na   0.153822   0.095221
     3  Na   0.115393   0.016973
     4  Na   0.104146   0.031709
     5  Na   0.183754   0.111264
     6  Na  -0.258050   0.428291
     7  Na  -0.000970  -0.108534
 Sum of Mulliken charges =  -0.00000   1.00000

 Dipole moment (field-independent basis, Debye):
    X=              0.0999    Y=              0.0438    Z=              0.0357  Tot=              0.1148
 Quadrupole moment (field-independent basis, Debye-Ang):
   XX=            -59.2612   YY=            -69.3381   ZZ=            -68.5076
   XY=             -0.0962   XZ=              0.6990   YZ=              0.8069

 Normal termination of Gaussian 16 at Fri Dec  8 19:58:37 2023.
