 Gaussian 16, Revision B.01,
 Gaussian 16:  ES64L-G16RevB.01 20-Dec-2017

 -------------------------
 #P B3LYP/6-311+g(d) force
 -------------------------

 -----
 DPGEN
 -----
 Symbolic Z-matrix:
 Charge =  0 Multiplicity = 2

                         Standard orientation:
 ---------------------------------------------------------------------
 Center     Atomic      Atomic             Coordinates (Angstroms)
 Number     Number       Type             X           Y           Z
 ---------------------------------------------------------------------
      1         11           0        2.755395    1.254660   -0.522032
      2         11           0       -3.512259   -1.566242    0.445002
      3         11           0        3.514780   -1.595126    0.040251
      4         11           0        0.207585   -0.529823    2.053136
      5         11           0        0.004540   -1.681587   -1.439442
      6         11           0       -0.145416    3.134561    0.302574
      7         11           0       -2.824624    0.983557   -0.879490
 ---------------------------------------------------------------------

 SCF Done:  E(UB3LYP) =  -1136.11742942     A.U. after   23 cycles

 The electronic state is 2-A.
 Alpha  occ. eigenvalues --  -38.45643 -38.45061 -38.44545 -38.44306 -38.44228
 Alpha  occ. eigenvalues --  -38.43708 -38.42484  -2.21397  -2.20874  -2.20377
 Alpha  occ. eigenvalues --   -2.20152  -2.20080  -2.19536  -2.18274  -1.15098
 Alpha  occ. eigenvalues --   -1.15088  -1.14988  -1.14620  -1.14517  -1.14495
 Alpha  occ. eigenvalues --   -1.14142  -1.14021  -1.13997  -1.13826  -1.13798
 Alpha  occ. eigenvalues --   -1.13765  -1.13761  -1.13727  -1.13695  -1.13194
 Alpha  occ. eigenvalues --   -1.13158  -1.13149  -1.11943  -1.11936  -1.11930
 Alpha  occ. eigenvalues --   -0.17553  -0.14147  -0.11567  -0.10385
 Alpha virt. eigenvalues --   -0.07158  -0.05775  -0.04277  -0.03674  -0.02771
 Alpha virt. eigenvalues --   -0.02528  -0.02426  -0.01342  -0.00886  -0.00321
 Alpha virt. eigenvalues --   -0.00250   0.00129   0.00327   0.00495   0.00732

  Beta  occ. eigenvalues --  -38.45633 -38.45061 -38.44538 -38.44290 -38.44204
  Beta  occ. eigenvalues --  -38.43589 -38.42485  -2.21380  -2.20879  -2.20365
  Beta  occ. eigenvalues --   -2.20124  -2.20036  -2.19317  -2.18277  -1.15090
  Beta  occ. eigenvalues --   -1.15057  -1.14979  -1.14620  -1.14511  -1.14491
  Beta  occ. eigenvalues --   -1.14131  -1.14002  -1.13985  -1.13806  -1.13778
  Beta  occ. eigenvalues --   -1.13736  -1.13733  -1.13699  -1.13657  -1.13046
  Beta  occ. eigenvalues --   -1.13009  -1.12993  -1.11944  -1.11939  -1.11926
  Beta  occ. eigenvalues --   -0.16943  -0.13841  -0.11471
  Beta virt. eigenvalues --   -0.06981  -0.06580  -0.05653  -0.04170  -0.03205
  Beta virt. eigenvalues --   -0.02525  -0.01913  -0.01640  -0.01164  -0.00862
  Beta virt. eigenvalues --   -0.00256  -0.00053   0.00267   0.00433   0.00625

 Mulliken charges and spin densities:
               1          2
     1  Na  -0.322345   0.007413
     2  Na   0.513384  -0.015924
     3  Na   0.621540   0.106778
     4  Na  -0.586766   0.694941
     5  Na  -0.092948   0.099500
     6  Na   0.152693   0.014148
     7  Na  -0.285557   0.093144
 Sum of Mulliken charges =  -0.00000   1.00000

 Dipole moment (field-independent basis, Debye):
    X=             -0.1450    Y=             -1.4794    Z=             -0.1218  Tot=              1.4915
 Quadrupole moment (field-independent basis, Debye-Ang):
   XX=            -54.0570   YY=            -70.8402   ZZ=            -72.9621
   XY=              0.5364   XZ=             -0.7642   YZ=             -0.5748

 Normal termination of Gaussian 16 at Thu Dec  7 11:52:34 2023.
