 Gaussian 16, Revision B.01,
 Gaussian 16:  ES64L-G16RevB.01 20-Dec-2017

 -------------------------
 #P B3LYP/6-311+g(d) force
 -------------------------

 -----
 DPGEN
 -----
 Symbolic Z-matrix:
 Charge =  0 Multiplicity = 2

                         Standard orientation:
 ---------------------------------------------------------------------
 Center     Atomic      Atomic             Coordinates (Angstroms)
 Number     Number       Type             X           Y           Z
 ---------------------------------------------------------------------
      1         11           0       -0.851834   -2.746787    0.400048
      2         11           0       -3.302180   -0.339768   -0.702902
      3         11           0        0.173916   -0.124233   -1.559138
      4         11           0        3.081077   -1.173289   -0.388175
      5         11           0        0.368045   -0.107702    2.127106
      6         11           0       -1.727453    2.491269    0.394887
      7         11           0        2.258428    2.000510   -0.271826
 ---------------------------------------------------------------------

 SCF Done:  E(UB3LYP) =  -1136.13406371     A.U. after   20 cycles

 The electronic state is 2-A.
 Alpha  occ. eigenvalues --  -38.44416 -38.44225 -38.43780 -38.43768 -38.43593
 Alpha  occ. eigenvalues --  -38.43306 -38.43035  -2.20256  -2.20040  -2.19650
 Alpha  occ. eigenvalues --   -2.19638  -2.19547  -2.19111  -2.18872  -1.13940
 Alpha  occ. eigenvalues --   -1.13918  -1.13885  -1.13715  -1.13692  -1.13673
 Alpha  occ. eigenvalues --   -1.13362  -1.13318  -1.13305  -1.13273  -1.13264
 Alpha  occ. eigenvalues --   -1.13256  -1.13231  -1.13182  -1.13164  -1.12786
 Alpha  occ. eigenvalues --   -1.12773  -1.12753  -1.12556  -1.12539  -1.12499
 Alpha  occ. eigenvalues --   -0.18384  -0.13416  -0.11817  -0.10968
 Alpha virt. eigenvalues --   -0.05953  -0.05306  -0.04343  -0.03318  -0.02821
 Alpha virt. eigenvalues --   -0.02714  -0.01890  -0.01083  -0.00504  -0.00165
 Alpha virt. eigenvalues --   -0.00045   0.00316   0.00701   0.00833   0.00849

  Beta  occ. eigenvalues --  -38.44406 -38.44208 -38.43774 -38.43664 -38.43548
  Beta  occ. eigenvalues --  -38.43303 -38.43028  -2.20239  -2.20009  -2.19631
  Beta  occ. eigenvalues --   -2.19466  -2.19457  -2.19107  -2.18863  -1.13920
  Beta  occ. eigenvalues --   -1.13907  -1.13864  -1.13683  -1.13674  -1.13656
  Beta  occ. eigenvalues --   -1.13346  -1.13292  -1.13242  -1.13198  -1.13164
  Beta  occ. eigenvalues --   -1.13147  -1.13132  -1.13117  -1.13101  -1.12780
  Beta  occ. eigenvalues --   -1.12767  -1.12744  -1.12548  -1.12518  -1.12488
  Beta  occ. eigenvalues --   -0.17683  -0.13124  -0.11590
  Beta virt. eigenvalues --   -0.07112  -0.05838  -0.05278  -0.04203  -0.02701
  Beta virt. eigenvalues --   -0.02076  -0.01751  -0.01700  -0.01039  -0.00468
  Beta virt. eigenvalues --   -0.00184   0.00090   0.00366   0.00801   0.00839

 Mulliken charges and spin densities:
               1          2
     1  Na  -0.084807   0.018418
     2  Na   0.125171   0.051233
     3  Na   0.001241   0.191875
     4  Na   0.248945   0.004614
     5  Na  -0.175670   0.660294
     6  Na  -0.167364   0.038155
     7  Na   0.052484   0.035411
 Sum of Mulliken charges =  -0.00000   1.00000

 Dipole moment (field-independent basis, Debye):
    X=              0.4128    Y=             -0.1256    Z=             -0.0098  Tot=              0.4316
 Quadrupole moment (field-independent basis, Debye-Ang):
   XX=            -53.9892   YY=            -66.8422   ZZ=            -72.9889
   XY=             -0.1817   XZ=              0.4884   YZ=              0.5342

 Normal termination of Gaussian 16 at Fri Dec  8 05:57:12 2023.
