 Gaussian 16, Revision B.01,
 Gaussian 16:  ES64L-G16RevB.01 20-Dec-2017

 -------------------------
 #P B3LYP/6-311+g(d) force
 -------------------------

 -----
 DPGEN
 -----
 Symbolic Z-matrix:
 Charge =  0 Multiplicity = 2

                         Standard orientation:
 ---------------------------------------------------------------------
 Center     Atomic      Atomic             Coordinates (Angstroms)
 Number     Number       Type             X           Y           Z
 ---------------------------------------------------------------------
      1         11           0        1.666720   -0.088824    1.674298
      2         11           0        0.719152   -0.682392   -1.309514
      3         11           0       -1.019299   -1.720738    0.780387
      4         11           0       -1.920958    0.977507    0.310237
      5         11           0       -5.018191   -0.151798   -0.531971
      6         11           0        1.642748    2.862698   -0.219480
      7         11           0        3.929827   -1.196453   -0.703957
 ---------------------------------------------------------------------

 SCF Done:  E(UB3LYP) =  -1136.10619954     A.U. after   30 cycles

 The electronic state is 2-A.
 Alpha  occ. eigenvalues --  -38.45105 -38.45073 -38.44956 -38.44234 -38.43629
 Alpha  occ. eigenvalues --  -38.43610 -38.42183  -2.21082  -2.20992  -2.20753
 Alpha  occ. eigenvalues --   -2.20067  -2.19626  -2.19521  -2.17982  -1.14862
 Alpha  occ. eigenvalues --   -1.14771  -1.14686  -1.14679  -1.14640  -1.14585
 Alpha  occ. eigenvalues --   -1.14395  -1.14393  -1.14357  -1.13734  -1.13697
 Alpha  occ. eigenvalues --   -1.13678  -1.13479  -1.13300  -1.13234  -1.13212
 Alpha  occ. eigenvalues --   -1.13126  -1.13064  -1.11665  -1.11640  -1.11620
 Alpha  occ. eigenvalues --   -0.18617  -0.14167  -0.11361  -0.10871
 Alpha virt. eigenvalues --   -0.07398  -0.05062  -0.04282  -0.03189  -0.03003
 Alpha virt. eigenvalues --   -0.02134  -0.01825  -0.01721  -0.01013  -0.00650
 Alpha virt. eigenvalues --   -0.00244   0.00036   0.00288   0.00629   0.00729

  Beta  occ. eigenvalues --  -38.45096 -38.45060 -38.44856 -38.44168 -38.43611
  Beta  occ. eigenvalues --  -38.43592 -38.42185  -2.21069  -2.20973  -2.20566
  Beta  occ. eigenvalues --   -2.19942  -2.19566  -2.19525  -2.17986  -1.14829
  Beta  occ. eigenvalues --   -1.14752  -1.14678  -1.14638  -1.14622  -1.14579
  Beta  occ. eigenvalues --   -1.14266  -1.14264  -1.14236  -1.13647  -1.13618
  Beta  occ. eigenvalues --   -1.13593  -1.13450  -1.13266  -1.13222  -1.13172
  Beta  occ. eigenvalues --   -1.13079  -1.13065  -1.11668  -1.11644  -1.11620
  Beta  occ. eigenvalues --   -0.18093  -0.13296  -0.10775
  Beta virt. eigenvalues --   -0.07783  -0.07156  -0.04456  -0.04072  -0.02901
  Beta virt. eigenvalues --   -0.02798  -0.01732  -0.01495  -0.01386  -0.00732
  Beta virt. eigenvalues --   -0.00335  -0.00036   0.00174   0.00391   0.00696

 Mulliken charges and spin densities:
               1          2
     1  Na   0.097180   0.068539
     2  Na  -0.042289  -0.046850
     3  Na   0.667743   0.090983
     4  Na  -1.097209   0.102420
     5  Na   0.545248   0.455530
     6  Na  -0.357580   0.007851
     7  Na   0.186908   0.321528
 Sum of Mulliken charges =  -0.00000   1.00000

 Dipole moment (field-independent basis, Debye):
    X=              0.0157    Y=             -1.0492    Z=              0.3126  Tot=              1.0949
 Quadrupole moment (field-independent basis, Debye-Ang):
   XX=            -57.8689   YY=            -79.1902   ZZ=            -62.0837
   XY=              1.3740   XZ=              2.6488   YZ=             -1.0131

 Normal termination of Gaussian 16 at Thu Dec  7 16:15:37 2023.
