 Gaussian 16, Revision B.01,
 Gaussian 16:  ES64L-G16RevB.01 20-Dec-2017

 -------------------------
 #P B3LYP/6-311+g(d) force
 -------------------------

 -----
 DPGEN
 -----
 Symbolic Z-matrix:
 Charge =  0 Multiplicity = 2

                         Standard orientation:
 ---------------------------------------------------------------------
 Center     Atomic      Atomic             Coordinates (Angstroms)
 Number     Number       Type             X           Y           Z
 ---------------------------------------------------------------------
      1         11           0       -3.571404   -0.232169    0.019652
      2         11           0        2.658359   -2.248784   -0.026448
      3         11           0       -0.309448    3.028878    0.204364
      4         11           0       -0.346251    0.510914   -1.652717
      5         11           0       -0.013185    0.131321    1.679095
      6         11           0       -1.033137   -2.570353   -0.065580
      7         11           0        2.615065    1.380193   -0.158365
 ---------------------------------------------------------------------

 SCF Done:  E(UB3LYP) =  -1136.13326428     A.U. after   20 cycles

 The electronic state is 2-A.
 Alpha  occ. eigenvalues --  -38.44609 -38.44057 -38.43740 -38.43695 -38.43608
 Alpha  occ. eigenvalues --  -38.43137 -38.43030  -2.20390  -2.19919  -2.19545
 Alpha  occ. eigenvalues --   -2.19516  -2.19501  -2.19096  -2.18989  -1.14058
 Alpha  occ. eigenvalues --   -1.14051  -1.14029  -1.13605  -1.13595  -1.13545
 Alpha  occ. eigenvalues --   -1.13248  -1.13226  -1.13211  -1.13188  -1.13183
 Alpha  occ. eigenvalues --   -1.13168  -1.13164  -1.13139  -1.13122  -1.12799
 Alpha  occ. eigenvalues --   -1.12734  -1.12694  -1.12669  -1.12618  -1.12594
 Alpha  occ. eigenvalues --   -0.18538  -0.13143  -0.12430  -0.10132
 Alpha virt. eigenvalues --   -0.06042  -0.05294  -0.04952  -0.03033  -0.02594
 Alpha virt. eigenvalues --   -0.02038  -0.01937  -0.01361  -0.00580  -0.00437
 Alpha virt. eigenvalues --    0.00007   0.00298   0.00746   0.00779   0.00854

  Beta  occ. eigenvalues --  -38.44610 -38.44048 -38.43743 -38.43688 -38.43597
  Beta  occ. eigenvalues --  -38.43068 -38.42950  -2.20393  -2.19907  -2.19536
  Beta  occ. eigenvalues --   -2.19523  -2.19486  -2.18968  -2.18843  -1.14057
  Beta  occ. eigenvalues --   -1.14043  -1.14032  -1.13600  -1.13554  -1.13542
  Beta  occ. eigenvalues --   -1.13242  -1.13202  -1.13195  -1.13190  -1.13179
  Beta  occ. eigenvalues --   -1.13168  -1.13140  -1.13122  -1.13114  -1.12710
  Beta  occ. eigenvalues --   -1.12645  -1.12599  -1.12569  -1.12510  -1.12490
  Beta  occ. eigenvalues --   -0.17823  -0.12906  -0.12238
  Beta virt. eigenvalues --   -0.06252  -0.06000  -0.05262  -0.04918  -0.02240
  Beta virt. eigenvalues --   -0.01950  -0.01871  -0.01333  -0.00995  -0.00633
  Beta virt. eigenvalues --   -0.00437   0.00163   0.00337   0.00764   0.00792

 Mulliken charges and spin densities:
               1          2
     1  Na   0.148777  -0.111680
     2  Na  -0.188343  -0.073867
     3  Na   0.324763  -0.095970
     4  Na  -0.173514   0.631140
     5  Na  -0.180071   0.663880
     6  Na  -0.096147  -0.051326
     7  Na   0.164536   0.037822
 Sum of Mulliken charges =  -0.00000   1.00000

 Dipole moment (field-independent basis, Debye):
    X=             -0.4380    Y=              0.1797    Z=              0.0258  Tot=              0.4742
 Quadrupole moment (field-independent basis, Debye-Ang):
   XX=            -52.8882   YY=            -60.3888   ZZ=            -77.8614
   XY=             -0.3252   XZ=             -0.7692   YZ=              0.7900

 Normal termination of Gaussian 16 at Tue Dec  5 22:02:20 2023.
