 Gaussian 16, Revision B.01,
 Gaussian 16:  ES64L-G16RevB.01 20-Dec-2017

 -------------------------
 #P B3LYP/6-311+g(d) force
 -------------------------

 -----
 DPGEN
 -----
 Symbolic Z-matrix:
 Charge =  0 Multiplicity = 2

                         Standard orientation:
 ---------------------------------------------------------------------
 Center     Atomic      Atomic             Coordinates (Angstroms)
 Number     Number       Type             X           Y           Z
 ---------------------------------------------------------------------
      1         11           0        0.017136   -0.839320    2.211493
      2         11           0        2.591188    2.154908    0.085576
      3         11           0        0.166514    0.316129   -1.389723
      4         11           0       -3.224809   -0.251050   -0.011974
      5         11           0       -0.862161   -2.667053   -0.666916
      6         11           0        2.879743   -1.509773   -0.224845
      7         11           0       -1.567612    2.796158   -0.003611
 ---------------------------------------------------------------------

 SCF Done:  E(UB3LYP) =  -1136.13349515     A.U. after   19 cycles

 The electronic state is 2-A.
 Alpha  occ. eigenvalues --  -38.44378 -38.44317 -38.44221 -38.43705 -38.43622
 Alpha  occ. eigenvalues --  -38.43288 -38.43013  -2.20175  -2.20096  -2.20039
 Alpha  occ. eigenvalues --   -2.19508  -2.19463  -2.19158  -2.18987  -1.13855
 Alpha  occ. eigenvalues --   -1.13838  -1.13811  -1.13776  -1.13758  -1.13727
 Alpha  occ. eigenvalues --   -1.13711  -1.13699  -1.13688  -1.13197  -1.13170
 Alpha  occ. eigenvalues --   -1.13139  -1.13117  -1.13094  -1.13078  -1.12874
 Alpha  occ. eigenvalues --   -1.12807  -1.12782  -1.12678  -1.12627  -1.12611
 Alpha  occ. eigenvalues --   -0.18111  -0.13035  -0.12267  -0.10424
 Alpha virt. eigenvalues --   -0.05846  -0.05789  -0.04606  -0.03070  -0.02815
 Alpha virt. eigenvalues --   -0.02362  -0.01719  -0.01368  -0.00760  -0.00543
 Alpha virt. eigenvalues --   -0.00025   0.00320   0.00707   0.00770   0.00842

  Beta  occ. eigenvalues --  -38.44375 -38.44318 -38.44219 -38.43705 -38.43519
  Beta  occ. eigenvalues --  -38.43269 -38.42967  -2.20171  -2.20099  -2.20037
  Beta  occ. eigenvalues --   -2.19509  -2.19272  -2.19126  -2.18906  -1.13843
  Beta  occ. eigenvalues --   -1.13824  -1.13813  -1.13770  -1.13756  -1.13730
  Beta  occ. eigenvalues --   -1.13700  -1.13694  -1.13685  -1.13194  -1.13163
  Beta  occ. eigenvalues --   -1.13142  -1.12989  -1.12963  -1.12943  -1.12844
  Beta  occ. eigenvalues --   -1.12765  -1.12759  -1.12617  -1.12563  -1.12553
  Beta  occ. eigenvalues --   -0.17432  -0.12870  -0.12067
  Beta virt. eigenvalues --   -0.06466  -0.05849  -0.05722  -0.04518  -0.02373
  Beta virt. eigenvalues --   -0.02118  -0.01629  -0.01328  -0.01298  -0.00792
  Beta virt. eigenvalues --   -0.00556   0.00170   0.00373   0.00763   0.00798

 Mulliken charges and spin densities:
               1          2
     1  Na  -0.662736   0.771564
     2  Na  -0.068778  -0.035609
     3  Na   0.141032   0.207529
     4  Na   0.160603   0.038758
     5  Na   0.275446   0.068448
     6  Na   0.194056  -0.010875
     7  Na  -0.039623  -0.039815
 Sum of Mulliken charges =  -0.00000   1.00000

 Dipole moment (field-independent basis, Debye):
    X=              0.3249    Y=              0.0908    Z=              0.1349  Tot=              0.3633
 Quadrupole moment (field-independent basis, Debye-Ang):
   XX=            -53.7955   YY=            -62.3894   ZZ=            -76.4034
   XY=              0.0823   XZ=              0.1298   YZ=              2.4872

 Normal termination of Gaussian 16 at Thu Dec  7 03:08:52 2023.
