 Gaussian 16, Revision B.01,
 Gaussian 16:  ES64L-G16RevB.01 20-Dec-2017

 -------------------------
 #P B3LYP/6-311+g(d) force
 -------------------------

 -----
 DPGEN
 -----
 Symbolic Z-matrix:
 Charge =  0 Multiplicity = 2

                         Standard orientation:
 ---------------------------------------------------------------------
 Center     Atomic      Atomic             Coordinates (Angstroms)
 Number     Number       Type             X           Y           Z
 ---------------------------------------------------------------------
      1         11           0        1.695142    0.030979    1.988495
      2         11           0        1.858966    2.801951    0.108057
      3         11           0       -3.676017    0.868627   -0.501042
      4         11           0       -0.812276    0.710068   -1.639173
      5         11           0        2.534502   -0.888417   -1.291328
      6         11           0        0.207054   -2.783640   -0.525837
      7         11           0       -1.807371   -0.739567    1.860828
 ---------------------------------------------------------------------

 SCF Done:  E(UB3LYP) =  -1136.12708982     A.U. after   21 cycles

 The electronic state is 2-A.
 Alpha  occ. eigenvalues --  -38.44447 -38.44413 -38.44226 -38.44166 -38.44073
 Alpha  occ. eigenvalues --  -38.43127 -38.42972  -2.20282  -2.20268  -2.20095
 Alpha  occ. eigenvalues --   -2.20035  -2.19903  -2.18922  -2.18818  -1.13974
 Alpha  occ. eigenvalues --   -1.13935  -1.13927  -1.13918  -1.13905  -1.13875
 Alpha  occ. eigenvalues --   -1.13783  -1.13763  -1.13753  -1.13704  -1.13694
 Alpha  occ. eigenvalues --   -1.13673  -1.13552  -1.13539  -1.13520  -1.12598
 Alpha  occ. eigenvalues --   -1.12582  -1.12567  -1.12502  -1.12471  -1.12462
 Alpha  occ. eigenvalues --   -0.18009  -0.13316  -0.11956  -0.11594
 Alpha virt. eigenvalues --   -0.05868  -0.05129  -0.04608  -0.03492  -0.03214
 Alpha virt. eigenvalues --   -0.02986  -0.01661  -0.00884  -0.00621  -0.00013
 Alpha virt. eigenvalues --    0.00121   0.00250   0.00325   0.00633   0.00799

  Beta  occ. eigenvalues --  -38.44387 -38.44350 -38.44197 -38.44116 -38.44069
  Beta  occ. eigenvalues --  -38.43131 -38.42968  -2.20171  -2.20153  -2.20044
  Beta  occ. eigenvalues --   -2.19945  -2.19898  -2.18930  -2.18815  -1.13888
  Beta  occ. eigenvalues --   -1.13857  -1.13854  -1.13844  -1.13820  -1.13788
  Beta  occ. eigenvalues --   -1.13741  -1.13723  -1.13703  -1.13666  -1.13636
  Beta  occ. eigenvalues --   -1.13611  -1.13542  -1.13531  -1.13499  -1.12597
  Beta  occ. eigenvalues --   -1.12584  -1.12574  -1.12493  -1.12473  -1.12443
  Beta  occ. eigenvalues --   -0.17241  -0.13161  -0.11393
  Beta virt. eigenvalues --   -0.07995  -0.05720  -0.04636  -0.04241  -0.03193
  Beta virt. eigenvalues --   -0.02583  -0.02344  -0.01544  -0.00765  -0.00269
  Beta virt. eigenvalues --    0.00030   0.00251   0.00353   0.00410   0.00753

 Mulliken charges and spin densities:
               1          2
     1  Na  -0.028190   0.359063
     2  Na  -0.138283  -0.099228
     3  Na   0.150097  -0.068849
     4  Na  -0.233082   0.376937
     5  Na   0.514165   0.183509
     6  Na  -0.277329  -0.015860
     7  Na   0.012623   0.264428
 Sum of Mulliken charges =  -0.00000   1.00000

 Dipole moment (field-independent basis, Debye):
    X=             -0.3692    Y=             -0.0456    Z=              0.0923  Tot=              0.3833
 Quadrupole moment (field-independent basis, Debye-Ang):
   XX=            -58.5022   YY=            -71.9989   ZZ=            -66.5508
   XY=             -0.6958   XZ=             -1.6630   YZ=             -1.5808

 Normal termination of Gaussian 16 at Sun Dec  3 18:12:28 2023.
