 Gaussian 16, Revision B.01,
 Gaussian 16:  ES64L-G16RevB.01 20-Dec-2017

 -------------------------
 #P B3LYP/6-311+g(d) force
 -------------------------

 -----
 DPGEN
 -----
 Symbolic Z-matrix:
 Charge =  0 Multiplicity = 2

                         Standard orientation:
 ---------------------------------------------------------------------
 Center     Atomic      Atomic             Coordinates (Angstroms)
 Number     Number       Type             X           Y           Z
 ---------------------------------------------------------------------
      1         11           0        2.196017    3.584236    0.077420
      2         11           0        3.128639    0.754097   -1.301078
      3         11           0        2.157998   -2.384907    2.154714
      4         11           0        1.331758   -3.006482   -0.855952
      5         11           0       -1.179703    0.279822   -0.979384
      6         11           0       -4.779881   -0.757249   -0.943775
      7         11           0       -2.854826    1.530482    1.848055
 ---------------------------------------------------------------------

 SCF Done:  E(UB3LYP) =  -1136.10466672     A.U. after   22 cycles

 The electronic state is 2-A.
 Alpha  occ. eigenvalues --  -38.45069 -38.44915 -38.44870 -38.44238 -38.44218
 Alpha  occ. eigenvalues --  -38.44105 -38.43963  -2.20823  -2.20664  -2.20651
 Alpha  occ. eigenvalues --   -2.20029  -2.19997  -2.19863  -2.19756  -1.14528
 Alpha  occ. eigenvalues --   -1.14511  -1.14425  -1.14335  -1.14324  -1.14310
 Alpha  occ. eigenvalues --   -1.14299  -1.14292  -1.14270  -1.13697  -1.13686
 Alpha  occ. eigenvalues --   -1.13681  -1.13677  -1.13667  -1.13631  -1.13535
 Alpha  occ. eigenvalues --   -1.13519  -1.13489  -1.13415  -1.13408  -1.13354
 Alpha  occ. eigenvalues --   -0.15815  -0.13498  -0.12107  -0.09987
 Alpha virt. eigenvalues --   -0.07247  -0.05767  -0.05069  -0.03421  -0.02932
 Alpha virt. eigenvalues --   -0.02537  -0.02292  -0.01476  -0.01156  -0.00871
 Alpha virt. eigenvalues --   -0.00564  -0.00082   0.00016   0.00082   0.00406

  Beta  occ. eigenvalues --  -38.45061 -38.44876 -38.44838 -38.44240 -38.44207
  Beta  occ. eigenvalues --  -38.44114 -38.43878  -2.20811  -2.20591  -2.20590
  Beta  occ. eigenvalues --   -2.20036  -2.19977  -2.19880  -2.19596  -1.14517
  Beta  occ. eigenvalues --   -1.14476  -1.14421  -1.14284  -1.14270  -1.14266
  Beta  occ. eigenvalues --   -1.14258  -1.14252  -1.14223  -1.13702  -1.13686
  Beta  occ. eigenvalues --   -1.13674  -1.13667  -1.13654  -1.13622  -1.13547
  Beta  occ. eigenvalues --   -1.13528  -1.13496  -1.13304  -1.13299  -1.13247
  Beta  occ. eigenvalues --   -0.15449  -0.13054  -0.12073
  Beta virt. eigenvalues --   -0.06983  -0.06424  -0.05314  -0.04856  -0.03254
  Beta virt. eigenvalues --   -0.02728  -0.02340  -0.01837  -0.01225  -0.01013
  Beta virt. eigenvalues --   -0.00673  -0.00190   0.00059   0.00166   0.00381

 Mulliken charges and spin densities:
               1          2
     1  Na   0.139578  -0.012248
     2  Na   0.453292  -0.042546
     3  Na  -0.239414   0.191774
     4  Na   0.333354   0.048815
     5  Na  -1.229645   0.106580
     6  Na   0.336909   0.213687
     7  Na   0.205924   0.493936
 Sum of Mulliken charges =  -0.00000   1.00000

 Dipole moment (field-independent basis, Debye):
    X=              0.0567    Y=             -0.6795    Z=              0.3079  Tot=              0.7481
 Quadrupole moment (field-independent basis, Debye-Ang):
   XX=            -60.9505   YY=            -69.4886   ZZ=            -68.3400
   XY=              0.6083   XZ=              1.5639   YZ=              3.5798

 Normal termination of Gaussian 16 at Fri Dec  8 20:07:39 2023.
