 Gaussian 16, Revision B.01,
 Gaussian 16:  ES64L-G16RevB.01 20-Dec-2017

 -------------------------
 #P B3LYP/6-311+g(d) force
 -------------------------

 -----
 DPGEN
 -----
 Symbolic Z-matrix:
 Charge =  0 Multiplicity = 2

                         Standard orientation:
 ---------------------------------------------------------------------
 Center     Atomic      Atomic             Coordinates (Angstroms)
 Number     Number       Type             X           Y           Z
 ---------------------------------------------------------------------
      1         11           0        1.854787    1.891781   -0.782205
      2         11           0       -1.975671    1.807865   -0.612320
      3         11           0        1.987158   -1.375013   -1.455972
      4         11           0        3.375078   -0.413645    1.673543
      5         11           0       -1.479769   -1.407340   -1.327715
      6         11           0       -3.734577   -0.565116    1.189749
      7         11           0       -0.027006    0.061468    1.314920
 ---------------------------------------------------------------------

 SCF Done:  E(UB3LYP) =  -1136.12168569     A.U. after   50 cycles

 The electronic state is 2-A.
 Alpha  occ. eigenvalues --  -38.44890 -38.44818 -38.44722 -38.44020 -38.43880
 Alpha  occ. eigenvalues --  -38.42774 -38.42529  -2.20749  -2.20640  -2.20611
 Alpha  occ. eigenvalues --   -2.19947  -2.19709  -2.18642  -2.18428  -1.14437
 Alpha  occ. eigenvalues --   -1.14401  -1.14354  -1.14316  -1.14311  -1.14293
 Alpha  occ. eigenvalues --   -1.14273  -1.14257  -1.14196  -1.13683  -1.13615
 Alpha  occ. eigenvalues --   -1.13556  -1.13376  -1.13360  -1.13327  -1.12333
 Alpha  occ. eigenvalues --   -1.12312  -1.12262  -1.12133  -1.12112  -1.12019
 Alpha  occ. eigenvalues --   -0.18621  -0.14484  -0.11606  -0.10398
 Alpha virt. eigenvalues --   -0.06569  -0.05730  -0.04812  -0.03237  -0.02566
 Alpha virt. eigenvalues --   -0.02282  -0.02067  -0.01395  -0.00657  -0.00321
 Alpha virt. eigenvalues --    0.00126   0.00263   0.00335   0.00536   0.00560

  Beta  occ. eigenvalues --  -38.44838 -38.44793 -38.44670 -38.44007 -38.43848
  Beta  occ. eigenvalues --  -38.42765 -38.42521  -2.20655  -2.20592  -2.20518
  Beta  occ. eigenvalues --   -2.19928  -2.19649  -2.18628  -2.18414  -1.14372
  Beta  occ. eigenvalues --   -1.14334  -1.14276  -1.14275  -1.14259  -1.14256
  Beta  occ. eigenvalues --   -1.14231  -1.14197  -1.14114  -1.13632  -1.13600
  Beta  occ. eigenvalues --   -1.13549  -1.13331  -1.13316  -1.13294  -1.12315
  Beta  occ. eigenvalues --   -1.12304  -1.12249  -1.12125  -1.12092  -1.12007
  Beta  occ. eigenvalues --   -0.17923  -0.14224  -0.10259
  Beta virt. eigenvalues --   -0.07700  -0.06343  -0.05186  -0.04570  -0.02769
  Beta virt. eigenvalues --   -0.02440  -0.01757  -0.01622  -0.00912  -0.00487
  Beta virt. eigenvalues --   -0.00095   0.00172   0.00357   0.00423   0.00620

 Mulliken charges and spin densities:
               1          2
     1  Na   0.129019   0.110481
     2  Na   0.447088   0.211311
     3  Na  -0.091448   0.124559
     4  Na   0.562701   0.076138
     5  Na  -0.559747   0.108591
     6  Na   1.186445   0.101229
     7  Na  -1.674057   0.267691
 Sum of Mulliken charges =  -0.00000   1.00000

 Dipole moment (field-independent basis, Debye):
    X=             -0.6337    Y=              0.4675    Z=             -0.0346  Tot=              0.7883
 Quadrupole moment (field-independent basis, Debye-Ang):
   XX=            -48.3808   YY=            -69.5387   ZZ=            -76.1342
   XY=              0.8344   XZ=             -2.1932   YZ=             -8.8476

 Normal termination of Gaussian 16 at Tue Dec  5 11:25:18 2023.
