 Gaussian 16, Revision B.01,
 Gaussian 16:  ES64L-G16RevB.01 20-Dec-2017

 -------------------------
 #P B3LYP/6-311+g(d) force
 -------------------------

 -----
 DPGEN
 -----
 Symbolic Z-matrix:
 Charge =  0 Multiplicity = 2

                         Standard orientation:
 ---------------------------------------------------------------------
 Center     Atomic      Atomic             Coordinates (Angstroms)
 Number     Number       Type             X           Y           Z
 ---------------------------------------------------------------------
      1         11           0       -0.317092   -0.426440   -1.655067
      2         11           0       -0.800543   -1.505993    1.037809
      3         11           0       -3.000215   -0.088980   -0.487231
      4         11           0       -1.049803    1.718025    0.750783
      5         11           0        1.278638    0.345797    1.632842
      6         11           0        1.895066    1.636206   -0.961704
      7         11           0        1.993949   -1.678615   -0.317430
 ---------------------------------------------------------------------

 SCF Done:  E(UB3LYP) =  -1136.10140433     A.U. after   21 cycles

 The electronic state is 2-A.
 Alpha  occ. eigenvalues --  -38.44236 -38.44087 -38.43869 -38.43504 -38.43276
 Alpha  occ. eigenvalues --  -38.43196 -38.42931  -2.20273  -2.20228  -2.20045
 Alpha  occ. eigenvalues --   -2.19486  -2.19429  -2.19234  -2.19009  -1.14069
 Alpha  occ. eigenvalues --   -1.14038  -1.13961  -1.13922  -1.13905  -1.13860
 Alpha  occ. eigenvalues --   -1.13775  -1.13669  -1.13641  -1.13163  -1.13146
 Alpha  occ. eigenvalues --   -1.13128  -1.13077  -1.13057  -1.13031  -1.12898
 Alpha  occ. eigenvalues --   -1.12896  -1.12798  -1.12724  -1.12654  -1.12583
 Alpha  occ. eigenvalues --   -0.20971  -0.14040  -0.12567  -0.11933
 Alpha virt. eigenvalues --   -0.05516  -0.04199  -0.04144  -0.03608  -0.02995
 Alpha virt. eigenvalues --   -0.02915  -0.01295  -0.00452  -0.00307   0.00321
 Alpha virt. eigenvalues --    0.00678   0.00829   0.00910   0.01015   0.01080

  Beta  occ. eigenvalues --  -38.44228 -38.44016 -38.43796 -38.43475 -38.43233
  Beta  occ. eigenvalues --  -38.43185 -38.42907  -2.20216  -2.20149  -2.19914
  Beta  occ. eigenvalues --   -2.19436  -2.19355  -2.19220  -2.18973  -1.14008
  Beta  occ. eigenvalues --   -1.13975  -1.13885  -1.13870  -1.13854  -1.13821
  Beta  occ. eigenvalues --   -1.13698  -1.13575  -1.13557  -1.13126  -1.13096
  Beta  occ. eigenvalues --   -1.13082  -1.13039  -1.12993  -1.12961  -1.12885
  Beta  occ. eigenvalues --   -1.12858  -1.12776  -1.12688  -1.12616  -1.12548
  Beta  occ. eigenvalues --   -0.20129  -0.13779  -0.11702
  Beta virt. eigenvalues --   -0.08202  -0.05433  -0.04177  -0.03476  -0.03233
  Beta virt. eigenvalues --   -0.02245  -0.01923  -0.01225  -0.00414  -0.00072
  Beta virt. eigenvalues --    0.00349   0.00738   0.00820   0.01021   0.01050

 Mulliken charges and spin densities:
               1          2
     1  Na  -0.091947   0.516974
     2  Na  -0.471650   0.172380
     3  Na   0.871386  -0.039304
     4  Na  -0.790797   0.103600
     5  Na   0.738227   0.285464
     6  Na  -0.273076   0.027677
     7  Na   0.017858  -0.066792
 Sum of Mulliken charges =  -0.00000   1.00000

 Dipole moment (field-independent basis, Debye):
    X=             -0.1653    Y=              0.1083    Z=             -0.3666  Tot=              0.4165
 Quadrupole moment (field-independent basis, Debye-Ang):
   XX=            -56.4790   YY=            -73.7544   ZZ=            -65.8384
   XY=             -0.1169   XZ=             -0.5523   YZ=             -1.3805

 Normal termination of Gaussian 16 at Fri Dec  8 17:10:28 2023.
