 Gaussian 16, Revision B.01,
 Gaussian 16:  ES64L-G16RevB.01 20-Dec-2017

 -------------------------
 #P B3LYP/6-311+g(d) force
 -------------------------

 -----
 DPGEN
 -----
 Symbolic Z-matrix:
 Charge =  0 Multiplicity = 2

                         Standard orientation:
 ---------------------------------------------------------------------
 Center     Atomic      Atomic             Coordinates (Angstroms)
 Number     Number       Type             X           Y           Z
 ---------------------------------------------------------------------
      1         11           0        2.549020    2.672768    0.371055
      2         11           0        2.143996   -2.833368   -0.810285
      3         11           0        4.387652   -0.425612    0.542767
      4         11           0       -1.686881   -3.385174   -0.383975
      5         11           0       -0.498747    3.386386   -0.602952
      6         11           0       -3.153835   -1.197885    1.304881
      7         11           0       -3.741204    1.782885   -0.421491
 ---------------------------------------------------------------------

 SCF Done:  E(UB3LYP) =  -1136.10785762     A.U. after   24 cycles

 The electronic state is 2-A.
 Alpha  occ. eigenvalues --  -38.45499 -38.45213 -38.44565 -38.44508 -38.44130
 Alpha  occ. eigenvalues --  -38.43873 -38.43853  -2.21233  -2.21010  -2.20341
 Alpha  occ. eigenvalues --   -2.20290  -2.19934  -2.19687  -2.19659  -1.14920
 Alpha  occ. eigenvalues --   -1.14904  -1.14856  -1.14697  -1.14677  -1.14654
 Alpha  occ. eigenvalues --   -1.14010  -1.13994  -1.13979  -1.13972  -1.13968
 Alpha  occ. eigenvalues --   -1.13932  -1.13595  -1.13592  -1.13557  -1.13352
 Alpha  occ. eigenvalues --   -1.13332  -1.13316  -1.13309  -1.13297  -1.13291
 Alpha  occ. eigenvalues --   -0.15603  -0.13966  -0.13392  -0.10628
 Alpha virt. eigenvalues --   -0.07814  -0.04840  -0.04392  -0.03584  -0.03551
 Alpha virt. eigenvalues --   -0.02297  -0.02150  -0.01765  -0.01213  -0.00926
 Alpha virt. eigenvalues --   -0.00835  -0.00182   0.00215   0.00325   0.00730

  Beta  occ. eigenvalues --  -38.45483 -38.45203 -38.44540 -38.44491 -38.44085
  Beta  occ. eigenvalues --  -38.43827 -38.43784  -2.21208  -2.20998  -2.20296
  Beta  occ. eigenvalues --   -2.20265  -2.19853  -2.19603  -2.19532  -1.14905
  Beta  occ. eigenvalues --   -1.14890  -1.14816  -1.14687  -1.14673  -1.14613
  Beta  occ. eigenvalues --   -1.13980  -1.13968  -1.13958  -1.13954  -1.13936
  Beta  occ. eigenvalues --   -1.13878  -1.13542  -1.13537  -1.13491  -1.13295
  Beta  occ. eigenvalues --   -1.13274  -1.13261  -1.13222  -1.13213  -1.13208
  Beta  occ. eigenvalues --   -0.15072  -0.13286  -0.12583
  Beta virt. eigenvalues --   -0.08033  -0.07486  -0.04434  -0.03893  -0.03338
  Beta virt. eigenvalues --   -0.03319  -0.02010  -0.01884  -0.01556  -0.01079
  Beta virt. eigenvalues --   -0.00746  -0.00494  -0.00010   0.00276   0.00344

 Mulliken charges and spin densities:
               1          2
     1  Na   0.020366   0.161661
     2  Na  -0.205410   0.109596
     3  Na   0.341221   0.120707
     4  Na   0.048370   0.199440
     5  Na   0.032796   0.011940
     6  Na  -0.322677   0.059416
     7  Na   0.085333   0.337239
 Sum of Mulliken charges =  -0.00000   1.00000

 Dipole moment (field-independent basis, Debye):
    X=              0.2886    Y=             -0.5598    Z=              0.0755  Tot=              0.6343
 Quadrupole moment (field-independent basis, Debye-Ang):
   XX=            -63.4937   YY=            -70.4074   ZZ=            -67.9864
   XY=              0.6146   XZ=              0.8328   YZ=              1.3244

 Normal termination of Gaussian 16 at Sun Dec  3 13:55:37 2023.
