 Gaussian 16, Revision B.01,
 Gaussian 16:  ES64L-G16RevB.01 20-Dec-2017

 -------------------------
 #P B3LYP/6-311+g(d) force
 -------------------------

 -----
 DPGEN
 -----
 Symbolic Z-matrix:
 Charge =  0 Multiplicity = 2

                         Standard orientation:
 ---------------------------------------------------------------------
 Center     Atomic      Atomic             Coordinates (Angstroms)
 Number     Number       Type             X           Y           Z
 ---------------------------------------------------------------------
      1         11           0       -2.784427   -0.182029   -0.467424
      2         11           0       -2.252152    3.939163    0.466368
      3         11           0        2.591019   -0.351059   -1.098788
      4         11           0       -2.852725   -2.988289    1.178305
      5         11           0        5.089591   -0.107456    1.174205
      6         11           0        0.358912    2.454909   -0.406991
      7         11           0       -0.150217   -2.765239   -0.845675
 ---------------------------------------------------------------------

 SCF Done:  E(UB3LYP) =  -1136.11810302     A.U. after   19 cycles

 The electronic state is 2-A.
 Alpha  occ. eigenvalues --  -38.45403 -38.44516 -38.44414 -38.44404 -38.44392
 Alpha  occ. eigenvalues --  -38.43746 -38.42783  -2.21190  -2.20320  -2.20237
 Alpha  occ. eigenvalues --   -2.20212  -2.20206  -2.19550  -2.18597  -1.14896
 Alpha  occ. eigenvalues --   -1.14876  -1.14787  -1.14020  -1.13996  -1.13989
 Alpha  occ. eigenvalues --   -1.13913  -1.13896  -1.13887  -1.13880  -1.13868
 Alpha  occ. eigenvalues --   -1.13864  -1.13852  -1.13810  -1.13797  -1.13186
 Alpha  occ. eigenvalues --   -1.13185  -1.13165  -1.12284  -1.12277  -1.12245
 Alpha  occ. eigenvalues --   -0.16456  -0.13580  -0.13080  -0.10289
 Alpha virt. eigenvalues --   -0.06482  -0.06070  -0.04442  -0.03905  -0.02755
 Alpha virt. eigenvalues --   -0.01957  -0.01811  -0.01679  -0.01634  -0.01069
 Alpha virt. eigenvalues --   -0.00218  -0.00064   0.00096   0.00357   0.00546

  Beta  occ. eigenvalues --  -38.45391 -38.44514 -38.44418 -38.44379 -38.44347
  Beta  occ. eigenvalues --  -38.43639 -38.42781  -2.21170  -2.20314  -2.20213
  Beta  occ. eigenvalues --   -2.20190  -2.20131  -2.19349  -2.18601  -1.14878
  Beta  occ. eigenvalues --   -1.14848  -1.14774  -1.14019  -1.13994  -1.13983
  Beta  occ. eigenvalues --   -1.13870  -1.13869  -1.13861  -1.13856  -1.13847
  Beta  occ. eigenvalues --   -1.13837  -1.13815  -1.13814  -1.13738  -1.13050
  Beta  occ. eigenvalues --   -1.13048  -1.13035  -1.12293  -1.12286  -1.12194
  Beta  occ. eigenvalues --   -0.16054  -0.13443  -0.12391
  Beta virt. eigenvalues --   -0.06785  -0.06358  -0.05714  -0.03915  -0.03817
  Beta virt. eigenvalues --   -0.02682  -0.01846  -0.01601  -0.01372  -0.01087
  Beta virt. eigenvalues --   -0.00792   0.00043   0.00136   0.00351   0.00544

 Mulliken charges and spin densities:
               1          2
     1  Na  -0.403483   0.127669
     2  Na   0.542330   0.000777
     3  Na  -0.049094  -0.280725
     4  Na   0.554612   0.189066
     5  Na   0.113813   0.614855
     6  Na  -0.462505   0.058290
     7  Na  -0.295673   0.290068
 Sum of Mulliken charges =  -0.00000   1.00000

 Dipole moment (field-independent basis, Debye):
    X=             -2.5565    Y=             -0.1573    Z=              0.5332  Tot=              2.6162
 Quadrupole moment (field-independent basis, Debye-Ang):
   XX=            -72.7514   YY=            -56.9272   ZZ=            -69.5963
   XY=             -1.4905   XZ=             -0.8559   YZ=             -1.1691

 Normal termination of Gaussian 16 at Tue Nov 28 22:25:52 2023.
