 Gaussian 16, Revision B.01,
 Gaussian 16:  ES64L-G16RevB.01 20-Dec-2017

 -------------------------
 #P B3LYP/6-311+g(d) force
 -------------------------

 -----
 DPGEN
 -----
 Symbolic Z-matrix:
 Charge =  0 Multiplicity = 2

                         Standard orientation:
 ---------------------------------------------------------------------
 Center     Atomic      Atomic             Coordinates (Angstroms)
 Number     Number       Type             X           Y           Z
 ---------------------------------------------------------------------
      1         11           0        3.067600   -1.184630   -0.320962
      2         11           0        1.962014    2.223735    0.335062
      3         11           0       -1.572308    2.659245   -0.322289
      4         11           0       -0.082541    0.429790   -1.410219
      5         11           0        0.237054   -0.723342    2.181579
      6         11           0       -0.456299   -2.624770   -0.842706
      7         11           0       -3.155520   -0.780027    0.379535
 ---------------------------------------------------------------------

 SCF Done:  E(UB3LYP) =  -1136.13292225     A.U. after   18 cycles

 The electronic state is 2-A.
 Alpha  occ. eigenvalues --  -38.44148 -38.44066 -38.43921 -38.43783 -38.43544
 Alpha  occ. eigenvalues --  -38.43450 -38.43033  -2.19946  -2.19861  -2.19762
 Alpha  occ. eigenvalues --   -2.19621  -2.19403  -2.19323  -2.19073  -1.13618
 Alpha  occ. eigenvalues --   -1.13600  -1.13593  -1.13536  -1.13515  -1.13509
 Alpha  occ. eigenvalues --   -1.13424  -1.13400  -1.13369  -1.13324  -1.13290
 Alpha  occ. eigenvalues --   -1.13239  -1.13213  -1.13060  -1.13043  -1.13002
 Alpha  occ. eigenvalues --   -1.12968  -1.12927  -1.12732  -1.12695  -1.12672
 Alpha  occ. eigenvalues --   -0.18376  -0.12796  -0.12493  -0.10787
 Alpha virt. eigenvalues --   -0.05691  -0.05308  -0.04534  -0.03222  -0.02994
 Alpha virt. eigenvalues --   -0.02549  -0.01636  -0.01141  -0.00442  -0.00249
 Alpha virt. eigenvalues --   -0.00013   0.00339   0.00774   0.00845   0.00866

  Beta  occ. eigenvalues --  -38.44142 -38.44064 -38.43829 -38.43778 -38.43541
  Beta  occ. eigenvalues --  -38.43425 -38.42983  -2.19938  -2.19859  -2.19613
  Beta  occ. eigenvalues --   -2.19590  -2.19399  -2.19279  -2.18983  -1.13601
  Beta  occ. eigenvalues --   -1.13596  -1.13584  -1.13527  -1.13513  -1.13501
  Beta  occ. eigenvalues --   -1.13320  -1.13308  -1.13283  -1.13271  -1.13245
  Beta  occ. eigenvalues --   -1.13231  -1.13197  -1.13031  -1.13022  -1.13001
  Beta  occ. eigenvalues --   -1.12926  -1.12895  -1.12666  -1.12630  -1.12614
  Beta  occ. eigenvalues --   -0.17682  -0.12617  -0.12254
  Beta virt. eigenvalues --   -0.06868  -0.05594  -0.05279  -0.04446  -0.02500
  Beta virt. eigenvalues --   -0.02312  -0.01547  -0.01509  -0.01076  -0.00423
  Beta virt. eigenvalues --   -0.00250   0.00135   0.00375   0.00821   0.00867

 Mulliken charges and spin densities:
               1          2
     1  Na   0.063269  -0.050832
     2  Na   0.003576   0.057645
     3  Na   0.209683   0.017444
     4  Na   0.019887   0.134346
     5  Na  -0.558349   0.708606
     6  Na   0.249067   0.042819
     7  Na   0.012868   0.089972
 Sum of Mulliken charges =  -0.00000   1.00000

 Dipole moment (field-independent basis, Debye):
    X=              0.0769    Y=             -0.0941    Z=              0.3601  Tot=              0.3800
 Quadrupole moment (field-independent basis, Debye-Ang):
   XX=            -55.2170   YY=            -63.7243   ZZ=            -74.0061
   XY=             -0.3143   XZ=             -0.9802   YZ=              2.1594

 Normal termination of Gaussian 16 at Thu Dec  7 09:44:23 2023.
