 Gaussian 16, Revision B.01,
 Gaussian 16:  ES64L-G16RevB.01 20-Dec-2017

 -------------------------
 #P B3LYP/6-311+g(d) force
 -------------------------

 -----
 DPGEN
 -----
 Symbolic Z-matrix:
 Charge =  0 Multiplicity = 2

                         Standard orientation:
 ---------------------------------------------------------------------
 Center     Atomic      Atomic             Coordinates (Angstroms)
 Number     Number       Type             X           Y           Z
 ---------------------------------------------------------------------
      1         11           0       -1.994595   -1.580337   -1.266523
      2         11           0       -1.265098    2.133143   -0.410406
      3         11           0        3.431633   -1.247373    0.300626
      4         11           0        2.017122    2.052442   -0.090319
      5         11           0        0.269530   -0.626211    2.173266
      6         11           0        1.051279   -0.594644   -1.526118
      7         11           0       -3.509870   -0.137020    0.819474
 ---------------------------------------------------------------------

 SCF Done:  E(UB3LYP) =  -1136.12056341     A.U. after   25 cycles

 The electronic state is 2-A.
 Alpha  occ. eigenvalues --  -38.45180 -38.45008 -38.44464 -38.43944 -38.43697
 Alpha  occ. eigenvalues --  -38.43150 -38.42609  -2.20979  -2.20861  -2.20297
 Alpha  occ. eigenvalues --   -2.19840  -2.19677  -2.19036  -2.18469  -1.14647
 Alpha  occ. eigenvalues --   -1.14624  -1.14587  -1.14582  -1.14505  -1.14493
 Alpha  occ. eigenvalues --   -1.14013  -1.13946  -1.13937  -1.13555  -1.13482
 Alpha  occ. eigenvalues --   -1.13457  -1.13341  -1.13332  -1.13286  -1.12727
 Alpha  occ. eigenvalues --   -1.12696  -1.12654  -1.12148  -1.12142  -1.12101
 Alpha  occ. eigenvalues --   -0.18597  -0.14231  -0.11511  -0.11120
 Alpha virt. eigenvalues --   -0.06927  -0.05163  -0.04667  -0.03391  -0.02737
 Alpha virt. eigenvalues --   -0.02479  -0.02358  -0.00907  -0.00805  -0.00112
 Alpha virt. eigenvalues --    0.00123   0.00220   0.00283   0.00670   0.00797

  Beta  occ. eigenvalues --  -38.45095 -38.45005 -38.44476 -38.43904 -38.43635
  Beta  occ. eigenvalues --  -38.43145 -38.42606  -2.20856  -2.20821  -2.20321
  Beta  occ. eigenvalues --   -2.19767  -2.19567  -2.19028  -2.18464  -1.14579
  Beta  occ. eigenvalues --   -1.14540  -1.14514  -1.14500  -1.14481  -1.14467
  Beta  occ. eigenvalues --   -1.14026  -1.13963  -1.13942  -1.13486  -1.13434
  Beta  occ. eigenvalues --   -1.13403  -1.13270  -1.13244  -1.13210  -1.12715
  Beta  occ. eigenvalues --   -1.12685  -1.12652  -1.12148  -1.12119  -1.12104
  Beta  occ. eigenvalues --   -0.17855  -0.14169  -0.10933
  Beta virt. eigenvalues --   -0.07514  -0.06597  -0.05156  -0.04017  -0.03060
  Beta virt. eigenvalues --   -0.02296  -0.01906  -0.01828  -0.00837  -0.00453
  Beta virt. eigenvalues --   -0.00107   0.00187   0.00286   0.00404   0.00715

 Mulliken charges and spin densities:
               1          2
     1  Na  -0.046868  -0.003499
     2  Na  -0.512397   0.025547
     3  Na   0.849314   0.021769
     4  Na   0.193115   0.010951
     5  Na  -0.591799   0.489340
     6  Na  -0.557430   0.264764
     7  Na   0.666064   0.191127
 Sum of Mulliken charges =  -0.00000   1.00000

 Dipole moment (field-independent basis, Debye):
    X=             -0.0341    Y=             -0.2350    Z=              0.8271  Tot=              0.8605
 Quadrupole moment (field-independent basis, Debye-Ang):
   XX=            -48.9711   YY=            -77.5839   ZZ=            -69.5698
   XY=             -0.4571   XZ=             -0.8953   YZ=              0.7732

 Normal termination of Gaussian 16 at Thu Dec  7 19:14:33 2023.
