 Gaussian 16, Revision B.01,
 Gaussian 16:  ES64L-G16RevB.01 20-Dec-2017

 -------------------------
 #P B3LYP/6-311+g(d) force
 -------------------------

 -----
 DPGEN
 -----
 Symbolic Z-matrix:
 Charge =  0 Multiplicity = 2

                         Standard orientation:
 ---------------------------------------------------------------------
 Center     Atomic      Atomic             Coordinates (Angstroms)
 Number     Number       Type             X           Y           Z
 ---------------------------------------------------------------------
      1         11           0       -2.510213    1.793843    0.225116
      2         11           0       -3.693551   -1.389331   -0.464044
      3         11           0        3.581793    0.446303   -0.860387
      4         11           0       -0.206502   -0.912853   -1.684851
      5         11           0        2.314587   -1.922301    0.937631
      6         11           0       -0.344477   -0.274635    1.804315
      7         11           0        0.858364    2.258974    0.042220
 ---------------------------------------------------------------------

 SCF Done:  E(UB3LYP) =  -1136.12355145     A.U. after   24 cycles

 The electronic state is 2-A.
 Alpha  occ. eigenvalues --  -38.45106 -38.44838 -38.44181 -38.43919 -38.43813
 Alpha  occ. eigenvalues --  -38.43788 -38.42385  -2.20906  -2.20673  -2.19963
 Alpha  occ. eigenvalues --   -2.19775  -2.19754  -2.19657  -2.18268  -1.14612
 Alpha  occ. eigenvalues --   -1.14576  -1.14500  -1.14340  -1.14322  -1.14305
 Alpha  occ. eigenvalues --   -1.13639  -1.13631  -1.13597  -1.13482  -1.13460
 Alpha  occ. eigenvalues --   -1.13449  -1.13389  -1.13384  -1.13369  -1.13306
 Alpha  occ. eigenvalues --   -1.13290  -1.13286  -1.11961  -1.11947  -1.11894
 Alpha  occ. eigenvalues --   -0.18379  -0.14016  -0.11423  -0.11006
 Alpha virt. eigenvalues --   -0.07057  -0.05400  -0.04296  -0.03146  -0.02805
 Alpha virt. eigenvalues --   -0.02609  -0.02355  -0.01345  -0.00725  -0.00193
 Alpha virt. eigenvalues --    0.00070   0.00118   0.00410   0.00582   0.00717

  Beta  occ. eigenvalues --  -38.45077 -38.44800 -38.44178 -38.43916 -38.43753
  Beta  occ. eigenvalues --  -38.43723 -38.42381  -2.20852  -2.20603  -2.19960
  Beta  occ. eigenvalues --   -2.19771  -2.19596  -2.19592  -2.18264  -1.14571
  Beta  occ. eigenvalues --   -1.14534  -1.14461  -1.14289  -1.14272  -1.14257
  Beta  occ. eigenvalues --   -1.13637  -1.13623  -1.13594  -1.13459  -1.13445
  Beta  occ. eigenvalues --   -1.13385  -1.13360  -1.13288  -1.13273  -1.13261
  Beta  occ. eigenvalues --   -1.13241  -1.13193  -1.11962  -1.11936  -1.11872
  Beta  occ. eigenvalues --   -0.17717  -0.13754  -0.11017
  Beta virt. eigenvalues --   -0.07359  -0.06834  -0.05260  -0.03784  -0.02955
  Beta virt. eigenvalues --   -0.02582  -0.01927  -0.01679  -0.01173  -0.00465
  Beta virt. eigenvalues --   -0.00152   0.00124   0.00168   0.00522   0.00683

 Mulliken charges and spin densities:
               1          2
     1  Na   0.293001   0.068453
     2  Na   0.094739  -0.026728
     3  Na   0.538613   0.291449
     4  Na  -0.507924   0.376145
     5  Na  -0.023129  -0.094002
     6  Na   0.156961   0.477064
     7  Na  -0.552261  -0.092380
 Sum of Mulliken charges =  -0.00000   1.00000

 Dipole moment (field-independent basis, Debye):
    X=             -0.0394    Y=             -0.1615    Z=             -0.1893  Tot=              0.2519
 Quadrupole moment (field-independent basis, Debye-Ang):
   XX=            -50.1214   YY=            -74.4901   ZZ=            -71.2050
   XY=             -1.5907   XZ=             -2.0617   YZ=             -1.9694

 Normal termination of Gaussian 16 at Thu Dec  7 05:41:59 2023.
