 Gaussian 16, Revision B.01,
 Gaussian 16:  ES64L-G16RevB.01 20-Dec-2017

 -------------------------
 #P B3LYP/6-311+g(d) force
 -------------------------

 -----
 DPGEN
 -----
 Symbolic Z-matrix:
 Charge =  0 Multiplicity = 2

                         Standard orientation:
 ---------------------------------------------------------------------
 Center     Atomic      Atomic             Coordinates (Angstroms)
 Number     Number       Type             X           Y           Z
 ---------------------------------------------------------------------
      1         11           0       -0.562186    2.586004   -0.957353
      2         11           0       -2.973682   -0.205138    1.470970
      3         11           0        0.023530   -2.454520   -0.601394
      4         11           0        0.352162    1.073399    2.260984
      5         11           0        2.495344    1.133454   -1.251861
      6         11           0        3.071798   -1.357852    0.722805
      7         11           0       -2.406966   -0.775347   -1.644151
 ---------------------------------------------------------------------

 SCF Done:  E(UB3LYP) =  -1136.12503827     A.U. after   21 cycles

 The electronic state is 2-A.
 Alpha  occ. eigenvalues --  -38.44969 -38.44515 -38.44438 -38.43856 -38.43710
 Alpha  occ. eigenvalues --  -38.43564 -38.43366  -2.20774  -2.20315  -2.20262
 Alpha  occ. eigenvalues --   -2.19724  -2.19537  -2.19377  -2.19178  -1.14449
 Alpha  occ. eigenvalues --   -1.14429  -1.14403  -1.13986  -1.13953  -1.13940
 Alpha  occ. eigenvalues --   -1.13939  -1.13919  -1.13896  -1.13427  -1.13374
 Alpha  occ. eigenvalues --   -1.13347  -1.13210  -1.13191  -1.13179  -1.13069
 Alpha  occ. eigenvalues --   -1.13045  -1.12985  -1.12858  -1.12826  -1.12812
 Alpha  occ. eigenvalues --   -0.17571  -0.13423  -0.11790  -0.11586
 Alpha virt. eigenvalues --   -0.06134  -0.05173  -0.04742  -0.03589  -0.03375
 Alpha virt. eigenvalues --   -0.02912  -0.01617  -0.00812  -0.00488  -0.00309
 Alpha virt. eigenvalues --    0.00138   0.00169   0.00356   0.00412   0.00728

  Beta  occ. eigenvalues --  -38.44939 -38.44450 -38.44413 -38.43829 -38.43703
  Beta  occ. eigenvalues --  -38.43558 -38.43337  -2.20718  -2.20217  -2.20195
  Beta  occ. eigenvalues --   -2.19674  -2.19524  -2.19368  -2.19127  -1.14401
  Beta  occ. eigenvalues --   -1.14394  -1.14359  -1.13905  -1.13899  -1.13889
  Beta  occ. eigenvalues --   -1.13872  -1.13867  -1.13844  -1.13391  -1.13341
  Beta  occ. eigenvalues --   -1.13309  -1.13200  -1.13182  -1.13169  -1.13054
  Beta  occ. eigenvalues --   -1.13035  -1.12980  -1.12817  -1.12790  -1.12772
  Beta  occ. eigenvalues --   -0.16921  -0.13259  -0.11483
  Beta virt. eigenvalues --   -0.07831  -0.05991  -0.04715  -0.04355  -0.03409
  Beta virt. eigenvalues --   -0.02781  -0.02130  -0.01545  -0.00538  -0.00385
  Beta virt. eigenvalues --   -0.00115   0.00180   0.00282   0.00433   0.00562

 Mulliken charges and spin densities:
               1          2
     1  Na  -0.040115   0.191569
     2  Na   0.331682  -0.113735
     3  Na  -0.378538   0.057048
     4  Na  -0.438299   0.582460
     5  Na   0.069284  -0.034885
     6  Na   0.374189  -0.020293
     7  Na   0.081797   0.337836
 Sum of Mulliken charges =  -0.00000   1.00000

 Dipole moment (field-independent basis, Debye):
    X=             -0.2004    Y=              0.1098    Z=              0.3487  Tot=              0.4169
 Quadrupole moment (field-independent basis, Debye-Ang):
   XX=            -57.4485   YY=            -75.3258   ZZ=            -65.6060
   XY=             -0.5444   XZ=             -0.3823   YZ=             -2.4337

 Normal termination of Gaussian 16 at Sun Dec  3 12:33:33 2023.
