 Gaussian 16, Revision B.01,
 Gaussian 16:  ES64L-G16RevB.01 20-Dec-2017

 -------------------------
 #P B3LYP/6-311+g(d) force
 -------------------------

 -----
 DPGEN
 -----
 Symbolic Z-matrix:
 Charge =  0 Multiplicity = 2

                         Standard orientation:
 ---------------------------------------------------------------------
 Center     Atomic      Atomic             Coordinates (Angstroms)
 Number     Number       Type             X           Y           Z
 ---------------------------------------------------------------------
      1         11           0        2.362350    2.905411   -0.348479
      2         11           0       -1.382332    3.194533    0.463845
      3         11           0       -3.776719   -2.251766   -0.167521
      4         11           0       -0.295676   -2.352090    0.661753
      5         11           0       -4.100856    1.136147   -0.351494
      6         11           0        2.686564   -2.678057   -0.411606
      7         11           0        4.506668    0.045823    0.153502
 ---------------------------------------------------------------------

 SCF Done:  E(UB3LYP) =  -1136.10875185     A.U. after   24 cycles

 The electronic state is 2-A.
 Alpha  occ. eigenvalues --  -38.45477 -38.44976 -38.44973 -38.44746 -38.44155
 Alpha  occ. eigenvalues --  -38.43878 -38.43658  -2.21250  -2.20770  -2.20708
 Alpha  occ. eigenvalues --   -2.20541  -2.19986  -2.19692  -2.19441  -1.14932
 Alpha  occ. eigenvalues --   -1.14912  -1.14890  -1.14450  -1.14436  -1.14404
 Alpha  occ. eigenvalues --   -1.14399  -1.14388  -1.14337  -1.14209  -1.14194
 Alpha  occ. eigenvalues --   -1.14173  -1.13653  -1.13638  -1.13626  -1.13343
 Alpha  occ. eigenvalues --   -1.13338  -1.13328  -1.13104  -1.13098  -1.13066
 Alpha  occ. eigenvalues --   -0.15830  -0.14253  -0.13058  -0.10654
 Alpha virt. eigenvalues --   -0.07813  -0.04784  -0.04488  -0.03595  -0.03448
 Alpha virt. eigenvalues --   -0.02715  -0.02160  -0.01986  -0.01084  -0.00511
 Alpha virt. eigenvalues --   -0.00318  -0.00180   0.00081   0.00351   0.00467

  Beta  occ. eigenvalues --  -38.45455 -38.44974 -38.44942 -38.44708 -38.44132
  Beta  occ. eigenvalues --  -38.43823 -38.43607  -2.21217  -2.20713  -2.20713
  Beta  occ. eigenvalues --   -2.20471  -2.19948  -2.19590  -2.19347  -1.14916
  Beta  occ. eigenvalues --   -1.14896  -1.14820  -1.14412  -1.14406  -1.14401
  Beta  occ. eigenvalues --   -1.14395  -1.14340  -1.14316  -1.14164  -1.14149
  Beta  occ. eigenvalues --   -1.14117  -1.13619  -1.13613  -1.13592  -1.13273
  Beta  occ. eigenvalues --   -1.13265  -1.13261  -1.13040  -1.13034  -1.13004
  Beta  occ. eigenvalues --   -0.15296  -0.13524  -0.12403
  Beta virt. eigenvalues --   -0.08010  -0.07432  -0.04418  -0.04042  -0.03360
  Beta virt. eigenvalues --   -0.02968  -0.02512  -0.01980  -0.01784  -0.00904
  Beta virt. eigenvalues --   -0.00340  -0.00114   0.00083   0.00278   0.00361

 Mulliken charges and spin densities:
               1          2
     1  Na   0.028792  -0.016758
     2  Na  -0.006653   0.209488
     3  Na   0.608708   0.269211
     4  Na  -0.858485   0.161026
     5  Na   0.006861   0.134996
     6  Na   0.289005   0.018937
     7  Na  -0.068229   0.223100
 Sum of Mulliken charges =  -0.00000   1.00000

 Dipole moment (field-independent basis, Debye):
    X=              0.1616    Y=             -0.4468    Z=             -0.1476  Tot=              0.4975
 Quadrupole moment (field-independent basis, Debye-Ang):
   XX=            -57.7149   YY=            -70.0995   ZZ=            -72.2426
   XY=             -3.5692   XZ=              0.6941   YZ=             -0.1439

 Normal termination of Gaussian 16 at Sun Dec  3 11:43:56 2023.
