 Gaussian 16, Revision B.01,
 Gaussian 16:  ES64L-G16RevB.01 20-Dec-2017

 -------------------------
 #P B3LYP/6-311+g(d) force
 -------------------------

 -----
 DPGEN
 -----
 Symbolic Z-matrix:
 Charge =  0 Multiplicity = 2

                         Standard orientation:
 ---------------------------------------------------------------------
 Center     Atomic      Atomic             Coordinates (Angstroms)
 Number     Number       Type             X           Y           Z
 ---------------------------------------------------------------------
      1         11           0        1.986733    0.330098    0.930026
      2         11           0        2.618215   -2.519465   -0.294477
      3         11           0       -0.805450   -2.018202    0.957101
      4         11           0        1.631938    2.925498   -0.832570
      5         11           0       -1.586819    1.940647    1.453541
      6         11           0       -3.541653   -0.747470   -0.830197
      7         11           0       -0.302963    0.088894   -1.383424
 ---------------------------------------------------------------------

 SCF Done:  E(UB3LYP) =  -1136.13099039     A.U. after   19 cycles

 The electronic state is 2-A.
 Alpha  occ. eigenvalues --  -38.44071 -38.43950 -38.43893 -38.43879 -38.43415
 Alpha  occ. eigenvalues --  -38.43335 -38.43316  -2.19875  -2.19765  -2.19746
 Alpha  occ. eigenvalues --   -2.19707  -2.19299  -2.19269  -2.19254  -1.13539
 Alpha  occ. eigenvalues --   -1.13528  -1.13492  -1.13483  -1.13437  -1.13432
 Alpha  occ. eigenvalues --   -1.13411  -1.13406  -1.13398  -1.13363  -1.13347
 Alpha  occ. eigenvalues --   -1.13310  -1.13060  -1.13003  -1.12964  -1.12941
 Alpha  occ. eigenvalues --   -1.12925  -1.12903  -1.12884  -1.12874  -1.12825
 Alpha  occ. eigenvalues --   -0.18268  -0.13099  -0.12415  -0.10293
 Alpha virt. eigenvalues --   -0.05783  -0.05502  -0.04694  -0.03162  -0.02797
 Alpha virt. eigenvalues --   -0.02009  -0.01774  -0.01459  -0.00741  -0.00227
 Alpha virt. eigenvalues --    0.00180   0.00267   0.00541   0.00724   0.00737

  Beta  occ. eigenvalues --  -38.44003 -38.43930 -38.43898 -38.43864 -38.43400
  Beta  occ. eigenvalues --  -38.43303 -38.43290  -2.19751  -2.19731  -2.19721
  Beta  occ. eigenvalues --   -2.19717  -2.19249  -2.19228  -2.19219  -1.13477
  Beta  occ. eigenvalues --   -1.13448  -1.13437  -1.13415  -1.13411  -1.13403
  Beta  occ. eigenvalues --   -1.13398  -1.13374  -1.13369  -1.13363  -1.13348
  Beta  occ. eigenvalues --   -1.13300  -1.13024  -1.12974  -1.12922  -1.12897
  Beta  occ. eigenvalues --   -1.12887  -1.12866  -1.12854  -1.12826  -1.12812
  Beta  occ. eigenvalues --   -0.17625  -0.12840  -0.12202
  Beta virt. eigenvalues --   -0.06567  -0.05626  -0.05301  -0.04577  -0.02598
  Beta virt. eigenvalues --   -0.02283  -0.01756  -0.01406  -0.01099  -0.00357
  Beta virt. eigenvalues --   -0.00214   0.00266   0.00356   0.00650   0.00768

 Mulliken charges and spin densities:
               1          2
     1  Na   0.192644   0.422025
     2  Na   0.193289  -0.117731
     3  Na  -0.025054   0.184622
     4  Na   0.179803  -0.093548
     5  Na  -0.397895   0.316569
     6  Na   0.410176   0.056375
     7  Na  -0.552963   0.231687
 Sum of Mulliken charges =  -0.00000   1.00000

 Dipole moment (field-independent basis, Debye):
    X=             -0.2591    Y=             -0.2249    Z=             -0.0206  Tot=              0.3437
 Quadrupole moment (field-independent basis, Debye-Ang):
   XX=            -56.3083   YY=            -61.9716   ZZ=            -73.2186
   XY=             -1.0601   XZ=             -1.0601   YZ=              0.0314

 Normal termination of Gaussian 16 at Tue Dec  5 21:15:34 2023.
