 Gaussian 16, Revision B.01,
 Gaussian 16:  ES64L-G16RevB.01 20-Dec-2017

 -------------------------
 #P B3LYP/6-311+g(d) force
 -------------------------

 -----
 DPGEN
 -----
 Symbolic Z-matrix:
 Charge =  0 Multiplicity = 2

                         Standard orientation:
 ---------------------------------------------------------------------
 Center     Atomic      Atomic             Coordinates (Angstroms)
 Number     Number       Type             X           Y           Z
 ---------------------------------------------------------------------
      1         11           0       -2.172643   -1.153154    1.744003
      2         11           0       -0.459460    3.241078    0.152290
      3         11           0        2.750492    1.560568   -0.004490
      4         11           0        2.969412   -1.912946    0.082302
      5         11           0        0.404115    0.079598    0.038943
      6         11           0       -2.706520    0.565306   -1.056806
      7         11           0       -0.785395   -2.380451   -0.956241
 ---------------------------------------------------------------------

 SCF Done:  E(UB3LYP) =  -1136.12021085     A.U. after   22 cycles

 The electronic state is 2-A.
 Alpha  occ. eigenvalues --  -38.44457 -38.44309 -38.44007 -38.43864 -38.43756
 Alpha  occ. eigenvalues --  -38.43149 -38.42813  -2.20338  -2.20123  -2.19886
 Alpha  occ. eigenvalues --   -2.19781  -2.19569  -2.19063  -2.19010  -1.14163
 Alpha  occ. eigenvalues --   -1.13980  -1.13911  -1.13796  -1.13780  -1.13758
 Alpha  occ. eigenvalues --   -1.13584  -1.13554  -1.13547  -1.13506  -1.13428
 Alpha  occ. eigenvalues --   -1.13364  -1.13252  -1.13231  -1.13204  -1.12756
 Alpha  occ. eigenvalues --   -1.12705  -1.12694  -1.12679  -1.12648  -1.12598
 Alpha  occ. eigenvalues --   -0.18516  -0.13779  -0.12616  -0.09784
 Alpha virt. eigenvalues --   -0.06018  -0.05689  -0.04929  -0.03070  -0.02286
 Alpha virt. eigenvalues --   -0.01932  -0.01559  -0.01235  -0.00821  -0.00685
 Alpha virt. eigenvalues --   -0.00059   0.00328   0.00661   0.00760   0.00769

  Beta  occ. eigenvalues --  -38.44455 -38.44311 -38.43972 -38.43837 -38.43757
  Beta  occ. eigenvalues --  -38.43060 -38.42794  -2.20335  -2.20129  -2.19824
  Beta  occ. eigenvalues --   -2.19734  -2.19573  -2.18982  -2.18898  -1.14160
  Beta  occ. eigenvalues --   -1.13971  -1.13914  -1.13800  -1.13780  -1.13760
  Beta  occ. eigenvalues --   -1.13551  -1.13515  -1.13482  -1.13466  -1.13359
  Beta  occ. eigenvalues --   -1.13334  -1.13255  -1.13227  -1.13203  -1.12721
  Beta  occ. eigenvalues --   -1.12622  -1.12588  -1.12577  -1.12566  -1.12563
  Beta  occ. eigenvalues --   -0.17937  -0.13534  -0.12438
  Beta virt. eigenvalues --   -0.06022  -0.05835  -0.05508  -0.04754  -0.02516
  Beta virt. eigenvalues --   -0.01868  -0.01694  -0.01410  -0.00749  -0.00687
  Beta virt. eigenvalues --   -0.00483   0.00239   0.00443   0.00719   0.00768

 Mulliken charges and spin densities:
               1          2
     1  Na   0.260587   0.180655
     2  Na   1.264246   0.073066
     3  Na  -0.649028  -0.368574
     4  Na   0.641165  -0.141645
     5  Na  -4.330069   0.653116
     6  Na   1.258666   0.308237
     7  Na   1.554434   0.295146
 Sum of Mulliken charges =  -0.00000   1.00000

 Dipole moment (field-independent basis, Debye):
    X=              0.7538    Y=              0.1489    Z=             -0.2835  Tot=              0.8190
 Quadrupole moment (field-independent basis, Debye-Ang):
   XX=            -54.5230   YY=            -58.9369   ZZ=            -77.2876
   XY=             -2.7772   XZ=              2.0079   YZ=              1.3304

 Normal termination of Gaussian 16 at Thu Dec  7 16:08:06 2023.
