 Gaussian 16, Revision B.01,
 Gaussian 16:  ES64L-G16RevB.01 20-Dec-2017

 -------------------------
 #P B3LYP/6-311+g(d) force
 -------------------------

 -----
 DPGEN
 -----
 Symbolic Z-matrix:
 Charge =  0 Multiplicity = 2

                         Standard orientation:
 ---------------------------------------------------------------------
 Center     Atomic      Atomic             Coordinates (Angstroms)
 Number     Number       Type             X           Y           Z
 ---------------------------------------------------------------------
      1         11           0        0.395836    2.790687    0.149383
      2         11           0        1.808913   -2.351816   -0.031910
      3         11           0       -3.274482    1.155618   -0.407789
      4         11           0       -0.339808   -0.216572    2.232072
      5         11           0       -2.113615   -2.066306   -0.248824
      6         11           0        3.265717    0.769690   -0.222162
      7         11           0        0.257439   -0.081301   -1.470770
 ---------------------------------------------------------------------

 SCF Done:  E(UB3LYP) =  -1136.13358210     A.U. after   20 cycles

 The electronic state is 2-A.
 Alpha  occ. eigenvalues --  -38.44495 -38.44337 -38.43712 -38.43680 -38.43391
 Alpha  occ. eigenvalues --  -38.43365 -38.43120  -2.20276  -2.20166  -2.19570
 Alpha  occ. eigenvalues --   -2.19529  -2.19359  -2.19250  -2.18951  -1.13947
 Alpha  occ. eigenvalues --   -1.13934  -1.13912  -1.13843  -1.13825  -1.13802
 Alpha  occ. eigenvalues --   -1.13240  -1.13224  -1.13212  -1.13186  -1.13172
 Alpha  occ. eigenvalues --   -1.13149  -1.13095  -1.13041  -1.12981  -1.12908
 Alpha  occ. eigenvalues --   -1.12889  -1.12867  -1.12642  -1.12618  -1.12571
 Alpha  occ. eigenvalues --   -0.18386  -0.13297  -0.12002  -0.10712
 Alpha virt. eigenvalues --   -0.06129  -0.05355  -0.04289  -0.03237  -0.02680
 Alpha virt. eigenvalues --   -0.02610  -0.01958  -0.01241  -0.00411  -0.00350
 Alpha virt. eigenvalues --   -0.00065   0.00287   0.00697   0.00829   0.00863

  Beta  occ. eigenvalues --  -38.44486 -38.44334 -38.43672 -38.43601 -38.43387
  Beta  occ. eigenvalues --  -38.43324 -38.43115  -2.20260  -2.20162  -2.19518
  Beta  occ. eigenvalues --   -2.19363  -2.19284  -2.19246  -2.18945  -1.13930
  Beta  occ. eigenvalues --   -1.13919  -1.13902  -1.13832  -1.13821  -1.13800
  Beta  occ. eigenvalues --   -1.13222  -1.13178  -1.13139  -1.13088  -1.13059
  Beta  occ. eigenvalues --   -1.13051  -1.13033  -1.12983  -1.12930  -1.12893
  Beta  occ. eigenvalues --   -1.12866  -1.12856  -1.12637  -1.12593  -1.12570
  Beta  occ. eigenvalues --   -0.17702  -0.13043  -0.11804
  Beta virt. eigenvalues --   -0.06788  -0.06020  -0.05353  -0.04240  -0.02530
  Beta virt. eigenvalues --   -0.01941  -0.01837  -0.01534  -0.01207  -0.00443
  Beta virt. eigenvalues --   -0.00357   0.00111   0.00342   0.00783   0.00831

 Mulliken charges and spin densities:
               1          2
     1  Na   0.049898  -0.004718
     2  Na   0.301414   0.012166
     3  Na   0.009120   0.023371
     4  Na  -0.550513   0.731303
     5  Na   0.319954   0.058338
     6  Na   0.225762   0.001775
     7  Na  -0.355634   0.177765
 Sum of Mulliken charges =  -0.00000   1.00000

 Dipole moment (field-independent basis, Debye):
    X=             -0.0277    Y=              0.0379    Z=              0.1349  Tot=              0.1428
 Quadrupole moment (field-independent basis, Debye-Ang):
   XX=            -52.4827   YY=            -65.9794   ZZ=            -74.5945
   XY=             -0.5753   XZ=              1.0356   YZ=             -0.0580

 Normal termination of Gaussian 16 at Thu Dec  7 07:51:12 2023.
