 Gaussian 16, Revision B.01,
 Gaussian 16:  ES64L-G16RevB.01 20-Dec-2017

 -------------------------
 #P B3LYP/6-311+g(d) force
 -------------------------

 -----
 DPGEN
 -----
 Symbolic Z-matrix:
 Charge =  0 Multiplicity = 2

                         Standard orientation:
 ---------------------------------------------------------------------
 Center     Atomic      Atomic             Coordinates (Angstroms)
 Number     Number       Type             X           Y           Z
 ---------------------------------------------------------------------
      1         11           0       -3.392940    0.315156    0.427943
      2         11           0        3.377269   -1.001711   -0.314965
      3         11           0        2.302364    2.479825    0.229457
      4         11           0       -1.639778    2.875855   -0.170553
      5         11           0       -1.485112   -2.957148   -0.767728
      6         11           0        0.541433   -1.736999    1.597084
      7         11           0        0.296762    0.025022   -1.001239
 ---------------------------------------------------------------------

 SCF Done:  E(UB3LYP) =  -1136.12277388     A.U. after   22 cycles

 The electronic state is 2-A.
 Alpha  occ. eigenvalues --  -38.44525 -38.44389 -38.44109 -38.44054 -38.43503
 Alpha  occ. eigenvalues --  -38.43394 -38.43352  -2.20350  -2.20184  -2.19982
 Alpha  occ. eigenvalues --   -2.19873  -2.19330  -2.19326  -2.19238  -1.14038
 Alpha  occ. eigenvalues --   -1.14000  -1.13982  -1.13858  -1.13843  -1.13807
 Alpha  occ. eigenvalues --   -1.13701  -1.13632  -1.13582  -1.13555  -1.13537
 Alpha  occ. eigenvalues --   -1.13493  -1.13059  -1.13018  -1.12997  -1.12975
 Alpha  occ. eigenvalues --   -1.12954  -1.12943  -1.12891  -1.12879  -1.12859
 Alpha  occ. eigenvalues --   -0.17792  -0.13419  -0.12848  -0.09380
 Alpha virt. eigenvalues --   -0.06501  -0.05924  -0.04944  -0.02828  -0.02600
 Alpha virt. eigenvalues --   -0.02186  -0.01947  -0.01299  -0.01230  -0.00739
 Alpha virt. eigenvalues --    0.00045   0.00258   0.00480   0.00509   0.00729

  Beta  occ. eigenvalues --  -38.44509 -38.44370 -38.44075 -38.44018 -38.43497
  Beta  occ. eigenvalues --  -38.43347 -38.43329  -2.20324  -2.20150  -2.19921
  Beta  occ. eigenvalues --   -2.19809  -2.19324  -2.19284  -2.19151  -1.14020
  Beta  occ. eigenvalues --   -1.13977  -1.13952  -1.13834  -1.13815  -1.13784
  Beta  occ. eigenvalues --   -1.13661  -1.13589  -1.13526  -1.13513  -1.13491
  Beta  occ. eigenvalues --   -1.13436  -1.13021  -1.13013  -1.12995  -1.12957
  Beta  occ. eigenvalues --   -1.12925  -1.12900  -1.12828  -1.12819  -1.12805
  Beta  occ. eigenvalues --   -0.17404  -0.12964  -0.12417
  Beta virt. eigenvalues --   -0.06336  -0.05987  -0.05778  -0.04758  -0.02371
  Beta virt. eigenvalues --   -0.02209  -0.01953  -0.01703  -0.01053  -0.00839
  Beta virt. eigenvalues --   -0.00586   0.00208   0.00358   0.00597   0.00682

 Mulliken charges and spin densities:
               1          2
     1  Na  -0.114555   0.213835
     2  Na   0.509986   0.131180
     3  Na  -0.094173   0.080552
     4  Na   0.037081   0.073402
     5  Na   0.255041   0.134082
     6  Na  -0.358442   0.267580
     7  Na  -0.234938   0.099369
 Sum of Mulliken charges =  -0.00000   1.00000

 Dipole moment (field-independent basis, Debye):
    X=              0.9082    Y=             -0.0816    Z=              0.1642  Tot=              0.9265
 Quadrupole moment (field-independent basis, Debye-Ang):
   XX=            -59.7295   YY=            -64.5615   ZZ=            -72.4572
   XY=              4.5393   XZ=             -1.5577   YZ=              2.0024

 Normal termination of Gaussian 16 at Tue Dec  5 16:31:18 2023.
