 Gaussian 16, Revision B.01,
 Gaussian 16:  ES64L-G16RevB.01 20-Dec-2017

 -------------------------
 #P B3LYP/6-311+g(d) force
 -------------------------

 -----
 DPGEN
 -----
 Symbolic Z-matrix:
 Charge =  0 Multiplicity = 2

                         Standard orientation:
 ---------------------------------------------------------------------
 Center     Atomic      Atomic             Coordinates (Angstroms)
 Number     Number       Type             X           Y           Z
 ---------------------------------------------------------------------
      1         11           0        2.939210   -0.737036   -1.544661
      2         11           0       -4.145765   -1.473551    0.293702
      3         11           0       -1.919559    2.437206   -0.911025
      4         11           0       -1.318993   -1.227448   -1.218747
      5         11           0       -1.564260   -0.012303    1.887164
      6         11           0        1.458546    1.782879    0.466816
      7         11           0        4.550822   -0.769747    1.026750
 ---------------------------------------------------------------------

 SCF Done:  E(UB3LYP) =  -1136.11533232     A.U. after   22 cycles

 The electronic state is 2-A.
 Alpha  occ. eigenvalues --  -38.44546 -38.44527 -38.44390 -38.44351 -38.43813
 Alpha  occ. eigenvalues --  -38.43798 -38.43437  -2.20359  -2.20298  -2.20256
 Alpha  occ. eigenvalues --   -2.20190  -2.19674  -2.19616  -2.19275  -1.14090
 Alpha  occ. eigenvalues --   -1.14010  -1.13995  -1.13975  -1.13967  -1.13963
 Alpha  occ. eigenvalues --   -1.13928  -1.13906  -1.13853  -1.13842  -1.13839
 Alpha  occ. eigenvalues --   -1.13789  -1.13372  -1.13327  -1.13322  -1.13310
 Alpha  occ. eigenvalues --   -1.13286  -1.13200  -1.12936  -1.12933  -1.12912
 Alpha  occ. eigenvalues --   -0.17343  -0.14389  -0.11204  -0.10325
 Alpha virt. eigenvalues --   -0.06958  -0.05402  -0.05310  -0.03050  -0.02625
 Alpha virt. eigenvalues --   -0.02386  -0.02265  -0.01785  -0.01073  -0.00363
 Alpha virt. eigenvalues --   -0.00180   0.00130   0.00200   0.00326   0.00489

  Beta  occ. eigenvalues --  -38.44531 -38.44529 -38.44336 -38.44332 -38.43800
  Beta  occ. eigenvalues --  -38.43744 -38.43434  -2.20330  -2.20304  -2.20155
  Beta  occ. eigenvalues --   -2.20154  -2.19595  -2.19575  -2.19270  -1.14070
  Beta  occ. eigenvalues --   -1.13990  -1.13974  -1.13972  -1.13962  -1.13929
  Beta  occ. eigenvalues --   -1.13892  -1.13843  -1.13831  -1.13819  -1.13762
  Beta  occ. eigenvalues --   -1.13750  -1.13306  -1.13302  -1.13279  -1.13260
  Beta  occ. eigenvalues --   -1.13208  -1.13188  -1.12932  -1.12917  -1.12908
  Beta  occ. eigenvalues --   -0.16738  -0.14208  -0.11084
  Beta virt. eigenvalues --   -0.06807  -0.06582  -0.05231  -0.04669  -0.02930
  Beta virt. eigenvalues --   -0.02566  -0.01984  -0.01728  -0.01470  -0.00568
  Beta virt. eigenvalues --   -0.00256  -0.00013   0.00226   0.00372   0.00411

 Mulliken charges and spin densities:
               1          2
     1  Na  -0.067121  -0.038383
     2  Na   0.548124   0.022470
     3  Na  -0.012312  -0.069432
     4  Na  -0.556490   0.439042
     5  Na   0.030624   0.259600
     6  Na  -0.064896   0.294108
     7  Na   0.122072   0.092595
 Sum of Mulliken charges =  -0.00000   1.00000

 Dipole moment (field-independent basis, Debye):
    X=              0.1191    Y=              0.4568    Z=              0.1543  Tot=              0.4966
 Quadrupole moment (field-independent basis, Debye-Ang):
   XX=            -54.7007   YY=            -73.3780   ZZ=            -69.2066
   XY=             -4.9929   XZ=              4.9607   YZ=             -2.7899

 Normal termination of Gaussian 16 at Fri Dec  8 20:03:33 2023.
