 Gaussian 16, Revision B.01,
 Gaussian 16:  ES64L-G16RevB.01 20-Dec-2017

 -------------------------
 #P B3LYP/6-311+g(d) force
 -------------------------

 -----
 DPGEN
 -----
 Symbolic Z-matrix:
 Charge =  0 Multiplicity = 2

                         Standard orientation:
 ---------------------------------------------------------------------
 Center     Atomic      Atomic             Coordinates (Angstroms)
 Number     Number       Type             X           Y           Z
 ---------------------------------------------------------------------
      1         11           0       -1.078689    2.204889   -0.879288
      2         11           0        5.262434    0.409884    0.134486
      3         11           0        1.769662    1.412826    0.296633
      4         11           0        3.079319   -2.166197   -0.277662
      5         11           0       -0.426930   -1.257588   -0.061167
      6         11           0       -3.185594    0.260402    1.303787
      7         11           0       -5.420202   -0.864215   -0.516787
 ---------------------------------------------------------------------

 SCF Done:  E(UB3LYP) =  -1136.12069071     A.U. after   20 cycles

 The electronic state is 2-A.
 Alpha  occ. eigenvalues --  -38.44381 -38.44174 -38.44124 -38.43928 -38.43884
 Alpha  occ. eigenvalues --  -38.43874 -38.43723  -2.20254  -2.20035  -2.19934
 Alpha  occ. eigenvalues --   -2.19796  -2.19740  -2.19666  -2.19536  -1.13946
 Alpha  occ. eigenvalues --   -1.13901  -1.13862  -1.13725  -1.13710  -1.13665
 Alpha  occ. eigenvalues --   -1.13616  -1.13597  -1.13565  -1.13511  -1.13484
 Alpha  occ. eigenvalues --   -1.13455  -1.13403  -1.13371  -1.13321  -1.13321
 Alpha  occ. eigenvalues --   -1.13320  -1.13302  -1.13191  -1.13188  -1.13155
 Alpha  occ. eigenvalues --   -0.17269  -0.14297  -0.11610  -0.11130
 Alpha virt. eigenvalues --   -0.06126  -0.05758  -0.04851  -0.03172  -0.03107
 Alpha virt. eigenvalues --   -0.02457  -0.01880  -0.01576  -0.00962  -0.00526
 Alpha virt. eigenvalues --   -0.00336   0.00017   0.00318   0.00472   0.00611

  Beta  occ. eigenvalues --  -38.44306 -38.44171 -38.44098 -38.43907 -38.43875
  Beta  occ. eigenvalues --  -38.43863 -38.43677  -2.20117  -2.20030  -2.19891
  Beta  occ. eigenvalues --   -2.19759  -2.19701  -2.19666  -2.19449  -1.13857
  Beta  occ. eigenvalues --   -1.13810  -1.13759  -1.13715  -1.13698  -1.13662
  Beta  occ. eigenvalues --   -1.13592  -1.13569  -1.13504  -1.13486  -1.13439
  Beta  occ. eigenvalues --   -1.13427  -1.13375  -1.13343  -1.13322  -1.13320
  Beta  occ. eigenvalues --   -1.13302  -1.13294  -1.13131  -1.13123  -1.13104
  Beta  occ. eigenvalues --   -0.16694  -0.13973  -0.11368
  Beta virt. eigenvalues --   -0.07388  -0.05857  -0.05485  -0.04445  -0.03015
  Beta virt. eigenvalues --   -0.02666  -0.01999  -0.01550  -0.01354  -0.00814
  Beta virt. eigenvalues --   -0.00257  -0.00181   0.00213   0.00441   0.00579

 Mulliken charges and spin densities:
               1          2
     1  Na   0.412795   0.033923
     2  Na   0.265130   0.297773
     3  Na  -0.689307   0.152095
     4  Na  -0.156595  -0.206389
     5  Na  -0.647713   0.631830
     6  Na   0.624850   0.107209
     7  Na   0.190840  -0.016441
 Sum of Mulliken charges =  -0.00000   1.00000

 Dipole moment (field-independent basis, Debye):
    X=             -0.1518    Y=              0.2703    Z=             -0.4765  Tot=              0.5685
 Quadrupole moment (field-independent basis, Debye-Ang):
   XX=            -66.1829   YY=            -68.6556   ZZ=            -66.9373
   XY=             -1.8078   XZ=              4.2383   YZ=              1.5638

 Normal termination of Gaussian 16 at Wed Nov 29 00:54:24 2023.
