 Gaussian 16, Revision B.01,
 Gaussian 16:  ES64L-G16RevB.01 20-Dec-2017

 -------------------------
 #P B3LYP/6-311+g(d) force
 -------------------------

 -----
 DPGEN
 -----
 Symbolic Z-matrix:
 Charge =  0 Multiplicity = 2

                         Standard orientation:
 ---------------------------------------------------------------------
 Center     Atomic      Atomic             Coordinates (Angstroms)
 Number     Number       Type             X           Y           Z
 ---------------------------------------------------------------------
      1         11           0       -0.300759   -0.089413   -1.724412
      2         11           0        0.009296   -0.077732    1.960413
      3         11           0        0.088165    3.062292   -0.188985
      4         11           0        2.060973   -2.038132    0.224973
      5         11           0        2.751341    1.010397   -0.194312
      6         11           0       -3.232637    0.778899    0.299610
      7         11           0       -1.376380   -2.646311   -0.377288
 ---------------------------------------------------------------------

 SCF Done:  E(UB3LYP) =  -1136.13717931     A.U. after   19 cycles

 The electronic state is 2-A.
 Alpha  occ. eigenvalues --  -38.44294 -38.43699 -38.43639 -38.43604 -38.43477
 Alpha  occ. eigenvalues --  -38.43355 -38.43283  -2.20069  -2.19557  -2.19507
 Alpha  occ. eigenvalues --   -2.19459  -2.19361  -2.19250  -2.19241  -1.13747
 Alpha  occ. eigenvalues --   -1.13720  -1.13711  -1.13299  -1.13214  -1.13187
 Alpha  occ. eigenvalues --   -1.13173  -1.13151  -1.13140  -1.13130  -1.13125
 Alpha  occ. eigenvalues --   -1.13100  -1.13075  -1.13018  -1.12998  -1.12917
 Alpha  occ. eigenvalues --   -1.12911  -1.12894  -1.12868  -1.12867  -1.12849
 Alpha  occ. eigenvalues --   -0.18656  -0.12850  -0.12579  -0.10795
 Alpha virt. eigenvalues --   -0.05754  -0.05015  -0.04747  -0.03169  -0.02964
 Alpha virt. eigenvalues --   -0.02556  -0.01519  -0.01209  -0.00373  -0.00293
 Alpha virt. eigenvalues --   -0.00001   0.00356   0.00799   0.00887   0.00904

  Beta  occ. eigenvalues --  -38.44289 -38.43687 -38.43636 -38.43518 -38.43472
  Beta  occ. eigenvalues --  -38.43348 -38.43214  -2.20061  -2.19538  -2.19456
  Beta  occ. eigenvalues --   -2.19356  -2.19347  -2.19240  -2.19115  -1.13725
  Beta  occ. eigenvalues --   -1.13716  -1.13708  -1.13271  -1.13181  -1.13163
  Beta  occ. eigenvalues --   -1.13145  -1.13119  -1.13104  -1.13091  -1.13066
  Beta  occ. eigenvalues --   -1.13027  -1.13015  -1.12994  -1.12983  -1.12896
  Beta  occ. eigenvalues --   -1.12876  -1.12855  -1.12827  -1.12774  -1.12763
  Beta  occ. eigenvalues --   -0.17929  -0.12597  -0.12323
  Beta virt. eigenvalues --   -0.06915  -0.05721  -0.04924  -0.04753  -0.02402
  Beta virt. eigenvalues --   -0.02208  -0.01533  -0.01399  -0.01117  -0.00417
  Beta virt. eigenvalues --   -0.00339   0.00123   0.00382   0.00816   0.00898

 Mulliken charges and spin densities:
               1          2
     1  Na  -0.188761   0.492288
     2  Na  -0.389367   0.716186
     3  Na   0.003215  -0.098407
     4  Na   0.357683   0.055132
     5  Na   0.048552  -0.034805
     6  Na  -0.077240  -0.081973
     7  Na   0.245920  -0.048420
 Sum of Mulliken charges =  -0.00000   1.00000

 Dipole moment (field-independent basis, Debye):
    X=             -0.4552    Y=              0.0804    Z=              0.1225  Tot=              0.4782
 Quadrupole moment (field-independent basis, Debye-Ang):
   XX=            -58.1588   YY=            -61.1551   ZZ=            -74.2255
   XY=             -0.4583   XZ=             -0.8012   YZ=             -0.0308

 Normal termination of Gaussian 16 at Thu Dec  7 22:09:54 2023.
