 Gaussian 16, Revision B.01,
 Gaussian 16:  ES64L-G16RevB.01 20-Dec-2017

 -------------------------
 #P B3LYP/6-311+g(d) force
 -------------------------

 -----
 DPGEN
 -----
 Symbolic Z-matrix:
 Charge =  0 Multiplicity = 2

                         Standard orientation:
 ---------------------------------------------------------------------
 Center     Atomic      Atomic             Coordinates (Angstroms)
 Number     Number       Type             X           Y           Z
 ---------------------------------------------------------------------
      1         11           0        0.504478    3.256334    0.213792
      2         11           0       -0.114784    0.277657   -1.599213
      3         11           0       -3.189225    0.786922   -0.227669
      4         11           0        3.359366   -0.041481   -0.279535
      5         11           0        0.516235   -0.025755    1.769639
      6         11           0       -2.142165   -1.741212    0.350068
      7         11           0        1.066094   -2.512465   -0.227082
 ---------------------------------------------------------------------

 SCF Done:  E(UB3LYP) =  -1136.12714791     A.U. after   21 cycles

 The electronic state is 2-A.
 Alpha  occ. eigenvalues --  -38.44968 -38.44658 -38.43594 -38.43447 -38.43248
 Alpha  occ. eigenvalues --  -38.43149 -38.43123  -2.20776  -2.20527  -2.19404
 Alpha  occ. eigenvalues --   -2.19371  -2.19209  -2.19077  -2.19071  -1.14450
 Alpha  occ. eigenvalues --   -1.14431  -1.14411  -1.14314  -1.14167  -1.14131
 Alpha  occ. eigenvalues --   -1.13088  -1.13066  -1.13047  -1.13033  -1.13030
 Alpha  occ. eigenvalues --   -1.13013  -1.12927  -1.12852  -1.12826  -1.12802
 Alpha  occ. eigenvalues --   -1.12735  -1.12731  -1.12703  -1.12689  -1.12657
 Alpha  occ. eigenvalues --   -0.18835  -0.13492  -0.12149  -0.10443
 Alpha virt. eigenvalues --   -0.06509  -0.04943  -0.04493  -0.03279  -0.02648
 Alpha virt. eigenvalues --   -0.02143  -0.02109  -0.01096  -0.00577  -0.00161
 Alpha virt. eigenvalues --   -0.00006   0.00324   0.00730   0.00779   0.00882

  Beta  occ. eigenvalues --  -38.44959 -38.44654 -38.43592 -38.43435 -38.43188
  Beta  occ. eigenvalues --  -38.43137 -38.43041  -2.20762  -2.20521  -2.19388
  Beta  occ. eigenvalues --   -2.19370  -2.19101  -2.19056  -2.18926  -1.14432
  Beta  occ. eigenvalues --   -1.14413  -1.14402  -1.14314  -1.14146  -1.14125
  Beta  occ. eigenvalues --   -1.13082  -1.13056  -1.13035  -1.13030  -1.13014
  Beta  occ. eigenvalues --   -1.12980  -1.12861  -1.12783  -1.12755  -1.12740
  Beta  occ. eigenvalues --   -1.12705  -1.12668  -1.12646  -1.12594  -1.12556
  Beta  occ. eigenvalues --   -0.18109  -0.13243  -0.11901
  Beta virt. eigenvalues --   -0.06627  -0.06397  -0.04890  -0.04469  -0.02535
  Beta virt. eigenvalues --   -0.02008  -0.01928  -0.01219  -0.00966  -0.00587
  Beta virt. eigenvalues --   -0.00195   0.00140   0.00359   0.00757   0.00873

 Mulliken charges and spin densities:
               1          2
     1  Na  -0.192279  -0.128748
     2  Na  -0.309058   0.367602
     3  Na   0.197768  -0.021257
     4  Na   0.075395  -0.064320
     5  Na  -0.291235   0.552447
     6  Na   0.236869   0.124820
     7  Na   0.282540   0.169455
 Sum of Mulliken charges =  -0.00000   1.00000

 Dipole moment (field-independent basis, Debye):
    X=              0.4763    Y=              0.3260    Z=             -0.0236  Tot=              0.5776
 Quadrupole moment (field-independent basis, Debye-Ang):
   XX=            -52.1325   YY=            -64.2099   ZZ=            -75.9181
   XY=             -0.8781   XZ=             -1.0270   YZ=              0.3434

 Normal termination of Gaussian 16 at Tue Dec  5 18:08:15 2023.
