 Gaussian 16, Revision B.01,
 Gaussian 16:  ES64L-G16RevB.01 20-Dec-2017

 -------------------------
 #P B3LYP/6-311+g(d) force
 -------------------------

 -----
 DPGEN
 -----
 Symbolic Z-matrix:
 Charge =  0 Multiplicity = 2

                         Standard orientation:
 ---------------------------------------------------------------------
 Center     Atomic      Atomic             Coordinates (Angstroms)
 Number     Number       Type             X           Y           Z
 ---------------------------------------------------------------------
      1         11           0        0.434585    0.360655    1.964692
      2         11           0       -0.285115    0.067959   -0.986896
      3         11           0        3.217526   -0.533477   -0.591917
      4         11           0        0.629884   -2.878524   -0.138610
      5         11           0       -2.642769   -1.726526    0.281152
      6         11           0        1.154602    2.905910    0.074789
      7         11           0       -2.508713    1.804002   -0.603210
 ---------------------------------------------------------------------

 SCF Done:  E(UB3LYP) =  -1136.12948872     A.U. after   19 cycles

 The electronic state is 2-A.
 Alpha  occ. eigenvalues --  -38.43943 -38.43938 -38.43854 -38.43808 -38.43538
 Alpha  occ. eigenvalues --  -38.43398 -38.42766  -2.19777  -2.19753  -2.19729
 Alpha  occ. eigenvalues --   -2.19651  -2.19397  -2.19327  -2.18915  -1.13525
 Alpha  occ. eigenvalues --   -1.13470  -1.13449  -1.13426  -1.13403  -1.13401
 Alpha  occ. eigenvalues --   -1.13385  -1.13362  -1.13342  -1.13320  -1.13308
 Alpha  occ. eigenvalues --   -1.13280  -1.13110  -1.13067  -1.13051  -1.13014
 Alpha  occ. eigenvalues --   -1.12927  -1.12923  -1.12606  -1.12554  -1.12511
 Alpha  occ. eigenvalues --   -0.18675  -0.12929  -0.12814  -0.10231
 Alpha virt. eigenvalues --   -0.05579  -0.05355  -0.04903  -0.02926  -0.02727
 Alpha virt. eigenvalues --   -0.01913  -0.01600  -0.01427  -0.00600  -0.00408
 Alpha virt. eigenvalues --    0.00008   0.00309   0.00786   0.00799   0.00858

  Beta  occ. eigenvalues --  -38.43932 -38.43920 -38.43830 -38.43805 -38.43535
  Beta  occ. eigenvalues --  -38.43305 -38.42735  -2.19770  -2.19711  -2.19686
  Beta  occ. eigenvalues --   -2.19646  -2.19394  -2.19155  -2.18863  -1.13493
  Beta  occ. eigenvalues --   -1.13461  -1.13422  -1.13399  -1.13387  -1.13377
  Beta  occ. eigenvalues --   -1.13354  -1.13343  -1.13321  -1.13303  -1.13289
  Beta  occ. eigenvalues --   -1.13267  -1.13107  -1.13046  -1.13000  -1.12951
  Beta  occ. eigenvalues --   -1.12811  -1.12797  -1.12531  -1.12517  -1.12480
  Beta  occ. eigenvalues --   -0.18033  -0.12647  -0.12502
  Beta virt. eigenvalues --   -0.06528  -0.05437  -0.05268  -0.04794  -0.02256
  Beta virt. eigenvalues --   -0.02071  -0.01487  -0.01320  -0.01010  -0.00555
  Beta virt. eigenvalues --   -0.00424   0.00168   0.00382   0.00805   0.00848

 Mulliken charges and spin densities:
               1          2
     1  Na  -0.161571   0.564009
     2  Na  -1.142795  -0.017409
     3  Na   0.110500   0.104754
     4  Na   0.183275   0.031831
     5  Na   0.238870   0.113191
     6  Na   0.201458   0.035741
     7  Na   0.570262   0.167883
 Sum of Mulliken charges =  -0.00000   1.00000

 Dipole moment (field-independent basis, Debye):
    X=              0.0767    Y=              0.1398    Z=              0.3426  Tot=              0.3779
 Quadrupole moment (field-independent basis, Debye-Ang):
   XX=            -56.6146   YY=            -58.3177   ZZ=            -76.0508
   XY=              1.9497   XZ=             -1.6557   YZ=             -1.2713

 Normal termination of Gaussian 16 at Fri Dec  8 00:55:32 2023.
