 Gaussian 16, Revision B.01,
 Gaussian 16:  ES64L-G16RevB.01 20-Dec-2017

 -------------------------
 #P B3LYP/6-311+g(d) force
 -------------------------

 -----
 DPGEN
 -----
 Symbolic Z-matrix:
 Charge =  0 Multiplicity = 2

                         Standard orientation:
 ---------------------------------------------------------------------
 Center     Atomic      Atomic             Coordinates (Angstroms)
 Number     Number       Type             X           Y           Z
 ---------------------------------------------------------------------
      1         11           0        1.964003    1.127372    0.756889
      2         11           0       -1.187560    0.381908   -0.370269
      3         11           0       -2.604880   -2.695744    0.380984
      4         11           0        1.518620   -2.031298    0.097140
      5         11           0        4.517368   -0.780600   -0.570690
      6         11           0       -4.149087    0.473749   -0.361674
      7         11           0       -0.058463    3.524613    0.067620
 ---------------------------------------------------------------------

 SCF Done:  E(UB3LYP) =  -1136.12587067     A.U. after   20 cycles

 The electronic state is 2-A.
 Alpha  occ. eigenvalues --  -38.44637 -38.43929 -38.43724 -38.43713 -38.43631
 Alpha  occ. eigenvalues --  -38.43428 -38.43300  -2.20420  -2.19797  -2.19642
 Alpha  occ. eigenvalues --   -2.19576  -2.19477  -2.19276  -2.19257  -1.14104
 Alpha  occ. eigenvalues --   -1.14078  -1.14053  -1.13537  -1.13425  -1.13387
 Alpha  occ. eigenvalues --   -1.13380  -1.13330  -1.13292  -1.13262  -1.13244
 Alpha  occ. eigenvalues --   -1.13187  -1.13122  -1.13118  -1.13067  -1.12987
 Alpha  occ. eigenvalues --   -1.12966  -1.12932  -1.12913  -1.12909  -1.12830
 Alpha  occ. eigenvalues --   -0.17433  -0.14271  -0.12453  -0.10385
 Alpha virt. eigenvalues --   -0.06153  -0.05240  -0.04484  -0.03750  -0.02537
 Alpha virt. eigenvalues --   -0.02003  -0.01831  -0.01510  -0.00924  -0.00684
 Alpha virt. eigenvalues --   -0.00105   0.00074   0.00514   0.00639   0.00731

  Beta  occ. eigenvalues --  -38.44628 -38.43850 -38.43717 -38.43692 -38.43564
  Beta  occ. eigenvalues --  -38.43435 -38.43280  -2.20406  -2.19650  -2.19631
  Beta  occ. eigenvalues --   -2.19543  -2.19350  -2.19272  -2.19248  -1.14098
  Beta  occ. eigenvalues --   -1.14071  -1.14017  -1.13440  -1.13374  -1.13324
  Beta  occ. eigenvalues --   -1.13324  -1.13285  -1.13263  -1.13246  -1.13220
  Beta  occ. eigenvalues --   -1.13131  -1.13037  -1.13031  -1.12993  -1.12956
  Beta  occ. eigenvalues --   -1.12939  -1.12923  -1.12913  -1.12903  -1.12824
  Beta  occ. eigenvalues --   -0.16887  -0.13692  -0.12187
  Beta virt. eigenvalues --   -0.06877  -0.05910  -0.05014  -0.04212  -0.03195
  Beta virt. eigenvalues --   -0.02301  -0.01849  -0.01497  -0.01154  -0.00810
  Beta virt. eigenvalues --   -0.00331   0.00122   0.00318   0.00619   0.00726

 Mulliken charges and spin densities:
               1          2
     1  Na  -0.109279   0.038139
     2  Na  -2.105797   0.222905
     3  Na   0.317080  -0.071741
     4  Na  -0.465995   0.086819
     5  Na   0.906253   0.433107
     6  Na   0.823210   0.303982
     7  Na   0.634528  -0.013211
 Sum of Mulliken charges =  -0.00000   1.00000

 Dipole moment (field-independent basis, Debye):
    X=             -0.3491    Y=             -0.2618    Z=              0.1897  Tot=              0.4758
 Quadrupole moment (field-independent basis, Debye-Ang):
   XX=            -64.2102   YY=            -59.8468   ZZ=            -70.8009
   XY=              3.8920   XZ=             -1.7388   YZ=             -0.7891

 Normal termination of Gaussian 16 at Tue Nov 28 21:07:38 2023.
