 Gaussian 16, Revision B.01,
 Gaussian 16:  ES64L-G16RevB.01 20-Dec-2017

 -------------------------
 #P B3LYP/6-311+g(d) force
 -------------------------

 -----
 DPGEN
 -----
 Symbolic Z-matrix:
 Charge =  0 Multiplicity = 2

                         Standard orientation:
 ---------------------------------------------------------------------
 Center     Atomic      Atomic             Coordinates (Angstroms)
 Number     Number       Type             X           Y           Z
 ---------------------------------------------------------------------
      1         11           0        1.755048   -1.592817   -1.614324
      2         11           0       -3.747694    0.189491    0.268201
      3         11           0       -1.282195    2.581691   -0.165088
      4         11           0        2.371789    2.316481   -0.966415
      5         11           0       -0.295576   -0.087972    1.688663
      6         11           0        3.141352   -1.046987    1.563839
      7         11           0       -1.942723   -2.359886   -0.774876
 ---------------------------------------------------------------------

 SCF Done:  E(UB3LYP) =  -1136.12339875     A.U. after   21 cycles

 The electronic state is 2-A.
 Alpha  occ. eigenvalues --  -38.44782 -38.44481 -38.44476 -38.44333 -38.44176
 Alpha  occ. eigenvalues --  -38.43707 -38.43382  -2.20602  -2.20322  -2.20280
 Alpha  occ. eigenvalues --   -2.20093  -2.19960  -2.19510  -2.19187  -1.14281
 Alpha  occ. eigenvalues --   -1.14256  -1.14242  -1.14011  -1.13981  -1.13960
 Alpha  occ. eigenvalues --   -1.13930  -1.13917  -1.13902  -1.13766  -1.13732
 Alpha  occ. eigenvalues --   -1.13724  -1.13636  -1.13612  -1.13589  -1.13182
 Alpha  occ. eigenvalues --   -1.13175  -1.13146  -1.12881  -1.12865  -1.12812
 Alpha  occ. eigenvalues --   -0.17297  -0.13707  -0.11809  -0.10772
 Alpha virt. eigenvalues --   -0.06449  -0.06035  -0.04727  -0.03429  -0.02681
 Alpha virt. eigenvalues --   -0.02452  -0.02210  -0.01400  -0.00730  -0.00571
 Alpha virt. eigenvalues --   -0.00236   0.00227   0.00285   0.00400   0.00728

  Beta  occ. eigenvalues --  -38.44784 -38.44429 -38.44425 -38.44290 -38.44143
  Beta  occ. eigenvalues --  -38.43693 -38.43390  -2.20606  -2.20227  -2.20186
  Beta  occ. eigenvalues --   -2.20015  -2.19899  -2.19485  -2.19204  -1.14281
  Beta  occ. eigenvalues --   -1.14264  -1.14242  -1.13945  -1.13923  -1.13879
  Beta  occ. eigenvalues --   -1.13868  -1.13846  -1.13833  -1.13704  -1.13682
  Beta  occ. eigenvalues --   -1.13673  -1.13592  -1.13566  -1.13544  -1.13162
  Beta  occ. eigenvalues --   -1.13158  -1.13125  -1.12892  -1.12875  -1.12815
  Beta  occ. eigenvalues --   -0.16816  -0.13437  -0.11494
  Beta virt. eigenvalues --   -0.07189  -0.06280  -0.05810  -0.04171  -0.03239
  Beta virt. eigenvalues --   -0.02261  -0.02104  -0.01608  -0.01231  -0.00606
  Beta virt. eigenvalues --   -0.00246  -0.00187   0.00282   0.00445   0.00531

 Mulliken charges and spin densities:
               1          2
     1  Na   0.067730   0.369108
     2  Na   0.872292  -0.024621
     3  Na  -0.182831  -0.004623
     4  Na  -0.222390   0.212766
     5  Na  -0.185799   0.285305
     6  Na   0.103021   0.123558
     7  Na  -0.452023   0.038507
 Sum of Mulliken charges =  -0.00000   1.00000

 Dipole moment (field-independent basis, Debye):
    X=             -0.2655    Y=             -0.0108    Z=              0.1098  Tot=              0.2875
 Quadrupole moment (field-independent basis, Debye-Ang):
   XX=            -50.2179   YY=            -73.3295   ZZ=            -72.5310
   XY=             -1.2296   XZ=              0.0373   YZ=             -0.5377

 Normal termination of Gaussian 16 at Mon Dec  4 03:02:53 2023.
