 Gaussian 16, Revision B.01,
 Gaussian 16:  ES64L-G16RevB.01 20-Dec-2017

 -------------------------
 #P B3LYP/6-311+g(d) force
 -------------------------

 -----
 DPGEN
 -----
 Symbolic Z-matrix:
 Charge =  0 Multiplicity = 2

                         Standard orientation:
 ---------------------------------------------------------------------
 Center     Atomic      Atomic             Coordinates (Angstroms)
 Number     Number       Type             X           Y           Z
 ---------------------------------------------------------------------
      1         11           0        2.637753    1.201995   -0.244081
      2         11           0       -0.152847   -0.103894    1.547392
      3         11           0        2.981489   -1.951754    0.235126
      4         11           0        0.130802   -0.651969   -1.454611
      5         11           0       -2.174348   -2.656485    0.011881
      6         11           0       -0.159366    3.390596    0.026764
      7         11           0       -3.263483    0.771511   -0.122471
 ---------------------------------------------------------------------

 SCF Done:  E(UB3LYP) =  -1136.12725583     A.U. after   22 cycles

 The electronic state is 2-A.
 Alpha  occ. eigenvalues --  -38.45196 -38.44373 -38.44248 -38.43792 -38.43413
 Alpha  occ. eigenvalues --  -38.43146 -38.43054  -2.20968  -2.20191  -2.20061
 Alpha  occ. eigenvalues --   -2.19679  -2.19190  -2.19099  -2.18992  -1.14650
 Alpha  occ. eigenvalues --   -1.14627  -1.14597  -1.13876  -1.13845  -1.13830
 Alpha  occ. eigenvalues --   -1.13735  -1.13722  -1.13697  -1.13372  -1.13343
 Alpha  occ. eigenvalues --   -1.13302  -1.12904  -1.12862  -1.12851  -1.12837
 Alpha  occ. eigenvalues --   -1.12726  -1.12694  -1.12670  -1.12601  -1.12587
 Alpha  occ. eigenvalues --   -0.18243  -0.13549  -0.12097  -0.09532
 Alpha virt. eigenvalues --   -0.06442  -0.05647  -0.05025  -0.03096  -0.02253
 Alpha virt. eigenvalues --   -0.02204  -0.01616  -0.01551  -0.00984  -0.00677
 Alpha virt. eigenvalues --    0.00012   0.00275   0.00618   0.00693   0.00799

  Beta  occ. eigenvalues --  -38.45193 -38.44367 -38.44243 -38.43780 -38.43415
  Beta  occ. eigenvalues --  -38.43085 -38.42982  -2.20965  -2.20184  -2.20055
  Beta  occ. eigenvalues --   -2.19662  -2.19195  -2.18989  -2.18862  -1.14631
  Beta  occ. eigenvalues --   -1.14626  -1.14598  -1.13875  -1.13831  -1.13814
  Beta  occ. eigenvalues --   -1.13730  -1.13697  -1.13695  -1.13360  -1.13302
  Beta  occ. eigenvalues --   -1.13295  -1.12861  -1.12847  -1.12841  -1.12816
  Beta  occ. eigenvalues --   -1.12645  -1.12616  -1.12574  -1.12509  -1.12490
  Beta  occ. eigenvalues --   -0.17570  -0.13316  -0.11913
  Beta virt. eigenvalues --   -0.06402  -0.05781  -0.05562  -0.04995  -0.02337
  Beta virt. eigenvalues --   -0.02099  -0.01654  -0.01490  -0.01046  -0.00885
  Beta virt. eigenvalues --   -0.00509   0.00199   0.00333   0.00640   0.00744

 Mulliken charges and spin densities:
               1          2
     1  Na   0.137234   0.116476
     2  Na  -0.209557   0.607864
     3  Na   0.251699   0.027922
     4  Na  -0.064596   0.410459
     5  Na   0.155025  -0.043559
     6  Na  -0.238308  -0.076973
     7  Na  -0.031497  -0.042190
 Sum of Mulliken charges =  -0.00000   1.00000

 Dipole moment (field-independent basis, Debye):
    X=             -0.5562    Y=             -0.5399    Z=              0.0212  Tot=              0.7754
 Quadrupole moment (field-independent basis, Debye-Ang):
   XX=            -49.8169   YY=            -58.7064   ZZ=            -80.6666
   XY=             -1.6175   XZ=              0.7592   YZ=             -1.3146

 Normal termination of Gaussian 16 at Sat Dec  9 07:02:53 2023.
