 Gaussian 16, Revision B.01,
 Gaussian 16:  ES64L-G16RevB.01 20-Dec-2017

 -------------------------
 #P B3LYP/6-311+g(d) force
 -------------------------

 -----
 DPGEN
 -----
 Symbolic Z-matrix:
 Charge =  0 Multiplicity = 2

                         Standard orientation:
 ---------------------------------------------------------------------
 Center     Atomic      Atomic             Coordinates (Angstroms)
 Number     Number       Type             X           Y           Z
 ---------------------------------------------------------------------
      1         11           0       -3.760906   -0.466398   -1.329297
      2         11           0       -1.549175    1.925342   -0.610489
      3         11           0        4.271549   -1.067404   -1.285516
      4         11           0        1.934898    2.235854    0.017836
      5         11           0        1.774023   -0.867740    1.122003
      6         11           0       -1.109313    0.563063    1.719092
      7         11           0       -1.561076   -2.322718    0.366370
 ---------------------------------------------------------------------

 SCF Done:  E(UB3LYP) =  -1136.11716724     A.U. after   23 cycles

 The electronic state is 2-A.
 Alpha  occ. eigenvalues --  -38.44553 -38.44447 -38.44442 -38.44245 -38.43548
 Alpha  occ. eigenvalues --  -38.43524 -38.43473  -2.20551  -2.20289  -2.20222
 Alpha  occ. eigenvalues --   -2.20055  -2.19450  -2.19396  -2.19356  -1.14368
 Alpha  occ. eigenvalues --   -1.14215  -1.14121  -1.13949  -1.13934  -1.13912
 Alpha  occ. eigenvalues --   -1.13875  -1.13869  -1.13838  -1.13753  -1.13743
 Alpha  occ. eigenvalues --   -1.13649  -1.13171  -1.13087  -1.13086  -1.13065
 Alpha  occ. eigenvalues --   -1.13042  -1.13033  -1.13022  -1.13016  -1.12989
 Alpha  occ. eigenvalues --   -0.18116  -0.14064  -0.11668  -0.11381
 Alpha virt. eigenvalues --   -0.06128  -0.05140  -0.04994  -0.03395  -0.02820
 Alpha virt. eigenvalues --   -0.02471  -0.01867  -0.00933  -0.00723  -0.00449
 Alpha virt. eigenvalues --   -0.00094   0.00232   0.00318   0.00416   0.00498

  Beta  occ. eigenvalues --  -38.44507 -38.44390 -38.44378 -38.44241 -38.43535
  Beta  occ. eigenvalues --  -38.43513 -38.43457  -2.20471  -2.20182  -2.20102
  Beta  occ. eigenvalues --   -2.20048  -2.19431  -2.19378  -2.19333  -1.14311
  Beta  occ. eigenvalues --   -1.14141  -1.14069  -1.13874  -1.13858  -1.13847
  Beta  occ. eigenvalues --   -1.13793  -1.13788  -1.13760  -1.13748  -1.13739
  Beta  occ. eigenvalues --   -1.13638  -1.13156  -1.13078  -1.13066  -1.13057
  Beta  occ. eigenvalues --   -1.13033  -1.13018  -1.12990  -1.12984  -1.12925
  Beta  occ. eigenvalues --   -0.17467  -0.13481  -0.11329
  Beta virt. eigenvalues --   -0.07891  -0.05877  -0.04810  -0.04525  -0.03291
  Beta virt. eigenvalues --   -0.02381  -0.01787  -0.01627  -0.00786  -0.00541
  Beta virt. eigenvalues --   -0.00209   0.00069   0.00308   0.00388   0.00513

 Mulliken charges and spin densities:
               1          2
     1  Na   0.179729   0.228376
     2  Na  -0.362755   0.260176
     3  Na   0.291984   0.380084
     4  Na  -0.033445   0.098879
     5  Na  -0.602817  -0.162280
     6  Na   0.785203   0.028827
     7  Na  -0.257898   0.165937
 Sum of Mulliken charges =  -0.00000   1.00000

 Dipole moment (field-independent basis, Debye):
    X=             -0.1577    Y=              0.1749    Z=             -0.5340  Tot=              0.5836
 Quadrupole moment (field-independent basis, Debye-Ang):
   XX=            -59.3958   YY=            -71.7805   ZZ=            -65.6740
   XY=              2.7031   XZ=             -1.2519   YZ=              1.2446

 Normal termination of Gaussian 16 at Tue Dec  5 22:40:15 2023.
