 Gaussian 16, Revision B.01,
 Gaussian 16:  ES64L-G16RevB.01 20-Dec-2017

 -------------------------
 #P B3LYP/6-311+g(d) force
 -------------------------

 -----
 DPGEN
 -----
 Symbolic Z-matrix:
 Charge =  0 Multiplicity = 2

                         Standard orientation:
 ---------------------------------------------------------------------
 Center     Atomic      Atomic             Coordinates (Angstroms)
 Number     Number       Type             X           Y           Z
 ---------------------------------------------------------------------
      1         11           0        0.460782    0.103362   -1.972701
      2         11           0        2.300702    1.840079    0.495627
      3         11           0        2.748688   -1.448292   -0.082273
      4         11           0       -0.758184   -0.030028    2.350027
      5         11           0       -0.309327   -2.362261    0.005697
      6         11           0       -3.320912   -0.488567   -0.402433
      7         11           0       -1.121750    2.385706   -0.393945
 ---------------------------------------------------------------------

 SCF Done:  E(UB3LYP) =  -1136.13412958     A.U. after   19 cycles

 The electronic state is 2-A.
 Alpha  occ. eigenvalues --  -38.44481 -38.44476 -38.43942 -38.43622 -38.43585
 Alpha  occ. eigenvalues --  -38.43023 -38.42727  -2.20326  -2.20267  -2.19887
 Alpha  occ. eigenvalues --   -2.19458  -2.19456  -2.18888  -2.18645  -1.13992
 Alpha  occ. eigenvalues --   -1.13956  -1.13943  -1.13934  -1.13923  -1.13907
 Alpha  occ. eigenvalues --   -1.13574  -1.13536  -1.13505  -1.13159  -1.13133
 Alpha  occ. eigenvalues --   -1.13122  -1.13111  -1.13103  -1.13067  -1.12594
 Alpha  occ. eigenvalues --   -1.12551  -1.12498  -1.12341  -1.12326  -1.12254
 Alpha  occ. eigenvalues --   -0.18602  -0.13094  -0.11990  -0.11482
 Alpha virt. eigenvalues --   -0.05943  -0.04850  -0.04092  -0.03603  -0.03160
 Alpha virt. eigenvalues --   -0.03072  -0.01708  -0.00806  -0.00218   0.00004
 Alpha virt. eigenvalues --    0.00133   0.00362   0.00644   0.00747   0.00918

  Beta  occ. eigenvalues --  -38.44475 -38.44386 -38.43873 -38.43613 -38.43585
  Beta  occ. eigenvalues --  -38.43014 -38.42717  -2.20267  -2.20150  -2.19761
  Beta  occ. eigenvalues --   -2.19460  -2.19440  -2.18874  -2.18631  -1.13932
  Beta  occ. eigenvalues --   -1.13917  -1.13914  -1.13872  -1.13833  -1.13808
  Beta  occ. eigenvalues --   -1.13494  -1.13442  -1.13414  -1.13156  -1.13134
  Beta  occ. eigenvalues --   -1.13101  -1.13096  -1.13087  -1.13064  -1.12577
  Beta  occ. eigenvalues --   -1.12524  -1.12492  -1.12335  -1.12280  -1.12250
  Beta  occ. eigenvalues --   -0.17833  -0.12913  -0.11756
  Beta virt. eigenvalues --   -0.07550  -0.05781  -0.04844  -0.03882  -0.03016
  Beta virt. eigenvalues --   -0.02281  -0.02146  -0.01608  -0.00750  -0.00048
  Beta virt. eigenvalues --    0.00001   0.00117   0.00392   0.00838   0.00893

 Mulliken charges and spin densities:
               1          2
     1  Na  -0.277732   0.415020
     2  Na   0.022830   0.081469
     3  Na   0.294789  -0.023650
     4  Na  -0.595825   0.551556
     5  Na   0.201340   0.043443
     6  Na   0.228883  -0.082177
     7  Na   0.125716   0.014340
 Sum of Mulliken charges =  -0.00000   1.00000

 Dipole moment (field-independent basis, Debye):
    X=             -0.3220    Y=              0.0608    Z=              0.1941  Tot=              0.3809
 Quadrupole moment (field-independent basis, Debye-Ang):
   XX=            -55.2563   YY=            -71.6021   ZZ=            -68.4210
   XY=              0.2261   XZ=              2.1381   YZ=              0.9428

 Normal termination of Gaussian 16 at Thu Dec  7 16:30:51 2023.
