 Gaussian 16, Revision B.01,
 Gaussian 16:  ES64L-G16RevB.01 20-Dec-2017

 -------------------------
 #P B3LYP/6-311+g(d) force
 -------------------------

 -----
 DPGEN
 -----
 Symbolic Z-matrix:
 Charge =  0 Multiplicity = 2

                         Standard orientation:
 ---------------------------------------------------------------------
 Center     Atomic      Atomic             Coordinates (Angstroms)
 Number     Number       Type             X           Y           Z
 ---------------------------------------------------------------------
      1         11           0        1.804712    2.379068   -0.575517
      2         11           0       -0.236579   -0.218179   -1.629051
      3         11           0        0.347730   -2.945990    0.120161
      4         11           0        3.051152   -0.719347    0.074142
      5         11           0       -1.775074    2.420053    0.339345
      6         11           0       -3.108389   -1.022656   -0.372652
      7         11           0       -0.083553    0.107052    2.043573
 ---------------------------------------------------------------------

 SCF Done:  E(UB3LYP) =  -1136.13864532     A.U. after   19 cycles

 The electronic state is 2-A.
 Alpha  occ. eigenvalues --  -38.44120 -38.43852 -38.43684 -38.43634 -38.43487
 Alpha  occ. eigenvalues --  -38.43393 -38.43242  -2.19932  -2.19681  -2.19571
 Alpha  occ. eigenvalues --   -2.19468  -2.19327  -2.19229  -2.19206  -1.13628
 Alpha  occ. eigenvalues --   -1.13581  -1.13562  -1.13354  -1.13347  -1.13329
 Alpha  occ. eigenvalues --   -1.13253  -1.13214  -1.13193  -1.13132  -1.13124
 Alpha  occ. eigenvalues --   -1.13095  -1.13034  -1.12994  -1.12949  -1.12922
 Alpha  occ. eigenvalues --   -1.12889  -1.12878  -1.12861  -1.12830  -1.12821
 Alpha  occ. eigenvalues --   -0.18463  -0.12898  -0.12442  -0.10805
 Alpha virt. eigenvalues --   -0.05645  -0.05147  -0.04735  -0.03163  -0.02972
 Alpha virt. eigenvalues --   -0.02569  -0.01579  -0.01164  -0.00402  -0.00369
 Alpha virt. eigenvalues --   -0.00009   0.00345   0.00801   0.00849   0.00889

  Beta  occ. eigenvalues --  -38.44111 -38.43851 -38.43624 -38.43590 -38.43483
  Beta  occ. eigenvalues --  -38.43379 -38.43184  -2.19918  -2.19681  -2.19455
  Beta  occ. eigenvalues --   -2.19398  -2.19323  -2.19207  -2.19099  -1.13607
  Beta  occ. eigenvalues --   -1.13566  -1.13553  -1.13352  -1.13343  -1.13319
  Beta  occ. eigenvalues --   -1.13171  -1.13112  -1.13107  -1.13093  -1.13075
  Beta  occ. eigenvalues --   -1.13047  -1.13022  -1.12975  -1.12944  -1.12893
  Beta  occ. eigenvalues --   -1.12869  -1.12842  -1.12808  -1.12760  -1.12743
  Beta  occ. eigenvalues --   -0.17758  -0.12644  -0.12180
  Beta virt. eigenvalues --   -0.06941  -0.05607  -0.05085  -0.04680  -0.02411
  Beta virt. eigenvalues --   -0.02230  -0.01549  -0.01480  -0.01072  -0.00428
  Beta virt. eigenvalues --   -0.00400   0.00119   0.00379   0.00838   0.00881

 Mulliken charges and spin densities:
               1          2
     1  Na   0.070015   0.020934
     2  Na  -0.135211   0.473186
     3  Na   0.060826  -0.069812
     4  Na   0.049619  -0.022160
     5  Na   0.113489   0.017751
     6  Na   0.126811  -0.072688
     7  Na  -0.285549   0.652789
 Sum of Mulliken charges =  -0.00000   1.00000

 Dipole moment (field-independent basis, Debye):
    X=             -0.2198    Y=             -0.1361    Z=              0.1471  Tot=              0.2974
 Quadrupole moment (field-independent basis, Debye-Ang):
   XX=            -56.8236   YY=            -62.3741   ZZ=            -74.1716
   XY=             -0.1739   XZ=             -0.0917   YZ=             -0.8547

 Normal termination of Gaussian 16 at Thu Dec  7 17:03:15 2023.
