 Gaussian 16, Revision B.01,
 Gaussian 16:  ES64L-G16RevB.01 20-Dec-2017

 -------------------------
 #P B3LYP/6-311+g(d) force
 -------------------------

 -----
 DPGEN
 -----
 Symbolic Z-matrix:
 Charge =  0 Multiplicity = 2

                         Standard orientation:
 ---------------------------------------------------------------------
 Center     Atomic      Atomic             Coordinates (Angstroms)
 Number     Number       Type             X           Y           Z
 ---------------------------------------------------------------------
      1         11           0        0.258472   -1.172330    0.297274
      2         11           0       -0.249338    2.203221   -0.880423
      3         11           0        2.993415   -1.632787   -0.366046
      4         11           0        2.143109    1.015920    0.412189
      5         11           0       -0.828457    1.243126    1.735735
      6         11           0       -1.581262    0.050885   -1.667708
      7         11           0       -2.735940   -1.708036    0.468979
 ---------------------------------------------------------------------

 SCF Done:  E(UB3LYP) =  -1136.09610224     A.U. after   21 cycles

 The electronic state is 2-A.
 Alpha  occ. eigenvalues --  -38.44374 -38.43904 -38.43892 -38.43887 -38.43751
 Alpha  occ. eigenvalues --  -38.43585 -38.43156  -2.20462  -2.19934  -2.19849
 Alpha  occ. eigenvalues --   -2.19817  -2.19799  -2.19686  -2.19388  -1.14354
 Alpha  occ. eigenvalues --   -1.14145  -1.14044  -1.13764  -1.13760  -1.13656
 Alpha  occ. eigenvalues --   -1.13604  -1.13541  -1.13515  -1.13488  -1.13484
 Alpha  occ. eigenvalues --   -1.13456  -1.13425  -1.13412  -1.13335  -1.13280
 Alpha  occ. eigenvalues --   -1.13227  -1.13202  -1.13045  -1.13020  -1.12950
 Alpha  occ. eigenvalues --   -0.20318  -0.13920  -0.12488  -0.11718
 Alpha virt. eigenvalues --   -0.05627  -0.05025  -0.03782  -0.03534  -0.03023
 Alpha virt. eigenvalues --   -0.02615  -0.01500  -0.00818  -0.00268   0.00288
 Alpha virt. eigenvalues --    0.00392   0.00641   0.00852   0.00973   0.01013

  Beta  occ. eigenvalues --  -38.44301 -38.43905 -38.43879 -38.43819 -38.43740
  Beta  occ. eigenvalues --  -38.43549 -38.43129  -2.20331  -2.19844  -2.19808
  Beta  occ. eigenvalues --   -2.19801  -2.19787  -2.19626  -2.19348  -1.14258
  Beta  occ. eigenvalues --   -1.14057  -1.13949  -1.13756  -1.13706  -1.13584
  Beta  occ. eigenvalues --   -1.13569  -1.13514  -1.13481  -1.13464  -1.13439
  Beta  occ. eigenvalues --   -1.13417  -1.13411  -1.13389  -1.13309  -1.13225
  Beta  occ. eigenvalues --   -1.13194  -1.13128  -1.13011  -1.12954  -1.12919
  Beta  occ. eigenvalues --   -0.19518  -0.13729  -0.12257
  Beta virt. eigenvalues --   -0.07482  -0.05465  -0.04916  -0.03646  -0.02921
  Beta virt. eigenvalues --   -0.02292  -0.01686  -0.01416  -0.00712   0.00010
  Beta virt. eigenvalues --    0.00337   0.00387   0.00691   0.00876   0.00999

 Mulliken charges and spin densities:
               1          2
     1  Na  -0.806215   0.642387
     2  Na   0.785171   0.243046
     3  Na   0.666305  -0.051670
     4  Na   0.389570   0.292894
     5  Na  -0.837171   0.042895
     6  Na  -0.763309  -0.037683
     7  Na   0.565649  -0.131869
 Sum of Mulliken charges =  -0.00000   1.00000

 Dipole moment (field-independent basis, Debye):
    X=             -0.2892    Y=             -0.0268    Z=              0.2281  Tot=              0.3693
 Quadrupole moment (field-independent basis, Debye-Ang):
   XX=            -57.2604   YY=            -68.7720   ZZ=            -68.9835
   XY=              1.2394   XZ=             -2.4437   YZ=              0.4278

 Normal termination of Gaussian 16 at Fri Dec  8 17:50:47 2023.
