 Gaussian 16, Revision B.01,
 Gaussian 16:  ES64L-G16RevB.01 20-Dec-2017

 -------------------------
 #P B3LYP/6-311+g(d) force
 -------------------------

 -----
 DPGEN
 -----
 Symbolic Z-matrix:
 Charge =  0 Multiplicity = 2

                         Standard orientation:
 ---------------------------------------------------------------------
 Center     Atomic      Atomic             Coordinates (Angstroms)
 Number     Number       Type             X           Y           Z
 ---------------------------------------------------------------------
      1         11           0       -2.426913   -2.428295   -1.299299
      2         11           0       -5.285750   -1.040624    0.334892
      3         11           0       -2.898505    1.365306    1.612022
      4         11           0       -1.048381    2.911643   -1.211058
      5         11           0        1.075811    0.455890   -0.176064
      6         11           0        4.005133   -1.336909    1.032010
      7         11           0        6.578605    0.072989   -0.292502
 ---------------------------------------------------------------------

 SCF Done:  E(UB3LYP) =  -1136.10735826     A.U. after   20 cycles

 The electronic state is 2-A.
 Alpha  occ. eigenvalues --  -38.44998 -38.44758 -38.44591 -38.44363 -38.44270
 Alpha  occ. eigenvalues --  -38.44062 -38.43589  -2.20778  -2.20536  -2.20354
 Alpha  occ. eigenvalues --   -2.20152  -2.20039  -2.19850  -2.19353  -1.14429
 Alpha  occ. eigenvalues --   -1.14429  -1.14416  -1.14218  -1.14183  -1.14137
 Alpha  occ. eigenvalues --   -1.14019  -1.13998  -1.13961  -1.13822  -1.13816
 Alpha  occ. eigenvalues --   -1.13802  -1.13713  -1.13708  -1.13684  -1.13538
 Alpha  occ. eigenvalues --   -1.13516  -1.13450  -1.13034  -1.13017  -1.13002
 Alpha  occ. eigenvalues --   -0.15599  -0.13924  -0.11846  -0.10704
 Alpha virt. eigenvalues --   -0.07228  -0.05431  -0.04757  -0.03448  -0.02975
 Alpha virt. eigenvalues --   -0.02528  -0.02053  -0.01809  -0.01694  -0.00835
 Alpha virt. eigenvalues --   -0.00310  -0.00224   0.00134   0.00297   0.00435

  Beta  occ. eigenvalues --  -38.44959 -38.44691 -38.44516 -38.44373 -38.44282
  Beta  occ. eigenvalues --  -38.44027 -38.43600  -2.20703  -2.20412  -2.20213
  Beta  occ. eigenvalues --   -2.20173  -2.20062  -2.19786  -2.19376  -1.14378
  Beta  occ. eigenvalues --   -1.14377  -1.14369  -1.14129  -1.14100  -1.14052
  Beta  occ. eigenvalues --   -1.13923  -1.13900  -1.13865  -1.13839  -1.13829
  Beta  occ. eigenvalues --   -1.13797  -1.13730  -1.13714  -1.13697  -1.13494
  Beta  occ. eigenvalues --   -1.13465  -1.13416  -1.13052  -1.13027  -1.13006
  Beta  occ. eigenvalues --   -0.15034  -0.13546  -0.11719
  Beta virt. eigenvalues --   -0.07473  -0.06492  -0.05074  -0.04510  -0.03142
  Beta virt. eigenvalues --   -0.02600  -0.02364  -0.01875  -0.01578  -0.01345
  Beta virt. eigenvalues --   -0.00576  -0.00261  -0.00049   0.00331   0.00457

 Mulliken charges and spin densities:
               1          2
     1  Na   0.288976   0.430686
     2  Na  -0.124875  -0.109832
     3  Na   0.372192   0.428246
     4  Na   1.144104   0.076068
     5  Na  -1.644580   0.061040
     6  Na  -0.086272  -0.088101
     7  Na   0.050455   0.201891
 Sum of Mulliken charges =  -0.00000   1.00000

 Dipole moment (field-independent basis, Debye):
    X=              1.1723    Y=              0.7167    Z=             -0.3297  Tot=              1.4131
 Quadrupole moment (field-independent basis, Debye-Ang):
   XX=            -59.8314   YY=            -69.8230   ZZ=            -66.8660
   XY=             -0.0099   XZ=             -2.3425   YZ=             -4.1716

 Normal termination of Gaussian 16 at Wed Nov 29 01:15:08 2023.
