 Gaussian 16, Revision B.01,
 Gaussian 16:  ES64L-G16RevB.01 20-Dec-2017

 -------------------------
 #P B3LYP/6-311+g(d) force
 -------------------------

 -----
 DPGEN
 -----
 Symbolic Z-matrix:
 Charge =  0 Multiplicity = 2

                         Standard orientation:
 ---------------------------------------------------------------------
 Center     Atomic      Atomic             Coordinates (Angstroms)
 Number     Number       Type             X           Y           Z
 ---------------------------------------------------------------------
      1         11           0        2.550764   -1.725769   -0.442052
      2         11           0       -1.624380   -2.092923    0.154422
      3         11           0       -0.005152   -0.067972   -1.704486
      4         11           0       -0.831315    2.392257    0.325944
      5         11           0        3.242099    1.457100   -0.226318
      6         11           0        0.440522   -0.378021    2.258176
      7         11           0       -3.772538    0.415328   -0.365686
 ---------------------------------------------------------------------

 SCF Done:  E(UB3LYP) =  -1136.12481715     A.U. after   23 cycles

 The electronic state is 2-A.
 Alpha  occ. eigenvalues --  -38.45179 -38.44600 -38.44338 -38.43926 -38.43886
 Alpha  occ. eigenvalues --  -38.42970 -38.42906  -2.20967  -2.20387  -2.20258
 Alpha  occ. eigenvalues --   -2.19795  -2.19741  -2.18847  -2.18737  -1.14640
 Alpha  occ. eigenvalues --   -1.14626  -1.14595  -1.14067  -1.14056  -1.14020
 Alpha  occ. eigenvalues --   -1.13962  -1.13915  -1.13878  -1.13457  -1.13427
 Alpha  occ. eigenvalues --   -1.13423  -1.13407  -1.13392  -1.13359  -1.12547
 Alpha  occ. eigenvalues --   -1.12519  -1.12464  -1.12446  -1.12411  -1.12341
 Alpha  occ. eigenvalues --   -0.18347  -0.13692  -0.11242  -0.11131
 Alpha virt. eigenvalues --   -0.06916  -0.05294  -0.03750  -0.03249  -0.02978
 Alpha virt. eigenvalues --   -0.02602  -0.02494  -0.01335  -0.00402  -0.00210
 Alpha virt. eigenvalues --    0.00045   0.00200   0.00524   0.00687   0.00813

  Beta  occ. eigenvalues --  -38.45173 -38.44598 -38.44295 -38.43874 -38.43813
  Beta  occ. eigenvalues --  -38.42963 -38.42894  -2.20957  -2.20387  -2.20179
  Beta  occ. eigenvalues --   -2.19722  -2.19588  -2.18839  -2.18718  -1.14632
  Beta  occ. eigenvalues --   -1.14614  -1.14589  -1.14070  -1.14041  -1.14018
  Beta  occ. eigenvalues --   -1.13907  -1.13859  -1.13816  -1.13402  -1.13388
  Beta  occ. eigenvalues --   -1.13342  -1.13317  -1.13275  -1.13252  -1.12544
  Beta  occ. eigenvalues --   -1.12489  -1.12454  -1.12436  -1.12377  -1.12330
  Beta  occ. eigenvalues --   -0.17633  -0.13451  -0.11026
  Beta virt. eigenvalues --   -0.07209  -0.06746  -0.05307  -0.03405  -0.02878
  Beta virt. eigenvalues --   -0.02451  -0.01954  -0.01714  -0.01317  -0.00351
  Beta virt. eigenvalues --   -0.00045   0.00044   0.00234   0.00698   0.00751

 Mulliken charges and spin densities:
               1          2
     1  Na   0.434646   0.051634
     2  Na   0.311010  -0.009805
     3  Na  -0.331234   0.357292
     4  Na  -0.062839  -0.011904
     5  Na  -0.040227  -0.033263
     6  Na  -0.393325   0.625096
     7  Na   0.081969   0.020949
 Sum of Mulliken charges =  -0.00000   1.00000

 Dipole moment (field-independent basis, Debye):
    X=             -0.0902    Y=              0.0241    Z=             -0.0271  Tot=              0.0973
 Quadrupole moment (field-independent basis, Debye-Ang):
   XX=            -47.4644   YY=            -73.9678   ZZ=            -71.7730
   XY=              0.2481   XZ=              0.5735   YZ=              0.2661

 Normal termination of Gaussian 16 at Tue Dec  5 19:29:36 2023.
