 Gaussian 16, Revision B.01,
 Gaussian 16:  ES64L-G16RevB.01 20-Dec-2017

 -------------------------
 #P B3LYP/6-311+g(d) force
 -------------------------

 -----
 DPGEN
 -----
 Symbolic Z-matrix:
 Charge =  0 Multiplicity = 2

                         Standard orientation:
 ---------------------------------------------------------------------
 Center     Atomic      Atomic             Coordinates (Angstroms)
 Number     Number       Type             X           Y           Z
 ---------------------------------------------------------------------
      1         11           0       -2.943047   -0.970714   -0.173414
      2         11           0        1.412663    2.527455   -0.444876
      3         11           0       -1.804630    2.217468    0.364169
      4         11           0        2.931831   -0.729823   -0.187064
      5         11           0       -0.187670   -0.179279   -1.696333
      6         11           0        0.484004   -0.035473    2.060115
      7         11           0        0.106850   -2.829634    0.077404
 ---------------------------------------------------------------------

 SCF Done:  E(UB3LYP) =  -1136.14062936     A.U. after   18 cycles

 The electronic state is 2-A.
 Alpha  occ. eigenvalues --  -38.43730 -38.43666 -38.43621 -38.43438 -38.43393
 Alpha  occ. eigenvalues --  -38.43382 -38.43210  -2.19586  -2.19568  -2.19468
 Alpha  occ. eigenvalues --   -2.19318  -2.19257  -2.19246  -2.19205  -1.13285
 Alpha  occ. eigenvalues --   -1.13260  -1.13228  -1.13222  -1.13194  -1.13178
 Alpha  occ. eigenvalues --   -1.13171  -1.13126  -1.13113  -1.13037  -1.12986
 Alpha  occ. eigenvalues --   -1.12974  -1.12929  -1.12926  -1.12922  -1.12909
 Alpha  occ. eigenvalues --   -1.12892  -1.12863  -1.12851  -1.12819  -1.12813
 Alpha  occ. eigenvalues --   -0.18871  -0.12877  -0.12686  -0.10985
 Alpha virt. eigenvalues --   -0.05354  -0.04943  -0.04802  -0.03212  -0.03091
 Alpha virt. eigenvalues --   -0.02688  -0.01318  -0.01051  -0.00228  -0.00156
 Alpha virt. eigenvalues --   -0.00001   0.00374   0.00861   0.00914   0.00935

  Beta  occ. eigenvalues --  -38.43724 -38.43619 -38.43574 -38.43431 -38.43385
  Beta  occ. eigenvalues --  -38.43372 -38.43143  -2.19579  -2.19468  -2.19398
  Beta  occ. eigenvalues --   -2.19309  -2.19246  -2.19231  -2.19083  -1.13266
  Beta  occ. eigenvalues --   -1.13236  -1.13214  -1.13164  -1.13124  -1.13115
  Beta  occ. eigenvalues --   -1.13110  -1.13079  -1.13065  -1.13019  -1.12964
  Beta  occ. eigenvalues --   -1.12955  -1.12922  -1.12908  -1.12902  -1.12889
  Beta  occ. eigenvalues --   -1.12873  -1.12843  -1.12789  -1.12739  -1.12727
  Beta  occ. eigenvalues --   -0.18129  -0.12644  -0.12434
  Beta virt. eigenvalues --   -0.07048  -0.05342  -0.04929  -0.04725  -0.02423
  Beta virt. eigenvalues --   -0.02305  -0.01624  -0.01244  -0.00979  -0.00248
  Beta virt. eigenvalues --   -0.00199   0.00122   0.00396   0.00888   0.00923

 Mulliken charges and spin densities:
               1          2
     1  Na   0.123075  -0.054901
     2  Na   0.115138  -0.013922
     3  Na   0.075530   0.026918
     4  Na   0.230880  -0.068718
     5  Na  -0.247080   0.483459
     6  Na  -0.497113   0.702338
     7  Na   0.199570  -0.075175
 Sum of Mulliken charges =  -0.00000   1.00000

 Dipole moment (field-independent basis, Debye):
    X=              0.1092    Y=             -0.1203    Z=              0.1442  Tot=              0.2172
 Quadrupole moment (field-independent basis, Debye-Ang):
   XX=            -58.6771   YY=            -62.5881   ZZ=            -72.8617
   XY=              0.1353   XZ=             -1.4671   YZ=             -0.2595

 Normal termination of Gaussian 16 at Wed Dec  6 00:47:32 2023.
