 Gaussian 16, Revision B.01,
 Gaussian 16:  ES64L-G16RevB.01 20-Dec-2017

 -------------------------
 #P B3LYP/6-311+g(d) force
 -------------------------

 -----
 DPGEN
 -----
 Symbolic Z-matrix:
 Charge =  0 Multiplicity = 2

                         Standard orientation:
 ---------------------------------------------------------------------
 Center     Atomic      Atomic             Coordinates (Angstroms)
 Number     Number       Type             X           Y           Z
 ---------------------------------------------------------------------
      1         11           0       -1.765262   -2.307431   -0.051484
      2         11           0       -3.429270    0.634518    0.205858
      3         11           0        0.199690   -0.229695    2.081950
      4         11           0        0.394334   -0.351551   -1.901646
      5         11           0       -0.648655    2.677159   -0.486114
      6         11           0        2.237293   -1.675469   -0.229516
      7         11           0        3.011871    1.252470    0.380950
 ---------------------------------------------------------------------

 SCF Done:  E(UB3LYP) =  -1136.12672814     A.U. after   20 cycles

 The electronic state is 2-A.
 Alpha  occ. eigenvalues --  -38.44640 -38.44366 -38.44331 -38.43946 -38.43839
 Alpha  occ. eigenvalues --  -38.43245 -38.42978  -2.20428  -2.20208  -2.20198
 Alpha  occ. eigenvalues --   -2.19912  -2.19794  -2.19084  -2.18786  -1.14103
 Alpha  occ. eigenvalues --   -1.14084  -1.14073  -1.13924  -1.13879  -1.13862
 Alpha  occ. eigenvalues --   -1.13841  -1.13832  -1.13809  -1.13805  -1.13544
 Alpha  occ. eigenvalues --   -1.13499  -1.13422  -1.13386  -1.13359  -1.12765
 Alpha  occ. eigenvalues --   -1.12754  -1.12716  -1.12478  -1.12452  -1.12412
 Alpha  occ. eigenvalues --   -0.18599  -0.13517  -0.11729  -0.11251
 Alpha virt. eigenvalues --   -0.06340  -0.05223  -0.03943  -0.03609  -0.03036
 Alpha virt. eigenvalues --   -0.02735  -0.01916  -0.01075  -0.00217  -0.00181
 Alpha virt. eigenvalues --   -0.00049   0.00333   0.00592   0.00733   0.00862

  Beta  occ. eigenvalues --  -38.44644 -38.44358 -38.44247 -38.43859 -38.43823
  Beta  occ. eigenvalues --  -38.43244 -38.42969  -2.20436  -2.20196  -2.20042
  Beta  occ. eigenvalues --   -2.19787  -2.19739  -2.19085  -2.18772  -1.14105
  Beta  occ. eigenvalues --   -1.14087  -1.14079  -1.13917  -1.13845  -1.13822
  Beta  occ. eigenvalues --   -1.13770  -1.13731  -1.13725  -1.13693  -1.13440
  Beta  occ. eigenvalues --   -1.13408  -1.13380  -1.13356  -1.13288  -1.12763
  Beta  occ. eigenvalues --   -1.12741  -1.12715  -1.12462  -1.12434  -1.12406
  Beta  occ. eigenvalues --   -0.17826  -0.13325  -0.11476
  Beta virt. eigenvalues --   -0.07316  -0.06208  -0.05215  -0.03862  -0.02876
  Beta virt. eigenvalues --   -0.02086  -0.01901  -0.01806  -0.01039  -0.00257
  Beta virt. eigenvalues --   -0.00149   0.00064   0.00361   0.00784   0.00850

 Mulliken charges and spin densities:
               1          2
     1  Na   0.064507  -0.107166
     2  Na  -0.111490  -0.063918
     3  Na  -0.390770   0.610865
     4  Na  -0.120767   0.571373
     5  Na  -0.070527  -0.055993
     6  Na   0.695677   0.010303
     7  Na  -0.066630   0.034536
 Sum of Mulliken charges =  -0.00000   1.00000

 Dipole moment (field-independent basis, Debye):
    X=             -0.0286    Y=              0.0040    Z=              0.3812  Tot=              0.3823
 Quadrupole moment (field-independent basis, Debye-Ang):
   XX=            -53.0077   YY=            -70.6386   ZZ=            -71.7232
   XY=              1.3089   XZ=              0.0668   YZ=              0.2800

 Normal termination of Gaussian 16 at Tue Dec  5 20:16:06 2023.
