 Gaussian 16, Revision B.01,
 Gaussian 16:  ES64L-G16RevB.01 20-Dec-2017

 -------------------------
 #P B3LYP/6-311+g(d) force
 -------------------------

 -----
 DPGEN
 -----
 Symbolic Z-matrix:
 Charge =  0 Multiplicity = 2

                         Standard orientation:
 ---------------------------------------------------------------------
 Center     Atomic      Atomic             Coordinates (Angstroms)
 Number     Number       Type             X           Y           Z
 ---------------------------------------------------------------------
      1         11           0        3.897546    0.936111    0.319930
      2         11           0       -1.652190   -2.688503   -0.164102
      3         11           0        0.469855    0.393801   -1.429370
      4         11           0        0.114289    0.136833    1.737416
      5         11           0        2.010656   -1.707084   -0.380107
      6         11           0       -1.663592    2.937855   -0.361453
      7         11           0       -3.176565   -0.009012    0.277686
 ---------------------------------------------------------------------

 SCF Done:  E(UB3LYP) =  -1136.12079881     A.U. after   24 cycles

 The electronic state is 2-A.
 Alpha  occ. eigenvalues --  -38.45236 -38.44605 -38.44398 -38.43877 -38.43420
 Alpha  occ. eigenvalues --  -38.43083 -38.43014  -2.21021  -2.20482  -2.20265
 Alpha  occ. eigenvalues --   -2.19834  -2.19410  -2.18920  -2.18837  -1.14694
 Alpha  occ. eigenvalues --   -1.14678  -1.14642  -1.14221  -1.14116  -1.14080
 Alpha  occ. eigenvalues --   -1.13951  -1.13931  -1.13895  -1.13697  -1.13482
 Alpha  occ. eigenvalues --   -1.13402  -1.13097  -1.13013  -1.12985  -1.12621
 Alpha  occ. eigenvalues --   -1.12573  -1.12553  -1.12502  -1.12498  -1.12480
 Alpha  occ. eigenvalues --   -0.18536  -0.13901  -0.11821  -0.10218
 Alpha virt. eigenvalues --   -0.07029  -0.05120  -0.04468  -0.03303  -0.02770
 Alpha virt. eigenvalues --   -0.02242  -0.01984  -0.01354  -0.00570  -0.00256
 Alpha virt. eigenvalues --   -0.00109   0.00153   0.00545   0.00691   0.00736

  Beta  occ. eigenvalues --  -38.45214 -38.44553 -38.44391 -38.43852 -38.43347
  Beta  occ. eigenvalues --  -38.43086 -38.43008  -2.20981  -2.20387  -2.20252
  Beta  occ. eigenvalues --   -2.19794  -2.19280  -2.18929  -2.18828  -1.14668
  Beta  occ. eigenvalues --   -1.14638  -1.14617  -1.14150  -1.14052  -1.14008
  Beta  occ. eigenvalues --   -1.13947  -1.13908  -1.13884  -1.13648  -1.13439
  Beta  occ. eigenvalues --   -1.13365  -1.13010  -1.12912  -1.12896  -1.12631
  Beta  occ. eigenvalues --   -1.12571  -1.12546  -1.12499  -1.12481  -1.12473
  Beta  occ. eigenvalues --   -0.17886  -0.13634  -0.11585
  Beta virt. eigenvalues --   -0.06897  -0.06433  -0.05046  -0.04307  -0.02756
  Beta virt. eigenvalues --   -0.02504  -0.01681  -0.01262  -0.01163  -0.00561
  Beta virt. eigenvalues --   -0.00165   0.00064   0.00210   0.00667   0.00768

 Mulliken charges and spin densities:
               1          2
     1  Na   0.049858   0.189798
     2  Na  -0.277158  -0.092504
     3  Na  -0.180769   0.262653
     4  Na  -0.296144   0.500168
     5  Na   0.502354   0.135187
     6  Na  -0.059197  -0.048951
     7  Na   0.261055   0.053649
 Sum of Mulliken charges =  -0.00000   1.00000

 Dipole moment (field-independent basis, Debye):
    X=              0.8597    Y=              0.2765    Z=              0.1464  Tot=              0.9149
 Quadrupole moment (field-independent basis, Debye-Ang):
   XX=            -50.5123   YY=            -66.4701   ZZ=            -75.8284
   XY=              1.6979   XZ=              0.3339   YZ=              0.7174

 Normal termination of Gaussian 16 at Tue Dec  5 17:15:26 2023.
