 Gaussian 16, Revision B.01,
 Gaussian 16:  ES64L-G16RevB.01 20-Dec-2017

 -------------------------
 #P B3LYP/6-311+g(d) force
 -------------------------

 -----
 DPGEN
 -----
 Symbolic Z-matrix:
 Charge =  0 Multiplicity = 2

                         Standard orientation:
 ---------------------------------------------------------------------
 Center     Atomic      Atomic             Coordinates (Angstroms)
 Number     Number       Type             X           Y           Z
 ---------------------------------------------------------------------
      1         11           0       -3.102304    1.240348   -0.258751
      2         11           0        0.335004    2.947017    0.395471
      3         11           0        3.081878    0.787093   -0.161598
      4         11           0       -0.261828    0.194426   -1.405022
      5         11           0        1.675394   -2.253673   -0.458401
      6         11           0        0.179773   -0.622856    1.707948
      7         11           0       -1.907916   -2.292355    0.180353
 ---------------------------------------------------------------------

 SCF Done:  E(UB3LYP) =  -1136.13405853     A.U. after   20 cycles

 The electronic state is 2-A.
 Alpha  occ. eigenvalues --  -38.44166 -38.43947 -38.43730 -38.43597 -38.43413
 Alpha  occ. eigenvalues --  -38.43054 -38.42822  -2.19974  -2.19788  -2.19613
 Alpha  occ. eigenvalues --   -2.19424  -2.19339  -2.19056  -2.18861  -1.13663
 Alpha  occ. eigenvalues --   -1.13624  -1.13608  -1.13456  -1.13453  -1.13437
 Alpha  occ. eigenvalues --   -1.13339  -1.13278  -1.13225  -1.13110  -1.13090
 Alpha  occ. eigenvalues --   -1.13066  -1.13046  -1.13014  -1.12946  -1.12754
 Alpha  occ. eigenvalues --   -1.12670  -1.12654  -1.12552  -1.12494  -1.12475
 Alpha  occ. eigenvalues --   -0.18916  -0.13117  -0.12707  -0.10239
 Alpha virt. eigenvalues --   -0.05735  -0.05319  -0.04796  -0.02910  -0.02805
 Alpha virt. eigenvalues --   -0.01896  -0.01686  -0.01284  -0.00476  -0.00362
 Alpha virt. eigenvalues --    0.00040   0.00325   0.00783   0.00837   0.00871

  Beta  occ. eigenvalues --  -38.44160 -38.43943 -38.43719 -38.43587 -38.43395
  Beta  occ. eigenvalues --  -38.42976 -38.42769  -2.19964  -2.19783  -2.19599
  Beta  occ. eigenvalues --   -2.19407  -2.19310  -2.18913  -2.18767  -1.13647
  Beta  occ. eigenvalues --   -1.13612  -1.13604  -1.13454  -1.13445  -1.13416
  Beta  occ. eigenvalues --   -1.13321  -1.13244  -1.13217  -1.13099  -1.13065
  Beta  occ. eigenvalues --   -1.13046  -1.13036  -1.12966  -1.12921  -1.12663
  Beta  occ. eigenvalues --   -1.12574  -1.12548  -1.12476  -1.12424  -1.12403
  Beta  occ. eigenvalues --   -0.18238  -0.12828  -0.12449
  Beta virt. eigenvalues --   -0.06428  -0.05637  -0.05297  -0.04728  -0.02198
  Beta virt. eigenvalues --   -0.02078  -0.01600  -0.01237  -0.00923  -0.00469
  Beta virt. eigenvalues --   -0.00393   0.00180   0.00379   0.00822   0.00852

 Mulliken charges and spin densities:
               1          2
     1  Na   0.008318  -0.056474
     2  Na  -0.102776   0.010652
     3  Na   0.040983  -0.012606
     4  Na  -0.303839   0.379962
     5  Na   0.287531   0.051164
     6  Na  -0.257821   0.663720
     7  Na   0.327604  -0.036418
 Sum of Mulliken charges =  -0.00000   1.00000

 Dipole moment (field-independent basis, Debye):
    X=             -0.1839    Y=              0.1320    Z=              0.1002  Tot=              0.2476
 Quadrupole moment (field-independent basis, Debye-Ang):
   XX=            -53.9274   YY=            -60.7069   ZZ=            -76.6372
   XY=              0.4322   XZ=             -0.8189   YZ=              1.7186

 Normal termination of Gaussian 16 at Wed Nov 29 03:12:48 2023.
