 Gaussian 16, Revision B.01,
 Gaussian 16:  ES64L-G16RevB.01 20-Dec-2017

 -------------------------
 #P B3LYP/6-311+g(d) force
 -------------------------

 -----
 DPGEN
 -----
 Symbolic Z-matrix:
 Charge =  0 Multiplicity = 2

                         Standard orientation:
 ---------------------------------------------------------------------
 Center     Atomic      Atomic             Coordinates (Angstroms)
 Number     Number       Type             X           Y           Z
 ---------------------------------------------------------------------
      1         11           0       -4.814912    0.243793   -0.115609
      2         11           0        0.794194   -1.531333   -1.477892
      3         11           0        1.088329    0.314368    1.520343
      4         11           0       -1.215596    1.654357   -0.153014
      5         11           0        2.246803    1.755837   -0.712888
      6         11           0       -2.180035   -1.606694    0.551701
      7         11           0        4.081217   -0.830330    0.387359
 ---------------------------------------------------------------------

 SCF Done:  E(UB3LYP) =  -1136.11411642     A.U. after   27 cycles

 The electronic state is 2-A.
 Alpha  occ. eigenvalues --  -38.45046 -38.44316 -38.44307 -38.43979 -38.43633
 Alpha  occ. eigenvalues --  -38.43599 -38.42607  -2.21033  -2.20152  -2.20130
 Alpha  occ. eigenvalues --   -2.19918  -2.19484  -2.19456  -2.18512  -1.14784
 Alpha  occ. eigenvalues --   -1.14708  -1.14624  -1.13827  -1.13814  -1.13775
 Alpha  occ. eigenvalues --   -1.13768  -1.13762  -1.13749  -1.13628  -1.13590
 Alpha  occ. eigenvalues --   -1.13492  -1.13176  -1.13157  -1.13130  -1.13120
 Alpha  occ. eigenvalues --   -1.13105  -1.13064  -1.12233  -1.12199  -1.12091
 Alpha  occ. eigenvalues --   -0.18552  -0.14601  -0.11087  -0.10836
 Alpha virt. eigenvalues --   -0.07461  -0.05030  -0.04445  -0.03375  -0.02940
 Alpha virt. eigenvalues --   -0.02051  -0.01773  -0.01298  -0.01246  -0.00885
 Alpha virt. eigenvalues --   -0.00254   0.00161   0.00306   0.00617   0.00726

  Beta  occ. eigenvalues --  -38.45035 -38.44272 -38.44219 -38.43967 -38.43627
  Beta  occ. eigenvalues --  -38.43552 -38.42600  -2.21018  -2.20075  -2.19965
  Beta  occ. eigenvalues --   -2.19898  -2.19480  -2.19370  -2.18503  -1.14779
  Beta  occ. eigenvalues --   -1.14655  -1.14623  -1.13773  -1.13757  -1.13704
  Beta  occ. eigenvalues --   -1.13663  -1.13656  -1.13640  -1.13616  -1.13572
  Beta  occ. eigenvalues --   -1.13463  -1.13178  -1.13157  -1.13072  -1.13067
  Beta  occ. eigenvalues --   -1.13041  -1.13007  -1.12226  -1.12177  -1.12091
  Beta  occ. eigenvalues --   -0.17968  -0.13829  -0.10636
  Beta virt. eigenvalues --   -0.07529  -0.07248  -0.04826  -0.03779  -0.03127
  Beta virt. eigenvalues --   -0.02767  -0.01870  -0.01345  -0.01122  -0.00741
  Beta virt. eigenvalues --   -0.00435  -0.00114   0.00227   0.00384   0.00671

 Mulliken charges and spin densities:
               1          2
     1  Na   0.183592   0.419004
     2  Na  -0.271201   0.009772
     3  Na   0.128807  -0.011655
     4  Na  -0.332732  -0.024965
     5  Na   0.124018   0.260800
     6  Na  -0.017805   0.070499
     7  Na   0.185321   0.276544
 Sum of Mulliken charges =  -0.00000   1.00000

 Dipole moment (field-independent basis, Debye):
    X=              0.3840    Y=              0.1453    Z=             -0.1617  Tot=              0.4412
 Quadrupole moment (field-independent basis, Debye-Ang):
   XX=            -63.9758   YY=            -78.9305   ZZ=            -60.3613
   XY=              0.0418   XZ=              0.1300   YZ=             -4.7634

 Normal termination of Gaussian 16 at Fri Dec  8 03:50:19 2023.
