 Gaussian 16, Revision B.01,
 Gaussian 16:  ES64L-G16RevB.01 20-Dec-2017

 -------------------------
 #P B3LYP/6-311+g(d) force
 -------------------------

 -----
 DPGEN
 -----
 Symbolic Z-matrix:
 Charge =  0 Multiplicity = 2

                         Standard orientation:
 ---------------------------------------------------------------------
 Center     Atomic      Atomic             Coordinates (Angstroms)
 Number     Number       Type             X           Y           Z
 ---------------------------------------------------------------------
      1         11           0        2.806481    1.531645   -0.104244
      2         11           0       -3.246492   -0.116376   -0.254393
      3         11           0       -0.886475    2.987812   -0.331626
      4         11           0       -0.073772    0.154988    2.165136
      5         11           0       -0.225725    0.053795   -1.035681
      6         11           0        2.476158   -1.781253   -0.383228
      7         11           0       -0.850175   -2.830611   -0.055964
 ---------------------------------------------------------------------

 SCF Done:  E(UB3LYP) =  -1136.13270020     A.U. after   18 cycles

 The electronic state is 2-A.
 Alpha  occ. eigenvalues --  -38.44327 -38.44040 -38.43849 -38.43569 -38.43461
 Alpha  occ. eigenvalues --  -38.43365 -38.42611  -2.20156  -2.19856  -2.19675
 Alpha  occ. eigenvalues --   -2.19423  -2.19327  -2.19251  -2.18738  -1.13860
 Alpha  occ. eigenvalues --   -1.13809  -1.13777  -1.13534  -1.13522  -1.13495
 Alpha  occ. eigenvalues --   -1.13395  -1.13326  -1.13288  -1.13114  -1.13078
 Alpha  occ. eigenvalues --   -1.13068  -1.13040  -1.12982  -1.12944  -1.12942
 Alpha  occ. eigenvalues --   -1.12859  -1.12851  -1.12437  -1.12384  -1.12363
 Alpha  occ. eigenvalues --   -0.18631  -0.13036  -0.12536  -0.10325
 Alpha virt. eigenvalues --   -0.05889  -0.05129  -0.04899  -0.02813  -0.02620
 Alpha virt. eigenvalues --   -0.02238  -0.01721  -0.01292  -0.00648  -0.00487
 Alpha virt. eigenvalues --   -0.00008   0.00315   0.00791   0.00795   0.00868

  Beta  occ. eigenvalues --  -38.44320 -38.44037 -38.43842 -38.43560 -38.43457
  Beta  occ. eigenvalues --  -38.43249 -38.42578  -2.20145  -2.19853  -2.19665
  Beta  occ. eigenvalues --   -2.19410  -2.19322  -2.19038  -2.18684  -1.13849
  Beta  occ. eigenvalues --   -1.13787  -1.13771  -1.13531  -1.13509  -1.13490
  Beta  occ. eigenvalues --   -1.13386  -1.13306  -1.13283  -1.13103  -1.13064
  Beta  occ. eigenvalues --   -1.13055  -1.13035  -1.12954  -1.12943  -1.12802
  Beta  occ. eigenvalues --   -1.12711  -1.12700  -1.12365  -1.12348  -1.12325
  Beta  occ. eigenvalues --   -0.17937  -0.12793  -0.12321
  Beta virt. eigenvalues --   -0.06397  -0.05845  -0.05080  -0.04838  -0.02120
  Beta virt. eigenvalues --   -0.01901  -0.01646  -0.01232  -0.01144  -0.00672
  Beta virt. eigenvalues --   -0.00504   0.00173   0.00385   0.00807   0.00846

 Mulliken charges and spin densities:
               1          2
     1  Na   0.324683   0.068401
     2  Na   0.477517   0.102873
     3  Na   0.319071   0.083867
     4  Na  -0.343963   0.678388
     5  Na  -1.563802  -0.168924
     6  Na   0.286395   0.097968
     7  Na   0.500099   0.137427
 Sum of Mulliken charges =  -0.00000   1.00000

 Dipole moment (field-independent basis, Debye):
    X=             -0.2058    Y=              0.2131    Z=              0.2515  Tot=              0.3887
 Quadrupole moment (field-independent basis, Debye-Ang):
   XX=            -54.7613   YY=            -59.4103   ZZ=            -76.8006
   XY=              0.7059   XZ=             -0.2050   YZ=             -0.2166

 Normal termination of Gaussian 16 at Thu Dec  7 08:31:07 2023.
