 Gaussian 16, Revision B.01,
 Gaussian 16:  ES64L-G16RevB.01 20-Dec-2017

 -------------------------
 #P B3LYP/6-311+g(d) force
 -------------------------

 -----
 DPGEN
 -----
 Symbolic Z-matrix:
 Charge =  0 Multiplicity = 2

                         Standard orientation:
 ---------------------------------------------------------------------
 Center     Atomic      Atomic             Coordinates (Angstroms)
 Number     Number       Type             X           Y           Z
 ---------------------------------------------------------------------
      1         11           0        3.915339    0.562886   -0.617269
      2         11           0       -0.200078   -0.144602    2.349724
      3         11           0        2.319036   -2.687238   -0.229114
      4         11           0       -2.506053    2.231901   -0.236783
      5         11           0       -1.286435   -2.078650   -0.377642
      6         11           0       -3.994266   -0.558669   -0.678101
      7         11           0        1.752457    2.674372   -0.210816
 ---------------------------------------------------------------------

 SCF Done:  E(UB3LYP) =  -1136.11363907     A.U. after   23 cycles

 The electronic state is 2-A.
 Alpha  occ. eigenvalues --  -38.44995 -38.44965 -38.44379 -38.44317 -38.44114
 Alpha  occ. eigenvalues --  -38.44050 -38.43954  -2.20765  -2.20759  -2.20183
 Alpha  occ. eigenvalues --   -2.20134  -2.19938  -2.19880  -2.19739  -1.14446
 Alpha  occ. eigenvalues --   -1.14435  -1.14416  -1.14407  -1.14394  -1.14367
 Alpha  occ. eigenvalues --   -1.13878  -1.13819  -1.13818  -1.13809  -1.13796
 Alpha  occ. eigenvalues --   -1.13775  -1.13668  -1.13591  -1.13563  -1.13560
 Alpha  occ. eigenvalues --   -1.13554  -1.13500  -1.13409  -1.13392  -1.13365
 Alpha  occ. eigenvalues --   -0.16933  -0.14028  -0.11945  -0.11001
 Alpha virt. eigenvalues --   -0.06983  -0.06125  -0.04039  -0.03543  -0.03058
 Alpha virt. eigenvalues --   -0.02386  -0.02246  -0.01767  -0.01518  -0.00452
 Alpha virt. eigenvalues --   -0.00359   0.00273   0.00418   0.00540   0.00615

  Beta  occ. eigenvalues --  -38.44993 -38.44851 -38.44379 -38.44270 -38.44080
  Beta  occ. eigenvalues --  -38.44044 -38.43959  -2.20764  -2.20548  -2.20135
  Beta  occ. eigenvalues --   -2.20096  -2.19875  -2.19872  -2.19751  -1.14446
  Beta  occ. eigenvalues --   -1.14436  -1.14393  -1.14266  -1.14252  -1.14215
  Beta  occ. eigenvalues --   -1.13824  -1.13818  -1.13797  -1.13766  -1.13758
  Beta  occ. eigenvalues --   -1.13751  -1.13637  -1.13556  -1.13547  -1.13536
  Beta  occ. eigenvalues --   -1.13519  -1.13482  -1.13417  -1.13397  -1.13353
  Beta  occ. eigenvalues --   -0.16281  -0.13538  -0.11898
  Beta virt. eigenvalues --   -0.07400  -0.06808  -0.05648  -0.03763  -0.03142
  Beta virt. eigenvalues --   -0.02410  -0.02133  -0.01746  -0.01704  -0.01353
  Beta virt. eigenvalues --   -0.00451  -0.00004   0.00385   0.00494   0.00682

 Mulliken charges and spin densities:
               1          2
     1  Na  -0.116463   0.107717
     2  Na  -0.250483   0.506705
     3  Na   0.242204   0.136400
     4  Na  -0.193327   0.024881
     5  Na  -0.796848   0.008523
     6  Na   0.986826   0.185322
     7  Na   0.128091   0.030452
 Sum of Mulliken charges =  -0.00000   1.00000

 Dipole moment (field-independent basis, Debye):
    X=             -0.5632    Y=             -0.0570    Z=              0.3065  Tot=              0.6437
 Quadrupole moment (field-independent basis, Debye-Ang):
   XX=            -60.9374   YY=            -68.2491   ZZ=            -71.6031
   XY=             -3.5743   XZ=              0.1073   YZ=              0.2702

 Normal termination of Gaussian 16 at Sun Dec  3 20:48:26 2023.
