 Gaussian 16, Revision B.01,
 Gaussian 16:  ES64L-G16RevB.01 20-Dec-2017

 -------------------------
 #P B3LYP/6-311+g(d) force
 -------------------------

 -----
 DPGEN
 -----
 Symbolic Z-matrix:
 Charge =  0 Multiplicity = 2

                         Standard orientation:
 ---------------------------------------------------------------------
 Center     Atomic      Atomic             Coordinates (Angstroms)
 Number     Number       Type             X           Y           Z
 ---------------------------------------------------------------------
      1         11           0        3.400953   -1.989265    0.194679
      2         11           0        0.450113   -0.455628   -1.344794
      3         11           0       -3.454486   -1.962638   -0.431022
      4         11           0       -0.349836    2.515386    0.031664
      5         11           0        3.354716    1.487150   -0.162474
      6         11           0       -3.272620    1.229806    0.244625
      7         11           0       -0.128839   -0.824812    1.467321
 ---------------------------------------------------------------------

 SCF Done:  E(UB3LYP) =  -1136.11550655     A.U. after   25 cycles

 The electronic state is 2-A.
 Alpha  occ. eigenvalues --  -38.45283 -38.44549 -38.44324 -38.44177 -38.44060
 Alpha  occ. eigenvalues --  -38.43723 -38.42460  -2.21199  -2.20341  -2.20230
 Alpha  occ. eigenvalues --   -2.20034  -2.19875  -2.19529  -2.18339  -1.14990
 Alpha  occ. eigenvalues --   -1.14816  -1.14795  -1.14027  -1.13993  -1.13973
 Alpha  occ. eigenvalues --   -1.13946  -1.13834  -1.13811  -1.13712  -1.13690
 Alpha  occ. eigenvalues --   -1.13679  -1.13557  -1.13514  -1.13492  -1.13198
 Alpha  occ. eigenvalues --   -1.13186  -1.13149  -1.12022  -1.12002  -1.11983
 Alpha  occ. eigenvalues --   -0.18152  -0.14216  -0.11527  -0.10057
 Alpha virt. eigenvalues --   -0.07008  -0.06295  -0.03926  -0.03258  -0.03065
 Alpha virt. eigenvalues --   -0.02492  -0.01930  -0.01281  -0.01130  -0.00407
 Alpha virt. eigenvalues --   -0.00207   0.00006   0.00438   0.00510   0.00593

  Beta  occ. eigenvalues --  -38.45263 -38.44533 -38.44260 -38.44147 -38.44006
  Beta  occ. eigenvalues --  -38.43688 -38.42458  -2.21167  -2.20314  -2.20113
  Beta  occ. eigenvalues --   -2.19981  -2.19776  -2.19465  -2.18337  -1.14938
  Beta  occ. eigenvalues --   -1.14795  -1.14786  -1.14012  -1.13973  -1.13931
  Beta  occ. eigenvalues --   -1.13859  -1.13757  -1.13736  -1.13677  -1.13649
  Beta  occ. eigenvalues --   -1.13628  -1.13491  -1.13452  -1.13411  -1.13157
  Beta  occ. eigenvalues --   -1.13139  -1.13096  -1.12021  -1.11994  -1.11981
  Beta  occ. eigenvalues --   -0.17626  -0.13524  -0.11346
  Beta virt. eigenvalues --   -0.06875  -0.06592  -0.06047  -0.03761  -0.02896
  Beta virt. eigenvalues --   -0.02626  -0.01940  -0.01849  -0.01108  -0.00823
  Beta virt. eigenvalues --   -0.00162  -0.00089   0.00238   0.00551   0.00597

 Mulliken charges and spin densities:
               1          2
     1  Na   0.411194   0.085000
     2  Na  -0.471815   0.140136
     3  Na   0.255693   0.219386
     4  Na  -0.253555  -0.234308
     5  Na   0.041281   0.396824
     6  Na   0.158715   0.346062
     7  Na  -0.141513   0.046900
 Sum of Mulliken charges =  -0.00000   1.00000

 Dipole moment (field-independent basis, Debye):
    X=              0.6447    Y=             -0.7877    Z=              0.3296  Tot=              1.0700
 Quadrupole moment (field-independent basis, Debye-Ang):
   XX=            -73.1767   YY=            -69.5757   ZZ=            -63.5911
   XY=             -4.1351   XZ=              0.9941   YZ=              1.8309

 Normal termination of Gaussian 16 at Thu Dec  7 02:05:21 2023.
