 Gaussian 16, Revision B.01,
 Gaussian 16:  ES64L-G16RevB.01 20-Dec-2017

 -------------------------
 #P B3LYP/6-311+g(d) force
 -------------------------

 -----
 DPGEN
 -----
 Symbolic Z-matrix:
 Charge =  0 Multiplicity = 2

                         Standard orientation:
 ---------------------------------------------------------------------
 Center     Atomic      Atomic             Coordinates (Angstroms)
 Number     Number       Type             X           Y           Z
 ---------------------------------------------------------------------
      1         11           0       -0.391018   -0.952767    1.815264
      2         11           0        1.134206    2.734096    0.594350
      3         11           0        3.350071    0.353868   -1.009770
      4         11           0       -3.225498   -1.233188   -1.007661
      5         11           0       -2.528123    1.825933    0.297071
      6         11           0        1.590797   -2.518190    0.635839
      7         11           0        0.069565   -0.209751   -1.325094
 ---------------------------------------------------------------------

 SCF Done:  E(UB3LYP) =  -1136.12677202     A.U. after   21 cycles

 The electronic state is 2-A.
 Alpha  occ. eigenvalues --  -38.44282 -38.44173 -38.44061 -38.43734 -38.43700
 Alpha  occ. eigenvalues --  -38.43414 -38.43337  -2.20108  -2.19995  -2.19879
 Alpha  occ. eigenvalues --   -2.19686  -2.19658  -2.19318  -2.19131  -1.13775
 Alpha  occ. eigenvalues --   -1.13752  -1.13737  -1.13677  -1.13636  -1.13618
 Alpha  occ. eigenvalues --   -1.13561  -1.13546  -1.13538  -1.13506  -1.13407
 Alpha  occ. eigenvalues --   -1.13305  -1.13292  -1.13284  -1.13267  -1.12949
 Alpha  occ. eigenvalues --   -1.12940  -1.12914  -1.12809  -1.12799  -1.12764
 Alpha  occ. eigenvalues --   -0.18246  -0.13544  -0.12015  -0.10909
 Alpha virt. eigenvalues --   -0.05899  -0.05355  -0.04589  -0.03320  -0.02921
 Alpha virt. eigenvalues --   -0.02274  -0.02052  -0.01161  -0.00637  -0.00140
 Alpha virt. eigenvalues --    0.00006   0.00243   0.00632   0.00757   0.00806

  Beta  occ. eigenvalues --  -38.44238 -38.44139 -38.44055 -38.43671 -38.43665
  Beta  occ. eigenvalues --  -38.43402 -38.43330  -2.20027  -2.19932  -2.19871
  Beta  occ. eigenvalues --   -2.19607  -2.19560  -2.19301  -2.19119  -1.13711
  Beta  occ. eigenvalues --   -1.13701  -1.13684  -1.13624  -1.13597  -1.13580
  Beta  occ. eigenvalues --   -1.13552  -1.13540  -1.13482  -1.13467  -1.13345
  Beta  occ. eigenvalues --   -1.13270  -1.13236  -1.13211  -1.13188  -1.12931
  Beta  occ. eigenvalues --   -1.12921  -1.12880  -1.12799  -1.12793  -1.12743
  Beta  occ. eigenvalues --   -0.17654  -0.13144  -0.11684
  Beta virt. eigenvalues --   -0.07349  -0.05668  -0.05216  -0.04213  -0.02947
  Beta virt. eigenvalues --   -0.02332  -0.01822  -0.01511  -0.01065  -0.00459
  Beta virt. eigenvalues --   -0.00049   0.00105   0.00305   0.00738   0.00815

 Mulliken charges and spin densities:
               1          2
     1  Na   0.254704   0.375702
     2  Na  -0.438855   0.061446
     3  Na   0.816263   0.081740
     4  Na   0.334679   0.159134
     5  Na   0.108906   0.103731
     6  Na  -0.316990   0.078356
     7  Na  -0.758706   0.139891
 Sum of Mulliken charges =  -0.00000   1.00000

 Dipole moment (field-independent basis, Debye):
    X=             -0.2720    Y=             -0.1358    Z=              0.0138  Tot=              0.3043
 Quadrupole moment (field-independent basis, Debye-Ang):
   XX=            -53.8005   YY=            -68.3601   ZZ=            -72.0894
   XY=             -0.8418   XZ=             -0.5705   YZ=              2.8856

 Normal termination of Gaussian 16 at Wed Nov 29 17:14:29 2023.
