 Gaussian 16, Revision B.01,
 Gaussian 16:  ES64L-G16RevB.01 20-Dec-2017

 -------------------------
 #P B3LYP/6-311+g(d) force
 -------------------------

 -----
 DPGEN
 -----
 Symbolic Z-matrix:
 Charge =  0 Multiplicity = 2

                         Standard orientation:
 ---------------------------------------------------------------------
 Center     Atomic      Atomic             Coordinates (Angstroms)
 Number     Number       Type             X           Y           Z
 ---------------------------------------------------------------------
      1         11           0        2.946096   -1.326066    0.497918
      2         11           0        5.979722   -1.291939   -0.252882
      3         11           0        3.739746    1.853366   -0.002997
      4         11           0        0.145177    2.220622    0.009647
      5         11           0       -0.814705   -0.913542   -0.350130
      6         11           0       -4.325954   -0.157345    0.156956
      7         11           0       -7.670082   -0.385096   -0.058512
 ---------------------------------------------------------------------

 SCF Done:  E(UB3LYP) =  -1136.11591833     A.U. after   21 cycles

 The electronic state is 2-A.
 Alpha  occ. eigenvalues --  -38.44994 -38.44980 -38.44800 -38.44631 -38.43976
 Alpha  occ. eigenvalues --  -38.43787 -38.43466  -2.20850  -2.20813  -2.20608
 Alpha  occ. eigenvalues --   -2.20430  -2.19807  -2.19557  -2.19239  -1.14564
 Alpha  occ. eigenvalues --   -1.14534  -1.14494  -1.14484  -1.14461  -1.14390
 Alpha  occ. eigenvalues --   -1.14265  -1.14264  -1.14219  -1.14109  -1.14086
 Alpha  occ. eigenvalues --   -1.14071  -1.13467  -1.13455  -1.13437  -1.13213
 Alpha  occ. eigenvalues --   -1.13213  -1.13191  -1.12928  -1.12925  -1.12857
 Alpha  occ. eigenvalues --   -0.16880  -0.13970  -0.12202  -0.11164
 Alpha virt. eigenvalues --   -0.06970  -0.05682  -0.04547  -0.03564  -0.03311
 Alpha virt. eigenvalues --   -0.02599  -0.01987  -0.01607  -0.01346  -0.00871
 Alpha virt. eigenvalues --   -0.00708  -0.00228  -0.00018   0.00336   0.00552

  Beta  occ. eigenvalues --  -38.44968 -38.44904 -38.44792 -38.44612 -38.43932
  Beta  occ. eigenvalues --  -38.43758 -38.43474  -2.20804  -2.20674  -2.20594
  Beta  occ. eigenvalues --   -2.20398  -2.19722  -2.19501  -2.19257  -1.14511
  Beta  occ. eigenvalues --   -1.14502  -1.14462  -1.14393  -1.14379  -1.14280
  Beta  occ. eigenvalues --   -1.14256  -1.14244  -1.14211  -1.14092  -1.14071
  Beta  occ. eigenvalues --   -1.14017  -1.13407  -1.13399  -1.13386  -1.13175
  Beta  occ. eigenvalues --   -1.13175  -1.13156  -1.12941  -1.12939  -1.12852
  Beta  occ. eigenvalues --   -0.16257  -0.13802  -0.11645
  Beta virt. eigenvalues --   -0.07781  -0.06613  -0.05189  -0.04338  -0.03328
  Beta virt. eigenvalues --   -0.02599  -0.02547  -0.01707  -0.01469  -0.01238
  Beta virt. eigenvalues --   -0.00522  -0.00319   0.00023   0.00100   0.00427

 Mulliken charges and spin densities:
               1          2
     1  Na  -0.882323   0.205844
     2  Na   0.960136  -0.002811
     3  Na   0.209943   0.176441
     4  Na  -0.100868   0.287394
     5  Na  -0.772648   0.226653
     6  Na   0.168404   0.076701
     7  Na   0.417358   0.029779
 Sum of Mulliken charges =  -0.00000   1.00000

 Dipole moment (field-independent basis, Debye):
    X=              3.2579    Y=              0.1639    Z=             -0.1860  Tot=              3.2673
 Quadrupole moment (field-independent basis, Debye-Ang):
   XX=            -53.8197   YY=            -68.6437   ZZ=            -73.5803
   XY=             -2.9855   XZ=             -1.3325   YZ=              0.2999

 Normal termination of Gaussian 16 at Wed Nov 29 00:25:24 2023.
