 Gaussian 16, Revision B.01,
 Gaussian 16:  ES64L-G16RevB.01 20-Dec-2017

 -------------------------
 #P B3LYP/6-311+g(d) force
 -------------------------

 -----
 DPGEN
 -----
 Symbolic Z-matrix:
 Charge =  0 Multiplicity = 2

                         Standard orientation:
 ---------------------------------------------------------------------
 Center     Atomic      Atomic             Coordinates (Angstroms)
 Number     Number       Type             X           Y           Z
 ---------------------------------------------------------------------
      1         11           0        0.395730    1.877241   -0.580190
      2         11           0       -2.359065    3.414796    0.367373
      3         11           0       -2.886452   -0.024989   -0.360501
      4         11           0       -2.911275   -3.036047    0.369337
      5         11           0       -0.218204   -1.741357   -0.657600
      6         11           0        2.456831   -0.236824    1.229965
      7         11           0        5.522435   -0.252820   -0.368385
 ---------------------------------------------------------------------

 SCF Done:  E(UB3LYP) =  -1136.12330837     A.U. after   18 cycles

 The electronic state is 2-A.
 Alpha  occ. eigenvalues --  -38.44115 -38.44102 -38.44021 -38.44019 -38.43911
 Alpha  occ. eigenvalues --  -38.43637 -38.43525  -2.19975  -2.19932  -2.19925
 Alpha  occ. eigenvalues --   -2.19915  -2.19767  -2.19454  -2.19341  -1.13740
 Alpha  occ. eigenvalues --   -1.13687  -1.13668  -1.13622  -1.13600  -1.13593
 Alpha  occ. eigenvalues --   -1.13572  -1.13551  -1.13550  -1.13527  -1.13484
 Alpha  occ. eigenvalues --   -1.13469  -1.13465  -1.13438  -1.13377  -1.13140
 Alpha  occ. eigenvalues --   -1.13114  -1.13104  -1.13000  -1.12999  -1.12969
 Alpha  occ. eigenvalues --   -0.17412  -0.13770  -0.12786  -0.10551
 Alpha virt. eigenvalues --   -0.05949  -0.05266  -0.05165  -0.03604  -0.02858
 Alpha virt. eigenvalues --   -0.02345  -0.01527  -0.01361  -0.00901  -0.00763
 Alpha virt. eigenvalues --   -0.00495   0.00054   0.00380   0.00450   0.00635

  Beta  occ. eigenvalues --  -38.44087 -38.44003 -38.44003 -38.43987 -38.43893
  Beta  occ. eigenvalues --  -38.43642 -38.43508  -2.19948  -2.19896  -2.19874
  Beta  occ. eigenvalues --   -2.19735  -2.19704  -2.19471  -2.19310  -1.13717
  Beta  occ. eigenvalues --   -1.13655  -1.13638  -1.13602  -1.13581  -1.13559
  Beta  occ. eigenvalues --   -1.13534  -1.13451  -1.13445  -1.13437  -1.13409
  Beta  occ. eigenvalues --   -1.13408  -1.13406  -1.13390  -1.13351  -1.13159
  Beta  occ. eigenvalues --   -1.13131  -1.13062  -1.12978  -1.12976  -1.12951
  Beta  occ. eigenvalues --   -0.16933  -0.13204  -0.12443
  Beta virt. eigenvalues --   -0.07047  -0.05655  -0.05054  -0.04832  -0.03172
  Beta virt. eigenvalues --   -0.02587  -0.02262  -0.01382  -0.01038  -0.00616
  Beta virt. eigenvalues --   -0.00380  -0.00178   0.00280   0.00522   0.00614

 Mulliken charges and spin densities:
               1          2
     1  Na  -0.709819  -0.110539
     2  Na   0.569024   0.160736
     3  Na  -0.264011   0.320948
     4  Na   0.800655   0.093012
     5  Na  -0.809844  -0.007060
     6  Na   0.515460  -0.033830
     7  Na  -0.101466   0.576732
 Sum of Mulliken charges =  -0.00000   1.00000

 Dipole moment (field-independent basis, Debye):
    X=             -1.1986    Y=             -0.5611    Z=              0.1497  Tot=              1.3319
 Quadrupole moment (field-independent basis, Debye-Ang):
   XX=            -74.0149   YY=            -61.9048   ZZ=            -67.0456
   XY=              3.2008   XZ=             -4.3305   YZ=             -0.4811

 Normal termination of Gaussian 16 at Wed Nov 29 01:33:19 2023.
