 Gaussian 16, Revision B.01,
 Gaussian 16:  ES64L-G16RevB.01 20-Dec-2017

 -------------------------
 #P B3LYP/6-311+g(d) force
 -------------------------

 -----
 DPGEN
 -----
 Symbolic Z-matrix:
 Charge =  0 Multiplicity = 2

                         Standard orientation:
 ---------------------------------------------------------------------
 Center     Atomic      Atomic             Coordinates (Angstroms)
 Number     Number       Type             X           Y           Z
 ---------------------------------------------------------------------
      1         11           0       -2.545695    1.695111    0.351699
      2         11           0        0.492029    2.924658   -0.588983
      3         11           0        3.221999    0.662485   -0.242959
      4         11           0       -2.734914   -1.893820   -0.425311
      5         11           0        0.019133    0.086045    2.100301
      6         11           0       -0.139185   -0.778161   -1.522418
      7         11           0        1.686633   -2.696318    0.327671
 ---------------------------------------------------------------------

 SCF Done:  E(UB3LYP) =  -1136.13309373     A.U. after   19 cycles

 The electronic state is 2-A.
 Alpha  occ. eigenvalues --  -38.44263 -38.44056 -38.44041 -38.43856 -38.43820
 Alpha  occ. eigenvalues --  -38.43357 -38.43334  -2.20050  -2.19873  -2.19868
 Alpha  occ. eigenvalues --   -2.19712  -2.19649  -2.19299  -2.19154  -1.13728
 Alpha  occ. eigenvalues --   -1.13709  -1.13687  -1.13599  -1.13566  -1.13535
 Alpha  occ. eigenvalues --   -1.13507  -1.13496  -1.13492  -1.13384  -1.13349
 Alpha  occ. eigenvalues --   -1.13341  -1.13319  -1.13298  -1.13280  -1.12974
 Alpha  occ. eigenvalues --   -1.12933  -1.12929  -1.12829  -1.12810  -1.12796
 Alpha  occ. eigenvalues --   -0.18105  -0.12918  -0.12443  -0.10669
 Alpha virt. eigenvalues --   -0.05895  -0.05400  -0.04712  -0.03222  -0.02957
 Alpha virt. eigenvalues --   -0.02455  -0.01654  -0.01338  -0.00639  -0.00401
 Alpha virt. eigenvalues --   -0.00032   0.00320   0.00755   0.00759   0.00830

  Beta  occ. eigenvalues --  -38.44257 -38.44048 -38.44029 -38.43814 -38.43760
  Beta  occ. eigenvalues --  -38.43323 -38.43312  -2.20041  -2.19860  -2.19848
  Beta  occ. eigenvalues --   -2.19639  -2.19534  -2.19217  -2.19135  -1.13714
  Beta  occ. eigenvalues --   -1.13703  -1.13677  -1.13576  -1.13556  -1.13510
  Beta  occ. eigenvalues --   -1.13490  -1.13486  -1.13481  -1.13323  -1.13304
  Beta  occ. eigenvalues --   -1.13274  -1.13254  -1.13222  -1.13188  -1.12914
  Beta  occ. eigenvalues --   -1.12878  -1.12866  -1.12812  -1.12798  -1.12774
  Beta  occ. eigenvalues --   -0.17438  -0.12700  -0.12158
  Beta virt. eigenvalues --   -0.06886  -0.05844  -0.05289  -0.04581  -0.02502
  Beta virt. eigenvalues --   -0.02290  -0.01574  -0.01480  -0.01232  -0.00651
  Beta virt. eigenvalues --   -0.00399   0.00122   0.00375   0.00762   0.00843

 Mulliken charges and spin densities:
               1          2
     1  Na   0.111632   0.093038
     2  Na  -0.153091   0.047527
     3  Na   0.019349   0.012583
     4  Na   0.174669  -0.024240
     5  Na  -0.206534   0.572728
     6  Na  -0.005758   0.310438
     7  Na   0.059733  -0.012075
 Sum of Mulliken charges =  -0.00000   1.00000

 Dipole moment (field-independent basis, Debye):
    X=              0.1162    Y=             -0.3567    Z=              0.2300  Tot=              0.4400
 Quadrupole moment (field-independent basis, Debye-Ang):
   XX=            -56.2600   YY=            -62.9997   ZZ=            -74.6856
   XY=             -0.8364   XZ=             -0.4632   YZ=             -1.6779

 Normal termination of Gaussian 16 at Thu Dec  7 13:38:08 2023.
