 Gaussian 16, Revision B.01,
 Gaussian 16:  ES64L-G16RevB.01 20-Dec-2017

 -------------------------
 #P B3LYP/6-311+g(d) force
 -------------------------

 -----
 DPGEN
 -----
 Symbolic Z-matrix:
 Charge =  0 Multiplicity = 2

                         Standard orientation:
 ---------------------------------------------------------------------
 Center     Atomic      Atomic             Coordinates (Angstroms)
 Number     Number       Type             X           Y           Z
 ---------------------------------------------------------------------
      1         11           0       -1.118975   -0.428776   -1.747435
      2         11           0        1.717095   -1.903708   -0.945138
      3         11           0        3.328234    0.775702    0.158235
      4         11           0       -2.719352   -1.618050    0.479912
      5         11           0        0.656728   -0.608817    2.343001
      6         11           0       -2.462040    1.979081    0.300650
      7         11           0        0.598311    1.804570   -0.589225
 ---------------------------------------------------------------------

 SCF Done:  E(UB3LYP) =  -1136.12141199     A.U. after   24 cycles

 The electronic state is 2-A.
 Alpha  occ. eigenvalues --  -38.44799 -38.44675 -38.44266 -38.43745 -38.43717
 Alpha  occ. eigenvalues --  -38.43594 -38.42621  -2.20612  -2.20541  -2.20099
 Alpha  occ. eigenvalues --   -2.19742  -2.19579  -2.19445  -2.18595  -1.14272
 Alpha  occ. eigenvalues --   -1.14249  -1.14246  -1.14228  -1.14191  -1.14164
 Alpha  occ. eigenvalues --   -1.13856  -1.13746  -1.13720  -1.13463  -1.13371
 Alpha  occ. eigenvalues --   -1.13356  -1.13246  -1.13224  -1.13205  -1.13125
 Alpha  occ. eigenvalues --   -1.13102  -1.13081  -1.12303  -1.12244  -1.12218
 Alpha  occ. eigenvalues --   -0.18752  -0.13819  -0.11600  -0.11339
 Alpha virt. eigenvalues --   -0.06333  -0.05310  -0.04305  -0.03434  -0.02953
 Alpha virt. eigenvalues --   -0.02673  -0.01907  -0.01021  -0.00346  -0.00029
 Alpha virt. eigenvalues --    0.00223   0.00260   0.00414   0.00641   0.00809

  Beta  occ. eigenvalues --  -38.44709 -38.44674 -38.44266 -38.43689 -38.43688
  Beta  occ. eigenvalues --  -38.43592 -38.42606  -2.20540  -2.20444  -2.20100
  Beta  occ. eigenvalues --   -2.19641  -2.19530  -2.19442  -2.18571  -1.14249
  Beta  occ. eigenvalues --   -1.14186  -1.14166  -1.14153  -1.14132  -1.14100
  Beta  occ. eigenvalues --   -1.13849  -1.13735  -1.13722  -1.13393  -1.13306
  Beta  occ. eigenvalues --   -1.13284  -1.13203  -1.13174  -1.13171  -1.13124
  Beta  occ. eigenvalues --   -1.13087  -1.13080  -1.12279  -1.12214  -1.12198
  Beta  occ. eigenvalues --   -0.17993  -0.13686  -0.11124
  Beta virt. eigenvalues --   -0.07611  -0.06109  -0.05253  -0.03639  -0.03124
  Beta virt. eigenvalues --   -0.02253  -0.01934  -0.01784  -0.00917  -0.00162
  Beta virt. eigenvalues --    0.00042   0.00240   0.00312   0.00588   0.00745

 Mulliken charges and spin densities:
               1          2
     1  Na   0.921836  -0.158114
     2  Na  -0.326328   0.179378
     3  Na   0.854551  -0.017372
     4  Na  -0.130823   0.102743
     5  Na  -0.352504   0.508704
     6  Na  -0.022551   0.114197
     7  Na  -0.944182   0.270464
 Sum of Mulliken charges =  -0.00000   1.00000

 Dipole moment (field-independent basis, Debye):
    X=              0.2875    Y=             -0.3000    Z=              0.7229  Tot=              0.8338
 Quadrupole moment (field-independent basis, Debye-Ang):
   XX=            -51.7886   YY=            -75.0598   ZZ=            -68.4624
   XY=             -0.1332   XZ=             -1.8091   YZ=              1.2690

 Normal termination of Gaussian 16 at Thu Dec  7 20:55:39 2023.
