 Gaussian 16, Revision B.01,
 Gaussian 16:  ES64L-G16RevB.01 20-Dec-2017

 -------------------------
 #P B3LYP/6-311+g(d) force
 -------------------------

 -----
 DPGEN
 -----
 Symbolic Z-matrix:
 Charge =  0 Multiplicity = 2

                         Standard orientation:
 ---------------------------------------------------------------------
 Center     Atomic      Atomic             Coordinates (Angstroms)
 Number     Number       Type             X           Y           Z
 ---------------------------------------------------------------------
      1         11           0       -3.859445   -2.310114   -0.045805
      2         11           0       -0.761619   -1.353228    1.580491
      3         11           0       -1.287228    3.086379   -0.105040
      4         11           0       -3.388671    0.670959   -1.500457
      5         11           0        1.677097    2.270901    1.279450
      6         11           0        2.651923   -1.830850    0.144266
      7         11           0        4.967943   -0.534048   -1.352906
 ---------------------------------------------------------------------

 SCF Done:  E(UB3LYP) =  -1136.11398676     A.U. after   20 cycles

 The electronic state is 2-A.
 Alpha  occ. eigenvalues --  -38.44819 -38.44802 -38.44638 -38.44358 -38.44331
 Alpha  occ. eigenvalues --  -38.44032 -38.43400  -2.20589  -2.20572  -2.20445
 Alpha  occ. eigenvalues --   -2.20183  -2.20113  -2.19839  -2.19192  -1.14262
 Alpha  occ. eigenvalues --   -1.14251  -1.14235  -1.14231  -1.14201  -1.14194
 Alpha  occ. eigenvalues --   -1.14111  -1.14097  -1.14073  -1.13876  -1.13814
 Alpha  occ. eigenvalues --   -1.13809  -1.13784  -1.13771  -1.13759  -1.13512
 Alpha  occ. eigenvalues --   -1.13492  -1.13489  -1.12866  -1.12860  -1.12835
 Alpha  occ. eigenvalues --   -0.16174  -0.13955  -0.12152  -0.11317
 Alpha virt. eigenvalues --   -0.06887  -0.05459  -0.04342  -0.03725  -0.03042
 Alpha virt. eigenvalues --   -0.02493  -0.02008  -0.01659  -0.01152  -0.00767
 Alpha virt. eigenvalues --   -0.00498  -0.00036   0.00043   0.00252   0.00535

  Beta  occ. eigenvalues --  -38.44813 -38.44722 -38.44583 -38.44338 -38.44289
  Beta  occ. eigenvalues --  -38.44036 -38.43395  -2.20560  -2.20440  -2.20342
  Beta  occ. eigenvalues --   -2.20128  -2.20054  -2.19853  -2.19184  -1.14240
  Beta  occ. eigenvalues --   -1.14220  -1.14200  -1.14163  -1.14131  -1.14088
  Beta  occ. eigenvalues --   -1.14041  -1.14027  -1.14003  -1.13797  -1.13796
  Beta  occ. eigenvalues --   -1.13771  -1.13764  -1.13726  -1.13721  -1.13528
  Beta  occ. eigenvalues --   -1.13506  -1.13442  -1.12862  -1.12856  -1.12817
  Beta  occ. eigenvalues --   -0.15505  -0.13358  -0.11989
  Beta virt. eigenvalues --   -0.07977  -0.06470  -0.04869  -0.04114  -0.03548
  Beta virt. eigenvalues --   -0.02568  -0.02326  -0.01674  -0.01466  -0.00829
  Beta virt. eigenvalues --   -0.00679  -0.00258   0.00171   0.00209   0.00367

 Mulliken charges and spin densities:
               1          2
     1  Na   0.441000  -0.044560
     2  Na  -0.508131   0.438491
     3  Na   0.071019   0.032205
     4  Na  -0.096146   0.268389
     5  Na  -0.023480  -0.008780
     6  Na  -0.226091   0.045342
     7  Na   0.341829   0.268915
 Sum of Mulliken charges =  -0.00000   1.00000

 Dipole moment (field-independent basis, Debye):
    X=             -0.0346    Y=             -0.1251    Z=             -0.1313  Tot=              0.1846
 Quadrupole moment (field-independent basis, Debye-Ang):
   XX=            -59.9352   YY=            -69.5850   ZZ=            -68.6709
   XY=              8.0290   XZ=              0.5749   YZ=             -0.9370

 Normal termination of Gaussian 16 at Mon Dec  4 02:59:12 2023.
