 Gaussian 16, Revision B.01,
 Gaussian 16:  ES64L-G16RevB.01 20-Dec-2017

 -------------------------
 #P B3LYP/6-311+g(d) force
 -------------------------

 -----
 DPGEN
 -----
 Symbolic Z-matrix:
 Charge =  0 Multiplicity = 2

                         Standard orientation:
 ---------------------------------------------------------------------
 Center     Atomic      Atomic             Coordinates (Angstroms)
 Number     Number       Type             X           Y           Z
 ---------------------------------------------------------------------
      1         11           0       -3.269434   -2.179129   -0.710727
      2         11           0       -4.550424    1.141776    0.329194
      3         11           0       -0.238481   -3.151773   -0.070230
      4         11           0        3.052171   -2.370203    0.905715
      5         11           0        4.139531    0.374297   -0.549838
      6         11           0        2.005608    3.195605   -0.388466
      7         11           0       -1.138971    2.989427    0.484352
 ---------------------------------------------------------------------

 SCF Done:  E(UB3LYP) =  -1136.10923867     A.U. after   23 cycles

 The electronic state is 2-A.
 Alpha  occ. eigenvalues --  -38.45229 -38.45199 -38.44906 -38.44587 -38.44088
 Alpha  occ. eigenvalues --  -38.44048 -38.43811  -2.20990  -2.20986  -2.20688
 Alpha  occ. eigenvalues --   -2.20381  -2.19893  -2.19836  -2.19620  -1.14672
 Alpha  occ. eigenvalues --   -1.14666  -1.14657  -1.14648  -1.14628  -1.14620
 Alpha  occ. eigenvalues --   -1.14370  -1.14362  -1.14322  -1.14047  -1.14041
 Alpha  occ. eigenvalues --   -1.14028  -1.13556  -1.13554  -1.13524  -1.13487
 Alpha  occ. eigenvalues --   -1.13470  -1.13463  -1.13280  -1.13277  -1.13262
 Alpha  occ. eigenvalues --   -0.15671  -0.13986  -0.13513  -0.10872
 Alpha virt. eigenvalues --   -0.07821  -0.04641  -0.04481  -0.03672  -0.03599
 Alpha virt. eigenvalues --   -0.02343  -0.02288  -0.01610  -0.01242  -0.00908
 Alpha virt. eigenvalues --   -0.00748  -0.00361   0.00229   0.00452   0.00672

  Beta  occ. eigenvalues --  -38.45207 -38.45176 -38.44886 -38.44576 -38.44048
  Beta  occ. eigenvalues --  -38.43967 -38.43779  -2.20955  -2.20946  -2.20658
  Beta  occ. eigenvalues --   -2.20363  -2.19823  -2.19686  -2.19563  -1.14654
  Beta  occ. eigenvalues --   -1.14647  -1.14630  -1.14622  -1.14588  -1.14557
  Beta  occ. eigenvalues --   -1.14348  -1.14344  -1.14270  -1.14037  -1.14033
  Beta  occ. eigenvalues --   -1.14001  -1.13510  -1.13508  -1.13467  -1.13385
  Beta  occ. eigenvalues --   -1.13367  -1.13365  -1.13239  -1.13236  -1.13221
  Beta  occ. eigenvalues --   -0.15221  -0.13170  -0.12794
  Beta virt. eigenvalues --   -0.08078  -0.07632  -0.04116  -0.04038  -0.03502
  Beta virt. eigenvalues --   -0.03308  -0.02130  -0.02019  -0.01434  -0.01083
  Beta virt. eigenvalues --   -0.00578  -0.00490  -0.00180   0.00292   0.00507

 Mulliken charges and spin densities:
               1          2
     1  Na   0.271422  -0.005456
     2  Na   0.140537   0.385900
     3  Na  -0.253151   0.099414
     4  Na  -0.078935   0.118490
     5  Na  -0.112911   0.180169
     6  Na   0.398939  -0.019962
     7  Na  -0.365900   0.241445
 Sum of Mulliken charges =  -0.00000   1.00000

 Dipole moment (field-independent basis, Debye):
    X=              0.7028    Y=             -0.1345    Z=             -0.0276  Tot=              0.7161
 Quadrupole moment (field-independent basis, Debye-Ang):
   XX=            -59.9980   YY=            -69.6383   ZZ=            -71.0367
   XY=              1.9536   XZ=             -0.4477   YZ=             -0.7406

 Normal termination of Gaussian 16 at Sun Dec  3 15:10:09 2023.
