 Gaussian 16, Revision B.01,
 Gaussian 16:  ES64L-G16RevB.01 20-Dec-2017

 -------------------------
 #P B3LYP/6-311+g(d) force
 -------------------------

 -----
 DPGEN
 -----
 Symbolic Z-matrix:
 Charge =  0 Multiplicity = 2

                         Standard orientation:
 ---------------------------------------------------------------------
 Center     Atomic      Atomic             Coordinates (Angstroms)
 Number     Number       Type             X           Y           Z
 ---------------------------------------------------------------------
      1         11           0       -1.746011    0.484512    1.623867
      2         11           0        0.507326   -0.747873   -1.707911
      3         11           0        0.057529   -2.560765    1.055626
      4         11           0        3.973080   -0.831732   -0.210017
      5         11           0       -1.555691    2.517100   -0.779697
      6         11           0       -3.127473   -1.283078   -0.643229
      7         11           0        1.891240    2.421835    0.661361
 ---------------------------------------------------------------------

 SCF Done:  E(UB3LYP) =  -1136.12419871     A.U. after   21 cycles

 The electronic state is 2-A.
 Alpha  occ. eigenvalues --  -38.44936 -38.44719 -38.44291 -38.43914 -38.43802
 Alpha  occ. eigenvalues --  -38.43513 -38.43501  -2.20668  -2.20531  -2.20037
 Alpha  occ. eigenvalues --   -2.19727  -2.19639  -2.19420  -2.19328  -1.14348
 Alpha  occ. eigenvalues --   -1.14325  -1.14304  -1.14228  -1.14181  -1.14159
 Alpha  occ. eigenvalues --   -1.13723  -1.13704  -1.13658  -1.13437  -1.13399
 Alpha  occ. eigenvalues --   -1.13333  -1.13318  -1.13288  -1.13241  -1.13142
 Alpha  occ. eigenvalues --   -1.13084  -1.13057  -1.12989  -1.12960  -1.12944
 Alpha  occ. eigenvalues --   -0.17659  -0.12970  -0.12079  -0.10319
 Alpha virt. eigenvalues --   -0.06613  -0.05687  -0.04465  -0.03267  -0.03017
 Alpha virt. eigenvalues --   -0.02191  -0.02148  -0.01346  -0.00693  -0.00434
 Alpha virt. eigenvalues --   -0.00194   0.00290   0.00364   0.00647   0.00699

  Beta  occ. eigenvalues --  -38.44940 -38.44708 -38.44283 -38.43883 -38.43746
  Beta  occ. eigenvalues --  -38.43490 -38.43465  -2.20676  -2.20514  -2.20022
  Beta  occ. eigenvalues --   -2.19672  -2.19536  -2.19333  -2.19308  -1.14348
  Beta  occ. eigenvalues --   -1.14332  -1.14309  -1.14213  -1.14160  -1.14137
  Beta  occ. eigenvalues --   -1.13706  -1.13694  -1.13649  -1.13398  -1.13342
  Beta  occ. eigenvalues --   -1.13295  -1.13250  -1.13219  -1.13159  -1.13094
  Beta  occ. eigenvalues --   -1.13022  -1.13003  -1.12969  -1.12923  -1.12912
  Beta  occ. eigenvalues --   -0.16968  -0.12856  -0.11875
  Beta virt. eigenvalues --   -0.06589  -0.06488  -0.05579  -0.04215  -0.02773
  Beta virt. eigenvalues --   -0.02424  -0.02066  -0.01373  -0.01201  -0.00597
  Beta virt. eigenvalues --   -0.00407   0.00033   0.00333   0.00515   0.00725

 Mulliken charges and spin densities:
               1          2
     1  Na   0.243195   0.481097
     2  Na  -0.227091   0.444816
     3  Na  -0.240116  -0.010985
     4  Na   0.205678  -0.018271
     5  Na  -0.090719   0.077293
     6  Na   0.367034   0.082949
     7  Na  -0.257981  -0.056900
 Sum of Mulliken charges =  -0.00000   1.00000

 Dipole moment (field-independent basis, Debye):
    X=              0.3655    Y=             -0.3909    Z=             -0.0943  Tot=              0.5434
 Quadrupole moment (field-independent basis, Debye-Ang):
   XX=            -51.1052   YY=            -67.7780   ZZ=            -74.0413
   XY=              0.4409   XZ=              3.1522   YZ=             -0.9017

 Normal termination of Gaussian 16 at Mon Dec  4 05:30:22 2023.
