 Gaussian 16, Revision B.01,
 Gaussian 16:  ES64L-G16RevB.01 20-Dec-2017

 -------------------------
 #P B3LYP/6-311+g(d) force
 -------------------------

 -----
 DPGEN
 -----
 Symbolic Z-matrix:
 Charge =  0 Multiplicity = 2

                         Standard orientation:
 ---------------------------------------------------------------------
 Center     Atomic      Atomic             Coordinates (Angstroms)
 Number     Number       Type             X           Y           Z
 ---------------------------------------------------------------------
      1         11           0       -0.073244    0.445942    1.916560
      2         11           0        2.421584   -1.495013   -0.371589
      3         11           0       -0.393595   -2.372252    0.548841
      4         11           0       -2.886329   -0.606690   -0.227175
      5         11           0       -0.876597    2.514819   -0.049839
      6         11           0       -0.353951    0.039385   -1.782533
      7         11           0        2.162133    1.473809   -0.034266
 ---------------------------------------------------------------------

 SCF Done:  E(UB3LYP) =  -1136.12742639     A.U. after   19 cycles

 The electronic state is 2-A.
 Alpha  occ. eigenvalues --  -38.43779 -38.43718 -38.43532 -38.43401 -38.43390
 Alpha  occ. eigenvalues --  -38.43249 -38.43129  -2.19812  -2.19630  -2.19589
 Alpha  occ. eigenvalues --   -2.19382  -2.19317  -2.19222  -2.19107  -1.13534
 Alpha  occ. eigenvalues --   -1.13476  -1.13437  -1.13415  -1.13296  -1.13291
 Alpha  occ. eigenvalues --   -1.13245  -1.13231  -1.13172  -1.13147  -1.13054
 Alpha  occ. eigenvalues --   -1.13030  -1.13014  -1.12948  -1.12903  -1.12889
 Alpha  occ. eigenvalues --   -1.12873  -1.12797  -1.12786  -1.12746  -1.12711
 Alpha  occ. eigenvalues --   -0.19955  -0.13232  -0.12848  -0.11588
 Alpha virt. eigenvalues --   -0.05181  -0.04696  -0.04348  -0.03417  -0.03256
 Alpha virt. eigenvalues --   -0.02914  -0.01198  -0.00789  -0.00087   0.00307
 Alpha virt. eigenvalues --    0.00378   0.00404   0.00955   0.00990   0.01062

  Beta  occ. eigenvalues --  -38.43712 -38.43688 -38.43453 -38.43393 -38.43384
  Beta  occ. eigenvalues --  -38.43239 -38.43112  -2.19645  -2.19621  -2.19446
  Beta  occ. eigenvalues --   -2.19371  -2.19310  -2.19209  -2.19080  -1.13431
  Beta  occ. eigenvalues --   -1.13388  -1.13355  -1.13318  -1.13275  -1.13243
  Beta  occ. eigenvalues --   -1.13195  -1.13163  -1.13129  -1.13084  -1.13036
  Beta  occ. eigenvalues --   -1.13010  -1.12984  -1.12917  -1.12897  -1.12871
  Beta  occ. eigenvalues --   -1.12830  -1.12791  -1.12763  -1.12701  -1.12697
  Beta  occ. eigenvalues --   -0.19177  -0.12937  -0.12560
  Beta virt. eigenvalues --   -0.07551  -0.05156  -0.04680  -0.04338  -0.02564
  Beta virt. eigenvalues --   -0.02411  -0.01798  -0.01125  -0.00750   0.00062
  Beta virt. eigenvalues --    0.00272   0.00365   0.00391   0.00972   0.00993

 Mulliken charges and spin densities:
               1          2
     1  Na  -0.650272   0.437030
     2  Na  -0.071814  -0.044809
     3  Na   0.391194   0.145081
     4  Na   0.232384  -0.077153
     5  Na   0.465434  -0.074809
     6  Na  -0.738762   0.563614
     7  Na   0.371835   0.051046
 Sum of Mulliken charges =  -0.00000   1.00000

 Dipole moment (field-independent basis, Debye):
    X=             -0.2392    Y=              0.0730    Z=              0.0010  Tot=              0.2501
 Quadrupole moment (field-independent basis, Debye-Ang):
   XX=            -59.8011   YY=            -65.7734   ZZ=            -70.3681
   XY=             -0.2745   XZ=             -0.5515   YZ=             -0.5155

 Normal termination of Gaussian 16 at Thu Dec  7 19:35:09 2023.
