 Gaussian 16, Revision B.01,
 Gaussian 16:  ES64L-G16RevB.01 20-Dec-2017

 -------------------------
 #P B3LYP/6-311+g(d) force
 -------------------------

 -----
 DPGEN
 -----
 Symbolic Z-matrix:
 Charge =  0 Multiplicity = 2

                         Standard orientation:
 ---------------------------------------------------------------------
 Center     Atomic      Atomic             Coordinates (Angstroms)
 Number     Number       Type             X           Y           Z
 ---------------------------------------------------------------------
      1         11           0       -2.803538    1.101073   -0.257238
      2         11           0        0.338875    2.965388    0.322135
      3         11           0        3.144523    0.539478   -0.273163
      4         11           0       -0.056363    0.014642   -1.596438
      5         11           0        1.488300   -2.587719    0.021962
      6         11           0        0.113426   -0.122225    1.656067
      7         11           0       -2.225223   -1.910637    0.126675
 ---------------------------------------------------------------------

 SCF Done:  E(UB3LYP) =  -1136.13744954     A.U. after   22 cycles

 The electronic state is 2-A.
 Alpha  occ. eigenvalues --  -38.44255 -38.43784 -38.43570 -38.43482 -38.43314
 Alpha  occ. eigenvalues --  -38.42977 -38.42837  -2.20077  -2.19677  -2.19476
 Alpha  occ. eigenvalues --   -2.19346  -2.19153  -2.18991  -2.18847  -1.13755
 Alpha  occ. eigenvalues --   -1.13735  -1.13711  -1.13405  -1.13350  -1.13308
 Alpha  occ. eigenvalues --   -1.13150  -1.13133  -1.13094  -1.13039  -1.13018
 Alpha  occ. eigenvalues --   -1.12967  -1.12843  -1.12819  -1.12784  -1.12713
 Alpha  occ. eigenvalues --   -1.12611  -1.12604  -1.12526  -1.12461  -1.12458
 Alpha  occ. eigenvalues --   -0.19044  -0.13316  -0.12496  -0.10370
 Alpha virt. eigenvalues --   -0.05748  -0.05092  -0.04768  -0.03102  -0.02672
 Alpha virt. eigenvalues --   -0.02025  -0.01670  -0.01190  -0.00380  -0.00318
 Alpha virt. eigenvalues --    0.00049   0.00352   0.00796   0.00887   0.00896

  Beta  occ. eigenvalues --  -38.44248 -38.43775 -38.43563 -38.43477 -38.43305
  Beta  occ. eigenvalues --  -38.42911 -38.42758  -2.20066  -2.19665  -2.19466
  Beta  occ. eigenvalues --   -2.19340  -2.19141  -2.18870  -2.18704  -1.13733
  Beta  occ. eigenvalues --   -1.13726  -1.13704  -1.13400  -1.13331  -1.13284
  Beta  occ. eigenvalues --   -1.13145  -1.13107  -1.13079  -1.13033  -1.12994
  Beta  occ. eigenvalues --   -1.12960  -1.12828  -1.12792  -1.12779  -1.12627
  Beta  occ. eigenvalues --   -1.12525  -1.12515  -1.12428  -1.12362  -1.12350
  Beta  occ. eigenvalues --   -0.18339  -0.13034  -0.12223
  Beta virt. eigenvalues --   -0.06504  -0.05699  -0.05088  -0.04748  -0.02312
  Beta virt. eigenvalues --   -0.01922  -0.01563  -0.01121  -0.01034  -0.00409
  Beta virt. eigenvalues --   -0.00372   0.00173   0.00389   0.00831   0.00897

 Mulliken charges and spin densities:
               1          2
     1  Na   0.255885   0.024432
     2  Na  -0.003207  -0.065680
     3  Na   0.014134  -0.053103
     4  Na  -0.331663   0.569483
     5  Na   0.101069  -0.104903
     6  Na  -0.286154   0.681642
     7  Na   0.249936  -0.051870
 Sum of Mulliken charges =  -0.00000   1.00000

 Dipole moment (field-independent basis, Debye):
    X=              0.2769    Y=              0.0164    Z=             -0.0152  Tot=              0.2778
 Quadrupole moment (field-independent basis, Debye-Ang):
   XX=            -54.3748   YY=            -60.6919   ZZ=            -76.4122
   XY=              0.0378   XZ=             -0.4667   YZ=              0.1503

 Normal termination of Gaussian 16 at Tue Nov 28 19:15:17 2023.
