 Gaussian 16, Revision B.01,
 Gaussian 16:  ES64L-G16RevB.01 20-Dec-2017

 -------------------------
 #P B3LYP/6-311+g(d) force
 -------------------------

 -----
 DPGEN
 -----
 Symbolic Z-matrix:
 Charge =  0 Multiplicity = 2

                         Standard orientation:
 ---------------------------------------------------------------------
 Center     Atomic      Atomic             Coordinates (Angstroms)
 Number     Number       Type             X           Y           Z
 ---------------------------------------------------------------------
      1         11           0       -0.077222   -0.432036    1.399628
      2         11           0        0.260792   -0.267833   -1.371956
      3         11           0       -3.232490    1.021715    0.461278
      4         11           0       -2.556336   -2.214752   -0.353038
      5         11           0        2.985003    1.359998    0.341910
      6         11           0        2.623808   -2.428362    0.012243
      7         11           0       -0.003554    2.961269   -0.490066
 ---------------------------------------------------------------------

 SCF Done:  E(UB3LYP) =  -1136.12478416     A.U. after   23 cycles

 The electronic state is 2-A.
 Alpha  occ. eigenvalues --  -38.44602 -38.44348 -38.44285 -38.44166 -38.43889
 Alpha  occ. eigenvalues --  -38.42949 -38.42831  -2.20413  -2.20165  -2.20097
 Alpha  occ. eigenvalues --   -2.19955  -2.19846  -2.18846  -2.18786  -1.14096
 Alpha  occ. eigenvalues --   -1.14074  -1.14039  -1.13836  -1.13831  -1.13817
 Alpha  occ. eigenvalues --   -1.13766  -1.13741  -1.13723  -1.13703  -1.13633
 Alpha  occ. eigenvalues --   -1.13610  -1.13596  -1.13456  -1.13413  -1.12591
 Alpha  occ. eigenvalues --   -1.12495  -1.12441  -1.12434  -1.12424  -1.12397
 Alpha  occ. eigenvalues --   -0.18328  -0.13529  -0.12095  -0.09578
 Alpha virt. eigenvalues --   -0.06202  -0.06141  -0.04520  -0.03039  -0.02361
 Alpha virt. eigenvalues --   -0.02251  -0.01780  -0.01431  -0.00905  -0.00456
 Alpha virt. eigenvalues --    0.00008   0.00249   0.00621   0.00635   0.00782

  Beta  occ. eigenvalues --  -38.44592 -38.44338 -38.44261 -38.44167 -38.43852
  Beta  occ. eigenvalues --  -38.42937 -38.42760  -2.20398  -2.20149  -2.20054
  Beta  occ. eigenvalues --   -2.19959  -2.19779  -2.18767  -2.18719  -1.14078
  Beta  occ. eigenvalues --   -1.14063  -1.14022  -1.13827  -1.13821  -1.13783
  Beta  occ. eigenvalues --   -1.13726  -1.13707  -1.13699  -1.13641  -1.13630
  Beta  occ. eigenvalues --   -1.13609  -1.13591  -1.13411  -1.13363  -1.12503
  Beta  occ. eigenvalues --   -1.12456  -1.12425  -1.12408  -1.12345  -1.12312
  Beta  occ. eigenvalues --   -0.17706  -0.13233  -0.11854
  Beta virt. eigenvalues --   -0.06138  -0.06112  -0.05817  -0.04458  -0.02377
  Beta virt. eigenvalues --   -0.02115  -0.01743  -0.01672  -0.00921  -0.00709
  Beta virt. eigenvalues --   -0.00378   0.00166   0.00336   0.00652   0.00711

 Mulliken charges and spin densities:
               1          2
     1  Na  -0.258710   0.347066
     2  Na   0.055965   0.212799
     3  Na   0.040679   0.174506
     4  Na   0.173160   0.076471
     5  Na   0.079851   0.091662
     6  Na   0.039107   0.042943
     7  Na  -0.130052   0.054553
 Sum of Mulliken charges =  -0.00000   1.00000

 Dipole moment (field-independent basis, Debye):
    X=              0.1481    Y=             -0.4123    Z=             -0.0837  Tot=              0.4460
 Quadrupole moment (field-independent basis, Debye-Ang):
   XX=            -50.5022   YY=            -60.5510   ZZ=            -78.5733
   XY=              0.5051   XZ=              1.0854   YZ=              0.5723

 Normal termination of Gaussian 16 at Thu Dec  7 23:07:57 2023.
