 Gaussian 16, Revision B.01,
 Gaussian 16:  ES64L-G16RevB.01 20-Dec-2017

 -------------------------
 #P B3LYP/6-311+g(d) force
 -------------------------

 -----
 DPGEN
 -----
 Symbolic Z-matrix:
 Charge =  0 Multiplicity = 2

                         Standard orientation:
 ---------------------------------------------------------------------
 Center     Atomic      Atomic             Coordinates (Angstroms)
 Number     Number       Type             X           Y           Z
 ---------------------------------------------------------------------
      1         11           0       -0.011197   -0.060553   -1.411540
      2         11           0        2.649221   -1.617459   -0.533924
      3         11           0       -0.236165    0.150777    2.312456
      4         11           0       -3.173658    0.049013   -0.673669
      5         11           0       -0.749858    3.030377   -0.110566
      6         11           0        2.731599    1.235511    0.058031
      7         11           0       -1.209942   -2.787667    0.359211
 ---------------------------------------------------------------------

 SCF Done:  E(UB3LYP) =  -1136.13227661     A.U. after   19 cycles

 The electronic state is 2-A.
 Alpha  occ. eigenvalues --  -38.44331 -38.44073 -38.43929 -38.43719 -38.43466
 Alpha  occ. eigenvalues --  -38.43318 -38.43146  -2.20153  -2.19914  -2.19815
 Alpha  occ. eigenvalues --   -2.19606  -2.19282  -2.19153  -2.19122  -1.13850
 Alpha  occ. eigenvalues --   -1.13801  -1.13768  -1.13613  -1.13568  -1.13545
 Alpha  occ. eigenvalues --   -1.13524  -1.13472  -1.13448  -1.13281  -1.13228
 Alpha  occ. eigenvalues --   -1.13203  -1.12959  -1.12950  -1.12921  -1.12847
 Alpha  occ. eigenvalues --   -1.12823  -1.12796  -1.12786  -1.12760  -1.12753
 Alpha  occ. eigenvalues --   -0.18383  -0.13260  -0.12058  -0.11000
 Alpha virt. eigenvalues --   -0.05704  -0.04939  -0.04800  -0.03294  -0.02903
 Alpha virt. eigenvalues --   -0.02766  -0.01646  -0.01109  -0.00422  -0.00304
 Alpha virt. eigenvalues --   -0.00031   0.00335   0.00763   0.00859   0.00889

  Beta  occ. eigenvalues --  -38.44311 -38.43963 -38.43926 -38.43711 -38.43459
  Beta  occ. eigenvalues --  -38.43319 -38.43105  -2.20117  -2.19813  -2.19710
  Beta  occ. eigenvalues --   -2.19593  -2.19272  -2.19125  -2.19079  -1.13815
  Beta  occ. eigenvalues --   -1.13774  -1.13745  -1.13611  -1.13465  -1.13441
  Beta  occ. eigenvalues --   -1.13427  -1.13406  -1.13373  -1.13265  -1.13217
  Beta  occ. eigenvalues --   -1.13192  -1.12953  -1.12923  -1.12914  -1.12819
  Beta  occ. eigenvalues --   -1.12786  -1.12774  -1.12757  -1.12738  -1.12717
  Beta  occ. eigenvalues --   -0.17700  -0.12984  -0.11869
  Beta virt. eigenvalues --   -0.07053  -0.05618  -0.04900  -0.04716  -0.02588
  Beta virt. eigenvalues --   -0.02151  -0.01755  -0.01509  -0.01041  -0.00410
  Beta virt. eigenvalues --   -0.00325   0.00117   0.00383   0.00832   0.00878

 Mulliken charges and spin densities:
               1          2
     1  Na  -0.285064   0.007495
     2  Na   0.338216   0.063146
     3  Na  -0.521642   0.702102
     4  Na   0.201870   0.035193
     5  Na   0.000217   0.017634
     6  Na   0.204045   0.079212
     7  Na   0.062358   0.095216
 Sum of Mulliken charges =  -0.00000   1.00000

 Dipole moment (field-independent basis, Debye):
    X=             -0.2368    Y=             -0.0085    Z=              0.2217  Tot=              0.3245
 Quadrupole moment (field-independent basis, Debye-Ang):
   XX=            -57.5325   YY=            -63.2675   ZZ=            -73.3882
   XY=             -0.1031   XZ=              0.8725   YZ=             -0.0562

 Normal termination of Gaussian 16 at Thu Dec  7 02:24:30 2023.
