 Gaussian 16, Revision B.01,
 Gaussian 16:  ES64L-G16RevB.01 20-Dec-2017

 -------------------------
 #P B3LYP/6-311+g(d) force
 -------------------------

 -----
 DPGEN
 -----
 Symbolic Z-matrix:
 Charge =  0 Multiplicity = 2

                         Standard orientation:
 ---------------------------------------------------------------------
 Center     Atomic      Atomic             Coordinates (Angstroms)
 Number     Number       Type             X           Y           Z
 ---------------------------------------------------------------------
      1         11           0       -3.293470   -1.395361   -0.220909
      2         11           0        3.583319   -0.831436   -0.113814
      3         11           0       -1.915248    2.684003   -0.317772
      4         11           0        2.246086    2.071997    0.239632
      5         11           0       -0.823666    0.063740    2.093169
      6         11           0        0.373273   -2.793938   -0.052697
      7         11           0       -0.170293    0.200995   -1.627609
 ---------------------------------------------------------------------

 SCF Done:  E(UB3LYP) =  -1136.12829638     A.U. after   21 cycles

 The electronic state is 2-A.
 Alpha  occ. eigenvalues --  -38.45238 -38.44367 -38.44066 -38.43789 -38.43588
 Alpha  occ. eigenvalues --  -38.43577 -38.43382  -2.20993  -2.20158  -2.19874
 Alpha  occ. eigenvalues --   -2.19587  -2.19423  -2.19390  -2.19290  -1.14672
 Alpha  occ. eigenvalues --   -1.14645  -1.14632  -1.13850  -1.13824  -1.13795
 Alpha  occ. eigenvalues --   -1.13549  -1.13541  -1.13499  -1.13278  -1.13244
 Alpha  occ. eigenvalues --   -1.13224  -1.13102  -1.13086  -1.13066  -1.13054
 Alpha  occ. eigenvalues --   -1.13033  -1.13000  -1.12973  -1.12918  -1.12912
 Alpha  occ. eigenvalues --   -0.17792  -0.13145  -0.11972  -0.10324
 Alpha virt. eigenvalues --   -0.06560  -0.05669  -0.04417  -0.03147  -0.02670
 Alpha virt. eigenvalues --   -0.02421  -0.02176  -0.01505  -0.00834  -0.00403
 Alpha virt. eigenvalues --   -0.00108   0.00256   0.00636   0.00689   0.00734

  Beta  occ. eigenvalues --  -38.45237 -38.44370 -38.44062 -38.43782 -38.43582
  Beta  occ. eigenvalues --  -38.43482 -38.43320  -2.20994  -2.20165  -2.19868
  Beta  occ. eigenvalues --   -2.19576  -2.19382  -2.19246  -2.19178  -1.14652
  Beta  occ. eigenvalues --   -1.14646  -1.14635  -1.13855  -1.13823  -1.13799
  Beta  occ. eigenvalues --   -1.13542  -1.13524  -1.13499  -1.13260  -1.13225
  Beta  occ. eigenvalues --   -1.13217  -1.13088  -1.13044  -1.12999  -1.12966
  Beta  occ. eigenvalues --   -1.12934  -1.12908  -1.12894  -1.12837  -1.12832
  Beta  occ. eigenvalues --   -0.17114  -0.12985  -0.11752
  Beta virt. eigenvalues --   -0.06550  -0.06387  -0.05641  -0.04349  -0.02516
  Beta virt. eigenvalues --   -0.02127  -0.01927  -0.01467  -0.01357  -0.00854
  Beta virt. eigenvalues --   -0.00423   0.00087   0.00301   0.00714   0.00764

 Mulliken charges and spin densities:
               1          2
     1  Na   0.166435  -0.105881
     2  Na  -0.080711  -0.042601
     3  Na   0.071263  -0.109510
     4  Na   0.124110  -0.015882
     5  Na  -0.333092   0.785841
     6  Na  -0.001802  -0.066961
     7  Na   0.053797   0.554994
 Sum of Mulliken charges =  -0.00000   1.00000

 Dipole moment (field-independent basis, Debye):
    X=             -0.4567    Y=             -0.1682    Z=             -0.0574  Tot=              0.4901
 Quadrupole moment (field-independent basis, Debye-Ang):
   XX=            -50.3286   YY=            -64.8893   ZZ=            -77.1053
   XY=              0.1468   XZ=              1.2898   YZ=              0.6489

 Normal termination of Gaussian 16 at Fri Dec  8 06:14:23 2023.
