 Gaussian 16, Revision B.01,
 Gaussian 16:  ES64L-G16RevB.01 20-Dec-2017

 -------------------------
 #P B3LYP/6-311+g(d) force
 -------------------------

 -----
 DPGEN
 -----
 Symbolic Z-matrix:
 Charge =  0 Multiplicity = 2

                         Standard orientation:
 ---------------------------------------------------------------------
 Center     Atomic      Atomic             Coordinates (Angstroms)
 Number     Number       Type             X           Y           Z
 ---------------------------------------------------------------------
      1         11           0       -1.199545    2.671964    0.282229
      2         11           0        1.894376    0.924927    0.341537
      3         11           0       -1.469031   -0.805942    1.848908
      4         11           0       -0.992762   -1.026913   -1.489582
      5         11           0        4.728074    0.547289   -0.586664
      6         11           0       -4.387069    0.007264   -0.734201
      7         11           0        1.425956   -2.318589    0.337772
 ---------------------------------------------------------------------

 SCF Done:  E(UB3LYP) =  -1136.11668562     A.U. after   23 cycles

 The electronic state is 2-A.
 Alpha  occ. eigenvalues --  -38.45391 -38.45012 -38.44523 -38.43975 -38.43528
 Alpha  occ. eigenvalues --  -38.43163 -38.42816  -2.21211  -2.20865  -2.20316
 Alpha  occ. eigenvalues --   -2.19799  -2.19324  -2.19029  -2.18731  -1.14891
 Alpha  occ. eigenvalues --   -1.14886  -1.14822  -1.14546  -1.14532  -1.14482
 Alpha  occ. eigenvalues --   -1.13978  -1.13957  -1.13923  -1.13487  -1.13434
 Alpha  occ. eigenvalues --   -1.13419  -1.13003  -1.12985  -1.12940  -1.12727
 Alpha  occ. eigenvalues --   -1.12714  -1.12633  -1.12420  -1.12396  -1.12375
 Alpha  occ. eigenvalues --   -0.17840  -0.13782  -0.11433  -0.11007
 Alpha virt. eigenvalues --   -0.07232  -0.05080  -0.04407  -0.03343  -0.02905
 Alpha virt. eigenvalues --   -0.02185  -0.02059  -0.01567  -0.01189  -0.00524
 Alpha virt. eigenvalues --   -0.00430   0.00078   0.00301   0.00613   0.00701

  Beta  occ. eigenvalues --  -38.45372 -38.44996 -38.44448 -38.43923 -38.43492
  Beta  occ. eigenvalues --  -38.43165 -38.42808  -2.21179  -2.20838  -2.20177
  Beta  occ. eigenvalues --   -2.19702  -2.19261  -2.19032  -2.18723  -1.14873
  Beta  occ. eigenvalues --   -1.14841  -1.14802  -1.14521  -1.14514  -1.14456
  Beta  occ. eigenvalues --   -1.13882  -1.13857  -1.13835  -1.13426  -1.13367
  Beta  occ. eigenvalues --   -1.13351  -1.12963  -1.12928  -1.12900  -1.12731
  Beta  occ. eigenvalues --   -1.12713  -1.12631  -1.12423  -1.12380  -1.12332
  Beta  occ. eigenvalues --   -0.17322  -0.13113  -0.11095
  Beta virt. eigenvalues --   -0.07588  -0.06983  -0.04843  -0.03933  -0.03124
  Beta virt. eigenvalues --   -0.02641  -0.01861  -0.01721  -0.01192  -0.00837
  Beta virt. eigenvalues --   -0.00380  -0.00231   0.00202   0.00386   0.00675

 Mulliken charges and spin densities:
               1          2
     1  Na  -0.024023  -0.099144
     2  Na  -1.312897   0.168629
     3  Na   0.155363   0.069942
     4  Na   0.031959   0.101524
     5  Na   0.616243   0.316819
     6  Na   0.084955   0.345111
     7  Na   0.448401   0.097119
 Sum of Mulliken charges =  -0.00000   1.00000

 Dipole moment (field-independent basis, Debye):
    X=             -1.0283    Y=             -0.9309    Z=              0.4010  Tot=              1.4439
 Quadrupole moment (field-independent basis, Debye-Ang):
   XX=            -60.4832   YY=            -75.2305   ZZ=            -63.6104
   XY=             -3.6426   XZ=             -4.3601   YZ=             -2.2961

 Normal termination of Gaussian 16 at Sun Dec  3 19:55:24 2023.
