 Gaussian 16, Revision B.01,
 Gaussian 16:  ES64L-G16RevB.01 20-Dec-2017

 -------------------------
 #P B3LYP/6-311+g(d) force
 -------------------------

 -----
 DPGEN
 -----
 Symbolic Z-matrix:
 Charge =  0 Multiplicity = 2

                         Standard orientation:
 ---------------------------------------------------------------------
 Center     Atomic      Atomic             Coordinates (Angstroms)
 Number     Number       Type             X           Y           Z
 ---------------------------------------------------------------------
      1         11           0        0.189805    0.000685   -0.450923
      2         11           0       -3.432114   -1.057073   -0.197524
      3         11           0       -1.032269   -3.217583   -0.265770
      4         11           0        2.816624   -1.939027    0.305286
      5         11           0        3.440098    0.761482    0.476449
      6         11           0        0.332536    3.215045   -1.155529
      7         11           0       -2.314680    2.236471    1.288012
 ---------------------------------------------------------------------

 SCF Done:  E(UB3LYP) =  -1136.12172703     A.U. after   21 cycles

 The electronic state is 2-A.
 Alpha  occ. eigenvalues --  -38.44600 -38.44442 -38.44059 -38.43945 -38.43532
 Alpha  occ. eigenvalues --  -38.43473 -38.43373  -2.20491  -2.20250  -2.19963
 Alpha  occ. eigenvalues --   -2.19739  -2.19372  -2.19314  -2.19298  -1.14320
 Alpha  occ. eigenvalues --   -1.14126  -1.14098  -1.13932  -1.13914  -1.13889
 Alpha  occ. eigenvalues --   -1.13603  -1.13592  -1.13577  -1.13418  -1.13387
 Alpha  occ. eigenvalues --   -1.13355  -1.13052  -1.13035  -1.13025  -1.13014
 Alpha  occ. eigenvalues --   -1.12994  -1.12957  -1.12946  -1.12922  -1.12890
 Alpha  occ. eigenvalues --   -0.17336  -0.13901  -0.12954  -0.09884
 Alpha virt. eigenvalues --   -0.06446  -0.05395  -0.04682  -0.03294  -0.02961
 Alpha virt. eigenvalues --   -0.02055  -0.01735  -0.01393  -0.01150  -0.00805
 Alpha virt. eigenvalues --    0.00008   0.00222   0.00515   0.00622   0.00724

  Beta  occ. eigenvalues --  -38.44571 -38.44429 -38.44038 -38.43894 -38.43508
  Beta  occ. eigenvalues --  -38.43423 -38.43361  -2.20444  -2.20230  -2.19929
  Beta  occ. eigenvalues --   -2.19646  -2.19326  -2.19293  -2.19207  -1.14280
  Beta  occ. eigenvalues --   -1.14098  -1.14046  -1.13922  -1.13903  -1.13847
  Beta  occ. eigenvalues --   -1.13588  -1.13573  -1.13522  -1.13357  -1.13325
  Beta  occ. eigenvalues --   -1.13278  -1.13017  -1.13008  -1.12993  -1.12990
  Beta  occ. eigenvalues --   -1.12967  -1.12942  -1.12887  -1.12861  -1.12847
  Beta  occ. eigenvalues --   -0.16986  -0.13285  -0.12543
  Beta virt. eigenvalues --   -0.06532  -0.06311  -0.05168  -0.04457  -0.02834
  Beta virt. eigenvalues --   -0.02446  -0.01934  -0.01554  -0.01103  -0.00985
  Beta virt. eigenvalues --   -0.00462   0.00275   0.00345   0.00583   0.00729

 Mulliken charges and spin densities:
               1          2
     1  Na  -3.791775   0.191123
     2  Na   0.186296   0.185819
     3  Na   0.704105   0.071911
     4  Na   0.132736   0.143791
     5  Na   1.039711   0.106270
     6  Na   1.403953   0.103773
     7  Na   0.324974   0.197313
 Sum of Mulliken charges =  -0.00000   1.00000

 Dipole moment (field-independent basis, Debye):
    X=              0.4049    Y=             -0.1630    Z=              0.0005  Tot=              0.4365
 Quadrupole moment (field-independent basis, Debye-Ang):
   XX=            -65.3693   YY=            -59.2630   ZZ=            -72.2442
   XY=              3.8934   XZ=              1.7658   YZ=              0.6529

 Normal termination of Gaussian 16 at Fri Dec  8 18:00:59 2023.
