 Gaussian 16, Revision B.01,
 Gaussian 16:  ES64L-G16RevB.01 20-Dec-2017

 -------------------------
 #P B3LYP/6-311+g(d) force
 -------------------------

 -----
 DPGEN
 -----
 Symbolic Z-matrix:
 Charge =  0 Multiplicity = 2

                         Standard orientation:
 ---------------------------------------------------------------------
 Center     Atomic      Atomic             Coordinates (Angstroms)
 Number     Number       Type             X           Y           Z
 ---------------------------------------------------------------------
      1         11           0        1.591950   -2.022714   -0.731781
      2         11           0        1.214069    1.655525   -1.083510
      3         11           0       -1.793988    2.553438   -0.287419
      4         11           0        3.816040   -0.116118    0.675631
      5         11           0       -1.329593   -1.122807   -1.182304
      6         11           0        0.133972    0.345181    1.936327
      7         11           0       -3.632451   -1.292506    0.673056
 ---------------------------------------------------------------------

 SCF Done:  E(UB3LYP) =  -1136.12309851     A.U. after   22 cycles

 The electronic state is 2-A.
 Alpha  occ. eigenvalues --  -38.44974 -38.44806 -38.44405 -38.43654 -38.43369
 Alpha  occ. eigenvalues --  -38.43221 -38.42981  -2.20798  -2.20625  -2.20218
 Alpha  occ. eigenvalues --   -2.19546  -2.19195  -2.19121  -2.18937  -1.14494
 Alpha  occ. eigenvalues --   -1.14438  -1.14408  -1.14291  -1.14284  -1.14257
 Alpha  occ. eigenvalues --   -1.13937  -1.13858  -1.13842  -1.13268  -1.13191
 Alpha  occ. eigenvalues --   -1.13168  -1.12898  -1.12858  -1.12839  -1.12799
 Alpha  occ. eigenvalues --   -1.12784  -1.12715  -1.12637  -1.12589  -1.12541
 Alpha  occ. eigenvalues --   -0.18396  -0.13681  -0.11704  -0.10835
 Alpha virt. eigenvalues --   -0.06949  -0.05217  -0.04149  -0.03420  -0.02752
 Alpha virt. eigenvalues --   -0.02419  -0.02274  -0.01176  -0.00848  -0.00164
 Alpha virt. eigenvalues --    0.00110   0.00168   0.00361   0.00627   0.00750

  Beta  occ. eigenvalues --  -38.44921 -38.44787 -38.44393 -38.43620 -38.43367
  Beta  occ. eigenvalues --  -38.43193 -38.42945  -2.20698  -2.20591  -2.20194
  Beta  occ. eigenvalues --   -2.19488  -2.19194  -2.19073  -2.18876  -1.14424
  Beta  occ. eigenvalues --   -1.14370  -1.14331  -1.14269  -1.14258  -1.14228
  Beta  occ. eigenvalues --   -1.13924  -1.13840  -1.13821  -1.13219  -1.13138
  Beta  occ. eigenvalues --   -1.13124  -1.12885  -1.12853  -1.12836  -1.12772
  Beta  occ. eigenvalues --   -1.12722  -1.12689  -1.12588  -1.12524  -1.12500
  Beta  occ. eigenvalues --   -0.17673  -0.13492  -0.11430
  Beta virt. eigenvalues --   -0.07148  -0.06596  -0.05197  -0.03634  -0.03199
  Beta virt. eigenvalues --   -0.02359  -0.01973  -0.01494  -0.01143  -0.00497
  Beta virt. eigenvalues --   -0.00103   0.00136   0.00219   0.00508   0.00718

 Mulliken charges and spin densities:
               1          2
     1  Na  -0.159254   0.124386
     2  Na  -0.178113   0.185892
     3  Na   0.073048  -0.067804
     4  Na   0.632498   0.203514
     5  Na  -0.105869  -0.044294
     6  Na  -0.400094   0.456349
     7  Na   0.137784   0.141957
 Sum of Mulliken charges =  -0.00000   1.00000

 Dipole moment (field-independent basis, Debye):
    X=              0.4984    Y=              0.3915    Z=              0.6059  Tot=              0.8768
 Quadrupole moment (field-independent basis, Debye-Ang):
   XX=            -49.7296   YY=            -73.8612   ZZ=            -70.7740
   XY=             -1.7038   XZ=             -1.2357   YZ=             -1.4509

 Normal termination of Gaussian 16 at Thu Dec  7 04:25:52 2023.
