 Gaussian 16, Revision B.01,
 Gaussian 16:  ES64L-G16RevB.01 20-Dec-2017

 -------------------------
 #P B3LYP/6-311+g(d) force
 -------------------------

 -----
 DPGEN
 -----
 Symbolic Z-matrix:
 Charge =  0 Multiplicity = 2

                         Standard orientation:
 ---------------------------------------------------------------------
 Center     Atomic      Atomic             Coordinates (Angstroms)
 Number     Number       Type             X           Y           Z
 ---------------------------------------------------------------------
      1         11           0       -0.086095    0.241500    2.223846
      2         11           0        0.463550   -2.421952    0.578233
      3         11           0        0.136204    0.058192   -1.627358
      4         11           0       -2.593929   -1.810421   -0.626076
      5         11           0       -2.363933    1.938649   -0.000845
      6         11           0        3.320519   -0.554600   -0.393915
      7         11           0        1.123684    2.548631   -0.153885
 ---------------------------------------------------------------------

 SCF Done:  E(UB3LYP) =  -1136.13578817     A.U. after   19 cycles

 The electronic state is 2-A.
 Alpha  occ. eigenvalues --  -38.44082 -38.43966 -38.43763 -38.43566 -38.43448
 Alpha  occ. eigenvalues --  -38.43376 -38.43042  -2.19977  -2.19770  -2.19588
 Alpha  occ. eigenvalues --   -2.19395  -2.19372  -2.19324  -2.18955  -1.13651
 Alpha  occ. eigenvalues --   -1.13602  -1.13590  -1.13447  -1.13422  -1.13413
 Alpha  occ. eigenvalues --   -1.13268  -1.13257  -1.13221  -1.13159  -1.13086
 Alpha  occ. eigenvalues --   -1.13055  -1.13043  -1.13031  -1.12988  -1.12973
 Alpha  occ. eigenvalues --   -1.12937  -1.12912  -1.12659  -1.12618  -1.12556
 Alpha  occ. eigenvalues --   -0.18691  -0.12693  -0.12482  -0.11288
 Alpha virt. eigenvalues --   -0.05560  -0.05033  -0.04323  -0.03205  -0.03118
 Alpha virt. eigenvalues --   -0.02940  -0.01620  -0.01063  -0.00189  -0.00092
 Alpha virt. eigenvalues --    0.00093   0.00333   0.00789   0.00862   0.00951

  Beta  occ. eigenvalues --  -38.43974 -38.43963 -38.43761 -38.43555 -38.43441
  Beta  occ. eigenvalues --  -38.43320 -38.43025  -2.19779  -2.19766  -2.19586
  Beta  occ. eigenvalues --   -2.19376  -2.19317  -2.19269  -2.18928  -1.13516
  Beta  occ. eigenvalues --   -1.13463  -1.13451  -1.13436  -1.13416  -1.13413
  Beta  occ. eigenvalues --   -1.13258  -1.13248  -1.13217  -1.13121  -1.13060
  Beta  occ. eigenvalues --   -1.13032  -1.13024  -1.12985  -1.12961  -1.12917
  Beta  occ. eigenvalues --   -1.12905  -1.12874  -1.12635  -1.12569  -1.12546
  Beta  occ. eigenvalues --   -0.17947  -0.12444  -0.12244
  Beta virt. eigenvalues --   -0.07311  -0.05525  -0.04975  -0.04251  -0.02439
  Beta virt. eigenvalues --   -0.02377  -0.01885  -0.01531  -0.01009  -0.00139
  Beta virt. eigenvalues --   -0.00051   0.00123   0.00361   0.00837   0.00893

 Mulliken charges and spin densities:
               1          2
     1  Na  -0.337712   0.488913
     2  Na   0.331758   0.187324
     3  Na  -0.404391   0.412590
     4  Na   0.022409  -0.004940
     5  Na   0.112608  -0.000399
     6  Na   0.077020  -0.055112
     7  Na   0.198308  -0.028376
 Sum of Mulliken charges =  -0.00000   1.00000

 Dipole moment (field-independent basis, Debye):
    X=              0.0251    Y=              0.2641    Z=              0.1181  Tot=              0.2904
 Quadrupole moment (field-independent basis, Debye-Ang):
   XX=            -56.2842   YY=            -65.8647   ZZ=            -71.6761
   XY=             -0.3551   XZ=              0.4263   YZ=              0.4056

 Normal termination of Gaussian 16 at Tue Dec  5 19:56:15 2023.
