 Gaussian 16, Revision B.01,
 Gaussian 16:  ES64L-G16RevB.01 20-Dec-2017

 -------------------------
 #P B3LYP/6-311+g(d) force
 -------------------------

 -----
 DPGEN
 -----
 Symbolic Z-matrix:
 Charge =  0 Multiplicity = 2

                         Standard orientation:
 ---------------------------------------------------------------------
 Center     Atomic      Atomic             Coordinates (Angstroms)
 Number     Number       Type             X           Y           Z
 ---------------------------------------------------------------------
      1         11           0       -0.572200    0.125292    1.211602
      2         11           0        1.004803   -2.671620   -0.462209
      3         11           0       -3.489084    0.874650   -0.362337
      4         11           0        2.242046    1.505818    0.850418
      5         11           0       -0.368591    3.290463   -0.770342
      6         11           0       -2.598682   -2.423195    0.083157
      7         11           0        3.781708   -0.701408   -0.550290
 ---------------------------------------------------------------------

 SCF Done:  E(UB3LYP) =  -1136.12228414     A.U. after   23 cycles

 The electronic state is 2-A.
 Alpha  occ. eigenvalues --  -38.44907 -38.44519 -38.44274 -38.44121 -38.43695
 Alpha  occ. eigenvalues --  -38.43523 -38.43230  -2.20665  -2.20316  -2.20094
 Alpha  occ. eigenvalues --   -2.20019  -2.19632  -2.19364  -2.19104  -1.14353
 Alpha  occ. eigenvalues --   -1.14318  -1.14310  -1.14008  -1.13989  -1.13946
 Alpha  occ. eigenvalues --   -1.13774  -1.13759  -1.13740  -1.13732  -1.13695
 Alpha  occ. eigenvalues --   -1.13648  -1.13319  -1.13313  -1.13224  -1.13026
 Alpha  occ. eigenvalues --   -1.13009  -1.12980  -1.12773  -1.12733  -1.12717
 Alpha  occ. eigenvalues --   -0.17583  -0.13979  -0.12876  -0.09813
 Alpha virt. eigenvalues --   -0.06910  -0.05981  -0.04054  -0.03651  -0.02941
 Alpha virt. eigenvalues --   -0.02201  -0.01777  -0.01432  -0.01023  -0.00790
 Alpha virt. eigenvalues --   -0.00080   0.00356   0.00395   0.00603   0.00731

  Beta  occ. eigenvalues --  -38.44916 -38.44509 -38.44270 -38.44101 -38.43651
  Beta  occ. eigenvalues --  -38.43456 -38.43165  -2.20685  -2.20303  -2.20090
  Beta  occ. eigenvalues --   -2.19990  -2.19553  -2.19239  -2.18982  -1.14369
  Beta  occ. eigenvalues --   -1.14330  -1.14309  -1.14003  -1.13982  -1.13907
  Beta  occ. eigenvalues --   -1.13774  -1.13759  -1.13699  -1.13693  -1.13670
  Beta  occ. eigenvalues --   -1.13622  -1.13271  -1.13249  -1.13163  -1.12940
  Beta  occ. eigenvalues --   -1.12926  -1.12894  -1.12691  -1.12649  -1.12638
  Beta  occ. eigenvalues --   -0.17072  -0.13368  -0.12527
  Beta virt. eigenvalues --   -0.06781  -0.06425  -0.05847  -0.03923  -0.02982
  Beta virt. eigenvalues --   -0.02564  -0.01916  -0.01534  -0.01140  -0.00795
  Beta virt. eigenvalues --   -0.00670   0.00206   0.00442   0.00522   0.00729

 Mulliken charges and spin densities:
               1          2
     1  Na  -0.404801   0.120620
     2  Na  -0.203488   0.001612
     3  Na  -0.054497   0.467951
     4  Na   0.355927   0.022537
     5  Na  -0.032565  -0.072938
     6  Na   0.497826   0.060910
     7  Na  -0.158402   0.399308
 Sum of Mulliken charges =  -0.00000   1.00000

 Dipole moment (field-independent basis, Debye):
    X=             -0.4328    Y=              0.0999    Z=             -0.2455  Tot=              0.5075
 Quadrupole moment (field-independent basis, Debye-Ang):
   XX=            -72.5698   YY=            -58.7460   ZZ=            -69.9653
   XY=              6.3747   XZ=              0.6201   YZ=             -0.9403

 Normal termination of Gaussian 16 at Wed Nov 29 02:24:00 2023.
