 Gaussian 16, Revision B.01,
 Gaussian 16:  ES64L-G16RevB.01 20-Dec-2017

 -------------------------
 #P B3LYP/6-311+g(d) force
 -------------------------

 -----
 DPGEN
 -----
 Symbolic Z-matrix:
 Charge =  0 Multiplicity = 2

                         Standard orientation:
 ---------------------------------------------------------------------
 Center     Atomic      Atomic             Coordinates (Angstroms)
 Number     Number       Type             X           Y           Z
 ---------------------------------------------------------------------
      1         11           0        1.993139    2.019832   -0.038247
      2         11           0       -1.124963    0.278961    2.294166
      3         11           0       -1.931605   -1.920312   -0.546128
      4         11           0       -0.846476    1.215841   -1.500118
      5         11           0       -4.132824    0.346091   -0.061864
      6         11           0        1.406988   -1.249242   -0.235971
      7         11           0        4.635741   -0.691171    0.088162
 ---------------------------------------------------------------------

 SCF Done:  E(UB3LYP) =  -1136.10894685     A.U. after   33 cycles

 The electronic state is 2-A.
 Alpha  occ. eigenvalues --  -38.46461 -38.45211 -38.44315 -38.43874 -38.43788
 Alpha  occ. eigenvalues --  -38.43327 -38.42572  -2.22255  -2.21021  -2.20101
 Alpha  occ. eigenvalues --   -2.19767  -2.19677  -2.19175  -2.18483  -1.15925
 Alpha  occ. eigenvalues --   -1.15917  -1.15892  -1.14703  -1.14646  -1.14617
 Alpha  occ. eigenvalues --   -1.13766  -1.13762  -1.13750  -1.13468  -1.13417
 Alpha  occ. eigenvalues --   -1.13402  -1.13373  -1.13330  -1.13312  -1.12862
 Alpha  occ. eigenvalues --   -1.12846  -1.12797  -1.12174  -1.12135  -1.12099
 Alpha  occ. eigenvalues --   -0.18443  -0.14229  -0.11101  -0.10526
 Alpha virt. eigenvalues --   -0.08517  -0.05065  -0.04258  -0.03663  -0.03149
 Alpha virt. eigenvalues --   -0.02400  -0.02068  -0.01467  -0.01149  -0.00832
 Alpha virt. eigenvalues --   -0.00284   0.00175   0.00219   0.00524   0.00685

  Beta  occ. eigenvalues --  -38.46458 -38.45116 -38.44309 -38.43839 -38.43772
  Beta  occ. eigenvalues --  -38.43330 -38.42534  -2.22254  -2.20844  -2.20091
  Beta  occ. eigenvalues --   -2.19707  -2.19652  -2.19182  -2.18416  -1.15922
  Beta  occ. eigenvalues --   -1.15912  -1.15878  -1.14580  -1.14527  -1.14490
  Beta  occ. eigenvalues --   -1.13759  -1.13756  -1.13743  -1.13431  -1.13377
  Beta  occ. eigenvalues --   -1.13353  -1.13333  -1.13312  -1.13271  -1.12865
  Beta  occ. eigenvalues --   -1.12845  -1.12802  -1.12122  -1.12093  -1.12042
  Beta  occ. eigenvalues --   -0.17695  -0.14083  -0.10439
  Beta virt. eigenvalues --   -0.08252  -0.07042  -0.05021  -0.04090  -0.03088
  Beta virt. eigenvalues --   -0.02779  -0.01732  -0.01452  -0.01363  -0.01020
  Beta virt. eigenvalues --   -0.00546  -0.00236   0.00183   0.00413   0.00582

 Mulliken charges and spin densities:
               1          2
     1  Na   0.355037  -0.012029
     2  Na  -0.333944   0.494446
     3  Na   0.206811   0.075513
     4  Na  -0.337612   0.101217
     5  Na   0.547091   0.126767
     6  Na  -1.517108   0.116927
     7  Na   1.079726   0.097158
 Sum of Mulliken charges =  -0.00000   1.00000

 Dipole moment (field-independent basis, Debye):
    X=             -1.4540    Y=              1.0351    Z=              0.1081  Tot=              1.7881
 Quadrupole moment (field-independent basis, Debye-Ang):
   XX=            -46.7043   YY=            -76.5146   ZZ=            -72.7126
   XY=              0.4329   XZ=              3.3995   YZ=             -0.2964

 Normal termination of Gaussian 16 at Fri Dec  8 04:37:12 2023.
