 Gaussian 16, Revision B.01,
 Gaussian 16:  ES64L-G16RevB.01 20-Dec-2017

 -------------------------
 #P B3LYP/6-311+g(d) force
 -------------------------

 -----
 DPGEN
 -----
 Symbolic Z-matrix:
 Charge =  0 Multiplicity = 2

                         Standard orientation:
 ---------------------------------------------------------------------
 Center     Atomic      Atomic             Coordinates (Angstroms)
 Number     Number       Type             X           Y           Z
 ---------------------------------------------------------------------
      1         11           0        0.102742    0.294458   -1.401413
      2         11           0        3.553336   -0.622588   -0.470506
      3         11           0       -0.169814   -0.572866    1.775217
      4         11           0       -2.188550    2.340070   -0.288036
      5         11           0       -3.218360   -1.235148   -0.169157
      6         11           0        1.611666    2.528583    0.592140
      7         11           0        0.308980   -2.732510   -0.038244
 ---------------------------------------------------------------------

 SCF Done:  E(UB3LYP) =  -1136.12851824     A.U. after   20 cycles

 The electronic state is 2-A.
 Alpha  occ. eigenvalues --  -38.44585 -38.44533 -38.43743 -38.43682 -38.43488
 Alpha  occ. eigenvalues --  -38.43310 -38.43228  -2.20369  -2.20305  -2.19554
 Alpha  occ. eigenvalues --   -2.19497  -2.19391  -2.19283  -2.19192  -1.14054
 Alpha  occ. eigenvalues --   -1.14017  -1.14005  -1.13977  -1.13955  -1.13936
 Alpha  occ. eigenvalues --   -1.13261  -1.13258  -1.13216  -1.13186  -1.13174
 Alpha  occ. eigenvalues --   -1.13163  -1.13118  -1.13079  -1.13001  -1.12967
 Alpha  occ. eigenvalues --   -1.12918  -1.12881  -1.12837  -1.12787  -1.12758
 Alpha  occ. eigenvalues --   -0.18357  -0.12982  -0.12402  -0.10129
 Alpha virt. eigenvalues --   -0.06274  -0.05428  -0.04580  -0.03005  -0.02711
 Alpha virt. eigenvalues --   -0.02186  -0.01893  -0.01385  -0.00595  -0.00424
 Alpha virt. eigenvalues --   -0.00041   0.00239   0.00684   0.00762   0.00793

  Beta  occ. eigenvalues --  -38.44581 -38.44513 -38.43738 -38.43664 -38.43479
  Beta  occ. eigenvalues --  -38.43273 -38.43144  -2.20363  -2.20269  -2.19548
  Beta  occ. eigenvalues --   -2.19465  -2.19379  -2.19217  -2.19038  -1.14043
  Beta  occ. eigenvalues --   -1.14013  -1.13995  -1.13942  -1.13930  -1.13913
  Beta  occ. eigenvalues --   -1.13250  -1.13222  -1.13208  -1.13170  -1.13158
  Beta  occ. eigenvalues --   -1.13125  -1.13099  -1.13045  -1.12962  -1.12946
  Beta  occ. eigenvalues --   -1.12874  -1.12830  -1.12741  -1.12689  -1.12649
  Beta  occ. eigenvalues --   -0.17725  -0.12675  -0.12142
  Beta virt. eigenvalues --   -0.06528  -0.06079  -0.05320  -0.04501  -0.02411
  Beta virt. eigenvalues --   -0.02050  -0.01985  -0.01307  -0.01017  -0.00580
  Beta virt. eigenvalues --   -0.00417   0.00108   0.00311   0.00757   0.00785

 Mulliken charges and spin densities:
               1          2
     1  Na  -0.286592   0.480686
     2  Na   0.047539   0.083840
     3  Na   0.052540   0.448671
     4  Na   0.075699  -0.016313
     5  Na  -0.021889  -0.045072
     6  Na  -0.040005   0.072461
     7  Na   0.172709  -0.024272
 Sum of Mulliken charges =  -0.00000   1.00000

 Dipole moment (field-independent basis, Debye):
    X=             -0.1172    Y=             -0.0667    Z=              0.1243  Tot=              0.1834
 Quadrupole moment (field-independent basis, Debye-Ang):
   XX=            -51.4269   YY=            -63.2444   ZZ=            -76.4385
   XY=              1.0878   XZ=              0.3748   YZ=              2.0989

 Normal termination of Gaussian 16 at Tue Dec  5 14:58:51 2023.
