 Gaussian 16, Revision B.01,
 Gaussian 16:  ES64L-G16RevB.01 20-Dec-2017

 -------------------------
 #P B3LYP/6-311+g(d) force
 -------------------------

 -----
 DPGEN
 -----
 Symbolic Z-matrix:
 Charge =  0 Multiplicity = 2

                         Standard orientation:
 ---------------------------------------------------------------------
 Center     Atomic      Atomic             Coordinates (Angstroms)
 Number     Number       Type             X           Y           Z
 ---------------------------------------------------------------------
      1         11           0       -1.903112    2.509390   -0.010643
      2         11           0       -0.410373   -2.874592    0.366285
      3         11           0        2.929377   -1.022197    0.092371
      4         11           0       -0.153138    0.423841    2.070092
      5         11           0        2.047267    2.322936   -0.448604
      6         11           0        0.208670   -0.613556   -1.547961
      7         11           0       -2.718691   -0.745823   -0.521539
 ---------------------------------------------------------------------

 SCF Done:  E(UB3LYP) =  -1136.13530129     A.U. after   19 cycles

 The electronic state is 2-A.
 Alpha  occ. eigenvalues --  -38.43985 -38.43918 -38.43623 -38.43591 -38.43514
 Alpha  occ. eigenvalues --  -38.43484 -38.43217  -2.19786  -2.19756  -2.19467
 Alpha  occ. eigenvalues --   -2.19441  -2.19422  -2.19382  -2.19232  -1.13472
 Alpha  occ. eigenvalues --   -1.13464  -1.13445  -1.13425  -1.13411  -1.13370
 Alpha  occ. eigenvalues --   -1.13205  -1.13153  -1.13136  -1.13123  -1.13107
 Alpha  occ. eigenvalues --   -1.13097  -1.13089  -1.13078  -1.13063  -1.13032
 Alpha  occ. eigenvalues --   -1.13021  -1.12977  -1.12885  -1.12855  -1.12824
 Alpha  occ. eigenvalues --   -0.18656  -0.12993  -0.12569  -0.10752
 Alpha virt. eigenvalues --   -0.05534  -0.05082  -0.04879  -0.03164  -0.03106
 Alpha virt. eigenvalues --   -0.02469  -0.01327  -0.01194  -0.00441  -0.00280
 Alpha virt. eigenvalues --    0.00006   0.00362   0.00829   0.00852   0.00905

  Beta  occ. eigenvalues --  -38.43977 -38.43915 -38.43622 -38.43498 -38.43498
  Beta  occ. eigenvalues --  -38.43474 -38.43165  -2.19773  -2.19754  -2.19441
  Beta  occ. eigenvalues --   -2.19397  -2.19368  -2.19296  -2.19138  -1.13464
  Beta  occ. eigenvalues --   -1.13444  -1.13439  -1.13416  -1.13395  -1.13365
  Beta  occ. eigenvalues --   -1.13181  -1.13136  -1.13104  -1.13092  -1.13085
  Beta  occ. eigenvalues --   -1.13059  -1.13022  -1.13011  -1.12992  -1.12973
  Beta  occ. eigenvalues --   -1.12964  -1.12952  -1.12822  -1.12788  -1.12760
  Beta  occ. eigenvalues --   -0.17937  -0.12739  -0.12368
  Beta virt. eigenvalues --   -0.06849  -0.05526  -0.05027  -0.04782  -0.02401
  Beta virt. eigenvalues --   -0.02358  -0.01460  -0.01252  -0.01108  -0.00456
  Beta virt. eigenvalues --   -0.00303   0.00143   0.00400   0.00842   0.00896

 Mulliken charges and spin densities:
               1          2
     1  Na   0.033965  -0.061303
     2  Na   0.203900   0.120415
     3  Na   0.154183   0.006365
     4  Na  -0.510568   0.699021
     5  Na  -0.057470  -0.063698
     6  Na  -0.121219   0.268090
     7  Na   0.297209   0.031111
 Sum of Mulliken charges =  -0.00000   1.00000

 Dipole moment (field-independent basis, Debye):
    X=              0.3073    Y=              0.1342    Z=              0.1687  Tot=              0.3754
 Quadrupole moment (field-independent basis, Debye-Ang):
   XX=            -59.4232   YY=            -60.4792   ZZ=            -73.9540
   XY=             -0.2899   XZ=              0.9653   YZ=             -2.4252

 Normal termination of Gaussian 16 at Fri Dec  8 00:05:09 2023.
