 Gaussian 16, Revision B.01,
 Gaussian 16:  ES64L-G16RevB.01 20-Dec-2017

 -------------------------
 #P B3LYP/6-311+g(d) force
 -------------------------

 -----
 DPGEN
 -----
 Symbolic Z-matrix:
 Charge =  0 Multiplicity = 2

                         Standard orientation:
 ---------------------------------------------------------------------
 Center     Atomic      Atomic             Coordinates (Angstroms)
 Number     Number       Type             X           Y           Z
 ---------------------------------------------------------------------
      1         11           0       -2.213949    2.236916    0.231835
      2         11           0        0.062067    0.473435   -1.881709
      3         11           0        0.086080   -0.836200    1.948034
      4         11           0        2.028030    2.237490    0.259060
      5         11           0       -2.962922   -0.790020   -0.003050
      6         11           0        3.036564   -0.651797   -0.029918
      7         11           0       -0.035871   -2.669826   -0.524253
 ---------------------------------------------------------------------

 SCF Done:  E(UB3LYP) =  -1136.13423323     A.U. after   19 cycles

 The electronic state is 2-A.
 Alpha  occ. eigenvalues --  -38.44229 -38.44101 -38.43713 -38.43696 -38.43666
 Alpha  occ. eigenvalues --  -38.43520 -38.42922  -2.20095  -2.19962  -2.19596
 Alpha  occ. eigenvalues --   -2.19562  -2.19491  -2.19430  -2.18826  -1.13801
 Alpha  occ. eigenvalues --   -1.13754  -1.13733  -1.13658  -1.13624  -1.13605
 Alpha  occ. eigenvalues --   -1.13289  -1.13242  -1.13234  -1.13216  -1.13208
 Alpha  occ. eigenvalues --   -1.13203  -1.13161  -1.13149  -1.13134  -1.13103
 Alpha  occ. eigenvalues --   -1.13063  -1.13043  -1.12509  -1.12485  -1.12447
 Alpha  occ. eigenvalues --   -0.18614  -0.13456  -0.12162  -0.10875
 Alpha virt. eigenvalues --   -0.05801  -0.05371  -0.04313  -0.03473  -0.03069
 Alpha virt. eigenvalues --   -0.02535  -0.01609  -0.00939  -0.00408  -0.00229
 Alpha virt. eigenvalues --   -0.00045   0.00396   0.00769   0.00858   0.00896

  Beta  occ. eigenvalues --  -38.44225 -38.44097 -38.43708 -38.43664 -38.43627
  Beta  occ. eigenvalues --  -38.43442 -38.42906  -2.20090  -2.19958  -2.19556
  Beta  occ. eigenvalues --   -2.19488  -2.19467  -2.19288  -2.18800  -1.13799
  Beta  occ. eigenvalues --   -1.13734  -1.13723  -1.13656  -1.13607  -1.13598
  Beta  occ. eigenvalues --   -1.13234  -1.13205  -1.13202  -1.13192  -1.13159
  Beta  occ. eigenvalues --   -1.13145  -1.13132  -1.13130  -1.13114  -1.13012
  Beta  occ. eigenvalues --   -1.12956  -1.12945  -1.12495  -1.12435  -1.12430
  Beta  occ. eigenvalues --   -0.17869  -0.13236  -0.11971
  Beta virt. eigenvalues --   -0.06977  -0.05706  -0.05364  -0.04217  -0.02694
  Beta virt. eigenvalues --   -0.02345  -0.01528  -0.01516  -0.00875  -0.00436
  Beta virt. eigenvalues --   -0.00262   0.00117   0.00422   0.00836   0.00906

 Mulliken charges and spin densities:
               1          2
     1  Na  -0.062339  -0.091329
     2  Na  -0.214791   0.572504
     3  Na  -0.405489   0.607072
     4  Na  -0.056613  -0.090473
     5  Na   0.183790  -0.010999
     6  Na   0.302108   0.011208
     7  Na   0.253335   0.002016
 Sum of Mulliken charges =  -0.00000   1.00000

 Dipole moment (field-independent basis, Debye):
    X=              0.1087    Y=              0.0385    Z=              0.1109  Tot=              0.1600
 Quadrupole moment (field-independent basis, Debye-Ang):
   XX=            -56.9989   YY=            -65.6879   ZZ=            -72.7315
   XY=             -0.0032   XZ=             -0.1190   YZ=              2.6135

 Normal termination of Gaussian 16 at Mon Dec  4 05:15:30 2023.
