 Gaussian 16, Revision B.01,
 Gaussian 16:  ES64L-G16RevB.01 20-Dec-2017

 -------------------------
 #P B3LYP/6-311+g(d) force
 -------------------------

 -----
 DPGEN
 -----
 Symbolic Z-matrix:
 Charge =  0 Multiplicity = 2

                         Standard orientation:
 ---------------------------------------------------------------------
 Center     Atomic      Atomic             Coordinates (Angstroms)
 Number     Number       Type             X           Y           Z
 ---------------------------------------------------------------------
      1         11           0       -0.046300   -0.446263   -1.771744
      2         11           0        1.127623   -2.502491    0.293305
      3         11           0        2.985658    0.112831   -0.297132
      4         11           0        1.038117    2.642149    0.140382
      5         11           0       -2.535674   -1.838356   -0.057268
      6         11           0       -2.397134    2.063016   -0.213505
      7         11           0       -0.172290   -0.030887    1.905961
 ---------------------------------------------------------------------

 SCF Done:  E(UB3LYP) =  -1136.13807360     A.U. after   19 cycles

 The electronic state is 2-A.
 Alpha  occ. eigenvalues --  -38.43927 -38.43912 -38.43515 -38.43441 -38.43401
 Alpha  occ. eigenvalues --  -38.43335 -38.43309  -2.19754  -2.19712  -2.19405
 Alpha  occ. eigenvalues --   -2.19366  -2.19342  -2.19300  -2.19177  -1.13442
 Alpha  occ. eigenvalues --   -1.13420  -1.13389  -1.13385  -1.13372  -1.13350
 Alpha  occ. eigenvalues --   -1.13153  -1.13099  -1.13086  -1.13068  -1.13055
 Alpha  occ. eigenvalues --   -1.13004  -1.12964  -1.12957  -1.12950  -1.12942
 Alpha  occ. eigenvalues --   -1.12913  -1.12903  -1.12843  -1.12834  -1.12806
 Alpha  occ. eigenvalues --   -0.18901  -0.12905  -0.12673  -0.10853
 Alpha virt. eigenvalues --   -0.05555  -0.05180  -0.04603  -0.03132  -0.03032
 Alpha virt. eigenvalues --   -0.02564  -0.01400  -0.01189  -0.00239  -0.00219
 Alpha virt. eigenvalues --    0.00012   0.00366   0.00829   0.00866   0.00937

  Beta  occ. eigenvalues --  -38.43923 -38.43910 -38.43509 -38.43428 -38.43313
  Beta  occ. eigenvalues --  -38.43305 -38.43263  -2.19750  -2.19711  -2.19396
  Beta  occ. eigenvalues --   -2.19346  -2.19181  -2.19174  -2.19167  -1.13431
  Beta  occ. eigenvalues --   -1.13405  -1.13383  -1.13378  -1.13369  -1.13350
  Beta  occ. eigenvalues --   -1.13132  -1.13094  -1.13055  -1.13031  -1.13006
  Beta  occ. eigenvalues --   -1.12947  -1.12910  -1.12872  -1.12865  -1.12838
  Beta  occ. eigenvalues --   -1.12830  -1.12818  -1.12811  -1.12809  -1.12799
  Beta  occ. eigenvalues --   -0.18151  -0.12660  -0.12433
  Beta virt. eigenvalues --   -0.06915  -0.05564  -0.05123  -0.04572  -0.02351
  Beta virt. eigenvalues --   -0.02238  -0.01512  -0.01309  -0.01132  -0.00274
  Beta virt. eigenvalues --   -0.00261   0.00130   0.00388   0.00852   0.00889

 Mulliken charges and spin densities:
               1          2
     1  Na  -0.345961   0.656545
     2  Na   0.445952  -0.003835
     3  Na   0.128598   0.006186
     4  Na   0.068604  -0.055644
     5  Na   0.096766  -0.144297
     6  Na  -0.090713  -0.115041
     7  Na  -0.303246   0.656086
 Sum of Mulliken charges =  -0.00000   1.00000

 Dipole moment (field-independent basis, Debye):
    X=             -0.4086    Y=             -0.0854    Z=             -0.0059  Tot=              0.4175
 Quadrupole moment (field-independent basis, Debye-Ang):
   XX=            -57.5087   YY=            -62.4057   ZZ=            -73.8120
   XY=              0.1545   XZ=              0.1595   YZ=             -0.9057

 Normal termination of Gaussian 16 at Thu Dec  7 04:21:58 2023.
