 Gaussian 16, Revision B.01,
 Gaussian 16:  ES64L-G16RevB.01 20-Dec-2017

 -------------------------
 #P B3LYP/6-311+g(d) force
 -------------------------

 -----
 DPGEN
 -----
 Symbolic Z-matrix:
 Charge =  0 Multiplicity = 2

                         Standard orientation:
 ---------------------------------------------------------------------
 Center     Atomic      Atomic             Coordinates (Angstroms)
 Number     Number       Type             X           Y           Z
 ---------------------------------------------------------------------
      1         11           0        0.057497    2.857382   -0.619049
      2         11           0        3.803249   -1.457868   -0.377650
      3         11           0       -2.761118    0.927257   -0.651658
      4         11           0       -3.013007   -2.076072    0.196371
      5         11           0        2.232173    0.904386    1.046729
      6         11           0        0.425644   -1.019795   -1.513175
      7         11           0       -0.744437   -0.135290    1.918432
 ---------------------------------------------------------------------

 SCF Done:  E(UB3LYP) =  -1136.12692891     A.U. after   21 cycles

 The electronic state is 2-A.
 Alpha  occ. eigenvalues --  -38.44692 -38.44344 -38.44121 -38.44026 -38.43835
 Alpha  occ. eigenvalues --  -38.43631 -38.42679  -2.20510  -2.20239  -2.19932
 Alpha  occ. eigenvalues --   -2.19927  -2.19683  -2.19549  -2.18519  -1.14211
 Alpha  occ. eigenvalues --   -1.14170  -1.14111  -1.13921  -1.13904  -1.13881
 Alpha  occ. eigenvalues --   -1.13626  -1.13620  -1.13582  -1.13573  -1.13564
 Alpha  occ. eigenvalues --   -1.13542  -1.13355  -1.13330  -1.13318  -1.13240
 Alpha  occ. eigenvalues --   -1.13206  -1.13156  -1.12195  -1.12180  -1.12158
 Alpha  occ. eigenvalues --   -0.18359  -0.13948  -0.11682  -0.10994
 Alpha virt. eigenvalues --   -0.06601  -0.05349  -0.04436  -0.03364  -0.02801
 Alpha virt. eigenvalues --   -0.02424  -0.02250  -0.01280  -0.00537  -0.00263
 Alpha virt. eigenvalues --    0.00137   0.00185   0.00425   0.00560   0.00742

  Beta  occ. eigenvalues --  -38.44646 -38.44321 -38.44124 -38.43939 -38.43832
  Beta  occ. eigenvalues --  -38.43605 -38.42671  -2.20426  -2.20199  -2.19934
  Beta  occ. eigenvalues --   -2.19775  -2.19679  -2.19503  -2.18506  -1.14149
  Beta  occ. eigenvalues --   -1.14108  -1.14049  -1.13890  -1.13870  -1.13847
  Beta  occ. eigenvalues --   -1.13630  -1.13584  -1.13563  -1.13514  -1.13463
  Beta  occ. eigenvalues --   -1.13430  -1.13353  -1.13315  -1.13309  -1.13198
  Beta  occ. eigenvalues --   -1.13169  -1.13124  -1.12187  -1.12165  -1.12141
  Beta  occ. eigenvalues --   -0.17648  -0.13799  -0.11424
  Beta virt. eigenvalues --   -0.07144  -0.06425  -0.05273  -0.03942  -0.02987
  Beta virt. eigenvalues --   -0.02297  -0.02083  -0.01600  -0.01086  -0.00475
  Beta virt. eigenvalues --   -0.00073   0.00210   0.00229   0.00576   0.00675

 Mulliken charges and spin densities:
               1          2
     1  Na  -0.284494  -0.060227
     2  Na   0.105224  -0.107189
     3  Na   0.136953   0.283281
     4  Na   0.689290   0.003856
     5  Na   0.432509   0.237117
     6  Na  -0.667677   0.363712
     7  Na  -0.411806   0.279450
 Sum of Mulliken charges =  -0.00000   1.00000

 Dipole moment (field-independent basis, Debye):
    X=             -0.1916    Y=             -0.4815    Z=             -0.1940  Tot=              0.5533
 Quadrupole moment (field-independent basis, Debye-Ang):
   XX=            -53.9869   YY=            -68.9427   ZZ=            -72.5612
   XY=              0.8834   XZ=              1.2526   YZ=             -0.1260

 Normal termination of Gaussian 16 at Thu Dec  7 22:23:04 2023.
