 Gaussian 16, Revision B.01,
 Gaussian 16:  ES64L-G16RevB.01 20-Dec-2017

 -------------------------
 #P B3LYP/6-311+g(d) force
 -------------------------

 -----
 DPGEN
 -----
 Symbolic Z-matrix:
 Charge =  0 Multiplicity = 2

                         Standard orientation:
 ---------------------------------------------------------------------
 Center     Atomic      Atomic             Coordinates (Angstroms)
 Number     Number       Type             X           Y           Z
 ---------------------------------------------------------------------
      1         11           0       -0.079305    0.096732    1.748742
      2         11           0        1.240332    2.808749   -0.042358
      3         11           0       -3.068705   -1.006411    0.160483
      4         11           0        0.882125   -2.950389    0.080501
      5         11           0        3.186302   -0.235859   -0.152649
      6         11           0       -0.358846   -0.617429   -1.479386
      7         11           0       -1.801903    1.904608   -0.315333
 ---------------------------------------------------------------------

 SCF Done:  E(UB3LYP) =  -1136.13220690     A.U. after   21 cycles

 The electronic state is 2-A.
 Alpha  occ. eigenvalues --  -38.44463 -38.44179 -38.43824 -38.43344 -38.43329
 Alpha  occ. eigenvalues --  -38.42969 -38.42954  -2.20259  -2.20050  -2.19674
 Alpha  occ. eigenvalues --   -2.19303  -2.19194  -2.19002  -2.18926  -1.13938
 Alpha  occ. eigenvalues --   -1.13917  -1.13897  -1.13738  -1.13707  -1.13689
 Alpha  occ. eigenvalues --   -1.13399  -1.13329  -1.13290  -1.13046  -1.12975
 Alpha  occ. eigenvalues --   -1.12963  -1.12853  -1.12840  -1.12823  -1.12709
 Alpha  occ. eigenvalues --   -1.12642  -1.12605  -1.12596  -1.12546  -1.12526
 Alpha  occ. eigenvalues --   -0.18983  -0.13246  -0.12669  -0.10250
 Alpha virt. eigenvalues --   -0.05994  -0.05028  -0.04919  -0.03039  -0.02709
 Alpha virt. eigenvalues --   -0.01971  -0.01765  -0.01181  -0.00536  -0.00262
 Alpha virt. eigenvalues --    0.00045   0.00331   0.00769   0.00856   0.00907

  Beta  occ. eigenvalues --  -38.44461 -38.44172 -38.43819 -38.43341 -38.43313
  Beta  occ. eigenvalues --  -38.42910 -38.42868  -2.20259  -2.20041  -2.19669
  Beta  occ. eigenvalues --   -2.19280  -2.19193  -2.18895  -2.18770  -1.13923
  Beta  occ. eigenvalues --   -1.13916  -1.13900  -1.13733  -1.13699  -1.13660
  Beta  occ. eigenvalues --   -1.13391  -1.13306  -1.13289  -1.13031  -1.12965
  Beta  occ. eigenvalues --   -1.12904  -1.12843  -1.12828  -1.12820  -1.12628
  Beta  occ. eigenvalues --   -1.12562  -1.12527  -1.12498  -1.12435  -1.12412
  Beta  occ. eigenvalues --   -0.18260  -0.12998  -0.12435
  Beta virt. eigenvalues --   -0.06344  -0.05972  -0.04988  -0.04900  -0.02254
  Beta virt. eigenvalues --   -0.01976  -0.01690  -0.01119  -0.00978  -0.00581
  Beta virt. eigenvalues --   -0.00284   0.00193   0.00374   0.00780   0.00877

 Mulliken charges and spin densities:
               1          2
     1  Na  -0.439000   0.677966
     2  Na  -0.101581  -0.051238
     3  Na   0.416595  -0.008470
     4  Na   0.115438  -0.101940
     5  Na  -0.037532  -0.048402
     6  Na  -0.278269   0.380405
     7  Na   0.324349   0.151680
 Sum of Mulliken charges =  -0.00000   1.00000

 Dipole moment (field-independent basis, Debye):
    X=              0.2135    Y=             -0.4405    Z=              0.1404  Tot=              0.5092
 Quadrupole moment (field-independent basis, Debye-Ang):
   XX=            -53.6649   YY=            -60.8861   ZZ=            -77.0483
   XY=              1.2944   XZ=             -0.7758   YZ=             -1.4723

 Normal termination of Gaussian 16 at Sun Dec  3 21:00:48 2023.
