 Gaussian 16, Revision B.01,
 Gaussian 16:  ES64L-G16RevB.01 20-Dec-2017

 -------------------------
 #P B3LYP/6-311+g(d) force
 -------------------------

 -----
 DPGEN
 -----
 Symbolic Z-matrix:
 Charge =  0 Multiplicity = 2

                         Standard orientation:
 ---------------------------------------------------------------------
 Center     Atomic      Atomic             Coordinates (Angstroms)
 Number     Number       Type             X           Y           Z
 ---------------------------------------------------------------------
      1         11           0        2.169517   -0.915969   -0.785870
      2         11           0        5.269024   -2.214557    0.192501
      3         11           0        3.908871    1.561130    1.091206
      4         11           0        0.606801    2.672092   -0.424969
      5         11           0       -1.039167    0.067395   -1.172042
      6         11           0       -4.038236   -0.720217    1.065331
      7         11           0       -6.876810   -0.449875    0.033844
 ---------------------------------------------------------------------

 SCF Done:  E(UB3LYP) =  -1136.11591951     A.U. after   21 cycles

 The electronic state is 2-A.
 Alpha  occ. eigenvalues --  -38.44801 -38.44511 -38.44262 -38.44200 -38.44121
 Alpha  occ. eigenvalues --  -38.44018 -38.43628  -2.20593  -2.20329  -2.20061
 Alpha  occ. eigenvalues --   -2.20044  -2.19890  -2.19824  -2.19492  -1.14268
 Alpha  occ. eigenvalues --   -1.14259  -1.14182  -1.14004  -1.13985  -1.13975
 Alpha  occ. eigenvalues --   -1.13775  -1.13747  -1.13730  -1.13708  -1.13706
 Alpha  occ. eigenvalues --   -1.13651  -1.13557  -1.13551  -1.13502  -1.13483
 Alpha  occ. eigenvalues --   -1.13477  -1.13444  -1.13158  -1.13143  -1.13116
 Alpha  occ. eigenvalues --   -0.16569  -0.13802  -0.12151  -0.11152
 Alpha virt. eigenvalues --   -0.06260  -0.05965  -0.04302  -0.03567  -0.03070
 Alpha virt. eigenvalues --   -0.02450  -0.02168  -0.01767  -0.01265  -0.00803
 Alpha virt. eigenvalues --   -0.00330  -0.00164   0.00039   0.00445   0.00672

  Beta  occ. eigenvalues --  -38.44729 -38.44488 -38.44248 -38.44170 -38.44100
  Beta  occ. eigenvalues --  -38.44021 -38.43595  -2.20460  -2.20288  -2.20033
  Beta  occ. eigenvalues --   -2.19992  -2.19850  -2.19832  -2.19431  -1.14180
  Beta  occ. eigenvalues --   -1.14171  -1.14074  -1.13979  -1.13958  -1.13925
  Beta  occ. eigenvalues --   -1.13760  -1.13714  -1.13689  -1.13687  -1.13676
  Beta  occ. eigenvalues --   -1.13609  -1.13531  -1.13517  -1.13489  -1.13482
  Beta  occ. eigenvalues --   -1.13479  -1.13438  -1.13108  -1.13103  -1.13081
  Beta  occ. eigenvalues --   -0.15891  -0.13556  -0.11964
  Beta virt. eigenvalues --   -0.07483  -0.05932  -0.05587  -0.03949  -0.03371
  Beta virt. eigenvalues --   -0.02592  -0.02246  -0.01813  -0.01629  -0.01114
  Beta virt. eigenvalues --   -0.00452  -0.00126   0.00010   0.00271   0.00566

 Mulliken charges and spin densities:
               1          2
     1  Na  -0.633628   0.384834
     2  Na   0.906746   0.125755
     3  Na   0.118302   0.329856
     4  Na   0.221844   0.139016
     5  Na  -0.813370   0.005340
     6  Na  -0.042128  -0.041103
     7  Na   0.242235   0.056303
 Sum of Mulliken charges =  -0.00000   1.00000

 Dipole moment (field-independent basis, Debye):
    X=              0.2179    Y=              0.4373    Z=              0.0536  Tot=              0.4915
 Quadrupole moment (field-independent basis, Debye-Ang):
   XX=            -55.7378   YY=            -67.5331   ZZ=            -70.5671
   XY=             -4.1425   XZ=              6.0557   YZ=             -0.3822

 Normal termination of Gaussian 16 at Tue Nov 28 21:36:18 2023.
