 Gaussian 16, Revision B.01,
 Gaussian 16:  ES64L-G16RevB.01 20-Dec-2017

 -------------------------
 #P B3LYP/6-311+g(d) force
 -------------------------

 -----
 DPGEN
 -----
 Symbolic Z-matrix:
 Charge =  0 Multiplicity = 2

                         Standard orientation:
 ---------------------------------------------------------------------
 Center     Atomic      Atomic             Coordinates (Angstroms)
 Number     Number       Type             X           Y           Z
 ---------------------------------------------------------------------
      1         11           0       -2.238461    0.432082    1.387682
      2         11           0       -0.815509    3.428303   -0.655959
      3         11           0       -4.798768   -1.363873   -0.227732
      4         11           0       -1.255891   -1.665564   -0.577505
      5         11           0        3.685169   -2.489994   -0.102490
      6         11           0        1.090516    0.890130   -0.113588
      7         11           0        4.332944    0.768918    0.289591
 ---------------------------------------------------------------------

 SCF Done:  E(UB3LYP) =  -1136.11535142     A.U. after   21 cycles

 The electronic state is 2-A.
 Alpha  occ. eigenvalues --  -38.45232 -38.44911 -38.44096 -38.43715 -38.43609
 Alpha  occ. eigenvalues --  -38.43470 -38.43120  -2.20975  -2.20765  -2.19928
 Alpha  occ. eigenvalues --   -2.19509  -2.19499  -2.19286  -2.19033  -1.14658
 Alpha  occ. eigenvalues --   -1.14634  -1.14617  -1.14505  -1.14446  -1.14347
 Alpha  occ. eigenvalues --   -1.13608  -1.13576  -1.13535  -1.13202  -1.13188
 Alpha  occ. eigenvalues --   -1.13167  -1.13154  -1.13146  -1.13093  -1.12943
 Alpha  occ. eigenvalues --   -1.12940  -1.12893  -1.12742  -1.12728  -1.12629
 Alpha  occ. eigenvalues --   -0.17022  -0.14097  -0.11889  -0.10070
 Alpha virt. eigenvalues --   -0.06570  -0.06059  -0.04107  -0.03593  -0.02852
 Alpha virt. eigenvalues --   -0.02238  -0.01920  -0.01413  -0.01187  -0.00490
 Alpha virt. eigenvalues --   -0.00313  -0.00129   0.00358   0.00418   0.00573

  Beta  occ. eigenvalues --  -38.45242 -38.44906 -38.44053 -38.43708 -38.43553
  Beta  occ. eigenvalues --  -38.43410 -38.43099  -2.20995  -2.20760  -2.19846
  Beta  occ. eigenvalues --   -2.19497  -2.19402  -2.19174  -2.19002  -1.14674
  Beta  occ. eigenvalues --   -1.14633  -1.14630  -1.14485  -1.14438  -1.14338
  Beta  occ. eigenvalues --   -1.13552  -1.13519  -1.13482  -1.13180  -1.13157
  Beta  occ. eigenvalues --   -1.13137  -1.13136  -1.13091  -1.12998  -1.12864
  Beta  occ. eigenvalues --   -1.12859  -1.12824  -1.12725  -1.12660  -1.12609
  Beta  occ. eigenvalues --   -0.16368  -0.13763  -0.11680
  Beta virt. eigenvalues --   -0.06617  -0.06309  -0.05815  -0.03548  -0.03300
  Beta virt. eigenvalues --   -0.02691  -0.02053  -0.01764  -0.01100  -0.00823
  Beta virt. eigenvalues --   -0.00226  -0.00172   0.00115   0.00407   0.00535

 Mulliken charges and spin densities:
               1          2
     1  Na  -0.154707   0.068488
     2  Na   0.958529   0.080453
     3  Na   0.530409   0.383817
     4  Na   0.147835   0.262558
     5  Na   0.140669  -0.169102
     6  Na  -1.686740   0.170342
     7  Na   0.064006   0.203444
 Sum of Mulliken charges =  -0.00000   1.00000

 Dipole moment (field-independent basis, Debye):
    X=              0.5505    Y=             -0.5512    Z=             -0.0358  Tot=              0.7798
 Quadrupole moment (field-independent basis, Debye-Ang):
   XX=            -66.7273   YY=            -63.2870   ZZ=            -67.5480
   XY=             -5.9449   XZ=              1.2265   YZ=              1.3653

 Normal termination of Gaussian 16 at Wed Nov 29 16:13:48 2023.
