 Gaussian 16, Revision B.01,
 Gaussian 16:  ES64L-G16RevB.01 20-Dec-2017

 -------------------------
 #P B3LYP/6-311+g(d) force
 -------------------------

 -----
 DPGEN
 -----
 Symbolic Z-matrix:
 Charge =  0 Multiplicity = 2

                         Standard orientation:
 ---------------------------------------------------------------------
 Center     Atomic      Atomic             Coordinates (Angstroms)
 Number     Number       Type             X           Y           Z
 ---------------------------------------------------------------------
      1         11           0        0.781706    3.161853    0.288956
      2         11           0        2.632653   -2.044046    0.533956
      3         11           0        1.913593    0.513709   -1.326526
      4         11           0       -3.471186   -1.009528    0.208942
      5         11           0       -0.030527    0.205545    2.102205
      6         11           0       -0.216581   -2.084187   -0.870895
      7         11           0       -1.609659    1.256654   -0.936637
 ---------------------------------------------------------------------

 SCF Done:  E(UB3LYP) =  -1136.13650035     A.U. after   18 cycles

 The electronic state is 2-A.
 Alpha  occ. eigenvalues --  -38.43952 -38.43777 -38.43729 -38.43515 -38.43486
 Alpha  occ. eigenvalues --  -38.43320 -38.43236  -2.19814  -2.19601  -2.19591
 Alpha  occ. eigenvalues --   -2.19418  -2.19410  -2.19252  -2.19096  -1.13482
 Alpha  occ. eigenvalues --   -1.13438  -1.13435  -1.13303  -1.13289  -1.13274
 Alpha  occ. eigenvalues --   -1.13251  -1.13243  -1.13228  -1.13151  -1.13088
 Alpha  occ. eigenvalues --   -1.13084  -1.13067  -1.13019  -1.12996  -1.12940
 Alpha  occ. eigenvalues --   -1.12925  -1.12874  -1.12755  -1.12744  -1.12731
 Alpha  occ. eigenvalues --   -0.18607  -0.13046  -0.12595  -0.10968
 Alpha virt. eigenvalues --   -0.05592  -0.04815  -0.04744  -0.03392  -0.03057
 Alpha virt. eigenvalues --   -0.02741  -0.01533  -0.01188  -0.00350  -0.00076
 Alpha virt. eigenvalues --    0.00250   0.00362   0.00787   0.00834   0.00892

  Beta  occ. eigenvalues --  -38.43853 -38.43780 -38.43725 -38.43496 -38.43447
  Beta  occ. eigenvalues --  -38.43300 -38.43234  -2.19633  -2.19607  -2.19584
  Beta  occ. eigenvalues --   -2.19387  -2.19340  -2.19217  -2.19096  -1.13361
  Beta  occ. eigenvalues --   -1.13311  -1.13307  -1.13305  -1.13283  -1.13269
  Beta  occ. eigenvalues --   -1.13250  -1.13242  -1.13204  -1.13117  -1.13051
  Beta  occ. eigenvalues --   -1.13035  -1.13012  -1.12986  -1.12966  -1.12919
  Beta  occ. eigenvalues --   -1.12879  -1.12853  -1.12756  -1.12732  -1.12717
  Beta  occ. eigenvalues --   -0.17848  -0.12888  -0.12405
  Beta virt. eigenvalues --   -0.06995  -0.05453  -0.04750  -0.04703  -0.02693
  Beta virt. eigenvalues --   -0.02392  -0.01721  -0.01444  -0.01111  -0.00164
  Beta virt. eigenvalues --   -0.00041   0.00306   0.00413   0.00815   0.00858

 Mulliken charges and spin densities:
               1          2
     1  Na   0.435272  -0.088628
     2  Na   0.353334  -0.086124
     3  Na  -0.043364   0.197090
     4  Na   0.494259  -0.069939
     5  Na  -0.629747   0.751882
     6  Na  -0.284750   0.131723
     7  Na  -0.325004   0.163995
 Sum of Mulliken charges =  -0.00000   1.00000

 Dipole moment (field-independent basis, Debye):
    X=              0.0328    Y=             -0.2002    Z=              0.2985  Tot=              0.3609
 Quadrupole moment (field-independent basis, Debye-Ang):
   XX=            -58.6283   YY=            -63.7442   ZZ=            -71.6647
   XY=              0.5337   XZ=              0.0343   YZ=             -0.7217

 Normal termination of Gaussian 16 at Thu Dec  7 02:14:40 2023.
