 Gaussian 16, Revision B.01,
 Gaussian 16:  ES64L-G16RevB.01 20-Dec-2017

 -------------------------
 #P B3LYP/6-311+g(d) force
 -------------------------

 -----
 DPGEN
 -----
 Symbolic Z-matrix:
 Charge =  0 Multiplicity = 2

                         Standard orientation:
 ---------------------------------------------------------------------
 Center     Atomic      Atomic             Coordinates (Angstroms)
 Number     Number       Type             X           Y           Z
 ---------------------------------------------------------------------
      1         11           0       -1.783031    2.491582   -0.143528
      2         11           0        0.092556   -0.201586    2.061119
      3         11           0       -3.488098   -0.629331   -0.073418
      4         11           0        3.299072   -0.950407    0.018602
      5         11           0        0.443589   -0.186796   -1.536905
      6         11           0        1.810310    2.420640   -0.093556
      7         11           0       -0.374398   -2.944103   -0.232314
 ---------------------------------------------------------------------

 SCF Done:  E(UB3LYP) =  -1136.13264772     A.U. after   19 cycles

 The electronic state is 2-A.
 Alpha  occ. eigenvalues --  -38.44804 -38.44712 -38.43591 -38.43584 -38.43506
 Alpha  occ. eigenvalues --  -38.43451 -38.43174  -2.20598  -2.20468  -2.19424
 Alpha  occ. eigenvalues --   -2.19419  -2.19315  -2.19309  -2.19140  -1.14277
 Alpha  occ. eigenvalues --   -1.14251  -1.14237  -1.14146  -1.14127  -1.14106
 Alpha  occ. eigenvalues --   -1.13152  -1.13126  -1.13088  -1.13085  -1.13053
 Alpha  occ. eigenvalues --   -1.13030  -1.12988  -1.12986  -1.12974  -1.12945
 Alpha  occ. eigenvalues --   -1.12934  -1.12926  -1.12819  -1.12774  -1.12754
 Alpha  occ. eigenvalues --   -0.18160  -0.12936  -0.12283  -0.10323
 Alpha virt. eigenvalues --   -0.06405  -0.05283  -0.04683  -0.03011  -0.02683
 Alpha virt. eigenvalues --   -0.02357  -0.02071  -0.01236  -0.00764  -0.00504
 Alpha virt. eigenvalues --   -0.00044   0.00286   0.00723   0.00771   0.00819

  Beta  occ. eigenvalues --  -38.44800 -38.44714 -38.43583 -38.43579 -38.43505
  Beta  occ. eigenvalues --  -38.43350 -38.43118  -2.20595  -2.20474  -2.19417
  Beta  occ. eigenvalues --   -2.19408  -2.19309  -2.19126  -2.19039  -1.14263
  Beta  occ. eigenvalues --   -1.14242  -1.14236  -1.14139  -1.14133  -1.14112
  Beta  occ. eigenvalues --   -1.13137  -1.13117  -1.13061  -1.13054  -1.13053
  Beta  occ. eigenvalues --   -1.13027  -1.12981  -1.12967  -1.12948  -1.12859
  Beta  occ. eigenvalues --   -1.12803  -1.12793  -1.12743  -1.12702  -1.12682
  Beta  occ. eigenvalues --   -0.17454  -0.12773  -0.12049
  Beta virt. eigenvalues --   -0.06406  -0.06359  -0.05300  -0.04622  -0.02318
  Beta virt. eigenvalues --   -0.01990  -0.01928  -0.01278  -0.01192  -0.00795
  Beta virt. eigenvalues --   -0.00546   0.00121   0.00329   0.00769   0.00781

 Mulliken charges and spin densities:
               1          2
     1  Na  -0.056804  -0.068533
     2  Na  -0.429454   0.831965
     3  Na  -0.004832  -0.050354
     4  Na   0.314826  -0.058775
     5  Na  -0.077296   0.487538
     6  Na   0.148359  -0.017870
     7  Na   0.105201  -0.123971
 Sum of Mulliken charges =  -0.00000   1.00000

 Dipole moment (field-independent basis, Debye):
    X=              0.2131    Y=             -0.2918    Z=              0.1166  Tot=              0.3797
 Quadrupole moment (field-independent basis, Debye-Ang):
   XX=            -50.9680   YY=            -63.5971   ZZ=            -77.1635
   XY=              0.0268   XZ=              0.6768   YZ=             -0.0190

 Normal termination of Gaussian 16 at Thu Dec  7 12:41:08 2023.
