 Gaussian 16, Revision B.01,
 Gaussian 16:  ES64L-G16RevB.01 20-Dec-2017

 -------------------------
 #P B3LYP/6-311+g(d) force
 -------------------------

 -----
 DPGEN
 -----
 Symbolic Z-matrix:
 Charge =  0 Multiplicity = 2

                         Standard orientation:
 ---------------------------------------------------------------------
 Center     Atomic      Atomic             Coordinates (Angstroms)
 Number     Number       Type             X           Y           Z
 ---------------------------------------------------------------------
      1         11           0        1.551231   -2.199218    1.826815
      2         11           0        2.828775   -0.188970   -1.262291
      3         11           0        1.615148    2.504613    0.936369
      4         11           0       -1.195428   -2.593564   -1.846721
      5         11           0       -0.234074   -0.078321    0.042860
      6         11           0       -1.389588    2.741869   -1.125565
      7         11           0       -3.176064   -0.186409    1.428533
 ---------------------------------------------------------------------

 SCF Done:  E(UB3LYP) =  -1136.11695237     A.U. after   21 cycles

 The electronic state is 2-A.
 Alpha  occ. eigenvalues --  -38.44483 -38.44380 -38.44261 -38.44237 -38.44203
 Alpha  occ. eigenvalues --  -38.44114 -38.41809  -2.20270  -2.20148  -2.20051
 Alpha  occ. eigenvalues --   -2.20020  -2.19988  -2.19916  -2.17899  -1.13962
 Alpha  occ. eigenvalues --   -1.13914  -1.13899  -1.13827  -1.13788  -1.13777
 Alpha  occ. eigenvalues --   -1.13727  -1.13716  -1.13685  -1.13673  -1.13667
 Alpha  occ. eigenvalues --   -1.13654  -1.13643  -1.13619  -1.13613  -1.13606
 Alpha  occ. eigenvalues --   -1.13568  -1.13532  -1.11640  -1.11553  -1.11548
 Alpha  occ. eigenvalues --   -0.17371  -0.12168  -0.12121  -0.10460
 Alpha virt. eigenvalues --   -0.06097  -0.05639  -0.04645  -0.02925  -0.02874
 Alpha virt. eigenvalues --   -0.02098  -0.01560  -0.01346  -0.01273   0.00050
 Alpha virt. eigenvalues --    0.00067   0.00164   0.00220   0.00421   0.00713

  Beta  occ. eigenvalues --  -38.44476 -38.44353 -38.44237 -38.44207 -38.44133
  Beta  occ. eigenvalues --  -38.44116 -38.41790  -2.20258  -2.20098  -2.20020
  Beta  occ. eigenvalues --   -2.19951  -2.19921  -2.19858  -2.17874  -1.13950
  Beta  occ. eigenvalues --   -1.13897  -1.13893  -1.13790  -1.13753  -1.13743
  Beta  occ. eigenvalues --   -1.13713  -1.13670  -1.13656  -1.13644  -1.13615
  Beta  occ. eigenvalues --   -1.13614  -1.13599  -1.13567  -1.13563  -1.13537
  Beta  occ. eigenvalues --   -1.13531  -1.13515  -1.11552  -1.11546  -1.11539
  Beta  occ. eigenvalues --   -0.16811  -0.11981  -0.11799
  Beta virt. eigenvalues --   -0.06953  -0.05701  -0.05399  -0.04387  -0.02577
  Beta virt. eigenvalues --   -0.02535  -0.01546  -0.01473  -0.01107  -0.00777
  Beta virt. eigenvalues --    0.00101   0.00169   0.00290   0.00340   0.00454

 Mulliken charges and spin densities:
               1          2
     1  Na   0.518134   0.136163
     2  Na   0.880188  -0.180390
     3  Na   0.455619  -0.104238
     4  Na   0.427262   0.130474
     5  Na  -3.546573   1.452644
     6  Na   0.447925  -0.269719
     7  Na   0.817446  -0.164933
 Sum of Mulliken charges =  -0.00000   1.00000

 Dipole moment (field-independent basis, Debye):
    X=              0.2580    Y=              0.3420    Z=             -0.0087  Tot=              0.4285
 Quadrupole moment (field-independent basis, Debye-Ang):
   XX=            -60.4717   YY=            -63.6414   ZZ=            -65.8371
   XY=             -0.3402   XZ=             -0.6296   YZ=             -0.5166

 Normal termination of Gaussian 16 at Tue Dec  5 10:14:24 2023.
