 Gaussian 16, Revision B.01,
 Gaussian 16:  ES64L-G16RevB.01 20-Dec-2017

 -------------------------
 #P B3LYP/6-311+g(d) force
 -------------------------

 -----
 DPGEN
 -----
 Symbolic Z-matrix:
 Charge =  0 Multiplicity = 2

                         Standard orientation:
 ---------------------------------------------------------------------
 Center     Atomic      Atomic             Coordinates (Angstroms)
 Number     Number       Type             X           Y           Z
 ---------------------------------------------------------------------
      1         11           0       -0.662115   -3.039732   -0.301798
      2         11           0        0.191225    0.381315    2.050869
      3         11           0       -1.471434    2.913508   -0.122094
      4         11           0        2.385687    1.878939   -0.567058
      5         11           0       -3.268619   -0.594220    0.239945
      6         11           0        3.111227   -1.372812    0.292515
      7         11           0       -0.285971   -0.166998   -1.592379
 ---------------------------------------------------------------------

 SCF Done:  E(UB3LYP) =  -1136.13382174     A.U. after   19 cycles

 The electronic state is 2-A.
 Alpha  occ. eigenvalues --  -38.44577 -38.44184 -38.43939 -38.43729 -38.43691
 Alpha  occ. eigenvalues --  -38.43566 -38.43213  -2.20364  -2.19964  -2.19760
 Alpha  occ. eigenvalues --   -2.19571  -2.19476  -2.19384  -2.19148  -1.14045
 Alpha  occ. eigenvalues --   -1.14024  -1.13994  -1.13637  -1.13626  -1.13611
 Alpha  occ. eigenvalues --   -1.13442  -1.13421  -1.13383  -1.13244  -1.13208
 Alpha  occ. eigenvalues --   -1.13183  -1.13154  -1.13132  -1.13119  -1.13109
 Alpha  occ. eigenvalues --   -1.13040  -1.13005  -1.12833  -1.12775  -1.12771
 Alpha  occ. eigenvalues --   -0.17954  -0.12957  -0.12155  -0.10415
 Alpha virt. eigenvalues --   -0.05942  -0.05462  -0.04865  -0.03191  -0.02752
 Alpha virt. eigenvalues --   -0.02399  -0.01748  -0.01352  -0.00733  -0.00600
 Alpha virt. eigenvalues --   -0.00033   0.00334   0.00731   0.00786   0.00809

  Beta  occ. eigenvalues --  -38.44574 -38.44180 -38.43924 -38.43690 -38.43641
  Beta  occ. eigenvalues --  -38.43561 -38.43155  -2.20360  -2.19961  -2.19735
  Beta  occ. eigenvalues --   -2.19478  -2.19408  -2.19378  -2.19041  -1.14030
  Beta  occ. eigenvalues --   -1.14022  -1.13991  -1.13629  -1.13614  -1.13610
  Beta  occ. eigenvalues --   -1.13418  -1.13394  -1.13366  -1.13146  -1.13143
  Beta  occ. eigenvalues --   -1.13129  -1.13115  -1.13094  -1.13091  -1.13058
  Beta  occ. eigenvalues --   -1.13026  -1.13003  -1.12758  -1.12701  -1.12691
  Beta  occ. eigenvalues --   -0.17260  -0.12767  -0.11937
  Beta virt. eigenvalues --   -0.06598  -0.05851  -0.05428  -0.04782  -0.02486
  Beta virt. eigenvalues --   -0.02070  -0.01632  -0.01399  -0.01260  -0.00771
  Beta virt. eigenvalues --   -0.00608   0.00118   0.00368   0.00778   0.00807

 Mulliken charges and spin densities:
               1          2
     1  Na   0.058535  -0.060891
     2  Na  -0.357222   0.777576
     3  Na  -0.009173  -0.093820
     4  Na   0.129992   0.000275
     5  Na   0.031748  -0.027242
     6  Na  -0.000958   0.008459
     7  Na   0.147077   0.395645
 Sum of Mulliken charges =  -0.00000   1.00000

 Dipole moment (field-independent basis, Debye):
    X=             -0.1900    Y=             -0.0369    Z=              0.1479  Tot=              0.2436
 Quadrupole moment (field-independent basis, Debye-Ang):
   XX=            -54.6382   YY=            -61.6209   ZZ=            -76.1982
   XY=             -0.8636   XZ=             -1.1342   YZ=             -1.5449

 Normal termination of Gaussian 16 at Thu Dec  7 15:55:00 2023.
