 Gaussian 16, Revision B.01,
 Gaussian 16:  ES64L-G16RevB.01 20-Dec-2017

 -------------------------
 #P B3LYP/6-311+g(d) force
 -------------------------

 -----
 DPGEN
 -----
 Symbolic Z-matrix:
 Charge =  0 Multiplicity = 2

                         Standard orientation:
 ---------------------------------------------------------------------
 Center     Atomic      Atomic             Coordinates (Angstroms)
 Number     Number       Type             X           Y           Z
 ---------------------------------------------------------------------
      1         11           0       -2.409425    2.735781   -1.115548
      2         11           0        3.800543   -1.726872   -0.678582
      3         11           0        0.533512    2.800172    0.940454
      4         11           0        3.905287    1.757019    0.461693
      5         11           0        0.740214   -2.950857   -0.544728
      6         11           0       -2.621415   -2.518992    1.272040
      7         11           0       -3.948717   -0.096251   -0.335330
 ---------------------------------------------------------------------

 SCF Done:  E(UB3LYP) =  -1136.11010245     A.U. after   22 cycles

 The electronic state is 2-A.
 Alpha  occ. eigenvalues --  -38.45056 -38.45026 -38.44910 -38.44556 -38.44350
 Alpha  occ. eigenvalues --  -38.43818 -38.43761  -2.20865  -2.20772  -2.20677
 Alpha  occ. eigenvalues --   -2.20334  -2.20145  -2.19637  -2.19578  -1.14549
 Alpha  occ. eigenvalues --   -1.14529  -1.14520  -1.14461  -1.14454  -1.14398
 Alpha  occ. eigenvalues --   -1.14356  -1.14352  -1.14306  -1.13999  -1.13980
 Alpha  occ. eigenvalues --   -1.13968  -1.13810  -1.13803  -1.13777  -1.13296
 Alpha  occ. eigenvalues --   -1.13282  -1.13262  -1.13232  -1.13227  -1.13208
 Alpha  occ. eigenvalues --   -0.15756  -0.14072  -0.13188  -0.10818
 Alpha virt. eigenvalues --   -0.07534  -0.04823  -0.04457  -0.03605  -0.03554
 Alpha virt. eigenvalues --   -0.02362  -0.02206  -0.01472  -0.01199  -0.01031
 Alpha virt. eigenvalues --   -0.00749  -0.00175   0.00013   0.00473   0.00741

  Beta  occ. eigenvalues --  -38.45038 -38.45023 -38.44883 -38.44511 -38.44322
  Beta  occ. eigenvalues --  -38.43765 -38.43706  -2.20841  -2.20770  -2.20633
  Beta  occ. eigenvalues --   -2.20253  -2.20095  -2.19538  -2.19477  -1.14529
  Beta  occ. eigenvalues --   -1.14519  -1.14464  -1.14460  -1.14457  -1.14369
  Beta  occ. eigenvalues --   -1.14330  -1.14326  -1.14247  -1.13945  -1.13928
  Beta  occ. eigenvalues --   -1.13906  -1.13778  -1.13767  -1.13730  -1.13227
  Beta  occ. eigenvalues --   -1.13214  -1.13199  -1.13162  -1.13157  -1.13145
  Beta  occ. eigenvalues --   -0.15238  -0.13333  -0.12439
  Beta virt. eigenvalues --   -0.07725  -0.07662  -0.04393  -0.03965  -0.03356
  Beta virt. eigenvalues --   -0.03288  -0.02191  -0.01981  -0.01220  -0.00889
  Beta virt. eigenvalues --   -0.00847  -0.00522   0.00036   0.00198   0.00512

 Mulliken charges and spin densities:
               1          2
     1  Na   0.338058   0.219020
     2  Na   0.266506   0.053246
     3  Na  -0.421330   0.024131
     4  Na   0.107196   0.186971
     5  Na  -0.359055   0.140138
     6  Na   0.213216   0.236922
     7  Na  -0.144591   0.139571
 Sum of Mulliken charges =  -0.00000   1.00000

 Dipole moment (field-independent basis, Debye):
    X=              0.2812    Y=              0.0215    Z=             -0.0116  Tot=              0.2822
 Quadrupole moment (field-independent basis, Debye-Ang):
   XX=            -58.3509   YY=            -72.3511   ZZ=            -70.3860
   XY=              0.2297   XZ=              0.3031   YZ=             -0.3264

 Normal termination of Gaussian 16 at Mon Dec  4 05:45:51 2023.
