 Gaussian 16, Revision B.01,
 Gaussian 16:  ES64L-G16RevB.01 20-Dec-2017

 -------------------------
 #P B3LYP/6-311+g(d) force
 -------------------------

 -----
 DPGEN
 -----
 Symbolic Z-matrix:
 Charge =  0 Multiplicity = 2

                         Standard orientation:
 ---------------------------------------------------------------------
 Center     Atomic      Atomic             Coordinates (Angstroms)
 Number     Number       Type             X           Y           Z
 ---------------------------------------------------------------------
      1         11           0        2.119280    2.086524   -0.422369
      2         11           0        0.542940    0.059270    2.238465
      3         11           0        2.998461   -1.343542   -0.134162
      4         11           0       -0.542357   -2.868111   -0.216999
      5         11           0       -1.663600    2.742760    0.036122
      6         11           0       -0.070937    0.087922   -1.525820
      7         11           0       -3.383786   -0.764824    0.024763
 ---------------------------------------------------------------------

 SCF Done:  E(UB3LYP) =  -1136.13454182     A.U. after   19 cycles

 The electronic state is 2-A.
 Alpha  occ. eigenvalues --  -38.44429 -38.44140 -38.43794 -38.43791 -38.43784
 Alpha  occ. eigenvalues --  -38.43422 -38.43203  -2.20200  -2.19947  -2.19646
 Alpha  occ. eigenvalues --   -2.19630  -2.19568  -2.19250  -2.19167  -1.13878
 Alpha  occ. eigenvalues --   -1.13851  -1.13844  -1.13617  -1.13605  -1.13596
 Alpha  occ. eigenvalues --   -1.13365  -1.13310  -1.13280  -1.13261  -1.13255
 Alpha  occ. eigenvalues --   -1.13249  -1.13245  -1.13231  -1.13201  -1.12977
 Alpha  occ. eigenvalues --   -1.12915  -1.12866  -1.12850  -1.12800  -1.12779
 Alpha  occ. eigenvalues --   -0.18121  -0.12892  -0.12245  -0.10593
 Alpha virt. eigenvalues --   -0.05887  -0.05539  -0.04661  -0.03072  -0.02764
 Alpha virt. eigenvalues --   -0.02617  -0.01730  -0.01310  -0.00642  -0.00532
 Alpha virt. eigenvalues --   -0.00047   0.00315   0.00715   0.00800   0.00842

  Beta  occ. eigenvalues --  -38.44432 -38.44137 -38.43784 -38.43780 -38.43684
  Beta  occ. eigenvalues --  -38.43417 -38.43150  -2.20205  -2.19944  -2.19625
  Beta  occ. eigenvalues --   -2.19570  -2.19433  -2.19243  -2.19072  -1.13873
  Beta  occ. eigenvalues --   -1.13855  -1.13850  -1.13607  -1.13597  -1.13589
  Beta  occ. eigenvalues --   -1.13343  -1.13270  -1.13252  -1.13241  -1.13226
  Beta  occ. eigenvalues --   -1.13205  -1.13149  -1.13121  -1.13104  -1.12961
  Beta  occ. eigenvalues --   -1.12896  -1.12865  -1.12786  -1.12733  -1.12710
  Beta  occ. eigenvalues --   -0.17415  -0.12716  -0.12046
  Beta virt. eigenvalues --   -0.06624  -0.05828  -0.05529  -0.04606  -0.02383
  Beta virt. eigenvalues --   -0.02034  -0.01643  -0.01514  -0.01245  -0.00676
  Beta virt. eigenvalues --   -0.00569   0.00132   0.00359   0.00790   0.00801

 Mulliken charges and spin densities:
               1          2
     1  Na   0.292027   0.006209
     2  Na  -0.612320   0.838235
     3  Na   0.253401   0.004725
     4  Na   0.072435  -0.061827
     5  Na  -0.020944  -0.054418
     6  Na   0.044890   0.308506
     7  Na  -0.029489  -0.041430
 Sum of Mulliken charges =  -0.00000   1.00000

 Dipole moment (field-independent basis, Debye):
    X=             -0.0716    Y=              0.0022    Z=              0.1288  Tot=              0.1474
 Quadrupole moment (field-independent basis, Debye-Ang):
   XX=            -54.0345   YY=            -63.0774   ZZ=            -75.7615
   XY=             -0.9012   XZ=             -1.6005   YZ=              0.1303

 Normal termination of Gaussian 16 at Thu Dec  7 17:03:53 2023.
