 Gaussian 16, Revision B.01,
 Gaussian 16:  ES64L-G16RevB.01 20-Dec-2017

 -------------------------
 #P B3LYP/6-311+g(d) force
 -------------------------

 -----
 DPGEN
 -----
 Symbolic Z-matrix:
 Charge =  0 Multiplicity = 2

                         Standard orientation:
 ---------------------------------------------------------------------
 Center     Atomic      Atomic             Coordinates (Angstroms)
 Number     Number       Type             X           Y           Z
 ---------------------------------------------------------------------
      1         11           0        2.414473   -2.157505    0.961028
      2         11           0        5.482446   -0.318871   -0.775939
      3         11           0        3.325561    1.564716    0.251055
      4         11           0        0.086571    2.435708    0.034153
      5         11           0       -0.293825   -1.495811   -0.648431
      6         11           0       -3.978831    0.295926    0.706022
      7         11           0       -7.036394   -0.324163   -0.527888
 ---------------------------------------------------------------------

 SCF Done:  E(UB3LYP) =  -1136.10816044     A.U. after   22 cycles

 The electronic state is 2-A.
 Alpha  occ. eigenvalues --  -38.45798 -38.45085 -38.44670 -38.44425 -38.43812
 Alpha  occ. eigenvalues --  -38.43713 -38.43602  -2.21613  -2.20888  -2.20462
 Alpha  occ. eigenvalues --   -2.20300  -2.19632  -2.19476  -2.19352  -1.15289
 Alpha  occ. eigenvalues --   -1.15269  -1.15206  -1.14553  -1.14541  -1.14483
 Alpha  occ. eigenvalues --   -1.14141  -1.14127  -1.14083  -1.13990  -1.13953
 Alpha  occ. eigenvalues --   -1.13942  -1.13307  -1.13282  -1.13257  -1.13160
 Alpha  occ. eigenvalues --   -1.13155  -1.13100  -1.13022  -1.13022  -1.12974
 Alpha  occ. eigenvalues --   -0.16874  -0.13184  -0.12752  -0.11471
 Alpha virt. eigenvalues --   -0.06601  -0.05573  -0.04764  -0.03767  -0.03035
 Alpha virt. eigenvalues --   -0.02560  -0.02027  -0.01868  -0.01128  -0.00956
 Alpha virt. eigenvalues --   -0.00484  -0.00249   0.00041   0.00153   0.00472

  Beta  occ. eigenvalues --  -38.45720 -38.45000 -38.44644 -38.44381 -38.43804
  Beta  occ. eigenvalues --  -38.43706 -38.43618  -2.21470  -2.20733  -2.20417
  Beta  occ. eigenvalues --   -2.20221  -2.19618  -2.19463  -2.19381  -1.15185
  Beta  occ. eigenvalues --   -1.15178  -1.15096  -1.14438  -1.14435  -1.14380
  Beta  occ. eigenvalues --   -1.14102  -1.14094  -1.14045  -1.13937  -1.13897
  Beta  occ. eigenvalues --   -1.13871  -1.13293  -1.13272  -1.13246  -1.13149
  Beta  occ. eigenvalues --   -1.13146  -1.13104  -1.13043  -1.13043  -1.12990
  Beta  occ. eigenvalues --   -0.15943  -0.13181  -0.11305
  Beta virt. eigenvalues --   -0.08555  -0.06327  -0.05231  -0.04339  -0.03132
  Beta virt. eigenvalues --   -0.02826  -0.02467  -0.01775  -0.01357  -0.01036
  Beta virt. eigenvalues --   -0.00805  -0.00256  -0.00103   0.00216   0.00297

 Mulliken charges and spin densities:
               1          2
     1  Na   0.170360   0.315127
     2  Na   0.562935   0.014849
     3  Na  -0.442241   0.196614
     4  Na   0.104674   0.410052
     5  Na  -0.188793   0.194056
     6  Na  -0.479297  -0.055656
     7  Na   0.272362  -0.075043
 Sum of Mulliken charges =  -0.00000   1.00000

 Dipole moment (field-independent basis, Debye):
    X=              1.8835    Y=             -0.5531    Z=             -0.1202  Tot=              1.9667
 Quadrupole moment (field-independent basis, Debye-Ang):
   XX=            -72.5127   YY=            -65.5079   ZZ=            -68.6337
   XY=             -3.2999   XZ=              3.0530   YZ=              0.6247

 Normal termination of Gaussian 16 at Tue Nov 28 21:24:00 2023.
