 Gaussian 16, Revision B.01,
 Gaussian 16:  ES64L-G16RevB.01 20-Dec-2017

 -------------------------
 #P B3LYP/6-311+g(d) force
 -------------------------

 -----
 DPGEN
 -----
 Symbolic Z-matrix:
 Charge =  0 Multiplicity = 2

                         Standard orientation:
 ---------------------------------------------------------------------
 Center     Atomic      Atomic             Coordinates (Angstroms)
 Number     Number       Type             X           Y           Z
 ---------------------------------------------------------------------
      1         11           0       -0.518611    1.943485    1.130831
      2         11           0        2.645028    3.317068   -0.710154
      3         11           0        2.618949    0.159276   -0.465011
      4         11           0        1.141306   -2.094518    0.878140
      5         11           0       -3.111015    0.237729    0.467625
      6         11           0        4.311162   -2.658674   -0.446375
      7         11           0       -7.086820   -0.904366   -0.855057
 ---------------------------------------------------------------------

 SCF Done:  E(UB3LYP) =  -1136.11003358     A.U. after   20 cycles

 The electronic state is 2-A.
 Alpha  occ. eigenvalues --  -38.45599 -38.45309 -38.45190 -38.43985 -38.43669
 Alpha  occ. eigenvalues --  -38.43544 -38.42874  -2.21418  -2.21082  -2.20994
 Alpha  occ. eigenvalues --   -2.19799  -2.19487  -2.19434  -2.18693  -1.15163
 Alpha  occ. eigenvalues --   -1.15089  -1.14981  -1.14709  -1.14709  -1.14682
 Alpha  occ. eigenvalues --   -1.14674  -1.14655  -1.14606  -1.13499  -1.13474
 Alpha  occ. eigenvalues --   -1.13415  -1.13229  -1.13165  -1.13119  -1.13114
 Alpha  occ. eigenvalues --   -1.13079  -1.13070  -1.12365  -1.12345  -1.12313
 Alpha  occ. eigenvalues --   -0.16687  -0.13544  -0.12479  -0.11267
 Alpha virt. eigenvalues --   -0.06791  -0.05059  -0.04712  -0.03818  -0.02869
 Alpha virt. eigenvalues --   -0.02412  -0.01993  -0.01709  -0.01436  -0.00994
 Alpha virt. eigenvalues --   -0.00569  -0.00268   0.00070   0.00231   0.00511

  Beta  occ. eigenvalues --  -38.45582 -38.45188 -38.45160 -38.43967 -38.43688
  Beta  occ. eigenvalues --  -38.43535 -38.42853  -2.21387  -2.20991  -2.20805
  Beta  occ. eigenvalues --   -2.19767  -2.19475  -2.19473  -2.18654  -1.15144
  Beta  occ. eigenvalues --   -1.15069  -1.14953  -1.14669  -1.14653  -1.14604
  Beta  occ. eigenvalues --   -1.14521  -1.14521  -1.14496  -1.13481  -1.13447
  Beta  occ. eigenvalues --   -1.13396  -1.13201  -1.13158  -1.13150  -1.13145
  Beta  occ. eigenvalues --   -1.13073  -1.13067  -1.12334  -1.12319  -1.12292
  Beta  occ. eigenvalues --   -0.16453  -0.13219  -0.11521
  Beta virt. eigenvalues --   -0.07786  -0.06411  -0.04846  -0.04426  -0.03691
  Beta virt. eigenvalues --   -0.02606  -0.02228  -0.01530  -0.01264  -0.00890
  Beta virt. eigenvalues --   -0.00685  -0.00306  -0.00070   0.00170   0.00370

 Mulliken charges and spin densities:
               1          2
     1  Na   0.433648  -0.148428
     2  Na   1.293248   0.062670
     3  Na  -1.949495   0.114553
     4  Na   0.080809   0.099258
     5  Na  -0.666603   0.109722
     6  Na   0.902449   0.003670
     7  Na  -0.094056   0.758555
 Sum of Mulliken charges =  -0.00000   1.00000

 Dipole moment (field-independent basis, Debye):
    X=              1.7855    Y=             -1.8115    Z=             -0.0060  Tot=              2.5435
 Quadrupole moment (field-independent basis, Debye-Ang):
   XX=            -58.7706   YY=            -63.3014   ZZ=            -71.6664
   XY=             -7.7652   XZ=             -0.8540   YZ=              1.1579

 Normal termination of Gaussian 16 at Tue Nov 28 22:37:34 2023.
