 Gaussian 16, Revision B.01,
 Gaussian 16:  ES64L-G16RevB.01 20-Dec-2017

 -------------------------
 #P B3LYP/6-311+g(d) force
 -------------------------

 -----
 DPGEN
 -----
 Symbolic Z-matrix:
 Charge =  0 Multiplicity = 2

                         Standard orientation:
 ---------------------------------------------------------------------
 Center     Atomic      Atomic             Coordinates (Angstroms)
 Number     Number       Type             X           Y           Z
 ---------------------------------------------------------------------
      1         11           0       -1.965036    2.122479    0.026524
      2         11           0       -2.810482   -1.167102   -0.102025
      3         11           0        0.110403   -2.682258    0.263891
      4         11           0        0.230030    0.289469    1.750104
      5         11           0        2.929557   -0.859406   -0.223147
      6         11           0       -0.069729   -0.012019   -1.634972
      7         11           0        1.575256    2.308838   -0.080374
 ---------------------------------------------------------------------

 SCF Done:  E(UB3LYP) =  -1136.13794986     A.U. after   20 cycles

 The electronic state is 2-A.
 Alpha  occ. eigenvalues --  -38.43785 -38.43702 -38.43491 -38.43425 -38.43105
 Alpha  occ. eigenvalues --  -38.43061 -38.42940  -2.19657  -2.19573  -2.19382
 Alpha  occ. eigenvalues --   -2.19354  -2.19083  -2.19020  -2.18988  -1.13332
 Alpha  occ. eigenvalues --   -1.13318  -1.13306  -1.13257  -1.13232  -1.13229
 Alpha  occ. eigenvalues --   -1.13116  -1.13067  -1.13056  -1.13031  -1.13007
 Alpha  occ. eigenvalues --   -1.12947  -1.12792  -1.12729  -1.12715  -1.12685
 Alpha  occ. eigenvalues --   -1.12656  -1.12653  -1.12641  -1.12599  -1.12592
 Alpha  occ. eigenvalues --   -0.19419  -0.13218  -0.12766  -0.10691
 Alpha virt. eigenvalues --   -0.05403  -0.05182  -0.04565  -0.03080  -0.02884
 Alpha virt. eigenvalues --   -0.02243  -0.01474  -0.01077  -0.00129  -0.00102
 Alpha virt. eigenvalues --    0.00046   0.00362   0.00848   0.00924   0.00953

  Beta  occ. eigenvalues --  -38.43778 -38.43699 -38.43485 -38.43415 -38.43095
  Beta  occ. eigenvalues --  -38.42977 -38.42868  -2.19648  -2.19571  -2.19375
  Beta  occ. eigenvalues --   -2.19341  -2.19007  -2.18931  -2.18856  -1.13326
  Beta  occ. eigenvalues --   -1.13306  -1.13286  -1.13253  -1.13234  -1.13207
  Beta  occ. eigenvalues --   -1.13101  -1.13058  -1.13023  -1.13004  -1.12987
  Beta  occ. eigenvalues --   -1.12943  -1.12741  -1.12660  -1.12651  -1.12640
  Beta  occ. eigenvalues --   -1.12585  -1.12566  -1.12564  -1.12510  -1.12498
  Beta  occ. eigenvalues --   -0.18684  -0.12949  -0.12484
  Beta virt. eigenvalues --   -0.06739  -0.05380  -0.05181  -0.04560  -0.02277
  Beta virt. eigenvalues --   -0.02058  -0.01394  -0.01193  -0.01023  -0.00187
  Beta virt. eigenvalues --   -0.00134   0.00159   0.00387   0.00895   0.00916

 Mulliken charges and spin densities:
               1          2
     1  Na   0.214263  -0.105031
     2  Na   0.066310  -0.064798
     3  Na   0.168533  -0.039779
     4  Na  -0.434960   0.705378
     5  Na   0.150405  -0.040355
     6  Na  -0.494926   0.637980
     7  Na   0.330375  -0.093394
 Sum of Mulliken charges =  -0.00000   1.00000

 Dipole moment (field-independent basis, Debye):
    X=              0.0124    Y=              0.0515    Z=              0.0097  Tot=              0.0538
 Quadrupole moment (field-independent basis, Debye-Ang):
   XX=            -55.3980   YY=            -62.3868   ZZ=            -74.8486
   XY=             -0.2763   XZ=             -0.7068   YZ=             -0.5651

 Normal termination of Gaussian 16 at Tue Nov 28 22:31:54 2023.
