 Gaussian 16, Revision B.01,
 Gaussian 16:  ES64L-G16RevB.01 20-Dec-2017

 -------------------------
 #P B3LYP/6-311+g(d) force
 -------------------------

 -----
 DPGEN
 -----
 Symbolic Z-matrix:
 Charge =  0 Multiplicity = 2

                         Standard orientation:
 ---------------------------------------------------------------------
 Center     Atomic      Atomic             Coordinates (Angstroms)
 Number     Number       Type             X           Y           Z
 ---------------------------------------------------------------------
      1         11           0        3.394621    0.698630    0.171479
      2         11           0       -0.110793   -0.290660    1.859800
      3         11           0       -1.787450   -2.473936   -0.227365
      4         11           0        1.821517   -2.089831   -0.177422
      5         11           0        0.122878    0.504977   -1.815514
      6         11           0       -3.270465    0.793331    0.065804
      7         11           0       -0.170307    2.857489    0.123217
 ---------------------------------------------------------------------

 SCF Done:  E(UB3LYP) =  -1136.13439893     A.U. after   19 cycles

 The electronic state is 2-A.
 Alpha  occ. eigenvalues --  -38.44747 -38.44645 -38.43442 -38.43338 -38.43334
 Alpha  occ. eigenvalues --  -38.43332 -38.43300  -2.20531  -2.20442  -2.19349
 Alpha  occ. eigenvalues --   -2.19258  -2.19219  -2.19165  -2.19151  -1.14209
 Alpha  occ. eigenvalues --   -1.14185  -1.14169  -1.14123  -1.14103  -1.14074
 Alpha  occ. eigenvalues --   -1.13051  -1.13019  -1.12993  -1.12971  -1.12933
 Alpha  occ. eigenvalues --   -1.12884  -1.12879  -1.12859  -1.12851  -1.12831
 Alpha  occ. eigenvalues --   -1.12824  -1.12809  -1.12802  -1.12787  -1.12756
 Alpha  occ. eigenvalues --   -0.18427  -0.13148  -0.12205  -0.10484
 Alpha virt. eigenvalues --   -0.06365  -0.05069  -0.04472  -0.03199  -0.02829
 Alpha virt. eigenvalues --   -0.02339  -0.02064  -0.01136  -0.00486  -0.00289
 Alpha virt. eigenvalues --   -0.00045   0.00327   0.00750   0.00809   0.00836

  Beta  occ. eigenvalues --  -38.44746 -38.44644 -38.43364 -38.43334 -38.43323
  Beta  occ. eigenvalues --  -38.43294 -38.43259  -2.20531  -2.20442  -2.19208
  Beta  occ. eigenvalues --   -2.19207  -2.19160  -2.19144  -2.19116  -1.14192
  Beta  occ. eigenvalues --   -1.14186  -1.14172  -1.14126  -1.14086  -1.14076
  Beta  occ. eigenvalues --   -1.12971  -1.12955  -1.12905  -1.12887  -1.12873
  Beta  occ. eigenvalues --   -1.12849  -1.12832  -1.12820  -1.12811  -1.12805
  Beta  occ. eigenvalues --   -1.12798  -1.12784  -1.12770  -1.12744  -1.12728
  Beta  occ. eigenvalues --   -0.17694  -0.12958  -0.11969
  Beta virt. eigenvalues --   -0.06621  -0.06307  -0.05081  -0.04403  -0.02465
  Beta virt. eigenvalues --   -0.02053  -0.01958  -0.01322  -0.01085  -0.00525
  Beta virt. eigenvalues --   -0.00328   0.00107   0.00349   0.00793   0.00847

 Mulliken charges and spin densities:
               1          2
     1  Na   0.119906  -0.072632
     2  Na  -0.268288   0.736031
     3  Na   0.026142  -0.061816
     4  Na   0.172551  -0.007866
     5  Na  -0.225398   0.682649
     6  Na   0.097202  -0.089401
     7  Na   0.077885  -0.186965
 Sum of Mulliken charges =  -0.00000   1.00000

 Dipole moment (field-independent basis, Debye):
    X=             -0.0851    Y=              0.2813    Z=              0.0741  Tot=              0.3031
 Quadrupole moment (field-independent basis, Debye-Ang):
   XX=            -51.0772   YY=            -65.7176   ZZ=            -75.4666
   XY=              0.7600   XZ=              0.6606   YZ=              1.9513

 Normal termination of Gaussian 16 at Thu Dec  7 21:37:20 2023.
