 Gaussian 16, Revision B.01,
 Gaussian 16:  ES64L-G16RevB.01 20-Dec-2017

 -------------------------
 #P B3LYP/6-311+g(d) force
 -------------------------

 -----
 DPGEN
 -----
 Symbolic Z-matrix:
 Charge =  0 Multiplicity = 2

                         Standard orientation:
 ---------------------------------------------------------------------
 Center     Atomic      Atomic             Coordinates (Angstroms)
 Number     Number       Type             X           Y           Z
 ---------------------------------------------------------------------
      1         11           0        3.170193   -0.158729   -0.012409
      2         11           0        1.113568    2.750472   -0.073224
      3         11           0        0.685388   -2.900401   -0.010445
      4         11           0        0.081194   -0.181535   -1.552154
      5         11           0       -2.798760   -1.306675   -0.153952
      6         11           0       -2.150362    1.967743   -0.002737
      7         11           0       -0.101221   -0.170875    1.804920
 ---------------------------------------------------------------------

 SCF Done:  E(UB3LYP) =  -1136.13982188     A.U. after   20 cycles

 The electronic state is 2-A.
 Alpha  occ. eigenvalues --  -38.44105 -38.43844 -38.43653 -38.43459 -38.43390
 Alpha  occ. eigenvalues --  -38.42985 -38.42813  -2.19927  -2.19699  -2.19516
 Alpha  occ. eigenvalues --   -2.19344  -2.19245  -2.18945  -2.18836  -1.13603
 Alpha  occ. eigenvalues --   -1.13588  -1.13564  -1.13380  -1.13365  -1.13339
 Alpha  occ. eigenvalues --   -1.13219  -1.13189  -1.13128  -1.13033  -1.13008
 Alpha  occ. eigenvalues --   -1.12994  -1.12918  -1.12905  -1.12875  -1.12650
 Alpha  occ. eigenvalues --   -1.12565  -1.12555  -1.12516  -1.12468  -1.12448
 Alpha  occ. eigenvalues --   -0.18950  -0.13046  -0.12714  -0.10347
 Alpha virt. eigenvalues --   -0.05684  -0.05081  -0.04936  -0.02956  -0.02773
 Alpha virt. eigenvalues --   -0.02114  -0.01584  -0.01221  -0.00453  -0.00343
 Alpha virt. eigenvalues --    0.00036   0.00359   0.00825   0.00860   0.00913

  Beta  occ. eigenvalues --  -38.44102 -38.43837 -38.43646 -38.43453 -38.43386
  Beta  occ. eigenvalues --  -38.42898 -38.42747  -2.19925  -2.19691  -2.19507
  Beta  occ. eigenvalues --   -2.19338  -2.19242  -2.18786  -2.18717  -1.13593
  Beta  occ. eigenvalues --   -1.13576  -1.13566  -1.13376  -1.13338  -1.13331
  Beta  occ. eigenvalues --   -1.13213  -1.13153  -1.13127  -1.13031  -1.12995
  Beta  occ. eigenvalues --   -1.12972  -1.12913  -1.12883  -1.12875  -1.12547
  Beta  occ. eigenvalues --   -1.12450  -1.12442  -1.12426  -1.12381  -1.12359
  Beta  occ. eigenvalues --   -0.18229  -0.12798  -0.12456
  Beta virt. eigenvalues --   -0.06441  -0.05678  -0.05081  -0.04911  -0.02167
  Beta virt. eigenvalues --   -0.01991  -0.01504  -0.01151  -0.01078  -0.00518
  Beta virt. eigenvalues --   -0.00397   0.00172   0.00390   0.00845   0.00875

 Mulliken charges and spin densities:
               1          2
     1  Na   0.117296  -0.090615
     2  Na   0.068323  -0.074470
     3  Na   0.200596  -0.136931
     4  Na  -0.445588   0.597398
     5  Na   0.290024  -0.058748
     6  Na   0.183374  -0.021075
     7  Na  -0.414025   0.784439
 Sum of Mulliken charges =  -0.00000   1.00000

 Dipole moment (field-independent basis, Debye):
    X=              0.1545    Y=             -0.2163    Z=              0.0819  Tot=              0.2782
 Quadrupole moment (field-independent basis, Debye-Ang):
   XX=            -55.1307   YY=            -59.7735   ZZ=            -76.6425
   XY=              0.2570   XZ=              0.4496   YZ=              0.0237

 Normal termination of Gaussian 16 at Fri Dec  8 04:14:10 2023.
