 Gaussian 16, Revision B.01,
 Gaussian 16:  ES64L-G16RevB.01 20-Dec-2017

 -------------------------
 #P B3LYP/6-311+g(d) force
 -------------------------

 -----
 DPGEN
 -----
 Symbolic Z-matrix:
 Charge =  0 Multiplicity = 2

                         Standard orientation:
 ---------------------------------------------------------------------
 Center     Atomic      Atomic             Coordinates (Angstroms)
 Number     Number       Type             X           Y           Z
 ---------------------------------------------------------------------
      1         11           0        0.655094    0.060237    2.376538
      2         11           0       -2.581300    2.156738    0.022319
      3         11           0       -0.326859   -0.083331   -1.191914
      4         11           0        1.123928    2.821962   -0.304380
      5         11           0       -2.879857   -1.986718   -0.165924
      6         11           0        1.098928   -2.897074   -0.065760
      7         11           0        2.910066   -0.071814   -0.670879
 ---------------------------------------------------------------------

 SCF Done:  E(UB3LYP) =  -1136.13273769     A.U. after   20 cycles

 The electronic state is 2-A.
 Alpha  occ. eigenvalues --  -38.44370 -38.44295 -38.43892 -38.43801 -38.43623
 Alpha  occ. eigenvalues --  -38.43526 -38.42810  -2.20142  -2.20061  -2.19715
 Alpha  occ. eigenvalues --   -2.19636  -2.19460  -2.19407  -2.18817  -1.13824
 Alpha  occ. eigenvalues --   -1.13806  -1.13771  -1.13744  -1.13720  -1.13691
 Alpha  occ. eigenvalues --   -1.13404  -1.13377  -1.13350  -1.13281  -1.13260
 Alpha  occ. eigenvalues --   -1.13248  -1.13158  -1.13122  -1.13105  -1.13090
 Alpha  occ. eigenvalues --   -1.13049  -1.13025  -1.12518  -1.12462  -1.12456
 Alpha  occ. eigenvalues --   -0.18142  -0.12676  -0.12478  -0.10593
 Alpha virt. eigenvalues --   -0.06017  -0.05158  -0.04986  -0.02857  -0.02751
 Alpha virt. eigenvalues --   -0.02592  -0.01532  -0.01467  -0.00762  -0.00614
 Alpha virt. eigenvalues --   -0.00045   0.00302   0.00745   0.00785   0.00822

  Beta  occ. eigenvalues --  -38.44372 -38.44296 -38.43888 -38.43681 -38.43616
  Beta  occ. eigenvalues --  -38.43507 -38.42778  -2.20146  -2.20065  -2.19710
  Beta  occ. eigenvalues --   -2.19450  -2.19415  -2.19374  -2.18762  -1.13821
  Beta  occ. eigenvalues --   -1.13806  -1.13776  -1.13741  -1.13722  -1.13696
  Beta  occ. eigenvalues --   -1.13400  -1.13354  -1.13351  -1.13151  -1.13130
  Beta  occ. eigenvalues --   -1.13113  -1.13102  -1.13095  -1.13084  -1.13065
  Beta  occ. eigenvalues --   -1.13011  -1.13004  -1.12470  -1.12419  -1.12413
  Beta  occ. eigenvalues --   -0.17462  -0.12511  -0.12299
  Beta virt. eigenvalues --   -0.06524  -0.05993  -0.05085  -0.04935  -0.02200
  Beta virt. eigenvalues --   -0.02058  -0.01556  -0.01412  -0.01364  -0.00757
  Beta virt. eigenvalues --   -0.00646   0.00172   0.00371   0.00752   0.00854

 Mulliken charges and spin densities:
               1          2
     1  Na  -0.706913   0.742919
     2  Na  -0.029581  -0.005186
     3  Na  -0.133850   0.053001
     4  Na   0.261987   0.046385
     5  Na  -0.001300  -0.008503
     6  Na   0.191131   0.054251
     7  Na   0.418526   0.117133
 Sum of Mulliken charges =  -0.00000   1.00000

 Dipole moment (field-independent basis, Debye):
    X=             -0.4136    Y=             -0.0414    Z=              0.1822  Tot=              0.4539
 Quadrupole moment (field-independent basis, Debye-Ang):
   XX=            -57.8084   YY=            -58.3612   ZZ=            -76.1753
   XY=             -0.4366   XZ=             -2.1688   YZ=             -0.2042

 Normal termination of Gaussian 16 at Thu Dec  7 05:49:40 2023.
