 Gaussian 16, Revision B.01,
 Gaussian 16:  ES64L-G16RevB.01 20-Dec-2017

 -------------------------
 #P B3LYP/6-311+g(d) force
 -------------------------

 -----
 DPGEN
 -----
 Symbolic Z-matrix:
 Charge =  0 Multiplicity = 2

                         Standard orientation:
 ---------------------------------------------------------------------
 Center     Atomic      Atomic             Coordinates (Angstroms)
 Number     Number       Type             X           Y           Z
 ---------------------------------------------------------------------
      1         11           0        1.208932    2.056725    0.106411
      2         11           0        3.932611   -0.670165   -1.100392
      3         11           0        1.837975   -0.935522    1.993904
      4         11           0       -3.490619   -1.708681   -0.274828
      5         11           0       -0.088102   -1.178909   -1.125625
      6         11           0       -1.643646    0.719769    1.579904
      7         11           0       -1.757151    1.716783   -1.179374
 ---------------------------------------------------------------------

 SCF Done:  E(UB3LYP) =  -1136.12425704     A.U. after   24 cycles

 The electronic state is 2-A.
 Alpha  occ. eigenvalues --  -38.44785 -38.44393 -38.44231 -38.43976 -38.43597
 Alpha  occ. eigenvalues --  -38.43350 -38.42870  -2.20546  -2.20218  -2.20088
 Alpha  occ. eigenvalues --   -2.19913  -2.19546  -2.19150  -2.18758  -1.14213
 Alpha  occ. eigenvalues --   -1.14211  -1.14162  -1.13896  -1.13872  -1.13820
 Alpha  occ. eigenvalues --   -1.13798  -1.13793  -1.13685  -1.13669  -1.13583
 Alpha  occ. eigenvalues --   -1.13498  -1.13224  -1.13198  -1.13115  -1.12825
 Alpha  occ. eigenvalues --   -1.12813  -1.12785  -1.12453  -1.12436  -1.12363
 Alpha  occ. eigenvalues --   -0.18439  -0.13692  -0.11192  -0.11128
 Alpha virt. eigenvalues --   -0.06635  -0.05028  -0.04903  -0.03066  -0.02671
 Alpha virt. eigenvalues --   -0.02417  -0.02170  -0.01243  -0.00816  -0.00159
 Alpha virt. eigenvalues --    0.00114   0.00238   0.00301   0.00588   0.00657

  Beta  occ. eigenvalues --  -38.44760 -38.44331 -38.44210 -38.43943 -38.43568
  Beta  occ. eigenvalues --  -38.43353 -38.42859  -2.20499  -2.20104  -2.20054
  Beta  occ. eigenvalues --   -2.19853  -2.19492  -2.19156  -2.18742  -1.14180
  Beta  occ. eigenvalues --   -1.14173  -1.14133  -1.13821  -1.13796  -1.13772
  Beta  occ. eigenvalues --   -1.13745  -1.13725  -1.13653  -1.13632  -1.13533
  Beta  occ. eigenvalues --   -1.13457  -1.13178  -1.13161  -1.13078  -1.12826
  Beta  occ. eigenvalues --   -1.12815  -1.12789  -1.12444  -1.12390  -1.12359
  Beta  occ. eigenvalues --   -0.17738  -0.13467  -0.10999
  Beta virt. eigenvalues --   -0.07339  -0.06331  -0.04964  -0.04279  -0.02901
  Beta virt. eigenvalues --   -0.02298  -0.01823  -0.01726  -0.01089  -0.00416
  Beta virt. eigenvalues --   -0.00051   0.00159   0.00347   0.00422   0.00653

 Mulliken charges and spin densities:
               1          2
     1  Na  -0.122285   0.247978
     2  Na   0.285052   0.081913
     3  Na  -0.088884   0.109247
     4  Na  -0.003710  -0.131766
     5  Na  -0.614984   0.371362
     6  Na   0.188317   0.373297
     7  Na   0.356495  -0.052030
 Sum of Mulliken charges =  -0.00000   1.00000

 Dipole moment (field-independent basis, Debye):
    X=              0.6180    Y=              0.1530    Z=              0.0417  Tot=              0.6380
 Quadrupole moment (field-independent basis, Debye-Ang):
   XX=            -52.4364   YY=            -75.0115   ZZ=            -67.1652
   XY=             -1.0441   XZ=             -1.4457   YZ=             -1.7272

 Normal termination of Gaussian 16 at Thu Dec  7 15:36:17 2023.
