 Gaussian 16, Revision B.01,
 Gaussian 16:  ES64L-G16RevB.01 20-Dec-2017

 -------------------------
 #P B3LYP/6-311+g(d) force
 -------------------------

 -----
 DPGEN
 -----
 Symbolic Z-matrix:
 Charge =  0 Multiplicity = 2

                         Standard orientation:
 ---------------------------------------------------------------------
 Center     Atomic      Atomic             Coordinates (Angstroms)
 Number     Number       Type             X           Y           Z
 ---------------------------------------------------------------------
      1         11           0       -0.087123    0.104745    2.077451
      2         11           0        2.759783   -2.115158    0.124975
      3         11           0       -3.454779   -0.648658   -0.256474
      4         11           0       -1.133550    3.008066    0.118650
      5         11           0        0.108740    0.362642   -1.379278
      6         11           0        2.494496    2.038487   -0.388645
      7         11           0       -0.687567   -2.750125   -0.296678
 ---------------------------------------------------------------------

 SCF Done:  E(UB3LYP) =  -1136.13124796     A.U. after   20 cycles

 The electronic state is 2-A.
 Alpha  occ. eigenvalues --  -38.44290 -38.44254 -38.44054 -38.44018 -38.43552
 Alpha  occ. eigenvalues --  -38.43492 -38.43179  -2.20097  -2.20075  -2.19830
 Alpha  occ. eigenvalues --   -2.19788  -2.19411  -2.19340  -2.19157  -1.13799
 Alpha  occ. eigenvalues --   -1.13785  -1.13761  -1.13727  -1.13720  -1.13681
 Alpha  occ. eigenvalues --   -1.13502  -1.13490  -1.13470  -1.13462  -1.13449
 Alpha  occ. eigenvalues --   -1.13431  -1.13092  -1.13046  -1.13037  -1.13019
 Alpha  occ. eigenvalues --   -1.13005  -1.12950  -1.12849  -1.12796  -1.12780
 Alpha  occ. eigenvalues --   -0.18071  -0.12872  -0.12328  -0.10286
 Alpha virt. eigenvalues --   -0.05925  -0.05547  -0.04917  -0.02932  -0.02695
 Alpha virt. eigenvalues --   -0.02266  -0.01733  -0.01651  -0.00812  -0.00506
 Alpha virt. eigenvalues --   -0.00032   0.00283   0.00688   0.00755   0.00841

  Beta  occ. eigenvalues --  -38.44284 -38.44239 -38.44051 -38.44019 -38.43484
  Beta  occ. eigenvalues --  -38.43449 -38.43135  -2.20090  -2.20049  -2.19825
  Beta  occ. eigenvalues --   -2.19793  -2.19329  -2.19221  -2.19079  -1.13784
  Beta  occ. eigenvalues --   -1.13769  -1.13738  -1.13718  -1.13693  -1.13667
  Beta  occ. eigenvalues --   -1.13495  -1.13479  -1.13467  -1.13461  -1.13445
  Beta  occ. eigenvalues --   -1.13435  -1.13037  -1.12993  -1.12961  -1.12941
  Beta  occ. eigenvalues --   -1.12905  -1.12878  -1.12783  -1.12738  -1.12725
  Beta  occ. eigenvalues --   -0.17396  -0.12612  -0.12139
  Beta virt. eigenvalues --   -0.06473  -0.05812  -0.05484  -0.04878  -0.02207
  Beta virt. eigenvalues --   -0.02071  -0.01634  -0.01545  -0.01239  -0.00845
  Beta virt. eigenvalues --   -0.00522   0.00128   0.00339   0.00704   0.00807

 Mulliken charges and spin densities:
               1          2
     1  Na  -0.368749   0.761746
     2  Na   0.040277  -0.006923
     3  Na   0.058933  -0.019689
     4  Na   0.142011  -0.019011
     5  Na  -0.212816   0.246082
     6  Na   0.250675   0.016092
     7  Na   0.089670   0.021702
 Sum of Mulliken charges =  -0.00000   1.00000

 Dipole moment (field-independent basis, Debye):
    X=              0.0667    Y=              0.4712    Z=              0.1705  Tot=              0.5056
 Quadrupole moment (field-independent basis, Debye-Ang):
   XX=            -55.4415   YY=            -59.2304   ZZ=            -77.1304
   XY=             -1.4692   XZ=              0.5564   YZ=              0.3015

 Normal termination of Gaussian 16 at Thu Dec  7 17:25:16 2023.
