 Gaussian 16, Revision B.01,
 Gaussian 16:  ES64L-G16RevB.01 20-Dec-2017

 -------------------------
 #P B3LYP/6-311+g(d) force
 -------------------------

 -----
 DPGEN
 -----
 Symbolic Z-matrix:
 Charge =  0 Multiplicity = 2

                         Standard orientation:
 ---------------------------------------------------------------------
 Center     Atomic      Atomic             Coordinates (Angstroms)
 Number     Number       Type             X           Y           Z
 ---------------------------------------------------------------------
      1         11           0       -1.434447   -2.192816   -0.498657
      2         11           0       -0.328574    2.823087    0.045757
      3         11           0        3.405887    0.821826    0.003081
      4         11           0       -0.634534   -0.009364    2.348226
      5         11           0       -3.183965    0.329046   -0.344522
      6         11           0        1.842707   -2.242265    0.132241
      7         11           0        0.332925    0.470486   -1.686126
 ---------------------------------------------------------------------

 SCF Done:  E(UB3LYP) =  -1136.13108897     A.U. after   19 cycles

 The electronic state is 2-A.
 Alpha  occ. eigenvalues --  -38.44697 -38.44471 -38.44178 -38.43557 -38.43326
 Alpha  occ. eigenvalues --  -38.43313 -38.42959  -2.20475  -2.20316  -2.20018
 Alpha  occ. eigenvalues --   -2.19510  -2.19167  -2.19161  -2.18872  -1.14152
 Alpha  occ. eigenvalues --   -1.14134  -1.14113  -1.14019  -1.13972  -1.13940
 Alpha  occ. eigenvalues --   -1.13664  -1.13646  -1.13636  -1.13254  -1.13176
 Alpha  occ. eigenvalues --   -1.13114  -1.12852  -1.12842  -1.12833  -1.12816
 Alpha  occ. eigenvalues --   -1.12810  -1.12764  -1.12551  -1.12525  -1.12512
 Alpha  occ. eigenvalues --   -0.18437  -0.13135  -0.12102  -0.11113
 Alpha virt. eigenvalues --   -0.06317  -0.04839  -0.04276  -0.03383  -0.02989
 Alpha virt. eigenvalues --   -0.02933  -0.01943  -0.00867  -0.00384  -0.00130
 Alpha virt. eigenvalues --   -0.00079   0.00329   0.00688   0.00817   0.00857

  Beta  occ. eigenvalues --  -38.44700 -38.44464 -38.44069 -38.43505 -38.43324
  Beta  occ. eigenvalues --  -38.43308 -38.42945  -2.20482  -2.20305  -2.19817
  Beta  occ. eigenvalues --   -2.19415  -2.19165  -2.19155  -2.18851  -1.14147
  Beta  occ. eigenvalues --   -1.14139  -1.14119  -1.14013  -1.13941  -1.13935
  Beta  occ. eigenvalues --   -1.13530  -1.13507  -1.13492  -1.13196  -1.13112
  Beta  occ. eigenvalues --   -1.13040  -1.12849  -1.12829  -1.12820  -1.12806
  Beta  occ. eigenvalues --   -1.12789  -1.12763  -1.12537  -1.12514  -1.12470
  Beta  occ. eigenvalues --   -0.17705  -0.12962  -0.11889
  Beta virt. eigenvalues --   -0.07110  -0.06253  -0.04807  -0.04204  -0.02690
  Beta virt. eigenvalues --   -0.02180  -0.01881  -0.01834  -0.00817  -0.00418
  Beta virt. eigenvalues --   -0.00109   0.00076   0.00370   0.00825   0.00863

 Mulliken charges and spin densities:
               1          2
     1  Na   0.055733   0.119121
     2  Na   0.013757  -0.055570
     3  Na   0.120464  -0.055350
     4  Na  -0.610590   0.700363
     5  Na   0.350726   0.030055
     6  Na  -0.033675   0.021523
     7  Na   0.103585   0.239857
 Sum of Mulliken charges =  -0.00000   1.00000

 Dipole moment (field-independent basis, Debye):
    X=              0.2325    Y=              0.3768    Z=              0.2696  Tot=              0.5184
 Quadrupole moment (field-independent basis, Debye-Ang):
   XX=            -53.8902   YY=            -68.6510   ZZ=            -72.1365
   XY=              0.1320   XZ=              1.7928   YZ=              0.7646

 Normal termination of Gaussian 16 at Thu Dec  7 03:48:57 2023.
