 Gaussian 16, Revision B.01,
 Gaussian 16:  ES64L-G16RevB.01 20-Dec-2017

 -------------------------
 #P B3LYP/6-311+g(d) force
 -------------------------

 -----
 DPGEN
 -----
 Symbolic Z-matrix:
 Charge =  0 Multiplicity = 2

                         Standard orientation:
 ---------------------------------------------------------------------
 Center     Atomic      Atomic             Coordinates (Angstroms)
 Number     Number       Type             X           Y           Z
 ---------------------------------------------------------------------
      1         11           0        0.166132    0.082859    1.861237
      2         11           0       -2.721609    1.238962    0.138433
      3         11           0        0.015648   -0.011164   -1.835925
      4         11           0        3.054235    0.146943   -0.043079
      5         11           0       -1.998539   -2.013627   -0.097085
      6         11           0        0.469831    3.083196   -0.106051
      7         11           0        1.014302   -2.527168    0.082470
 ---------------------------------------------------------------------

 SCF Done:  E(UB3LYP) =  -1136.13914457     A.U. after   19 cycles

 The electronic state is 2-A.
 Alpha  occ. eigenvalues --  -38.43857 -38.43739 -38.43675 -38.43330 -38.43300
 Alpha  occ. eigenvalues --  -38.43256 -38.43248  -2.19664  -2.19584  -2.19519
 Alpha  occ. eigenvalues --   -2.19283  -2.19262  -2.19200  -2.19176  -1.13343
 Alpha  occ. eigenvalues --   -1.13330  -1.13300  -1.13263  -1.13256  -1.13220
 Alpha  occ. eigenvalues --   -1.13200  -1.13190  -1.13154  -1.13031  -1.12962
 Alpha  occ. eigenvalues --   -1.12942  -1.12917  -1.12901  -1.12897  -1.12893
 Alpha  occ. eigenvalues --   -1.12832  -1.12826  -1.12813  -1.12811  -1.12751
 Alpha  occ. eigenvalues --   -0.19050  -0.12849  -0.12773  -0.10872
 Alpha virt. eigenvalues --   -0.05524  -0.04993  -0.04710  -0.03083  -0.03062
 Alpha virt. eigenvalues --   -0.02568  -0.01291  -0.01203  -0.00284  -0.00109
 Alpha virt. eigenvalues --    0.00003   0.00375   0.00862   0.00894   0.00959

  Beta  occ. eigenvalues --  -38.43855 -38.43736 -38.43671 -38.43249 -38.43248
  Beta  occ. eigenvalues --  -38.43238 -38.43218  -2.19663  -2.19580  -2.19515
  Beta  occ. eigenvalues --   -2.19188  -2.19168  -2.19132  -2.19112  -1.13331
  Beta  occ. eigenvalues --   -1.13322  -1.13302  -1.13262  -1.13229  -1.13219
  Beta  occ. eigenvalues --   -1.13199  -1.13163  -1.13156  -1.13002  -1.12898
  Beta  occ. eigenvalues --   -1.12870  -1.12840  -1.12828  -1.12807  -1.12799
  Beta  occ. eigenvalues --   -1.12779  -1.12768  -1.12755  -1.12750  -1.12747
  Beta  occ. eigenvalues --   -0.18284  -0.12598  -0.12518
  Beta virt. eigenvalues --   -0.06928  -0.05540  -0.04926  -0.04723  -0.02267
  Beta virt. eigenvalues --   -0.02250  -0.01512  -0.01216  -0.01125  -0.00340
  Beta virt. eigenvalues --   -0.00166   0.00125   0.00386   0.00861   0.00913

 Mulliken charges and spin densities:
               1          2
     1  Na  -0.408798   0.677204
     2  Na   0.084054  -0.089983
     3  Na  -0.405003   0.688072
     4  Na   0.129535  -0.131962
     5  Na   0.233130  -0.002517
     6  Na  -0.042056  -0.165703
     7  Na   0.409137   0.024890
 Sum of Mulliken charges =  -0.00000   1.00000

 Dipole moment (field-independent basis, Debye):
    X=              0.1377    Y=              0.4416    Z=              0.0062  Tot=              0.4627
 Quadrupole moment (field-independent basis, Debye-Ang):
   XX=            -59.1585   YY=            -60.7823   ZZ=            -73.7266
   XY=              0.2578   XZ=             -0.3888   YZ=             -0.1934

 Normal termination of Gaussian 16 at Fri Dec  8 02:06:44 2023.
