 Gaussian 16, Revision B.01,
 Gaussian 16:  ES64L-G16RevB.01 20-Dec-2017

 -------------------------
 #P B3LYP/6-311+g(d) force
 -------------------------

 -----
 DPGEN
 -----
 Symbolic Z-matrix:
 Charge =  0 Multiplicity = 2

                         Standard orientation:
 ---------------------------------------------------------------------
 Center     Atomic      Atomic             Coordinates (Angstroms)
 Number     Number       Type             X           Y           Z
 ---------------------------------------------------------------------
      1         11           0       -0.507142    2.864079   -0.013767
      2         11           0       -1.584422   -2.406905   -0.462046
      3         11           0       -0.046252    0.117175   -1.623842
      4         11           0        0.180843   -0.278217    2.105366
      5         11           0       -3.173734    0.632459    0.177142
      6         11           0        1.977618   -2.237280    0.047769
      7         11           0        3.153089    1.308690   -0.230622
 ---------------------------------------------------------------------

 SCF Done:  E(UB3LYP) =  -1136.13699156     A.U. after   20 cycles

 The electronic state is 2-A.
 Alpha  occ. eigenvalues --  -38.44304 -38.44073 -38.43716 -38.43666 -38.43456
 Alpha  occ. eigenvalues --  -38.43296 -38.43219  -2.20075  -2.19893  -2.19586
 Alpha  occ. eigenvalues --   -2.19509  -2.19292  -2.19192  -2.19165  -1.13753
 Alpha  occ. eigenvalues --   -1.13724  -1.13719  -1.13561  -1.13552  -1.13545
 Alpha  occ. eigenvalues --   -1.13268  -1.13230  -1.13205  -1.13181  -1.13160
 Alpha  occ. eigenvalues --   -1.13133  -1.13025  -1.12957  -1.12937  -1.12908
 Alpha  occ. eigenvalues --   -1.12856  -1.12815  -1.12809  -1.12783  -1.12771
 Alpha  occ. eigenvalues --   -0.18440  -0.12912  -0.12361  -0.10710
 Alpha virt. eigenvalues --   -0.05865  -0.05261  -0.04560  -0.03177  -0.02843
 Alpha virt. eigenvalues --   -0.02582  -0.01720  -0.01177  -0.00430  -0.00375
 Alpha virt. eigenvalues --   -0.00027   0.00335   0.00762   0.00848   0.00878

  Beta  occ. eigenvalues --  -38.44302 -38.44071 -38.43660 -38.43619 -38.43453
  Beta  occ. eigenvalues --  -38.43283 -38.43158  -2.20073  -2.19891  -2.19503
  Beta  occ. eigenvalues --   -2.19407  -2.19288  -2.19145  -2.19080  -1.13740
  Beta  occ. eigenvalues --   -1.13723  -1.13719  -1.13553  -1.13549  -1.13537
  Beta  occ. eigenvalues --   -1.13206  -1.13157  -1.13135  -1.13122  -1.13082
  Beta  occ. eigenvalues --   -1.13068  -1.13010  -1.12938  -1.12908  -1.12892
  Beta  occ. eigenvalues --   -1.12791  -1.12782  -1.12773  -1.12732  -1.12703
  Beta  occ. eigenvalues --   -0.17718  -0.12706  -0.12114
  Beta virt. eigenvalues --   -0.06801  -0.05838  -0.05217  -0.04519  -0.02411
  Beta virt. eigenvalues --   -0.02102  -0.01647  -0.01506  -0.01100  -0.00479
  Beta virt. eigenvalues --   -0.00408   0.00119   0.00363   0.00820   0.00851

 Mulliken charges and spin densities:
               1          2
     1  Na   0.036964  -0.084533
     2  Na   0.253695   0.010161
     3  Na  -0.123449   0.443245
     4  Na  -0.464421   0.749137
     5  Na   0.076703   0.009550
     6  Na   0.230294  -0.032402
     7  Na  -0.009786  -0.095158
 Sum of Mulliken charges =  -0.00000   1.00000

 Dipole moment (field-independent basis, Debye):
    X=              0.1571    Y=              0.1056    Z=              0.1761  Tot=              0.2585
 Quadrupole moment (field-independent basis, Debye-Ang):
   XX=            -54.6498   YY=            -63.6207   ZZ=            -74.7059
   XY=              0.1512   XZ=             -0.7820   YZ=              0.9153

 Normal termination of Gaussian 16 at Thu Dec  7 17:28:59 2023.
