 Gaussian 16, Revision B.01,
 Gaussian 16:  ES64L-G16RevB.01 20-Dec-2017

 -------------------------
 #P B3LYP/6-311+g(d) force
 -------------------------

 -----
 DPGEN
 -----
 Symbolic Z-matrix:
 Charge =  0 Multiplicity = 2

                         Standard orientation:
 ---------------------------------------------------------------------
 Center     Atomic      Atomic             Coordinates (Angstroms)
 Number     Number       Type             X           Y           Z
 ---------------------------------------------------------------------
      1         11           0        1.363152   -3.027340   -0.448238
      2         11           0       -3.590753    0.448133    0.452548
      3         11           0        2.143822    2.614767   -0.422477
      4         11           0       -1.018949    3.061165   -0.250630
      5         11           0       -2.314918   -2.314785   -0.327674
      6         11           0        3.409652   -0.618184    0.623177
      7         11           0        0.007995   -0.163756    0.373295
 ---------------------------------------------------------------------

 SCF Done:  E(UB3LYP) =  -1136.12802623     A.U. after   24 cycles

 The electronic state is 2-A.
 Alpha  occ. eigenvalues --  -38.44358 -38.44300 -38.43856 -38.43830 -38.43767
 Alpha  occ. eigenvalues --  -38.43287 -38.43060  -2.20194  -2.20165  -2.19726
 Alpha  occ. eigenvalues --   -2.19710  -2.19684  -2.19157  -2.18933  -1.13871
 Alpha  occ. eigenvalues --   -1.13868  -1.13865  -1.13841  -1.13835  -1.13803
 Alpha  occ. eigenvalues --   -1.13458  -1.13433  -1.13372  -1.13369  -1.13361
 Alpha  occ. eigenvalues --   -1.13350  -1.13340  -1.13314  -1.13298  -1.12817
 Alpha  occ. eigenvalues --   -1.12803  -1.12777  -1.12588  -1.12570  -1.12565
 Alpha  occ. eigenvalues --   -0.17671  -0.13930  -0.13552  -0.09537
 Alpha virt. eigenvalues --   -0.06552  -0.05716  -0.04354  -0.03214  -0.02655
 Alpha virt. eigenvalues --   -0.02251  -0.01941  -0.01426  -0.01274  -0.00277
 Alpha virt. eigenvalues --    0.00050   0.00329   0.00522   0.00711   0.00734

  Beta  occ. eigenvalues --  -38.44345 -38.44284 -38.43830 -38.43805 -38.43775
  Beta  occ. eigenvalues --  -38.43231 -38.42997  -2.20177  -2.20144  -2.19738
  Beta  occ. eigenvalues --   -2.19664  -2.19642  -2.19052  -2.18815  -1.13864
  Beta  occ. eigenvalues --   -1.13862  -1.13856  -1.13828  -1.13788  -1.13731
  Beta  occ. eigenvalues --   -1.13454  -1.13433  -1.13383  -1.13341  -1.13339
  Beta  occ. eigenvalues --   -1.13325  -1.13294  -1.13286  -1.13251  -1.12748
  Beta  occ. eigenvalues --   -1.12730  -1.12707  -1.12506  -1.12491  -1.12489
  Beta  occ. eigenvalues --   -0.17369  -0.13306  -0.12898
  Beta virt. eigenvalues --   -0.06589  -0.06240  -0.05457  -0.04209  -0.02609
  Beta virt. eigenvalues --   -0.02166  -0.02024  -0.01686  -0.01266  -0.01043
  Beta virt. eigenvalues --   -0.00101   0.00338   0.00541   0.00544   0.00803

 Mulliken charges and spin densities:
               1          2
     1  Na   0.738034   0.139608
     2  Na   1.134395   0.411415
     3  Na   0.612697   0.053156
     4  Na   0.447930   0.146290
     5  Na   0.674003   0.135196
     6  Na   1.326442   0.425565
     7  Na  -4.933501  -0.311230
 Sum of Mulliken charges =  -0.00000   1.00000

 Dipole moment (field-independent basis, Debye):
    X=             -0.0550    Y=              0.0425    Z=             -0.5297  Tot=              0.5342
 Quadrupole moment (field-independent basis, Debye-Ang):
   XX=            -65.4292   YY=            -60.6979   ZZ=            -71.8050
   XY=              0.2891   XZ=             -0.8706   YZ=              0.7189

 Normal termination of Gaussian 16 at Wed Nov 29 17:26:34 2023.
