 Gaussian 16, Revision B.01,
 Gaussian 16:  ES64L-G16RevB.01 20-Dec-2017

 -------------------------
 #P B3LYP/6-311+g(d) force
 -------------------------

 -----
 DPGEN
 -----
 Symbolic Z-matrix:
 Charge =  0 Multiplicity = 2

                         Standard orientation:
 ---------------------------------------------------------------------
 Center     Atomic      Atomic             Coordinates (Angstroms)
 Number     Number       Type             X           Y           Z
 ---------------------------------------------------------------------
      1         11           0       -2.847529    1.183192   -0.530575
      2         11           0        0.272079    2.812026   -0.073373
      3         11           0        0.061634   -0.458278   -1.548760
      4         11           0        1.763732   -2.328977   -0.198036
      5         11           0        3.094911    0.824766   -0.069751
      6         11           0       -2.083721   -2.006283    0.108771
      7         11           0       -0.261105   -0.026444    2.311724
 ---------------------------------------------------------------------

 SCF Done:  E(UB3LYP) =  -1136.13419871     A.U. after   19 cycles

 The electronic state is 2-A.
 Alpha  occ. eigenvalues --  -38.44087 -38.44038 -38.43856 -38.43607 -38.43573
 Alpha  occ. eigenvalues --  -38.43359 -38.43097  -2.19939  -2.19860  -2.19699
 Alpha  occ. eigenvalues --   -2.19495  -2.19464  -2.19384  -2.18932  -1.13590
 Alpha  occ. eigenvalues --   -1.13564  -1.13560  -1.13533  -1.13522  -1.13508
 Alpha  occ. eigenvalues --   -1.13382  -1.13361  -1.13350  -1.13341  -1.13226
 Alpha  occ. eigenvalues --   -1.13155  -1.13112  -1.13104  -1.13061  -1.13024
 Alpha  occ. eigenvalues --   -1.12975  -1.12942  -1.12610  -1.12601  -1.12568
 Alpha  occ. eigenvalues --   -0.18686  -0.13159  -0.12313  -0.11088
 Alpha virt. eigenvalues --   -0.05596  -0.05243  -0.04425  -0.03301  -0.03014
 Alpha virt. eigenvalues --   -0.02821  -0.01509  -0.01042  -0.00270  -0.00222
 Alpha virt. eigenvalues --   -0.00044   0.00342   0.00775   0.00887   0.00927

  Beta  occ. eigenvalues --  -38.44038 -38.43976 -38.43843 -38.43599 -38.43567
  Beta  occ. eigenvalues --  -38.43308 -38.43094  -2.19863  -2.19733  -2.19679
  Beta  occ. eigenvalues --   -2.19485  -2.19456  -2.19294  -2.18930  -1.13528
  Beta  occ. eigenvalues --   -1.13525  -1.13506  -1.13454  -1.13420  -1.13413
  Beta  occ. eigenvalues --   -1.13363  -1.13340  -1.13325  -1.13320  -1.13210
  Beta  occ. eigenvalues --   -1.13121  -1.13104  -1.13085  -1.13055  -1.12966
  Beta  occ. eigenvalues --   -1.12918  -1.12888  -1.12609  -1.12583  -1.12568
  Beta  occ. eigenvalues --   -0.17968  -0.12933  -0.12099
  Beta virt. eigenvalues --   -0.07077  -0.05555  -0.05228  -0.04371  -0.02534
  Beta virt. eigenvalues --   -0.02148  -0.01791  -0.01420  -0.00987  -0.00316
  Beta virt. eigenvalues --   -0.00247   0.00120   0.00382   0.00863   0.00883

 Mulliken charges and spin densities:
               1          2
     1  Na   0.118558   0.007592
     2  Na   0.047424   0.006372
     3  Na  -0.386763   0.144628
     4  Na   0.496138   0.055681
     5  Na  -0.000806  -0.027333
     6  Na   0.408840   0.100683
     7  Na  -0.683393   0.712379
 Sum of Mulliken charges =  -0.00000   1.00000

 Dipole moment (field-independent basis, Debye):
    X=              0.0313    Y=             -0.0531    Z=              0.2683  Tot=              0.2752
 Quadrupole moment (field-independent basis, Debye-Ang):
   XX=            -56.4324   YY=            -65.4593   ZZ=            -72.8455
   XY=              0.0036   XZ=              0.9698   YZ=             -1.0301

 Normal termination of Gaussian 16 at Thu Dec  7 10:42:56 2023.
