 Gaussian 16, Revision B.01,
 Gaussian 16:  ES64L-G16RevB.01 20-Dec-2017

 -------------------------
 #P B3LYP/6-311+g(d) force
 -------------------------

 -----
 DPGEN
 -----
 Symbolic Z-matrix:
 Charge =  0 Multiplicity = 2

                         Standard orientation:
 ---------------------------------------------------------------------
 Center     Atomic      Atomic             Coordinates (Angstroms)
 Number     Number       Type             X           Y           Z
 ---------------------------------------------------------------------
      1         11           0       -1.312456   -3.183453   -0.274394
      2         11           0        2.962297    2.323415   -0.297491
      3         11           0       -0.521769    3.575987    0.414062
      4         11           0        4.565792   -0.462741   -0.345261
      5         11           0       -3.672322    2.144186   -0.070728
      6         11           0       -4.438231   -1.665826   -0.097317
      7         11           0        2.416688   -2.731569    0.671129
 ---------------------------------------------------------------------

 SCF Done:  E(UB3LYP) =  -1136.10614873     A.U. after   25 cycles

 The electronic state is 2-A.
 Alpha  occ. eigenvalues --  -38.45581 -38.45381 -38.44797 -38.44729 -38.44188
 Alpha  occ. eigenvalues --  -38.44104 -38.43915  -2.21331  -2.21120  -2.20615
 Alpha  occ. eigenvalues --   -2.20523  -2.19949  -2.19904  -2.19705  -1.15010
 Alpha  occ. eigenvalues --   -1.14993  -1.14953  -1.14810  -1.14801  -1.14743
 Alpha  occ. eigenvalues --   -1.14319  -1.14281  -1.14276  -1.14188  -1.14173
 Alpha  occ. eigenvalues --   -1.14129  -1.13626  -1.13621  -1.13584  -1.13561
 Alpha  occ. eigenvalues --   -1.13550  -1.13532  -1.13361  -1.13345  -1.13343
 Alpha  occ. eigenvalues --   -0.15535  -0.14137  -0.13262  -0.10789
 Alpha virt. eigenvalues --   -0.08020  -0.04918  -0.04551  -0.03557  -0.03467
 Alpha virt. eigenvalues --   -0.02648  -0.02188  -0.02032  -0.01184  -0.00847
 Alpha virt. eigenvalues --   -0.00613  -0.00230   0.00038   0.00342   0.00417

  Beta  occ. eigenvalues --  -38.45548 -38.45367 -38.44791 -38.44686 -38.44180
  Beta  occ. eigenvalues --  -38.44044 -38.43863  -2.21274  -2.21100  -2.20610
  Beta  occ. eigenvalues --   -2.20447  -2.19937  -2.19793  -2.19608  -1.14974
  Beta  occ. eigenvalues --   -1.14957  -1.14890  -1.14802  -1.14793  -1.14688
  Beta  occ. eigenvalues --   -1.14295  -1.14280  -1.14257  -1.14137  -1.14124
  Beta  occ. eigenvalues --   -1.14077  -1.13620  -1.13615  -1.13562  -1.13488
  Beta  occ. eigenvalues --   -1.13476  -1.13457  -1.13296  -1.13281  -1.13276
  Beta  occ. eigenvalues --   -0.15026  -0.13434  -0.12564
  Beta virt. eigenvalues --   -0.08253  -0.07587  -0.04341  -0.04118  -0.03330
  Beta virt. eigenvalues --   -0.03190  -0.02454  -0.02034  -0.01822  -0.01082
  Beta virt. eigenvalues --   -0.00482  -0.00336   0.00024   0.00130   0.00408

 Mulliken charges and spin densities:
               1          2
     1  Na  -0.296615   0.089410
     2  Na  -0.025933   0.186977
     3  Na   0.241540   0.043020
     4  Na   0.460555  -0.018461
     5  Na  -0.160274   0.205052
     6  Na   0.252464   0.245550
     7  Na  -0.471736   0.248452
 Sum of Mulliken charges =  -0.00000   1.00000

 Dipole moment (field-independent basis, Debye):
    X=              0.0528    Y=              0.2087    Z=             -0.1424  Tot=              0.2581
 Quadrupole moment (field-independent basis, Debye-Ang):
   XX=            -55.8987   YY=            -70.1605   ZZ=            -73.7520
   XY=             -3.1165   XZ=             -0.2424   YZ=              0.5553

 Normal termination of Gaussian 16 at Sun Dec  3 19:20:38 2023.
