 Gaussian 16, Revision B.01,
 Gaussian 16:  ES64L-G16RevB.01 20-Dec-2017

 -------------------------
 #P B3LYP/6-311+g(d) force
 -------------------------

 -----
 DPGEN
 -----
 Symbolic Z-matrix:
 Charge =  0 Multiplicity = 2

                         Standard orientation:
 ---------------------------------------------------------------------
 Center     Atomic      Atomic             Coordinates (Angstroms)
 Number     Number       Type             X           Y           Z
 ---------------------------------------------------------------------
      1         11           0       -3.975820    1.258920    0.879270
      2         11           0       -0.919474    3.424961   -0.441883
      3         11           0        4.079398    0.203087    0.300349
      4         11           0       -3.947417   -1.706829   -0.148477
      5         11           0        2.695735   -3.047850    0.611945
      6         11           0       -0.405702   -3.171867   -0.902905
      7         11           0        2.473280    3.039577   -0.298298
 ---------------------------------------------------------------------

 SCF Done:  E(UB3LYP) =  -1136.10716906     A.U. after   24 cycles

 The electronic state is 2-A.
 Alpha  occ. eigenvalues --  -38.45066 -38.44882 -38.44833 -38.44605 -38.44430
 Alpha  occ. eigenvalues --  -38.44225 -38.43965  -2.20855  -2.20642  -2.20626
 Alpha  occ. eigenvalues --   -2.20378  -2.20213  -2.20011  -2.19779  -1.14550
 Alpha  occ. eigenvalues --   -1.14516  -1.14497  -1.14323  -1.14313  -1.14297
 Alpha  occ. eigenvalues --   -1.14286  -1.14272  -1.14260  -1.14039  -1.14030
 Alpha  occ. eigenvalues --   -1.13996  -1.13894  -1.13892  -1.13878  -1.13666
 Alpha  occ. eigenvalues --   -1.13655  -1.13630  -1.13430  -1.13423  -1.13404
 Alpha  occ. eigenvalues --   -0.15498  -0.14057  -0.13387  -0.10750
 Alpha virt. eigenvalues --   -0.07947  -0.04769  -0.04637  -0.03634  -0.03403
 Alpha virt. eigenvalues --   -0.02385  -0.02153  -0.01786  -0.01409  -0.00990
 Alpha virt. eigenvalues --   -0.00742  -0.00030   0.00053   0.00269   0.00648

  Beta  occ. eigenvalues --  -38.45042 -38.44892 -38.44810 -38.44550 -38.44434
  Beta  occ. eigenvalues --  -38.44157 -38.43897  -2.20815  -2.20666  -2.20588
  Beta  occ. eigenvalues --   -2.20275  -2.20228  -2.19884  -2.19652  -1.14513
  Beta  occ. eigenvalues --   -1.14492  -1.14459  -1.14344  -1.14333  -1.14280
  Beta  occ. eigenvalues --   -1.14263  -1.14251  -1.14213  -1.13969  -1.13961
  Beta  occ. eigenvalues --   -1.13927  -1.13909  -1.13907  -1.13841  -1.13580
  Beta  occ. eigenvalues --   -1.13571  -1.13544  -1.13343  -1.13340  -1.13323
  Beta  occ. eigenvalues --   -0.14955  -0.13412  -0.12638
  Beta virt. eigenvalues --   -0.08043  -0.07648  -0.04291  -0.04125  -0.03454
  Beta virt. eigenvalues --   -0.03072  -0.02208  -0.01984  -0.01652  -0.01249
  Beta virt. eigenvalues --   -0.00731  -0.00401   0.00085   0.00238   0.00331

 Mulliken charges and spin densities:
               1          2
     1  Na   0.077413   0.096425
     2  Na  -0.204352   0.290137
     3  Na  -0.160207   0.308086
     4  Na   0.212580   0.107751
     5  Na   0.111002  -0.055459
     6  Na  -0.408662   0.270189
     7  Na   0.372227  -0.017129
 Sum of Mulliken charges =  -0.00000   1.00000

 Dipole moment (field-independent basis, Debye):
    X=             -0.8236    Y=             -0.5081    Z=              0.1789  Tot=              0.9841
 Quadrupole moment (field-independent basis, Debye-Ang):
   XX=            -62.9846   YY=            -66.2546   ZZ=            -71.4993
   XY=             -1.9544   XZ=              1.0512   YZ=              0.7104

 Normal termination of Gaussian 16 at Sun Dec  3 13:44:36 2023.
