 Gaussian 16, Revision B.01,
 Gaussian 16:  ES64L-G16RevB.01 20-Dec-2017

 -------------------------
 #P B3LYP/6-311+g(d) force
 -------------------------

 -----
 DPGEN
 -----
 Symbolic Z-matrix:
 Charge =  0 Multiplicity = 2

                         Standard orientation:
 ---------------------------------------------------------------------
 Center     Atomic      Atomic             Coordinates (Angstroms)
 Number     Number       Type             X           Y           Z
 ---------------------------------------------------------------------
      1         11           0        0.053477    1.180113   -0.674139
      2         11           0       -1.746257    3.386658    0.487910
      3         11           0       -3.456733    0.738574   -0.383417
      4         11           0       -0.556214   -1.539202    1.025720
      5         11           0        2.736257   -1.237974   -0.196991
      6         11           0       -2.745485   -3.000267   -0.254464
      7         11           0        5.714955    0.472098   -0.004618
 ---------------------------------------------------------------------

 SCF Done:  E(UB3LYP) =  -1136.12045727     A.U. after   19 cycles

 The electronic state is 2-A.
 Alpha  occ. eigenvalues --  -38.44561 -38.44238 -38.44184 -38.44122 -38.43759
 Alpha  occ. eigenvalues --  -38.43722 -38.43233  -2.20402  -2.20100  -2.20089
 Alpha  occ. eigenvalues --   -2.19922  -2.19652  -2.19596  -2.19047  -1.14099
 Alpha  occ. eigenvalues --   -1.14078  -1.14004  -1.13861  -1.13798  -1.13754
 Alpha  occ. eigenvalues --   -1.13736  -1.13727  -1.13625  -1.13557  -1.13556
 Alpha  occ. eigenvalues --   -1.13536  -1.13478  -1.13325  -1.13292  -1.13235
 Alpha  occ. eigenvalues --   -1.13215  -1.13148  -1.12739  -1.12719  -1.12696
 Alpha  occ. eigenvalues --   -0.17502  -0.13675  -0.12744  -0.10780
 Alpha virt. eigenvalues --   -0.05924  -0.05473  -0.04999  -0.03553  -0.02486
 Alpha virt. eigenvalues --   -0.02257  -0.02176  -0.01451  -0.00993  -0.00503
 Alpha virt. eigenvalues --   -0.00335  -0.00131   0.00443   0.00561   0.00586

  Beta  occ. eigenvalues --  -38.44525 -38.44236 -38.44154 -38.44011 -38.43750
  Beta  occ. eigenvalues --  -38.43698 -38.43236  -2.20335  -2.20091  -2.20040
  Beta  occ. eigenvalues --   -2.19715  -2.19614  -2.19577  -2.19061  -1.14054
  Beta  occ. eigenvalues --   -1.14035  -1.13954  -1.13842  -1.13760  -1.13736
  Beta  occ. eigenvalues --   -1.13719  -1.13713  -1.13596  -1.13459  -1.13416
  Beta  occ. eigenvalues --   -1.13414  -1.13401  -1.13300  -1.13262  -1.13219
  Beta  occ. eigenvalues --   -1.13193  -1.13121  -1.12757  -1.12736  -1.12644
  Beta  occ. eigenvalues --   -0.17033  -0.13061  -0.12333
  Beta virt. eigenvalues --   -0.07298  -0.05769  -0.05183  -0.04636  -0.03107
  Beta virt. eigenvalues --   -0.02328  -0.02017  -0.01859  -0.01278  -0.00678
  Beta virt. eigenvalues --   -0.00140  -0.00037   0.00037   0.00531   0.00638

 Mulliken charges and spin densities:
               1          2
     1  Na  -0.646632   0.003211
     2  Na   0.290593  -0.015572
     3  Na   0.162022   0.333736
     4  Na   0.040365  -0.002963
     5  Na  -0.210398   0.137655
     6  Na   0.184847   0.066453
     7  Na   0.179203   0.477480
 Sum of Mulliken charges =  -0.00000   1.00000

 Dipole moment (field-independent basis, Debye):
    X=             -1.5004    Y=              0.9553    Z=              0.0977  Tot=              1.7814
 Quadrupole moment (field-independent basis, Debye-Ang):
   XX=            -71.4810   YY=            -60.9182   ZZ=            -68.7347
   XY=              0.3605   XZ=              1.1905   YZ=              2.9929

 Normal termination of Gaussian 16 at Wed Nov 29 00:31:52 2023.
