 Gaussian 16, Revision B.01,
 Gaussian 16:  ES64L-G16RevB.01 20-Dec-2017

 -------------------------
 #P B3LYP/6-311+g(d) force
 -------------------------

 -----
 DPGEN
 -----
 Symbolic Z-matrix:
 Charge =  0 Multiplicity = 2

                         Standard orientation:
 ---------------------------------------------------------------------
 Center     Atomic      Atomic             Coordinates (Angstroms)
 Number     Number       Type             X           Y           Z
 ---------------------------------------------------------------------
      1         11           0        2.594066    1.774892   -0.231126
      2         11           0       -0.681638    2.732354    0.258818
      3         11           0       -3.424610    0.045929   -0.184601
      4         11           0        0.264857    0.076689    1.615795
      5         11           0       -0.863311   -2.513094    0.272014
      6         11           0       -0.147376   -0.002235   -1.604341
      7         11           0        2.258012   -2.114535   -0.126559
 ---------------------------------------------------------------------

 SCF Done:  E(UB3LYP) =  -1136.13505301     A.U. after   20 cycles

 The electronic state is 2-A.
 Alpha  occ. eigenvalues --  -38.44063 -38.43865 -38.43649 -38.43618 -38.43326
 Alpha  occ. eigenvalues --  -38.42951 -38.42875  -2.19854  -2.19706  -2.19519
 Alpha  occ. eigenvalues --   -2.19504  -2.19266  -2.18959  -2.18913  -1.13526
 Alpha  occ. eigenvalues --   -1.13513  -1.13494  -1.13378  -1.13374  -1.13347
 Alpha  occ. eigenvalues --   -1.13227  -1.13217  -1.13180  -1.13175  -1.13163
 Alpha  occ. eigenvalues --   -1.13100  -1.12999  -1.12941  -1.12859  -1.12699
 Alpha  occ. eigenvalues --   -1.12592  -1.12570  -1.12549  -1.12535  -1.12512
 Alpha  occ. eigenvalues --   -0.19042  -0.12983  -0.12771  -0.10313
 Alpha virt. eigenvalues --   -0.05665  -0.05183  -0.04787  -0.02929  -0.02753
 Alpha virt. eigenvalues --   -0.01990  -0.01728  -0.01289  -0.00349  -0.00216
 Alpha virt. eigenvalues --    0.00041   0.00326   0.00791   0.00855   0.00895

  Beta  occ. eigenvalues --  -38.44062 -38.43858 -38.43644 -38.43607 -38.43313
  Beta  occ. eigenvalues --  -38.42883 -38.42798  -2.19854  -2.19697  -2.19513
  Beta  occ. eigenvalues --   -2.19488  -2.19248  -2.18834  -2.18773  -1.13516
  Beta  occ. eigenvalues --   -1.13510  -1.13495  -1.13372  -1.13356  -1.13334
  Beta  occ. eigenvalues --   -1.13217  -1.13210  -1.13168  -1.13142  -1.13137
  Beta  occ. eigenvalues --   -1.13095  -1.12984  -1.12891  -1.12851  -1.12612
  Beta  occ. eigenvalues --   -1.12506  -1.12474  -1.12454  -1.12430  -1.12413
  Beta  occ. eigenvalues --   -0.18327  -0.12697  -0.12533
  Beta virt. eigenvalues --   -0.06422  -0.05616  -0.05172  -0.04774  -0.02110
  Beta virt. eigenvalues --   -0.02067  -0.01636  -0.01231  -0.00988  -0.00377
  Beta virt. eigenvalues --   -0.00242   0.00166   0.00361   0.00823   0.00858

 Mulliken charges and spin densities:
               1          2
     1  Na   0.046720  -0.057800
     2  Na   0.131260  -0.092629
     3  Na   0.047727  -0.080335
     4  Na  -0.101406   0.495863
     5  Na   0.289201  -0.014996
     6  Na  -0.494935   0.811794
     7  Na   0.081433  -0.061897
 Sum of Mulliken charges =  -0.00000   1.00000

 Dipole moment (field-independent basis, Debye):
    X=              0.0449    Y=              0.1846    Z=             -0.0612  Tot=              0.1996
 Quadrupole moment (field-independent basis, Debye-Ang):
   XX=            -53.3603   YY=            -60.7310   ZZ=            -76.7540
   XY=             -0.4214   XZ=             -0.9672   YZ=             -0.1728

 Normal termination of Gaussian 16 at Tue Nov 28 22:16:41 2023.
