 Gaussian 16, Revision B.01,
 Gaussian 16:  ES64L-G16RevB.01 20-Dec-2017

 -------------------------
 #P B3LYP/6-311+g(d) force
 -------------------------

 -----
 DPGEN
 -----
 Symbolic Z-matrix:
 Charge =  0 Multiplicity = 2

                         Standard orientation:
 ---------------------------------------------------------------------
 Center     Atomic      Atomic             Coordinates (Angstroms)
 Number     Number       Type             X           Y           Z
 ---------------------------------------------------------------------
      1         11           0       -0.950626    0.582587   -1.734143
      2         11           0        1.133284   -2.135863   -1.041568
      3         11           0        2.266426   -0.329859    1.817347
      4         11           0        0.022101    2.350378    0.874803
      5         11           0       -1.045634   -1.408709    1.186850
      6         11           0        2.810105    0.877797   -1.140897
      7         11           0       -4.235657    0.063668    0.037608
 ---------------------------------------------------------------------

 SCF Done:  E(UB3LYP) =  -1136.12504652     A.U. after   25 cycles

 The electronic state is 2-A.
 Alpha  occ. eigenvalues --  -38.45548 -38.44381 -38.44170 -38.44013 -38.43176
 Alpha  occ. eigenvalues --  -38.43146 -38.42658  -2.21285  -2.20231  -2.20054
 Alpha  occ. eigenvalues --   -2.19892  -2.19032  -2.19006  -2.18561  -1.14965
 Alpha  occ. eigenvalues --   -1.14946  -1.14907  -1.13936  -1.13895  -1.13846
 Alpha  occ. eigenvalues --   -1.13731  -1.13697  -1.13649  -1.13601  -1.13548
 Alpha  occ. eigenvalues --   -1.13491  -1.12746  -1.12711  -1.12697  -1.12673
 Alpha  occ. eigenvalues --   -1.12634  -1.12613  -1.12245  -1.12205  -1.12190
 Alpha  occ. eigenvalues --   -0.18495  -0.13265  -0.11651  -0.11102
 Alpha virt. eigenvalues --   -0.07126  -0.04598  -0.03822  -0.03241  -0.03068
 Alpha virt. eigenvalues --   -0.02755  -0.02507  -0.01035  -0.00481  -0.00047
 Alpha virt. eigenvalues --    0.00081   0.00155   0.00253   0.00816   0.00874

  Beta  occ. eigenvalues --  -38.45552 -38.44360 -38.44113 -38.43966 -38.43158
  Beta  occ. eigenvalues --  -38.43120 -38.42630  -2.21292  -2.20195  -2.19950
  Beta  occ. eigenvalues --   -2.19806  -2.18987  -2.18974  -2.18513  -1.14966
  Beta  occ. eigenvalues --   -1.14952  -1.14912  -1.13908  -1.13852  -1.13819
  Beta  occ. eigenvalues --   -1.13645  -1.13635  -1.13574  -1.13548  -1.13482
  Beta  occ. eigenvalues --   -1.13419  -1.12719  -1.12685  -1.12659  -1.12629
  Beta  occ. eigenvalues --   -1.12598  -1.12595  -1.12214  -1.12172  -1.12135
  Beta  occ. eigenvalues --   -0.17669  -0.13155  -0.10926
  Beta virt. eigenvalues --   -0.07578  -0.07011  -0.04190  -0.03607  -0.03040
  Beta virt. eigenvalues --   -0.02644  -0.02228  -0.01757  -0.00727  -0.00359
  Beta virt. eigenvalues --   -0.00015   0.00156   0.00189   0.00321   0.00879

 Mulliken charges and spin densities:
               1          2
     1  Na  -0.104027   0.194587
     2  Na   0.060835   0.261211
     3  Na   0.034278   0.331486
     4  Na  -0.303364   0.063936
     5  Na  -0.217098   0.190678
     6  Na   0.328002   0.027645
     7  Na   0.201374  -0.069542
 Sum of Mulliken charges =  -0.00000   1.00000

 Dipole moment (field-independent basis, Debye):
    X=             -0.8430    Y=              0.2089    Z=             -0.0186  Tot=              0.8687
 Quadrupole moment (field-independent basis, Debye-Ang):
   XX=            -46.5389   YY=            -78.6687   ZZ=            -66.3118
   XY=             -0.6424   XZ=             -1.0793   YZ=              0.9374

 Normal termination of Gaussian 16 at Mon Dec  4 05:29:23 2023.
