 Gaussian 16, Revision B.01,
 Gaussian 16:  ES64L-G16RevB.01 20-Dec-2017

 -------------------------
 #P B3LYP/6-311+g(d) force
 -------------------------

 -----
 DPGEN
 -----
 Symbolic Z-matrix:
 Charge =  0 Multiplicity = 2

                         Standard orientation:
 ---------------------------------------------------------------------
 Center     Atomic      Atomic             Coordinates (Angstroms)
 Number     Number       Type             X           Y           Z
 ---------------------------------------------------------------------
      1         11           0        3.261228    0.155187    0.632228
      2         11           0        2.303240    3.565698    0.002221
      3         11           0       -4.304647    1.013251   -0.057831
      4         11           0        3.939832   -3.119350   -0.319963
      5         11           0       -5.769865   -1.612532    0.191950
      6         11           0       -0.124333    1.672886   -0.444280
      7         11           0        0.694544   -1.675140   -0.004324
 ---------------------------------------------------------------------

 SCF Done:  E(UB3LYP) =  -1136.11686443     A.U. after   20 cycles

 The electronic state is 2-A.
 Alpha  occ. eigenvalues --  -38.44530 -38.44485 -38.44449 -38.44010 -38.43920
 Alpha  occ. eigenvalues --  -38.43652 -38.43601  -2.20387  -2.20309  -2.20276
 Alpha  occ. eigenvalues --   -2.19820  -2.19712  -2.19493  -2.19466  -1.14134
 Alpha  occ. eigenvalues --   -1.14084  -1.13993  -1.13977  -1.13969  -1.13942
 Alpha  occ. eigenvalues --   -1.13942  -1.13894  -1.13865  -1.13571  -1.13462
 Alpha  occ. eigenvalues --   -1.13460  -1.13373  -1.13355  -1.13310  -1.13230
 Alpha  occ. eigenvalues --   -1.13150  -1.13141  -1.13127  -1.13122  -1.13032
 Alpha  occ. eigenvalues --   -0.16899  -0.13495  -0.12732  -0.10650
 Alpha virt. eigenvalues --   -0.06530  -0.05523  -0.04213  -0.03739  -0.03081
 Alpha virt. eigenvalues --   -0.02445  -0.02083  -0.01456  -0.01097  -0.01018
 Alpha virt. eigenvalues --   -0.00214  -0.00040   0.00272   0.00437   0.00559

  Beta  occ. eigenvalues --  -38.44501 -38.44471 -38.44392 -38.43976 -38.43928
  Beta  occ. eigenvalues --  -38.43617 -38.43567  -2.20336  -2.20251  -2.20204
  Beta  occ. eigenvalues --   -2.19757  -2.19729  -2.19428  -2.19406  -1.14079
  Beta  occ. eigenvalues --   -1.14052  -1.13952  -1.13926  -1.13916  -1.13913
  Beta  occ. eigenvalues --   -1.13901  -1.13867  -1.13784  -1.13545  -1.13422
  Beta  occ. eigenvalues --   -1.13417  -1.13383  -1.13361  -1.13292  -1.13184
  Beta  occ. eigenvalues --   -1.13110  -1.13095  -1.13086  -1.13068  -1.12977
  Beta  occ. eigenvalues --   -0.16200  -0.13212  -0.12440
  Beta virt. eigenvalues --   -0.07145  -0.06233  -0.05187  -0.03903  -0.03377
  Beta virt. eigenvalues --   -0.02601  -0.02352  -0.01943  -0.01377  -0.00886
  Beta virt. eigenvalues --   -0.00566   0.00092   0.00159   0.00409   0.00529

 Mulliken charges and spin densities:
               1          2
     1  Na  -0.273754   0.366461
     2  Na   0.904934   0.231360
     3  Na  -0.189285  -0.014231
     4  Na   0.993143   0.166946
     5  Na   0.108860   0.143058
     6  Na  -0.747922   0.036431
     7  Na  -0.795975   0.069975
 Sum of Mulliken charges =  -0.00000   1.00000

 Dipole moment (field-independent basis, Debye):
    X=              1.1370    Y=             -1.1852    Z=             -0.1504  Tot=              1.6492
 Quadrupole moment (field-independent basis, Debye-Ang):
   XX=            -68.6870   YY=            -55.3002   ZZ=            -73.1248
   XY=             -1.4501   XZ=             -0.9250   YZ=              0.3461

 Normal termination of Gaussian 16 at Wed Nov 29 01:08:28 2023.
