 Gaussian 16, Revision B.01,
 Gaussian 16:  ES64L-G16RevB.01 20-Dec-2017

 -------------------------
 #P B3LYP/6-311+g(d) force
 -------------------------

 -----
 DPGEN
 -----
 Symbolic Z-matrix:
 Charge =  0 Multiplicity = 2

                         Standard orientation:
 ---------------------------------------------------------------------
 Center     Atomic      Atomic             Coordinates (Angstroms)
 Number     Number       Type             X           Y           Z
 ---------------------------------------------------------------------
      1         11           0       -2.884456   -0.012358    1.875157
      2         11           0       -3.546939    0.156945   -1.434164
      3         11           0        2.913156   -1.681866   -0.094033
      4         11           0        0.213644   -1.595632   -1.627157
      5         11           0        0.197880   -0.737910    1.852886
      6         11           0        3.142207    1.902278    0.175128
      7         11           0       -0.035493    1.968544   -0.747818
 ---------------------------------------------------------------------

 SCF Done:  E(UB3LYP) =  -1136.11856243     A.U. after   26 cycles

 The electronic state is 2-A.
 Alpha  occ. eigenvalues --  -38.45177 -38.44707 -38.44352 -38.44200 -38.44040
 Alpha  occ. eigenvalues --  -38.43495 -38.43186  -2.20960  -2.20551  -2.20233
 Alpha  occ. eigenvalues --   -2.20062  -2.19899  -2.19308  -2.18995  -1.14624
 Alpha  occ. eigenvalues --   -1.14615  -1.14591  -1.14260  -1.14192  -1.14163
 Alpha  occ. eigenvalues --   -1.13917  -1.13868  -1.13855  -1.13759  -1.13719
 Alpha  occ. eigenvalues --   -1.13701  -1.13565  -1.13531  -1.13515  -1.13013
 Alpha  occ. eigenvalues --   -1.13001  -1.12917  -1.12662  -1.12652  -1.12632
 Alpha  occ. eigenvalues --   -0.18034  -0.13926  -0.11945  -0.10969
 Alpha virt. eigenvalues --   -0.07047  -0.05271  -0.04664  -0.03443  -0.02758
 Alpha virt. eigenvalues --   -0.02568  -0.02435  -0.01268  -0.01034  -0.00033
 Alpha virt. eigenvalues --    0.00089   0.00112   0.00306   0.00555   0.00634

  Beta  occ. eigenvalues --  -38.45146 -38.44656 -38.44288 -38.44146 -38.44041
  Beta  occ. eigenvalues --  -38.43490 -38.43183  -2.20903  -2.20461  -2.20119
  Beta  occ. eigenvalues --   -2.19963  -2.19903  -2.19303  -2.18991  -1.14584
  Beta  occ. eigenvalues --   -1.14574  -1.14551  -1.14177  -1.14134  -1.14098
  Beta  occ. eigenvalues --   -1.13847  -1.13786  -1.13761  -1.13702  -1.13652
  Beta  occ. eigenvalues --   -1.13634  -1.13557  -1.13531  -1.13496  -1.13011
  Beta  occ. eigenvalues --   -1.12984  -1.12913  -1.12657  -1.12650  -1.12630
  Beta  occ. eigenvalues --   -0.17353  -0.13679  -0.10873
  Beta virt. eigenvalues --   -0.07930  -0.06895  -0.04642  -0.04384  -0.03010
  Beta virt. eigenvalues --   -0.02486  -0.02207  -0.01964  -0.01000  -0.00766
  Beta virt. eigenvalues --    0.00068   0.00159   0.00269   0.00355   0.00689

 Mulliken charges and spin densities:
               1          2
     1  Na  -0.138605   0.072752
     2  Na   0.462823   0.171672
     3  Na   1.149854   0.197563
     4  Na  -0.517767   0.118502
     5  Na  -0.394687   0.369790
     6  Na  -0.119851  -0.138123
     7  Na  -0.441766   0.207845
 Sum of Mulliken charges =  -0.00000   1.00000

 Dipole moment (field-independent basis, Debye):
    X=             -0.9654    Y=             -0.5823    Z=             -0.0674  Tot=              1.1294
 Quadrupole moment (field-independent basis, Debye-Ang):
   XX=            -48.5652   YY=            -81.3941   ZZ=            -66.9783
   XY=             -3.2708   XZ=              2.9324   YZ=              1.3368

 Normal termination of Gaussian 16 at Sun Dec  3 21:12:41 2023.
