 Gaussian 16, Revision B.01,
 Gaussian 16:  ES64L-G16RevB.01 20-Dec-2017

 -------------------------
 #P B3LYP/6-311+g(d) force
 -------------------------

 -----
 DPGEN
 -----
 Symbolic Z-matrix:
 Charge =  0 Multiplicity = 2

                         Standard orientation:
 ---------------------------------------------------------------------
 Center     Atomic      Atomic             Coordinates (Angstroms)
 Number     Number       Type             X           Y           Z
 ---------------------------------------------------------------------
      1         11           0        0.761928   -2.094874   -0.158895
      2         11           0        2.651352    1.378292    0.195008
      3         11           0       -1.377388    0.914064   -1.184658
      4         11           0       -2.510268   -2.622190   -0.459476
      5         11           0       -3.335967    0.022465    1.330984
      6         11           0       -0.094708    4.172131   -0.044295
      7         11           0        3.905051   -1.769887    0.321331
 ---------------------------------------------------------------------

 SCF Done:  E(UB3LYP) =  -1136.12345070     A.U. after   23 cycles

 The electronic state is 2-A.
 Alpha  occ. eigenvalues --  -38.44834 -38.44731 -38.44259 -38.44043 -38.43570
 Alpha  occ. eigenvalues --  -38.43545 -38.43512  -2.20608  -2.20543  -2.20110
 Alpha  occ. eigenvalues --   -2.19798  -2.19415  -2.19413  -2.19386  -1.14314
 Alpha  occ. eigenvalues --   -1.14297  -1.14260  -1.14243  -1.14202  -1.14126
 Alpha  occ. eigenvalues --   -1.13790  -1.13774  -1.13748  -1.13472  -1.13463
 Alpha  occ. eigenvalues --   -1.13426  -1.13128  -1.13073  -1.13065  -1.13060
 Alpha  occ. eigenvalues --   -1.13054  -1.13049  -1.13045  -1.13027  -1.12957
 Alpha  occ. eigenvalues --   -0.17083  -0.13996  -0.12683  -0.09933
 Alpha virt. eigenvalues --   -0.06318  -0.05847  -0.05078  -0.03222  -0.02451
 Alpha virt. eigenvalues --   -0.02136  -0.01993  -0.01618  -0.01442  -0.00991
 Alpha virt. eigenvalues --    0.00036   0.00186   0.00372   0.00542   0.00665

  Beta  occ. eigenvalues --  -38.44824 -38.44723 -38.44238 -38.44040 -38.43548
  Beta  occ. eigenvalues --  -38.43475 -38.43449  -2.20593  -2.20532  -2.20079
  Beta  occ. eigenvalues --   -2.19794  -2.19372  -2.19323  -2.19235  -1.14305
  Beta  occ. eigenvalues --   -1.14287  -1.14248  -1.14213  -1.14175  -1.14126
  Beta  occ. eigenvalues --   -1.13775  -1.13738  -1.13694  -1.13469  -1.13460
  Beta  occ. eigenvalues --   -1.13423  -1.13095  -1.13039  -1.13027  -1.13018
  Beta  occ. eigenvalues --   -1.13013  -1.12936  -1.12920  -1.12913  -1.12899
  Beta  occ. eigenvalues --   -0.16559  -0.13484  -0.12403
  Beta virt. eigenvalues --   -0.06315  -0.06160  -0.05763  -0.04809  -0.02762
  Beta virt. eigenvalues --   -0.02204  -0.01954  -0.01750  -0.01423  -0.01179
  Beta virt. eigenvalues --   -0.00526   0.00325   0.00375   0.00458   0.00636

 Mulliken charges and spin densities:
               1          2
     1  Na  -1.902691   0.058354
     2  Na  -0.446003   0.065896
     3  Na  -0.446514   0.213510
     4  Na   0.826471  -0.220964
     5  Na   0.168401   0.427853
     6  Na   0.251009  -0.038666
     7  Na   1.549328   0.494018
 Sum of Mulliken charges =  -0.00000   1.00000

 Dipole moment (field-independent basis, Debye):
    X=              0.3399    Y=              0.0159    Z=             -0.0926  Tot=              0.3526
 Quadrupole moment (field-independent basis, Debye-Ang):
   XX=            -67.5837   YY=            -59.5763   ZZ=            -71.1391
   XY=              2.5986   XZ=              3.2918   YZ=              1.0346

 Normal termination of Gaussian 16 at Tue Nov 28 22:42:29 2023.
