 Gaussian 16, Revision B.01,
 Gaussian 16:  ES64L-G16RevB.01 20-Dec-2017

 -------------------------
 #P B3LYP/6-311+g(d) force
 -------------------------

 -----
 DPGEN
 -----
 Symbolic Z-matrix:
 Charge =  0 Multiplicity = 2

                         Standard orientation:
 ---------------------------------------------------------------------
 Center     Atomic      Atomic             Coordinates (Angstroms)
 Number     Number       Type             X           Y           Z
 ---------------------------------------------------------------------
      1         11           0       -0.426752    2.639584    0.616432
      2         11           0       -3.577394   -1.818928   -0.012143
      3         11           0       -3.923740    1.381790   -0.737190
      4         11           0        3.086881   -2.012590   -1.086025
      5         11           0        0.022236   -2.369973    0.325918
      6         11           0        2.917644    2.126723   -1.008791
      7         11           0        1.901125    0.053395    1.901798
 ---------------------------------------------------------------------

 SCF Done:  E(UB3LYP) =  -1136.11615809     A.U. after   21 cycles

 The electronic state is 2-A.
 Alpha  occ. eigenvalues --  -38.44756 -38.44713 -38.44667 -38.44482 -38.44340
 Alpha  occ. eigenvalues --  -38.44082 -38.43515  -2.20524  -2.20485  -2.20440
 Alpha  occ. eigenvalues --   -2.20309  -2.20138  -2.19840  -2.19331  -1.14206
 Alpha  occ. eigenvalues --   -1.14174  -1.14174  -1.14158  -1.14145  -1.14142
 Alpha  occ. eigenvalues --   -1.14106  -1.14085  -1.14054  -1.13997  -1.13959
 Alpha  occ. eigenvalues --   -1.13924  -1.13814  -1.13775  -1.13768  -1.13524
 Alpha  occ. eigenvalues --   -1.13514  -1.13461  -1.13009  -1.13003  -1.12959
 Alpha  occ. eigenvalues --   -0.16660  -0.13735  -0.12208  -0.10384
 Alpha virt. eigenvalues --   -0.07164  -0.06133  -0.04164  -0.03570  -0.03249
 Alpha virt. eigenvalues --   -0.02142  -0.01955  -0.01639  -0.01510  -0.00637
 Alpha virt. eigenvalues --   -0.00356  -0.00066   0.00246   0.00359   0.00532

  Beta  occ. eigenvalues --  -38.44715 -38.44714 -38.44648 -38.44435 -38.44292
  Beta  occ. eigenvalues --  -38.44071 -38.43498  -2.20489  -2.20449  -2.20404
  Beta  occ. eigenvalues --   -2.20226  -2.20049  -2.19821  -2.19301  -1.14166
  Beta  occ. eigenvalues --   -1.14161  -1.14157  -1.14141  -1.14125  -1.14082
  Beta  occ. eigenvalues --   -1.14076  -1.14061  -1.14034  -1.13931  -1.13892
  Beta  occ. eigenvalues --   -1.13865  -1.13755  -1.13719  -1.13694  -1.13511
  Beta  occ. eigenvalues --   -1.13493  -1.13449  -1.12986  -1.12967  -1.12946
  Beta  occ. eigenvalues --   -0.16052  -0.13345  -0.12091
  Beta virt. eigenvalues --   -0.07082  -0.06810  -0.05900  -0.03671  -0.03248
  Beta virt. eigenvalues --   -0.02798  -0.01989  -0.01672  -0.01387  -0.01162
  Beta virt. eigenvalues --   -0.00586  -0.00082   0.00083   0.00432   0.00471

 Mulliken charges and spin densities:
               1          2
     1  Na  -0.322946   0.008165
     2  Na  -0.032337  -0.004366
     3  Na   0.008583   0.136515
     4  Na   0.454085   0.419751
     5  Na  -0.450658  -0.106918
     6  Na   0.066009   0.265661
     7  Na   0.277266   0.281192
 Sum of Mulliken charges =  -0.00000   1.00000

 Dipole moment (field-independent basis, Debye):
    X=             -0.2878    Y=              0.1842    Z=              0.0017  Tot=              0.3417
 Quadrupole moment (field-independent basis, Debye-Ang):
   XX=            -61.4033   YY=            -66.1392   ZZ=            -71.2839
   XY=              0.0680   XZ=              1.9782   YZ=             -1.2603

 Normal termination of Gaussian 16 at Mon Dec  4 04:35:04 2023.
