 Gaussian 16, Revision B.01,
 Gaussian 16:  ES64L-G16RevB.01 20-Dec-2017

 -------------------------
 #P B3LYP/6-311+g(d) force
 -------------------------

 -----
 DPGEN
 -----
 Symbolic Z-matrix:
 Charge =  0 Multiplicity = 2

                         Standard orientation:
 ---------------------------------------------------------------------
 Center     Atomic      Atomic             Coordinates (Angstroms)
 Number     Number       Type             X           Y           Z
 ---------------------------------------------------------------------
      1         11           0        3.926235    0.976110   -0.166720
      2         11           0       -2.855536   -1.786678    1.163015
      3         11           0       -4.641500    0.353531   -0.368851
      4         11           0       -1.543908    2.768785   -0.687433
      5         11           0        3.622023   -2.204607    0.077725
      6         11           0        0.018202   -3.518835   -0.650208
      7         11           0        1.474484    3.411694    0.632473
 ---------------------------------------------------------------------

 SCF Done:  E(UB3LYP) =  -1136.10849600     A.U. after   20 cycles

 The electronic state is 2-A.
 Alpha  occ. eigenvalues --  -38.45257 -38.45250 -38.44400 -38.44376 -38.44198
 Alpha  occ. eigenvalues --  -38.44163 -38.43926  -2.21022  -2.21013  -2.20185
 Alpha  occ. eigenvalues --   -2.20177  -2.19981  -2.19970  -2.19718  -1.14708
 Alpha  occ. eigenvalues --   -1.14694  -1.14690  -1.14685  -1.14669  -1.14631
 Alpha  occ. eigenvalues --   -1.13920  -1.13858  -1.13840  -1.13831  -1.13819
 Alpha  occ. eigenvalues --   -1.13767  -1.13636  -1.13626  -1.13625  -1.13613
 Alpha  occ. eigenvalues --   -1.13607  -1.13587  -1.13385  -1.13375  -1.13365
 Alpha  occ. eigenvalues --   -0.15536  -0.14022  -0.13147  -0.10770
 Alpha virt. eigenvalues --   -0.07464  -0.05033  -0.04566  -0.03436  -0.03164
 Alpha virt. eigenvalues --   -0.02601  -0.02331  -0.01774  -0.01368  -0.00701
 Alpha virt. eigenvalues --   -0.00564  -0.00210   0.00238   0.00395   0.00572

  Beta  occ. eigenvalues --  -38.45245 -38.45231 -38.44393 -38.44335 -38.44120
  Beta  occ. eigenvalues --  -38.44109 -38.43913  -2.21018  -2.20969  -2.20171
  Beta  occ. eigenvalues --   -2.20110  -2.19880  -2.19825  -2.19698  -1.14708
  Beta  occ. eigenvalues --   -1.14693  -1.14666  -1.14657  -1.14627  -1.14580
  Beta  occ. eigenvalues --   -1.13886  -1.13852  -1.13809  -1.13797  -1.13778
  Beta  occ. eigenvalues --   -1.13719  -1.13568  -1.13556  -1.13541  -1.13527
  Beta  occ. eigenvalues --   -1.13515  -1.13491  -1.13372  -1.13365  -1.13337
  Beta  occ. eigenvalues --   -0.15021  -0.13414  -0.12351
  Beta virt. eigenvalues --   -0.07654  -0.07550  -0.04577  -0.04208  -0.03193
  Beta virt. eigenvalues --   -0.02795  -0.02369  -0.02098  -0.01608  -0.01149
  Beta virt. eigenvalues --   -0.00457  -0.00305  -0.00028   0.00307   0.00436

 Mulliken charges and spin densities:
               1          2
     1  Na  -0.046541   0.190318
     2  Na  -0.142568   0.043931
     3  Na   0.301681   0.249635
     4  Na  -0.161393   0.164837
     5  Na   0.117267  -0.009568
     6  Na  -0.102954   0.359954
     7  Na   0.034509   0.000893
 Sum of Mulliken charges =  -0.00000   1.00000

 Dipole moment (field-independent basis, Debye):
    X=             -0.6649    Y=              0.3040    Z=              0.0098  Tot=              0.7311
 Quadrupole moment (field-independent basis, Debye-Ang):
   XX=            -64.0021   YY=            -68.7474   ZZ=            -68.8210
   XY=             -0.5418   XZ=              2.0209   YZ=             -1.4617

 Normal termination of Gaussian 16 at Sun Dec  3 11:54:36 2023.
