 Gaussian 16, Revision B.01,
 Gaussian 16:  ES64L-G16RevB.01 20-Dec-2017

 -------------------------
 #P B3LYP/6-311+g(d) force
 -------------------------

 -----
 DPGEN
 -----
 Symbolic Z-matrix:
 Charge =  0 Multiplicity = 2

                         Standard orientation:
 ---------------------------------------------------------------------
 Center     Atomic      Atomic             Coordinates (Angstroms)
 Number     Number       Type             X           Y           Z
 ---------------------------------------------------------------------
      1         11           0        1.906616    1.341520    0.155278
      2         11           0       -1.574437    0.250289    0.320368
      3         11           0       -1.208641   -3.172681   -0.503740
      4         11           0        1.464289   -1.749380    0.722740
      5         11           0        4.502112   -0.369165   -0.422294
      6         11           0       -4.412934   -0.195348   -0.069069
      7         11           0       -0.677005    3.894765   -0.203284
 ---------------------------------------------------------------------

 SCF Done:  E(UB3LYP) =  -1136.12210911     A.U. after   23 cycles

 The electronic state is 2-A.
 Alpha  occ. eigenvalues --  -38.44417 -38.44315 -38.44011 -38.43872 -38.43764
 Alpha  occ. eigenvalues --  -38.43469 -38.43336  -2.20274  -2.20125  -2.19862
 Alpha  occ. eigenvalues --   -2.19663  -2.19636  -2.19370  -2.19259  -1.14000
 Alpha  occ. eigenvalues --   -1.13886  -1.13857  -1.13799  -1.13791  -1.13753
 Alpha  occ. eigenvalues --   -1.13535  -1.13499  -1.13482  -1.13394  -1.13339
 Alpha  occ. eigenvalues --   -1.13309  -1.13298  -1.13263  -1.13262  -1.13085
 Alpha  occ. eigenvalues --   -1.13055  -1.12997  -1.12949  -1.12945  -1.12825
 Alpha  occ. eigenvalues --   -0.17272  -0.14114  -0.12441  -0.10835
 Alpha virt. eigenvalues --   -0.06247  -0.05030  -0.04307  -0.03902  -0.02432
 Alpha virt. eigenvalues --   -0.02228  -0.01667  -0.01460  -0.01165  -0.00812
 Alpha virt. eigenvalues --   -0.00189  -0.00072   0.00523   0.00591   0.00746

  Beta  occ. eigenvalues --  -38.44310 -38.44297 -38.43947 -38.43864 -38.43747
  Beta  occ. eigenvalues --  -38.43462 -38.43324  -2.20095  -2.20076  -2.19742
  Beta  occ. eigenvalues --   -2.19635  -2.19621  -2.19361  -2.19245  -1.13867
  Beta  occ. eigenvalues --   -1.13776  -1.13760  -1.13750  -1.13735  -1.13723
  Beta  occ. eigenvalues --   -1.13453  -1.13417  -1.13409  -1.13378  -1.13323
  Beta  occ. eigenvalues --   -1.13299  -1.13287  -1.13250  -1.13214  -1.13073
  Beta  occ. eigenvalues --   -1.13053  -1.12948  -1.12928  -1.12908  -1.12829
  Beta  occ. eigenvalues --   -0.16830  -0.13218  -0.12014
  Beta virt. eigenvalues --   -0.07496  -0.05956  -0.04950  -0.04046  -0.03325
  Beta virt. eigenvalues --   -0.02117  -0.02042  -0.01370  -0.01119  -0.00885
  Beta virt. eigenvalues --   -0.00537   0.00013   0.00270   0.00582   0.00625

 Mulliken charges and spin densities:
               1          2
     1  Na  -1.035810   0.166116
     2  Na  -1.980764   0.390701
     3  Na   0.555882   0.043795
     4  Na  -0.165770   0.111804
     5  Na   1.248506   0.251712
     6  Na   1.136858   0.042867
     7  Na   0.241099  -0.006995
 Sum of Mulliken charges =  -0.00000   1.00000

 Dipole moment (field-independent basis, Debye):
    X=              0.1480    Y=             -0.6551    Z=             -0.5857  Tot=              0.8911
 Quadrupole moment (field-independent basis, Debye-Ang):
   XX=            -61.5944   YY=            -60.2804   ZZ=            -70.7456
   XY=             -0.4173   XZ=              0.2294   YZ=              0.7398

 Normal termination of Gaussian 16 at Tue Nov 28 23:15:13 2023.
