 Gaussian 16, Revision B.01,
 Gaussian 16:  ES64L-G16RevB.01 20-Dec-2017

 -------------------------
 #P B3LYP/6-311+g(d) force
 -------------------------

 -----
 DPGEN
 -----
 Symbolic Z-matrix:
 Charge =  0 Multiplicity = 2

                         Standard orientation:
 ---------------------------------------------------------------------
 Center     Atomic      Atomic             Coordinates (Angstroms)
 Number     Number       Type             X           Y           Z
 ---------------------------------------------------------------------
      1         11           0       -2.951158    1.337659   -0.160087
      2         11           0       -3.320093   -2.125164   -0.127633
      3         11           0       -0.265575   -0.502601    1.953221
      4         11           0        0.454495    2.725049    0.191920
      5         11           0        3.137345    0.846627    0.036414
      6         11           0       -0.054438    0.095899   -1.670501
      7         11           0        2.999425   -2.377469   -0.223335
 ---------------------------------------------------------------------

 SCF Done:  E(UB3LYP) =  -1136.12346270     A.U. after   24 cycles

 The electronic state is 2-A.
 Alpha  occ. eigenvalues --  -38.44741 -38.44554 -38.44457 -38.44310 -38.43897
 Alpha  occ. eigenvalues --  -38.43879 -38.42622  -2.20561  -2.20313  -2.20309
 Alpha  occ. eigenvalues --   -2.20182  -2.19725  -2.19662  -2.18507  -1.14245
 Alpha  occ. eigenvalues --   -1.14227  -1.14187  -1.13986  -1.13980  -1.13976
 Alpha  occ. eigenvalues --   -1.13973  -1.13967  -1.13948  -1.13880  -1.13825
 Alpha  occ. eigenvalues --   -1.13793  -1.13401  -1.13356  -1.13333  -1.13329
 Alpha  occ. eigenvalues --   -1.13319  -1.13304  -1.12192  -1.12163  -1.12152
 Alpha  occ. eigenvalues --   -0.17998  -0.13686  -0.11570  -0.10319
 Alpha virt. eigenvalues --   -0.06535  -0.06284  -0.04115  -0.03414  -0.02639
 Alpha virt. eigenvalues --   -0.02298  -0.02162  -0.01597  -0.01139  -0.00298
 Alpha virt. eigenvalues --   -0.00128   0.00212   0.00549   0.00620   0.00646

  Beta  occ. eigenvalues --  -38.44732 -38.44558 -38.44454 -38.44257 -38.43879
  Beta  occ. eigenvalues --  -38.43797 -38.42614  -2.20547  -2.20322  -2.20306
  Beta  occ. eigenvalues --   -2.20085  -2.19664  -2.19542  -2.18497  -1.14226
  Beta  occ. eigenvalues --   -1.14203  -1.14183  -1.13994  -1.13976  -1.13970
  Beta  occ. eigenvalues --   -1.13970  -1.13955  -1.13953  -1.13809  -1.13756
  Beta  occ. eigenvalues --   -1.13721  -1.13337  -1.13311  -1.13306  -1.13276
  Beta  occ. eigenvalues --   -1.13225  -1.13199  -1.12188  -1.12159  -1.12116
  Beta  occ. eigenvalues --   -0.17290  -0.13517  -0.11409
  Beta virt. eigenvalues --   -0.06520  -0.06403  -0.06132  -0.04120  -0.02743
  Beta virt. eigenvalues --   -0.02174  -0.01830  -0.01650  -0.01248  -0.01075
  Beta virt. eigenvalues --   -0.00313   0.00067   0.00261   0.00619   0.00645

 Mulliken charges and spin densities:
               1          2
     1  Na   0.399965   0.128656
     2  Na   0.039338  -0.066110
     3  Na  -0.531530   0.556415
     4  Na   0.065612   0.060709
     5  Na   0.215880   0.050546
     6  Na  -0.312941   0.297991
     7  Na   0.123675  -0.028207
 Sum of Mulliken charges =  -0.00000   1.00000

 Dipole moment (field-independent basis, Debye):
    X=             -0.5951    Y=             -0.0768    Z=             -0.0627  Tot=              0.6033
 Quadrupole moment (field-independent basis, Debye-Ang):
   XX=            -54.7498   YY=            -63.4098   ZZ=            -76.7575
   XY=              1.2151   XZ=              0.6522   YZ=              1.8309

 Normal termination of Gaussian 16 at Fri Dec  8 01:40:05 2023.
