 Gaussian 16, Revision B.01,
 Gaussian 16:  ES64L-G16RevB.01 20-Dec-2017

 -------------------------
 #P B3LYP/6-311+g(d) force
 -------------------------

 -----
 DPGEN
 -----
 Symbolic Z-matrix:
 Charge =  0 Multiplicity = 2

                         Standard orientation:
 ---------------------------------------------------------------------
 Center     Atomic      Atomic             Coordinates (Angstroms)
 Number     Number       Type             X           Y           Z
 ---------------------------------------------------------------------
      1         11           0       -1.773225    1.885848   -0.352941
      2         11           0        0.494379   -0.337195   -1.438833
      3         11           0        1.736862   -2.810442    0.258858
      4         11           0        3.142748    0.295903   -0.082099
      5         11           0       -1.059837   -0.355786    1.924745
      6         11           0       -3.195362   -1.615699   -0.554968
      7         11           0        0.654435    2.937372    0.245239
 ---------------------------------------------------------------------

 SCF Done:  E(UB3LYP) =  -1136.12258908     A.U. after   21 cycles

 The electronic state is 2-A.
 Alpha  occ. eigenvalues --  -38.44498 -38.44347 -38.44269 -38.43876 -38.43527
 Alpha  occ. eigenvalues --  -38.43363 -38.43306  -2.20349  -2.20162  -2.20050
 Alpha  occ. eigenvalues --   -2.19848  -2.19429  -2.19285  -2.19238  -1.14076
 Alpha  occ. eigenvalues --   -1.14004  -1.13967  -1.13848  -1.13814  -1.13787
 Alpha  occ. eigenvalues --   -1.13748  -1.13716  -1.13710  -1.13684  -1.13495
 Alpha  occ. eigenvalues --   -1.13486  -1.13048  -1.13036  -1.13029  -1.12972
 Alpha  occ. eigenvalues --   -1.12925  -1.12917  -1.12906  -1.12872  -1.12850
 Alpha  occ. eigenvalues --   -0.18451  -0.13406  -0.12485  -0.10180
 Alpha virt. eigenvalues --   -0.06213  -0.05420  -0.04677  -0.03283  -0.02885
 Alpha virt. eigenvalues --   -0.02008  -0.01826  -0.01377  -0.00648  -0.00222
 Alpha virt. eigenvalues --   -0.00009   0.00307   0.00715   0.00732   0.00868

  Beta  occ. eigenvalues --  -38.44495 -38.44341 -38.44255 -38.43863 -38.43523
  Beta  occ. eigenvalues --  -38.43288 -38.43256  -2.20346  -2.20153  -2.20026
  Beta  occ. eigenvalues --   -2.19829  -2.19425  -2.19195  -2.19099  -1.14068
  Beta  occ. eigenvalues --   -1.13990  -1.13969  -1.13839  -1.13800  -1.13780
  Beta  occ. eigenvalues --   -1.13740  -1.13695  -1.13685  -1.13668  -1.13486
  Beta  occ. eigenvalues --   -1.13432  -1.13045  -1.13032  -1.13004  -1.12903
  Beta  occ. eigenvalues --   -1.12857  -1.12852  -1.12816  -1.12773  -1.12748
  Beta  occ. eigenvalues --   -0.17788  -0.13186  -0.12271
  Beta virt. eigenvalues --   -0.06454  -0.06119  -0.05245  -0.04620  -0.02628
  Beta virt. eigenvalues --   -0.02201  -0.01709  -0.01285  -0.01110  -0.00646
  Beta virt. eigenvalues --   -0.00214   0.00160   0.00362   0.00734   0.00827

 Mulliken charges and spin densities:
               1          2
     1  Na   0.440173   0.248356
     2  Na   0.068446   0.129957
     3  Na  -0.106667  -0.043714
     4  Na   0.246314   0.099336
     5  Na  -0.524991   0.491181
     6  Na   0.109122   0.043123
     7  Na  -0.232396   0.031762
 Sum of Mulliken charges =  -0.00000   1.00000

 Dipole moment (field-independent basis, Debye):
    X=              0.4544    Y=             -0.7368    Z=              0.1175  Tot=              0.8736
 Quadrupole moment (field-independent basis, Debye-Ang):
   XX=            -56.0030   YY=            -60.8961   ZZ=            -76.2993
   XY=              1.6925   XZ=              2.8598   YZ=              0.2713

 Normal termination of Gaussian 16 at Tue Dec  5 13:11:26 2023.
