 Gaussian 16, Revision B.01,
 Gaussian 16:  ES64L-G16RevB.01 20-Dec-2017

 -------------------------
 #P B3LYP/6-311+g(d) force
 -------------------------

 -----
 DPGEN
 -----
 Symbolic Z-matrix:
 Charge =  0 Multiplicity = 2

                         Standard orientation:
 ---------------------------------------------------------------------
 Center     Atomic      Atomic             Coordinates (Angstroms)
 Number     Number       Type             X           Y           Z
 ---------------------------------------------------------------------
      1         11           0       -8.133392   -0.430278   -0.038459
      2         11           0       -5.148900    0.140519   -0.270930
      3         11           0        2.353302   -2.210346   -0.272178
      4         11           0        5.502979   -1.682295    0.030698
      5         11           0        4.978415    1.846323   -0.033428
      6         11           0        1.237835    2.138703   -0.299820
      7         11           0       -0.790240    0.197375    0.884116
 ---------------------------------------------------------------------

 SCF Done:  E(UB3LYP) =  -1136.10943857     A.U. after   19 cycles

 The electronic state is 2-A.
 Alpha  occ. eigenvalues --  -38.45454 -38.45085 -38.44616 -38.44095 -38.44048
 Alpha  occ. eigenvalues --  -38.43992 -38.43923  -2.21252  -2.20877  -2.20432
 Alpha  occ. eigenvalues --   -2.19899  -2.19841  -2.19803  -2.19711  -1.14919
 Alpha  occ. eigenvalues --   -1.14896  -1.14864  -1.14536  -1.14521  -1.14485
 Alpha  occ. eigenvalues --   -1.14120  -1.14092  -1.14078  -1.13579  -1.13569
 Alpha  occ. eigenvalues --   -1.13564  -1.13539  -1.13493  -1.13492  -1.13469
 Alpha  occ. eigenvalues --   -1.13457  -1.13440  -1.13370  -1.13370  -1.13305
 Alpha  occ. eigenvalues --   -0.16254  -0.13423  -0.12411  -0.11995
 Alpha virt. eigenvalues --   -0.06689  -0.05401  -0.04806  -0.03765  -0.03243
 Alpha virt. eigenvalues --   -0.02552  -0.02293  -0.01634  -0.01353  -0.01183
 Alpha virt. eigenvalues --   -0.00704  -0.00319  -0.00036   0.00172   0.00461

  Beta  occ. eigenvalues --  -38.45375 -38.44997 -38.44592 -38.44094 -38.44047
  Beta  occ. eigenvalues --  -38.43986 -38.43923  -2.21106  -2.20713  -2.20388
  Beta  occ. eigenvalues --   -2.19902  -2.19838  -2.19792  -2.19712  -1.14820
  Beta  occ. eigenvalues --   -1.14801  -1.14753  -1.14425  -1.14406  -1.14374
  Beta  occ. eigenvalues --   -1.14089  -1.14062  -1.14036  -1.13570  -1.13567
  Beta  occ. eigenvalues --   -1.13567  -1.13530  -1.13490  -1.13490  -1.13461
  Beta  occ. eigenvalues --   -1.13449  -1.13429  -1.13371  -1.13371  -1.13304
  Beta  occ. eigenvalues --   -0.15419  -0.13331  -0.12298
  Beta virt. eigenvalues --   -0.08103  -0.06422  -0.04772  -0.04482  -0.03334
  Beta virt. eigenvalues --   -0.02768  -0.02476  -0.02200  -0.01617  -0.01169
  Beta virt. eigenvalues --   -0.00788  -0.00298  -0.00103   0.00194   0.00267

 Mulliken charges and spin densities:
               1          2
     1  Na   0.867373   0.014964
     2  Na  -0.617879  -0.017218
     3  Na  -0.196896   0.455900
     4  Na   0.458661  -0.091687
     5  Na  -0.257321   0.391394
     6  Na   0.441689   0.144935
     7  Na  -0.695626   0.101711
 Sum of Mulliken charges =  -0.00000   1.00000

 Dipole moment (field-independent basis, Debye):
    X=              1.2063    Y=             -0.2185    Z=              0.0168  Tot=              1.2260
 Quadrupole moment (field-independent basis, Debye-Ang):
   XX=            -56.2106   YY=            -68.3575   ZZ=            -73.4241
   XY=              3.1328   XZ=             -0.7631   YZ=             -1.0709

 Normal termination of Gaussian 16 at Sun Dec  3 17:09:11 2023.
