 Gaussian 16, Revision B.01,
 Gaussian 16:  ES64L-G16RevB.01 20-Dec-2017

 -------------------------
 #P B3LYP/6-311+g(d) force
 -------------------------

 -----
 DPGEN
 -----
 Symbolic Z-matrix:
 Charge =  0 Multiplicity = 2

                         Standard orientation:
 ---------------------------------------------------------------------
 Center     Atomic      Atomic             Coordinates (Angstroms)
 Number     Number       Type             X           Y           Z
 ---------------------------------------------------------------------
      1         11           0        1.686029    0.199525    1.613549
      2         11           0       -1.641872    1.071426    1.482912
      3         11           0        0.612928    3.343822   -0.480951
      4         11           0        2.698638   -1.533665   -0.795294
      5         11           0       -0.297859   -2.428089    0.788903
      6         11           0       -3.295498   -0.833248   -0.852008
      7         11           0        0.237634    0.180229   -1.757111
 ---------------------------------------------------------------------

 SCF Done:  E(UB3LYP) =  -1136.13442256     A.U. after   19 cycles

 The electronic state is 2-A.
 Alpha  occ. eigenvalues --  -38.43821 -38.43736 -38.43732 -38.43668 -38.43643
 Alpha  occ. eigenvalues --  -38.43632 -38.43368  -2.19673  -2.19664  -2.19588
 Alpha  occ. eigenvalues --   -2.19566  -2.19559  -2.19444  -2.19158  -1.13414
 Alpha  occ. eigenvalues --   -1.13388  -1.13355  -1.13340  -1.13313  -1.13294
 Alpha  occ. eigenvalues --   -1.13269  -1.13255  -1.13253  -1.13223  -1.13197
 Alpha  occ. eigenvalues --   -1.13190  -1.13178  -1.13161  -1.13149  -1.13108
 Alpha  occ. eigenvalues --   -1.13101  -1.13071  -1.12836  -1.12815  -1.12791
 Alpha  occ. eigenvalues --   -0.18523  -0.12811  -0.12055  -0.11480
 Alpha virt. eigenvalues --   -0.05413  -0.05024  -0.04601  -0.03347  -0.03084
 Alpha virt. eigenvalues --   -0.02924  -0.01322  -0.01133  -0.00631   0.00208
 Alpha virt. eigenvalues --    0.00289   0.00367   0.00609   0.00759   0.00815

  Beta  occ. eigenvalues --  -38.43804 -38.43700 -38.43682 -38.43654 -38.43633
  Beta  occ. eigenvalues --  -38.43561 -38.43367  -2.19646  -2.19568  -2.19540
  Beta  occ. eigenvalues --   -2.19531  -2.19433  -2.19424  -2.19158  -1.13380
  Beta  occ. eigenvalues --   -1.13329  -1.13313  -1.13290  -1.13266  -1.13254
  Beta  occ. eigenvalues --   -1.13228  -1.13201  -1.13191  -1.13166  -1.13160
  Beta  occ. eigenvalues --   -1.13139  -1.13127  -1.13095  -1.13088  -1.13084
  Beta  occ. eigenvalues --   -1.13073  -1.13058  -1.12824  -1.12816  -1.12791
  Beta  occ. eigenvalues --   -0.17724  -0.12629  -0.11875
  Beta virt. eigenvalues --   -0.07498  -0.05314  -0.04834  -0.04316  -0.02926
  Beta virt. eigenvalues --   -0.02479  -0.01961  -0.01242  -0.01059  -0.00259
  Beta virt. eigenvalues --    0.00180   0.00354   0.00399   0.00694   0.00834

 Mulliken charges and spin densities:
               1          2
     1  Na   0.162846   0.359021
     2  Na  -0.084593   0.151788
     3  Na  -0.152980  -0.123338
     4  Na   0.435128  -0.065961
     5  Na  -0.311409   0.089296
     6  Na   0.215346  -0.088629
     7  Na  -0.264338   0.677823
 Sum of Mulliken charges =  -0.00000   1.00000

 Dipole moment (field-independent basis, Debye):
    X=              0.0817    Y=             -0.2262    Z=              0.0214  Tot=              0.2415
 Quadrupole moment (field-independent basis, Debye-Ang):
   XX=            -61.1427   YY=            -64.8543   ZZ=            -68.2027
   XY=             -0.7777   XZ=              0.3345   YZ=              0.3482

 Normal termination of Gaussian 16 at Wed Nov 29 17:29:15 2023.
