 Gaussian 16, Revision B.01,
 Gaussian 16:  ES64L-G16RevB.01 20-Dec-2017

 -------------------------
 #P B3LYP/6-311+g(d) force
 -------------------------

 -----
 DPGEN
 -----
 Symbolic Z-matrix:
 Charge =  0 Multiplicity = 2

                         Standard orientation:
 ---------------------------------------------------------------------
 Center     Atomic      Atomic             Coordinates (Angstroms)
 Number     Number       Type             X           Y           Z
 ---------------------------------------------------------------------
      1         11           0        2.896751   -0.176800   -0.063936
      2         11           0        0.087218   -0.217047    1.877874
      3         11           0        0.984761    2.387125   -0.074521
      4         11           0       -0.075336    0.004123   -1.823479
      5         11           0       -2.024304    1.730364    0.238165
      6         11           0        0.569190   -2.462505    0.021216
      7         11           0       -2.438280   -1.265260   -0.175318
 ---------------------------------------------------------------------

 SCF Done:  E(UB3LYP) =  -1136.13030917     A.U. after   19 cycles

 The electronic state is 2-A.
 Alpha  occ. eigenvalues --  -38.43628 -38.43585 -38.43478 -38.43414 -38.43257
 Alpha  occ. eigenvalues --  -38.43061 -38.43027  -2.19628  -2.19545  -2.19542
 Alpha  occ. eigenvalues --   -2.19381  -2.19231  -2.19056  -2.18996  -1.13369
 Alpha  occ. eigenvalues --   -1.13296  -1.13269  -1.13248  -1.13233  -1.13212
 Alpha  occ. eigenvalues --   -1.13201  -1.13180  -1.13162  -1.13094  -1.13026
 Alpha  occ. eigenvalues --   -1.13014  -1.12927  -1.12868  -1.12845  -1.12734
 Alpha  occ. eigenvalues --   -1.12711  -1.12668  -1.12646  -1.12641  -1.12608
 Alpha  occ. eigenvalues --   -0.20104  -0.13338  -0.12819  -0.11508
 Alpha virt. eigenvalues --   -0.05200  -0.04619  -0.04397  -0.03388  -0.03143
 Alpha virt. eigenvalues --   -0.02820  -0.01219  -0.00747  -0.00052   0.00299
 Alpha virt. eigenvalues --    0.00356   0.00379   0.00944   0.01033   0.01053

  Beta  occ. eigenvalues --  -38.43624 -38.43496 -38.43405 -38.43393 -38.43248
  Beta  occ. eigenvalues --  -38.43050 -38.43019  -2.19538  -2.19466  -2.19389
  Beta  occ. eigenvalues --   -2.19369  -2.19219  -2.19041  -2.18986  -1.13282
  Beta  occ. eigenvalues --   -1.13228  -1.13207  -1.13194  -1.13173  -1.13156
  Beta  occ. eigenvalues --   -1.13112  -1.13107  -1.13093  -1.13055  -1.13003
  Beta  occ. eigenvalues --   -1.12958  -1.12917  -1.12843  -1.12821  -1.12722
  Beta  occ. eigenvalues --   -1.12661  -1.12657  -1.12642  -1.12610  -1.12597
  Beta  occ. eigenvalues --   -0.19313  -0.13044  -0.12505
  Beta virt. eigenvalues --   -0.07467  -0.05194  -0.04622  -0.04406  -0.02510
  Beta virt. eigenvalues --   -0.02258  -0.01712  -0.01148  -0.00693   0.00082
  Beta virt. eigenvalues --    0.00251   0.00302   0.00383   0.00987   0.01017

 Mulliken charges and spin densities:
               1          2
     1  Na   0.155687  -0.083983
     2  Na  -0.854131   0.596298
     3  Na   0.313303  -0.027311
     4  Na  -0.843449   0.568496
     5  Na   0.258829   0.006965
     6  Na   0.567933  -0.041908
     7  Na   0.401828  -0.018557
 Sum of Mulliken charges =  -0.00000   1.00000

 Dipole moment (field-independent basis, Debye):
    X=              0.1373    Y=             -0.0507    Z=              0.0353  Tot=              0.1505
 Quadrupole moment (field-independent basis, Debye-Ang):
   XX=            -58.9169   YY=            -65.8877   ZZ=            -70.7334
   XY=              0.1168   XZ=             -0.3407   YZ=              0.5566

 Normal termination of Gaussian 16 at Fri Dec  8 17:42:52 2023.
