 Gaussian 16, Revision B.01,
 Gaussian 16:  ES64L-G16RevB.01 20-Dec-2017

 -------------------------
 #P B3LYP/6-311+g(d) force
 -------------------------

 -----
 DPGEN
 -----
 Symbolic Z-matrix:
 Charge =  0 Multiplicity = 2

                         Standard orientation:
 ---------------------------------------------------------------------
 Center     Atomic      Atomic             Coordinates (Angstroms)
 Number     Number       Type             X           Y           Z
 ---------------------------------------------------------------------
      1         11           0       -3.095045   -0.912397   -1.500212
      2         11           0       -0.745090   -1.882057    1.674974
      3         11           0        1.553700    0.592171    1.658279
      4         11           0        3.706219   -0.789434   -0.759260
      5         11           0       -2.483277    1.315865    0.863810
      6         11           0        0.486992   -0.905781   -1.166403
      7         11           0        0.576501    2.581633   -0.771188
 ---------------------------------------------------------------------

 SCF Done:  E(UB3LYP) =  -1136.12438161     A.U. after   24 cycles

 The electronic state is 2-A.
 Alpha  occ. eigenvalues --  -38.44776 -38.44320 -38.44180 -38.43847 -38.43821
 Alpha  occ. eigenvalues --  -38.43452 -38.42682  -2.20580  -2.20136  -2.19993
 Alpha  occ. eigenvalues --   -2.19737  -2.19715  -2.19398  -2.18517  -1.14260
 Alpha  occ. eigenvalues --   -1.14220  -1.14213  -1.13815  -1.13798  -1.13751
 Alpha  occ. eigenvalues --   -1.13677  -1.13650  -1.13614  -1.13473  -1.13409
 Alpha  occ. eigenvalues --   -1.13387  -1.13351  -1.13344  -1.13308  -1.13104
 Alpha  occ. eigenvalues --   -1.13054  -1.13012  -1.12206  -1.12183  -1.12131
 Alpha  occ. eigenvalues --   -0.18360  -0.13528  -0.11564  -0.11058
 Alpha virt. eigenvalues --   -0.06533  -0.05274  -0.04056  -0.03296  -0.02774
 Alpha virt. eigenvalues --   -0.02528  -0.02293  -0.01159  -0.00470  -0.00143
 Alpha virt. eigenvalues --    0.00166   0.00203   0.00305   0.00670   0.00794

  Beta  occ. eigenvalues --  -38.44758 -38.44281 -38.44179 -38.43779 -38.43779
  Beta  occ. eigenvalues --  -38.43428 -38.42675  -2.20547  -2.20063  -2.19993
  Beta  occ. eigenvalues --   -2.19664  -2.19592  -2.19356  -2.18505  -1.14230
  Beta  occ. eigenvalues --   -1.14202  -1.14189  -1.13773  -1.13743  -1.13706
  Beta  occ. eigenvalues --   -1.13655  -1.13647  -1.13616  -1.13411  -1.13341
  Beta  occ. eigenvalues --   -1.13305  -1.13298  -1.13259  -1.13217  -1.13055
  Beta  occ. eigenvalues --   -1.13022  -1.12981  -1.12196  -1.12170  -1.12123
  Beta  occ. eigenvalues --   -0.17620  -0.13253  -0.10919
  Beta virt. eigenvalues --   -0.07662  -0.06348  -0.04829  -0.03781  -0.03030
  Beta virt. eigenvalues --   -0.02259  -0.02151  -0.01724  -0.00882  -0.00293
  Beta virt. eigenvalues --   -0.00022   0.00242   0.00282   0.00366   0.00729

 Mulliken charges and spin densities:
               1          2
     1  Na   0.450976   0.094584
     2  Na  -0.264891   0.399481
     3  Na   0.462502   0.093577
     4  Na   0.378596   0.082324
     5  Na  -0.014047   0.077167
     6  Na  -0.717942   0.220252
     7  Na  -0.295195   0.032613
 Sum of Mulliken charges =  -0.00000   1.00000

 Dipole moment (field-independent basis, Debye):
    X=              0.2042    Y=             -0.2415    Z=              0.0397  Tot=              0.3187
 Quadrupole moment (field-independent basis, Debye-Ang):
   XX=            -50.9967   YY=            -76.7867   ZZ=            -65.3946
   XY=              0.0043   XZ=             -0.1603   YZ=             -0.5948

 Normal termination of Gaussian 16 at Mon Dec  4 01:36:49 2023.
