 Gaussian 16, Revision B.01,
 Gaussian 16:  ES64L-G16RevB.01 20-Dec-2017

 -------------------------
 #P B3LYP/6-311+g(d) force
 -------------------------

 -----
 DPGEN
 -----
 Symbolic Z-matrix:
 Charge =  0 Multiplicity = 2

                         Standard orientation:
 ---------------------------------------------------------------------
 Center     Atomic      Atomic             Coordinates (Angstroms)
 Number     Number       Type             X           Y           Z
 ---------------------------------------------------------------------
      1         11           0       -0.819421    1.930245   -0.283507
      2         11           0        2.163118   -1.868210    0.208901
      3         11           0       -3.856944   -0.156814   -0.177053
      4         11           0       -1.025674   -1.283508   -1.053002
      5         11           0        1.956413    1.464727    0.858801
      6         11           0       -0.306698   -0.455051    2.263123
      7         11           0        1.889205    0.368612   -1.817262
 ---------------------------------------------------------------------

 SCF Done:  E(UB3LYP) =  -1136.12206590     A.U. after   24 cycles

 The electronic state is 2-A.
 Alpha  occ. eigenvalues --  -38.44906 -38.44855 -38.44245 -38.43091 -38.43025
 Alpha  occ. eigenvalues --  -38.42926 -38.42680  -2.20756  -2.20707  -2.20249
 Alpha  occ. eigenvalues --   -2.19103  -2.18971  -2.18853  -2.18630  -1.14431
 Alpha  occ. eigenvalues --   -1.14387  -1.14379  -1.14364  -1.14361  -1.14338
 Alpha  occ. eigenvalues --   -1.13981  -1.13900  -1.13845  -1.12807  -1.12777
 Alpha  occ. eigenvalues --   -1.12728  -1.12687  -1.12655  -1.12582  -1.12533
 Alpha  occ. eigenvalues --   -1.12507  -1.12474  -1.12337  -1.12292  -1.12219
 Alpha  occ. eigenvalues --   -0.19532  -0.13715  -0.12238  -0.11270
 Alpha virt. eigenvalues --   -0.06483  -0.04363  -0.04129  -0.03525  -0.02907
 Alpha virt. eigenvalues --   -0.02790  -0.02110  -0.00570  -0.00499   0.00055
 Alpha virt. eigenvalues --    0.00273   0.00435   0.00508   0.00874   0.00963

  Beta  occ. eigenvalues --  -38.44909 -38.44751 -38.44183 -38.43077 -38.43007
  Beta  occ. eigenvalues --  -38.42916 -38.42667  -2.20713  -2.20566  -2.20135
  Beta  occ. eigenvalues --   -2.19084  -2.18941  -2.18837  -2.18609  -1.14390
  Beta  occ. eigenvalues --   -1.14365  -1.14344  -1.14306  -1.14239  -1.14222
  Beta  occ. eigenvalues --   -1.13913  -1.13814  -1.13762  -1.12798  -1.12742
  Beta  occ. eigenvalues --   -1.12694  -1.12671  -1.12605  -1.12566  -1.12523
  Beta  occ. eigenvalues --   -1.12474  -1.12455  -1.12326  -1.12250  -1.12207
  Beta  occ. eigenvalues --   -0.18659  -0.13571  -0.11019
  Beta virt. eigenvalues --   -0.08073  -0.06308  -0.04149  -0.03612  -0.03070
  Beta virt. eigenvalues --   -0.02232  -0.02056  -0.02041  -0.00491  -0.00225
  Beta virt. eigenvalues --    0.00155   0.00317   0.00467   0.00633   0.00955

 Mulliken charges and spin densities:
               1          2
     1  Na  -0.383241   0.051868
     2  Na   0.006242   0.092544
     3  Na   0.390049  -0.056083
     4  Na  -0.503197   0.159705
     5  Na   0.470634   0.108053
     6  Na  -0.345962   0.432283
     7  Na   0.365475   0.211630
 Sum of Mulliken charges =  -0.00000   1.00000

 Dipole moment (field-independent basis, Debye):
    X=             -1.0968    Y=             -0.0424    Z=              0.3757  Tot=              1.1602
 Quadrupole moment (field-independent basis, Debye-Ang):
   XX=            -51.5654   YY=            -77.7557   ZZ=            -65.0465
   XY=             -0.2203   XZ=             -0.9885   YZ=             -3.9793

 Normal termination of Gaussian 16 at Thu Dec  7 02:08:48 2023.
