 Gaussian 16, Revision B.01,
 Gaussian 16:  ES64L-G16RevB.01 20-Dec-2017

 -------------------------
 #P B3LYP/6-311+g(d) force
 -------------------------

 -----
 DPGEN
 -----
 Symbolic Z-matrix:
 Charge =  0 Multiplicity = 2

                         Standard orientation:
 ---------------------------------------------------------------------
 Center     Atomic      Atomic             Coordinates (Angstroms)
 Number     Number       Type             X           Y           Z
 ---------------------------------------------------------------------
      1         11           0        2.027807    2.071117   -0.433154
      2         11           0        2.860128   -1.063179    0.158803
      3         11           0       -3.297468   -0.547732   -0.003905
      4         11           0        0.008586   -0.181703   -1.671502
      5         11           0       -1.475370    2.597904    0.035152
      6         11           0       -0.307188   -2.847282   -0.257094
      7         11           0        0.183505   -0.029125    2.171699
 ---------------------------------------------------------------------

 SCF Done:  E(UB3LYP) =  -1136.13740311     A.U. after   19 cycles

 The electronic state is 2-A.
 Alpha  occ. eigenvalues --  -38.44325 -38.43920 -38.43819 -38.43432 -38.43368
 Alpha  occ. eigenvalues --  -38.43334 -38.43303  -2.20104  -2.19783  -2.19682
 Alpha  occ. eigenvalues --   -2.19289  -2.19252  -2.19243  -2.19196  -1.13783
 Alpha  occ. eigenvalues --   -1.13757  -1.13747  -1.13448  -1.13412  -1.13408
 Alpha  occ. eigenvalues --   -1.13358  -1.13340  -1.13322  -1.13071  -1.12997
 Alpha  occ. eigenvalues --   -1.12938  -1.12925  -1.12909  -1.12897  -1.12891
 Alpha  occ. eigenvalues --   -1.12876  -1.12858  -1.12845  -1.12819  -1.12799
 Alpha  occ. eigenvalues --   -0.18582  -0.12914  -0.12381  -0.10951
 Alpha virt. eigenvalues --   -0.05793  -0.05012  -0.04601  -0.03211  -0.02932
 Alpha virt. eigenvalues --   -0.02803  -0.01599  -0.01027  -0.00350  -0.00305
 Alpha virt. eigenvalues --   -0.00030   0.00354   0.00794   0.00883   0.00904

  Beta  occ. eigenvalues --  -38.44326 -38.43820 -38.43813 -38.43430 -38.43357
  Beta  occ. eigenvalues --  -38.43326 -38.43238  -2.20109  -2.19674  -2.19597
  Beta  occ. eigenvalues --   -2.19251  -2.19226  -2.19189  -2.19168  -1.13775
  Beta  occ. eigenvalues --   -1.13761  -1.13751  -1.13368  -1.13330  -1.13317
  Beta  occ. eigenvalues --   -1.13307  -1.13279  -1.13260  -1.13016  -1.12955
  Beta  occ. eigenvalues --   -1.12923  -1.12910  -1.12895  -1.12866  -1.12855
  Beta  occ. eigenvalues --   -1.12850  -1.12823  -1.12812  -1.12788  -1.12766
  Beta  occ. eigenvalues --   -0.17839  -0.12715  -0.12133
  Beta virt. eigenvalues --   -0.06991  -0.05757  -0.05010  -0.04546  -0.02448
  Beta virt. eigenvalues --   -0.02151  -0.01714  -0.01509  -0.00954  -0.00401
  Beta virt. eigenvalues --   -0.00347   0.00114   0.00380   0.00837   0.00897

 Mulliken charges and spin densities:
               1          2
     1  Na   0.177470  -0.007589
     2  Na   0.321441   0.052368
     3  Na  -0.024729  -0.087324
     4  Na  -0.101157   0.410933
     5  Na   0.000833  -0.062038
     6  Na   0.178489  -0.080811
     7  Na  -0.552347   0.774461
 Sum of Mulliken charges =  -0.00000   1.00000

 Dipole moment (field-independent basis, Debye):
    X=             -0.2193    Y=             -0.1150    Z=              0.2384  Tot=              0.3438
 Quadrupole moment (field-independent basis, Debye-Ang):
   XX=            -56.1217   YY=            -64.2361   ZZ=            -73.5074
   XY=             -0.0539   XZ=             -0.4463   YZ=             -0.4981

 Normal termination of Gaussian 16 at Thu Dec  7 13:34:15 2023.
