 Gaussian 16, Revision B.01,
 Gaussian 16:  ES64L-G16RevB.01 20-Dec-2017

 -------------------------
 #P B3LYP/6-311+g(d) force
 -------------------------

 -----
 DPGEN
 -----
 Symbolic Z-matrix:
 Charge =  0 Multiplicity = 2

                         Standard orientation:
 ---------------------------------------------------------------------
 Center     Atomic      Atomic             Coordinates (Angstroms)
 Number     Number       Type             X           Y           Z
 ---------------------------------------------------------------------
      1         11           0        2.506330   -0.018137    1.832496
      2         11           0        2.196504   -2.123613   -0.896246
      3         11           0       -0.113207    2.560377    0.269845
      4         11           0       -2.972006    1.220011   -0.146261
      5         11           0       -2.883779   -2.123619   -0.013949
      6         11           0       -0.472980   -0.749605    0.564913
      7         11           0        1.739138    1.234586   -1.610799
 ---------------------------------------------------------------------

 SCF Done:  E(UB3LYP) =  -1136.12186754     A.U. after   20 cycles

 The electronic state is 2-A.
 Alpha  occ. eigenvalues --  -38.44517 -38.44191 -38.44000 -38.43955 -38.43889
 Alpha  occ. eigenvalues --  -38.43030 -38.42844  -2.20384  -2.20057  -2.19846
 Alpha  occ. eigenvalues --   -2.19826  -2.19797  -2.19104  -2.18775  -1.14083
 Alpha  occ. eigenvalues --   -1.14049  -1.14017  -1.13837  -1.13687  -1.13661
 Alpha  occ. eigenvalues --   -1.13531  -1.13513  -1.13507  -1.13497  -1.13493
 Alpha  occ. eigenvalues --   -1.13453  -1.13440  -1.13424  -1.13394  -1.12792
 Alpha  occ. eigenvalues --   -1.12775  -1.12727  -1.12464  -1.12438  -1.12390
 Alpha  occ. eigenvalues --   -0.18580  -0.14010  -0.12172  -0.10602
 Alpha virt. eigenvalues --   -0.06089  -0.05715  -0.04155  -0.03440  -0.02675
 Alpha virt. eigenvalues --   -0.02277  -0.01739  -0.01063  -0.00756  -0.00198
 Alpha virt. eigenvalues --   -0.00017   0.00317   0.00589   0.00738   0.00830

  Beta  occ. eigenvalues --  -38.44520 -38.44195 -38.43973 -38.43877 -38.43831
  Beta  occ. eigenvalues --  -38.43011 -38.42837  -2.20390  -2.20064  -2.19800
  Beta  occ. eigenvalues --   -2.19691  -2.19682  -2.19073  -2.18766  -1.14087
  Beta  occ. eigenvalues --   -1.14048  -1.14024  -1.13841  -1.13689  -1.13667
  Beta  occ. eigenvalues --   -1.13498  -1.13469  -1.13442  -1.13430  -1.13392
  Beta  occ. eigenvalues --   -1.13365  -1.13350  -1.13334  -1.13323  -1.12772
  Beta  occ. eigenvalues --   -1.12718  -1.12712  -1.12454  -1.12433  -1.12363
  Beta  occ. eigenvalues --   -0.17984  -0.13755  -0.12027
  Beta virt. eigenvalues --   -0.06604  -0.06015  -0.05473  -0.04103  -0.02940
  Beta virt. eigenvalues --   -0.02084  -0.01829  -0.01205  -0.00917  -0.00603
  Beta virt. eigenvalues --    0.00018   0.00095   0.00396   0.00682   0.00813

 Mulliken charges and spin densities:
               1          2
     1  Na   0.298476   0.038013
     2  Na   0.152841   0.081742
     3  Na   0.797663   0.162691
     4  Na  -0.072808  -0.110070
     5  Na   0.238291  -0.020714
     6  Na  -1.178936   0.609684
     7  Na  -0.235528   0.238653
 Sum of Mulliken charges =  -0.00000   1.00000

 Dipole moment (field-independent basis, Debye):
    X=             -0.4582    Y=             -0.2621    Z=             -0.2376  Tot=              0.5788
 Quadrupole moment (field-independent basis, Debye-Ang):
   XX=            -53.8133   YY=            -65.6293   ZZ=            -73.6178
   XY=             -1.0227   XZ=              1.4821   YZ=              1.9067

 Normal termination of Gaussian 16 at Thu Dec  7 05:08:58 2023.
