 Gaussian 16, Revision B.01,
 Gaussian 16:  ES64L-G16RevB.01 20-Dec-2017

 -------------------------
 #P B3LYP/6-311+g(d) force
 -------------------------

 -----
 DPGEN
 -----
 Symbolic Z-matrix:
 Charge =  0 Multiplicity = 2

                         Standard orientation:
 ---------------------------------------------------------------------
 Center     Atomic      Atomic             Coordinates (Angstroms)
 Number     Number       Type             X           Y           Z
 ---------------------------------------------------------------------
      1         11           0       -1.798076   -2.205003    0.761463
      2         11           0        1.638621   -0.360088    2.129400
      3         11           0       -3.721224    0.211860   -1.268255
      4         11           0        0.300520   -0.379121   -1.349984
      5         11           0        3.699964   -1.109147   -1.145385
      6         11           0       -1.697451    1.352365    1.090929
      7         11           0        1.577646    2.489135   -0.218168
 ---------------------------------------------------------------------

 SCF Done:  E(UB3LYP) =  -1136.12256679     A.U. after   25 cycles

 The electronic state is 2-A.
 Alpha  occ. eigenvalues --  -38.44987 -38.44809 -38.44005 -38.43990 -38.43975
 Alpha  occ. eigenvalues --  -38.43228 -38.43130  -2.20792  -2.20617  -2.19881
 Alpha  occ. eigenvalues --   -2.19825  -2.19749  -2.19098  -2.18951  -1.14464
 Alpha  occ. eigenvalues --   -1.14445  -1.14404  -1.14289  -1.14255  -1.14236
 Alpha  occ. eigenvalues --   -1.13600  -1.13555  -1.13511  -1.13494  -1.13489
 Alpha  occ. eigenvalues --   -1.13434  -1.13418  -1.13404  -1.13376  -1.12794
 Alpha  occ. eigenvalues --   -1.12783  -1.12708  -1.12651  -1.12602  -1.12568
 Alpha  occ. eigenvalues --   -0.18011  -0.13741  -0.11263  -0.10697
 Alpha virt. eigenvalues --   -0.06678  -0.05230  -0.05009  -0.03019  -0.02655
 Alpha virt. eigenvalues --   -0.02495  -0.02176  -0.01400  -0.00876  -0.00269
 Alpha virt. eigenvalues --    0.00073   0.00187   0.00255   0.00493   0.00694

  Beta  occ. eigenvalues --  -38.44954 -38.44747 -38.43972 -38.43965 -38.43960
  Beta  occ. eigenvalues --  -38.43219 -38.43125  -2.20730  -2.20503  -2.19839
  Beta  occ. eigenvalues --   -2.19766  -2.19723  -2.19085  -2.18943  -1.14422
  Beta  occ. eigenvalues --   -1.14398  -1.14365  -1.14207  -1.14167  -1.14159
  Beta  occ. eigenvalues --   -1.13550  -1.13528  -1.13479  -1.13454  -1.13447
  Beta  occ. eigenvalues --   -1.13396  -1.13384  -1.13381  -1.13359  -1.12789
  Beta  occ. eigenvalues --   -1.12738  -1.12706  -1.12638  -1.12597  -1.12558
  Beta  occ. eigenvalues --   -0.17319  -0.13457  -0.10534
  Beta virt. eigenvalues --   -0.07560  -0.06368  -0.04959  -0.04606  -0.02754
  Beta virt. eigenvalues --   -0.02315  -0.01939  -0.01722  -0.01040  -0.00658
  Beta virt. eigenvalues --   -0.00166   0.00157   0.00228   0.00343   0.00577

 Mulliken charges and spin densities:
               1          2
     1  Na  -0.120776   0.258869
     2  Na  -0.004331   0.308150
     3  Na   0.434147   0.029053
     4  Na  -0.537980   0.174668
     5  Na   0.207148   0.036661
     6  Na   0.108290   0.206127
     7  Na  -0.086497  -0.013528
 Sum of Mulliken charges =  -0.00000   1.00000

 Dipole moment (field-independent basis, Debye):
    X=             -0.5012    Y=              0.0095    Z=              0.1439  Tot=              0.5215
 Quadrupole moment (field-independent basis, Debye-Ang):
   XX=            -51.0680   YY=            -75.9018   ZZ=            -66.6388
   XY=              1.0658   XZ=              4.1025   YZ=             -3.9422

 Normal termination of Gaussian 16 at Thu Dec  7 18:17:58 2023.
