 Gaussian 16, Revision B.01,
 Gaussian 16:  ES64L-G16RevB.01 20-Dec-2017

 -------------------------
 #P B3LYP/6-311+g(d) force
 -------------------------

 -----
 DPGEN
 -----
 Symbolic Z-matrix:
 Charge =  0 Multiplicity = 2

                         Standard orientation:
 ---------------------------------------------------------------------
 Center     Atomic      Atomic             Coordinates (Angstroms)
 Number     Number       Type             X           Y           Z
 ---------------------------------------------------------------------
      1         11           0        3.778108    1.630320    0.044238
      2         11           0        3.672778   -1.645520   -0.029849
      3         11           0       -2.639703   -3.005841   -0.464010
      4         11           0       -3.938909   -0.178987    0.529407
      5         11           0        1.073617    3.762147   -0.021256
      6         11           0        0.970584   -3.713334    0.168520
      7         11           0       -2.916475    3.151215   -0.227051
 ---------------------------------------------------------------------

 SCF Done:  E(UB3LYP) =  -1136.10678784     A.U. after   22 cycles

 The electronic state is 2-A.
 Alpha  occ. eigenvalues --  -38.45493 -38.45154 -38.45153 -38.44492 -38.44381
 Alpha  occ. eigenvalues --  -38.44022 -38.43995  -2.21236  -2.20931  -2.20915
 Alpha  occ. eigenvalues --   -2.20295  -2.20183  -2.19804  -2.19802  -1.14918
 Alpha  occ. eigenvalues --   -1.14907  -1.14863  -1.14613  -1.14605  -1.14594
 Alpha  occ. eigenvalues --   -1.14586  -1.14575  -1.14549  -1.13975  -1.13960
 Alpha  occ. eigenvalues --   -1.13947  -1.13847  -1.13838  -1.13809  -1.13458
 Alpha  occ. eigenvalues --   -1.13457  -1.13452  -1.13445  -1.13434  -1.13433
 Alpha  occ. eigenvalues --   -0.15497  -0.14119  -0.13524  -0.10907
 Alpha virt. eigenvalues --   -0.08058  -0.04784  -0.04412  -0.03559  -0.03544
 Alpha virt. eigenvalues --   -0.02568  -0.02307  -0.01937  -0.01636  -0.00432
 Alpha virt. eigenvalues --   -0.00277  -0.00147   0.00046   0.00099   0.00262

  Beta  occ. eigenvalues --  -38.45474 -38.45137 -38.45136 -38.44470 -38.44358
  Beta  occ. eigenvalues --  -38.43951 -38.43942  -2.21205  -2.20909  -2.20886
  Beta  occ. eigenvalues --   -2.20256  -2.20143  -2.19706  -2.19673  -1.14901
  Beta  occ. eigenvalues --   -1.14890  -1.14813  -1.14603  -1.14595  -1.14578
  Beta  occ. eigenvalues --   -1.14569  -1.14513  -1.14503  -1.13949  -1.13935
  Beta  occ. eigenvalues --   -1.13913  -1.13820  -1.13811  -1.13771  -1.13391
  Beta  occ. eigenvalues --   -1.13387  -1.13370  -1.13369  -1.13359  -1.13344
  Beta  occ. eigenvalues --   -0.14997  -0.13414  -0.12677
  Beta virt. eigenvalues --   -0.08345  -0.07741  -0.04254  -0.03848  -0.03383
  Beta virt. eigenvalues --   -0.03286  -0.02369  -0.02085  -0.01779  -0.01492
  Beta virt. eigenvalues --   -0.00080   0.00016   0.00060   0.00176   0.00254

 Mulliken charges and spin densities:
               1          2
     1  Na   0.514002   0.070123
     2  Na   0.216163   0.089379
     3  Na  -0.214552   0.230485
     4  Na  -0.310351   0.073033
     5  Na  -0.103412   0.134559
     6  Na  -0.165461   0.036949
     7  Na   0.063611   0.365473
 Sum of Mulliken charges =  -0.00000   1.00000

 Dipole moment (field-independent basis, Debye):
    X=              0.3671    Y=             -0.0949    Z=              0.0590  Tot=              0.3837
 Quadrupole moment (field-independent basis, Debye-Ang):
   XX=            -63.9815   YY=            -63.1450   ZZ=            -73.3780
   XY=              0.5762   XZ=             -0.7547   YZ=             -0.1373

 Normal termination of Gaussian 16 at Sun Dec  3 14:39:01 2023.
