 Gaussian 16, Revision B.01,
 Gaussian 16:  ES64L-G16RevB.01 20-Dec-2017

 -------------------------
 #P B3LYP/6-311+g(d) force
 -------------------------

 -----
 DPGEN
 -----
 Symbolic Z-matrix:
 Charge =  0 Multiplicity = 2

                         Standard orientation:
 ---------------------------------------------------------------------
 Center     Atomic      Atomic             Coordinates (Angstroms)
 Number     Number       Type             X           Y           Z
 ---------------------------------------------------------------------
      1         11           0        0.014106   -0.112161    1.986682
      2         11           0        1.027526   -2.613901   -0.514330
      3         11           0       -2.698750   -1.971390    0.142887
      4         11           0       -2.700389    1.480013   -0.260878
      5         11           0        0.382389    0.342955   -1.643949
      6         11           0        3.297858   -0.272519    0.234339
      7         11           0        0.677261    3.147003    0.055250
 ---------------------------------------------------------------------

 SCF Done:  E(UB3LYP) =  -1136.13614647     A.U. after   21 cycles

 The electronic state is 2-A.
 Alpha  occ. eigenvalues --  -38.44392 -38.44119 -38.43718 -38.43630 -38.43595
 Alpha  occ. eigenvalues --  -38.43489 -38.43184  -2.20208  -2.19928  -2.19509
 Alpha  occ. eigenvalues --   -2.19463  -2.19436  -2.19356  -2.19133  -1.13875
 Alpha  occ. eigenvalues --   -1.13868  -1.13854  -1.13615  -1.13595  -1.13553
 Alpha  occ. eigenvalues --   -1.13180  -1.13167  -1.13161  -1.13141  -1.13129
 Alpha  occ. eigenvalues --   -1.13104  -1.13087  -1.13073  -1.13071  -1.13069
 Alpha  occ. eigenvalues --   -1.13008  -1.12972  -1.12811  -1.12767  -1.12748
 Alpha  occ. eigenvalues --   -0.18261  -0.12987  -0.12293  -0.10517
 Alpha virt. eigenvalues --   -0.05870  -0.05272  -0.04844  -0.03160  -0.02806
 Alpha virt. eigenvalues --   -0.02436  -0.01699  -0.01287  -0.00551  -0.00488
 Alpha virt. eigenvalues --   -0.00014   0.00341   0.00770   0.00798   0.00862

  Beta  occ. eigenvalues --  -38.44387 -38.44114 -38.43718 -38.43628 -38.43506
  Beta  occ. eigenvalues --  -38.43473 -38.43122  -2.20202  -2.19922  -2.19512
  Beta  occ. eigenvalues --   -2.19437  -2.19330  -2.19297  -2.19019  -1.13868
  Beta  occ. eigenvalues --   -1.13859  -1.13840  -1.13602  -1.13584  -1.13552
  Beta  occ. eigenvalues --   -1.13173  -1.13166  -1.13162  -1.13124  -1.13088
  Beta  occ. eigenvalues --   -1.13069  -1.13052  -1.13024  -1.12985  -1.12966
  Beta  occ. eigenvalues --   -1.12957  -1.12951  -1.12733  -1.12686  -1.12664
  Beta  occ. eigenvalues --   -0.17540  -0.12778  -0.12088
  Beta virt. eigenvalues --   -0.06631  -0.05821  -0.05248  -0.04784  -0.02408
  Beta virt. eigenvalues --   -0.02104  -0.01602  -0.01400  -0.01221  -0.00587
  Beta virt. eigenvalues --   -0.00502   0.00128   0.00373   0.00786   0.00828

 Mulliken charges and spin densities:
               1          2
     1  Na  -0.356889   0.826654
     2  Na   0.129752   0.013578
     3  Na  -0.022864  -0.054123
     4  Na   0.020147  -0.083252
     5  Na   0.108626   0.427261
     6  Na   0.135183  -0.020775
     7  Na  -0.013955  -0.109342
 Sum of Mulliken charges =  -0.00000   1.00000

 Dipole moment (field-independent basis, Debye):
    X=              0.2435    Y=              0.1653    Z=              0.1382  Tot=              0.3252
 Quadrupole moment (field-independent basis, Debye-Ang):
   XX=            -55.3367   YY=            -61.6410   ZZ=            -75.7356
   XY=              0.4327   XZ=              1.0780   YZ=              0.9692

 Normal termination of Gaussian 16 at Thu Dec  7 18:18:58 2023.
