 Gaussian 16, Revision B.01,
 Gaussian 16:  ES64L-G16RevB.01 20-Dec-2017

 -------------------------
 #P B3LYP/6-311+g(d) force
 -------------------------

 -----
 DPGEN
 -----
 Symbolic Z-matrix:
 Charge =  0 Multiplicity = 2

                         Standard orientation:
 ---------------------------------------------------------------------
 Center     Atomic      Atomic             Coordinates (Angstroms)
 Number     Number       Type             X           Y           Z
 ---------------------------------------------------------------------
      1         11           0        3.113239   -1.192207    0.052541
      2         11           0       -0.114045   -2.741438    0.369988
      3         11           0       -2.959828   -0.952175   -0.882682
      4         11           0       -0.035461   -0.061681   -1.188795
      5         11           0       -1.584583    2.576733    0.251089
      6         11           0       -0.715595    0.259761    1.855365
      7         11           0        2.296273    2.111006   -0.457506
 ---------------------------------------------------------------------

 SCF Done:  E(UB3LYP) =  -1136.13006064     A.U. after   20 cycles

 The electronic state is 2-A.
 Alpha  occ. eigenvalues --  -38.44071 -38.43992 -38.43797 -38.43638 -38.43428
 Alpha  occ. eigenvalues --  -38.43188 -38.42909  -2.19880  -2.19863  -2.19622
 Alpha  occ. eigenvalues --   -2.19519  -2.19406  -2.19083  -2.19012  -1.13575
 Alpha  occ. eigenvalues --   -1.13556  -1.13540  -1.13526  -1.13492  -1.13478
 Alpha  occ. eigenvalues --   -1.13340  -1.13317  -1.13280  -1.13238  -1.13174
 Alpha  occ. eigenvalues --   -1.13126  -1.13099  -1.12995  -1.12983  -1.12843
 Alpha  occ. eigenvalues --   -1.12745  -1.12699  -1.12690  -1.12631  -1.12609
 Alpha  occ. eigenvalues --   -0.18828  -0.13189  -0.12563  -0.10560
 Alpha virt. eigenvalues --   -0.05611  -0.05372  -0.04600  -0.03008  -0.02824
 Alpha virt. eigenvalues --   -0.02108  -0.01676  -0.01233  -0.00444  -0.00318
 Alpha virt. eigenvalues --    0.00016   0.00301   0.00783   0.00836   0.00879

  Beta  occ. eigenvalues --  -38.44074 -38.43949 -38.43786 -38.43626 -38.43344
  Beta  occ. eigenvalues --  -38.43176 -38.42869  -2.19887  -2.19786  -2.19604
  Beta  occ. eigenvalues --   -2.19502  -2.19253  -2.19064  -2.18944  -1.13560
  Beta  occ. eigenvalues --   -1.13546  -1.13521  -1.13514  -1.13432  -1.13427
  Beta  occ. eigenvalues --   -1.13301  -1.13293  -1.13265  -1.13226  -1.13142
  Beta  occ. eigenvalues --   -1.13117  -1.13006  -1.12896  -1.12887  -1.12820
  Beta  occ. eigenvalues --   -1.12711  -1.12672  -1.12636  -1.12576  -1.12569
  Beta  occ. eigenvalues --   -0.18182  -0.12897  -0.12271
  Beta virt. eigenvalues --   -0.06745  -0.05487  -0.05224  -0.04570  -0.02412
  Beta virt. eigenvalues --   -0.02111  -0.01586  -0.01202  -0.01039  -0.00411
  Beta virt. eigenvalues --   -0.00292   0.00158   0.00372   0.00839   0.00875

 Mulliken charges and spin densities:
               1          2
     1  Na  -0.093891  -0.007580
     2  Na   0.244738   0.108617
     3  Na   0.257068   0.145901
     4  Na  -0.615840   0.220209
     5  Na   0.134590   0.012405
     6  Na  -0.048474   0.506041
     7  Na   0.121810   0.014406
 Sum of Mulliken charges =  -0.00000   1.00000

 Dipole moment (field-independent basis, Debye):
    X=              0.0800    Y=              0.0643    Z=              0.2037  Tot=              0.2281
 Quadrupole moment (field-independent basis, Debye-Ang):
   XX=            -55.2496   YY=            -61.5922   ZZ=            -75.1134
   XY=             -0.7269   XZ=              1.5798   YZ=             -1.1877

 Normal termination of Gaussian 16 at Wed Nov 29 01:37:25 2023.
