 Gaussian 16, Revision B.01,
 Gaussian 16:  ES64L-G16RevB.01 20-Dec-2017

 -------------------------
 #P B3LYP/6-311+g(d) force
 -------------------------

 -----
 DPGEN
 -----
 Symbolic Z-matrix:
 Charge =  0 Multiplicity = 2

                         Standard orientation:
 ---------------------------------------------------------------------
 Center     Atomic      Atomic             Coordinates (Angstroms)
 Number     Number       Type             X           Y           Z
 ---------------------------------------------------------------------
      1         11           0        0.044233   -0.282117   -1.802116
      2         11           0       -0.002195    0.091701    2.267579
      3         11           0       -0.035319    2.815049   -0.203791
      4         11           0       -2.087973   -2.182270    0.065282
      5         11           0       -2.594272    1.005835   -0.192762
      6         11           0        2.807150    0.927564   -0.037877
      7         11           0        1.868376   -2.375762   -0.096314
 ---------------------------------------------------------------------

 SCF Done:  E(UB3LYP) =  -1136.13887682     A.U. after   18 cycles

 The electronic state is 2-A.
 Alpha  occ. eigenvalues --  -38.44165 -38.43668 -38.43632 -38.43563 -38.43471
 Alpha  occ. eigenvalues --  -38.43382 -38.43051  -2.20022  -2.19521  -2.19468
 Alpha  occ. eigenvalues --   -2.19440  -2.19408  -2.19298  -2.18942  -1.13675
 Alpha  occ. eigenvalues --   -1.13648  -1.13644  -1.13221  -1.13192  -1.13184
 Alpha  occ. eigenvalues --   -1.13167  -1.13148  -1.13122  -1.13101  -1.13088
 Alpha  occ. eigenvalues --   -1.13079  -1.13059  -1.13057  -1.13030  -1.12983
 Alpha  occ. eigenvalues --   -1.12947  -1.12925  -1.12611  -1.12593  -1.12584
 Alpha  occ. eigenvalues --   -0.18825  -0.12966  -0.12462  -0.11278
 Alpha virt. eigenvalues --   -0.05342  -0.05008  -0.04592  -0.03345  -0.03139
 Alpha virt. eigenvalues --   -0.03040  -0.01194  -0.01034  -0.00197  -0.00079
 Alpha virt. eigenvalues --   -0.00044   0.00385   0.00848   0.00901   0.00942

  Beta  occ. eigenvalues --  -38.44061 -38.43665 -38.43629 -38.43561 -38.43404
  Beta  occ. eigenvalues --  -38.43375 -38.43046  -2.19830  -2.19518  -2.19466
  Beta  occ. eigenvalues --   -2.19407  -2.19318  -2.19290  -2.18936  -1.13549
  Beta  occ. eigenvalues --   -1.13513  -1.13506  -1.13211  -1.13183  -1.13165
  Beta  occ. eigenvalues --   -1.13155  -1.13125  -1.13109  -1.13090  -1.13064
  Beta  occ. eigenvalues --   -1.13047  -1.13040  -1.12997  -1.12964  -1.12961
  Beta  occ. eigenvalues --   -1.12922  -1.12907  -1.12607  -1.12586  -1.12560
  Beta  occ. eigenvalues --   -0.18056  -0.12741  -0.12240
  Beta virt. eigenvalues --   -0.07292  -0.05357  -0.04931  -0.04560  -0.02514
  Beta virt. eigenvalues --   -0.02305  -0.01989  -0.01115  -0.00961  -0.00259
  Beta virt. eigenvalues --   -0.00106   0.00086   0.00402   0.00896   0.00931

 Mulliken charges and spin densities:
               1          2
     1  Na  -0.248614   0.381702
     2  Na  -0.705251   0.715001
     3  Na   0.162945   0.003795
     4  Na   0.181000  -0.040431
     5  Na   0.266450   0.034705
     6  Na   0.171977  -0.017615
     7  Na   0.171492  -0.077156
 Sum of Mulliken charges =  -0.00000   1.00000

 Dipole moment (field-independent basis, Debye):
    X=              0.1848    Y=             -0.2741    Z=              0.2462  Tot=              0.4122
 Quadrupole moment (field-independent basis, Debye-Ang):
   XX=            -61.0102   YY=            -63.3338   ZZ=            -71.1762
   XY=              0.4456   XZ=              0.1218   YZ=             -0.8619

 Normal termination of Gaussian 16 at Thu Dec  7 22:26:18 2023.
