 Gaussian 16, Revision B.01,
 Gaussian 16:  ES64L-G16RevB.01 20-Dec-2017

 -------------------------
 #P B3LYP/6-311+g(d) force
 -------------------------

 -----
 DPGEN
 -----
 Symbolic Z-matrix:
 Charge =  0 Multiplicity = 2

                         Standard orientation:
 ---------------------------------------------------------------------
 Center     Atomic      Atomic             Coordinates (Angstroms)
 Number     Number       Type             X           Y           Z
 ---------------------------------------------------------------------
      1         11           0       -2.562750   -2.938436   -0.309965
      2         11           0        1.489895   -2.322864    0.790463
      3         11           0        3.783836   -0.757967   -1.173757
      4         11           0        2.421207    1.813699   -0.374110
      5         11           0       -0.007645    0.686444    2.067948
      6         11           0       -1.402998    3.238605   -0.143562
      7         11           0       -3.721545    0.280520   -0.857016
 ---------------------------------------------------------------------

 SCF Done:  E(UB3LYP) =  -1136.11677009     A.U. after   22 cycles

 The electronic state is 2-A.
 Alpha  occ. eigenvalues --  -38.44740 -38.44644 -38.44364 -38.44310 -38.44175
 Alpha  occ. eigenvalues --  -38.44154 -38.44153  -2.20569  -2.20460  -2.20157
 Alpha  occ. eigenvalues --   -2.20080  -2.20015  -2.19914  -2.19913  -1.14272
 Alpha  occ. eigenvalues --   -1.14238  -1.14214  -1.14125  -1.14112  -1.14063
 Alpha  occ. eigenvalues --   -1.13833  -1.13825  -1.13789  -1.13755  -1.13734
 Alpha  occ. eigenvalues --   -1.13709  -1.13677  -1.13649  -1.13623  -1.13596
 Alpha  occ. eigenvalues --   -1.13596  -1.13575  -1.13571  -1.13558  -1.13551
 Alpha  occ. eigenvalues --   -0.16819  -0.13677  -0.12136  -0.11081
 Alpha virt. eigenvalues --   -0.06752  -0.05776  -0.04353  -0.03757  -0.03290
 Alpha virt. eigenvalues --   -0.02047  -0.01756  -0.01591  -0.01356  -0.00981
 Alpha virt. eigenvalues --   -0.00271   0.00169   0.00392   0.00536   0.00548

  Beta  occ. eigenvalues --  -38.44712 -38.44565 -38.44333 -38.44270 -38.44184
  Beta  occ. eigenvalues --  -38.44155 -38.44106  -2.20524  -2.20315  -2.20102
  Beta  occ. eigenvalues --   -2.20005  -2.19932  -2.19927  -2.19918  -1.14234
  Beta  occ. eigenvalues --   -1.14211  -1.14157  -1.14030  -1.14016  -1.13950
  Beta  occ. eigenvalues --   -1.13792  -1.13773  -1.13757  -1.13704  -1.13688
  Beta  occ. eigenvalues --   -1.13659  -1.13610  -1.13610  -1.13597  -1.13591
  Beta  occ. eigenvalues --   -1.13584  -1.13578  -1.13566  -1.13556  -1.13547
  Beta  occ. eigenvalues --   -0.16128  -0.13118  -0.12032
  Beta virt. eigenvalues --   -0.07517  -0.06640  -0.05430  -0.03904  -0.03488
  Beta virt. eigenvalues --   -0.02626  -0.01737  -0.01511  -0.01413  -0.01198
  Beta virt. eigenvalues --   -0.00984   0.00022   0.00348   0.00506   0.00579

 Mulliken charges and spin densities:
               1          2
     1  Na   0.039104  -0.055145
     2  Na  -0.439192   0.092815
     3  Na   0.630545   0.192547
     4  Na  -0.581318   0.139861
     5  Na   0.409443   0.437426
     6  Na   0.161388  -0.032137
     7  Na  -0.219970   0.224632
 Sum of Mulliken charges =  -0.00000   1.00000

 Dipole moment (field-independent basis, Debye):
    X=              0.4384    Y=              0.2862    Z=             -0.0170  Tot=              0.5238
 Quadrupole moment (field-independent basis, Debye-Ang):
   XX=            -66.8842   YY=            -62.2177   ZZ=            -71.0756
   XY=             -4.1871   XZ=             -0.5241   YZ=             -0.7913

 Normal termination of Gaussian 16 at Sun Dec  3 15:05:58 2023.
