 Gaussian 16, Revision B.01,
 Gaussian 16:  ES64L-G16RevB.01 20-Dec-2017

 -------------------------
 #P B3LYP/6-311+g(d) force
 -------------------------

 -----
 DPGEN
 -----
 Symbolic Z-matrix:
 Charge =  0 Multiplicity = 2

                         Standard orientation:
 ---------------------------------------------------------------------
 Center     Atomic      Atomic             Coordinates (Angstroms)
 Number     Number       Type             X           Y           Z
 ---------------------------------------------------------------------
      1         11           0       -1.699849   -1.137033   -1.098530
      2         11           0        1.763471   -2.794466   -0.679150
      3         11           0        0.198930   -1.994278    2.695043
      4         11           0       -1.081132    1.849908    1.309973
      5         11           0       -4.312890    0.398990   -1.117148
      6         11           0        1.621724    3.067877    0.376693
      7         11           0        3.509745    0.609001   -1.486881
 ---------------------------------------------------------------------

 SCF Done:  E(UB3LYP) =  -1136.11296129     A.U. after   21 cycles

 The electronic state is 2-A.
 Alpha  occ. eigenvalues --  -38.45435 -38.44968 -38.44373 -38.44238 -38.44146
 Alpha  occ. eigenvalues --  -38.43976 -38.43333  -2.21196  -2.20726  -2.20180
 Alpha  occ. eigenvalues --   -2.20051  -2.19970  -2.19728  -2.19136  -1.14849
 Alpha  occ. eigenvalues --   -1.14838  -1.14799  -1.14395  -1.14366  -1.14346
 Alpha  occ. eigenvalues --   -1.13869  -1.13841  -1.13808  -1.13802  -1.13700
 Alpha  occ. eigenvalues --   -1.13680  -1.13644  -1.13634  -1.13538  -1.13416
 Alpha  occ. eigenvalues --   -1.13395  -1.13369  -1.12823  -1.12797  -1.12776
 Alpha  occ. eigenvalues --   -0.16354  -0.13107  -0.12346  -0.11596
 Alpha virt. eigenvalues --   -0.06545  -0.05374  -0.05016  -0.03207  -0.03103
 Alpha virt. eigenvalues --   -0.02891  -0.01989  -0.01063  -0.00885  -0.00721
 Alpha virt. eigenvalues --   -0.00535  -0.00090   0.00189   0.00273   0.00621

  Beta  occ. eigenvalues --  -38.45345 -38.44909 -38.44336 -38.44214 -38.44137
  Beta  occ. eigenvalues --  -38.43987 -38.43338  -2.21027  -2.20615  -2.20113
  Beta  occ. eigenvalues --   -2.20009  -2.19955  -2.19751  -2.19148  -1.14734
  Beta  occ. eigenvalues --   -1.14717  -1.14688  -1.14319  -1.14293  -1.14270
  Beta  occ. eigenvalues --   -1.13827  -1.13789  -1.13779  -1.13754  -1.13672
  Beta  occ. eigenvalues --   -1.13655  -1.13631  -1.13614  -1.13522  -1.13433
  Beta  occ. eigenvalues --   -1.13412  -1.13370  -1.12825  -1.12807  -1.12776
  Beta  occ. eigenvalues --   -0.15810  -0.12533  -0.12173
  Beta virt. eigenvalues --   -0.08203  -0.05815  -0.05136  -0.04709  -0.02999
  Beta virt. eigenvalues --   -0.02743  -0.02385  -0.01777  -0.00976  -0.00640
  Beta virt. eigenvalues --   -0.00514  -0.00320   0.00217   0.00289   0.00413

 Mulliken charges and spin densities:
               1          2
     1  Na  -1.044424   0.127928
     2  Na   0.382499   0.038242
     3  Na   0.128864   0.430755
     4  Na  -0.400980   0.391590
     5  Na   0.799344  -0.139206
     6  Na   0.219524  -0.197638
     7  Na  -0.084827   0.348330
 Sum of Mulliken charges =  -0.00000   1.00000

 Dipole moment (field-independent basis, Debye):
    X=             -0.3805    Y=             -0.3404    Z=              0.3321  Tot=              0.6091
 Quadrupole moment (field-independent basis, Debye-Ang):
   XX=            -60.1452   YY=            -71.0332   ZZ=            -66.2699
   XY=             -2.9648   XZ=             -2.1583   YZ=             -1.3177

 Normal termination of Gaussian 16 at Sun Dec  3 16:38:54 2023.
