 Gaussian 16, Revision B.01,
 Gaussian 16:  ES64L-G16RevB.01 20-Dec-2017

 -------------------------
 #P B3LYP/6-311+g(d) force
 -------------------------

 -----
 DPGEN
 -----
 Symbolic Z-matrix:
 Charge =  0 Multiplicity = 2

                         Standard orientation:
 ---------------------------------------------------------------------
 Center     Atomic      Atomic             Coordinates (Angstroms)
 Number     Number       Type             X           Y           Z
 ---------------------------------------------------------------------
      1         11           0       -0.053900    1.849260   -0.742321
      2         11           0       -2.255349    3.672994    0.412655
      3         11           0       -3.443653   -0.110141   -0.256747
      4         11           0       -2.670596   -3.688205    0.118246
      5         11           0        0.289406   -1.423732   -0.165448
      6         11           0        2.694229   -0.072669    1.120539
      7         11           0        5.439863   -0.227507   -0.486924
 ---------------------------------------------------------------------

 SCF Done:  E(UB3LYP) =  -1136.11902673     A.U. after   20 cycles

 The electronic state is 2-A.
 Alpha  occ. eigenvalues --  -38.44922 -38.44264 -38.44025 -38.44022 -38.44022
 Alpha  occ. eigenvalues --  -38.43802 -38.43644  -2.20685  -2.20088  -2.19899
 Alpha  occ. eigenvalues --   -2.19832  -2.19788  -2.19698  -2.19522  -1.14391
 Alpha  occ. eigenvalues --   -1.14368  -1.14264  -1.13734  -1.13715  -1.13709
 Alpha  occ. eigenvalues --   -1.13648  -1.13583  -1.13554  -1.13484  -1.13469
 Alpha  occ. eigenvalues --   -1.13461  -1.13454  -1.13427  -1.13418  -1.13411
 Alpha  occ. eigenvalues --   -1.13363  -1.13331  -1.13182  -1.13172  -1.13134
 Alpha  occ. eigenvalues --   -0.16954  -0.13882  -0.12486  -0.10763
 Alpha virt. eigenvalues --   -0.06162  -0.05570  -0.04827  -0.03563  -0.02850
 Alpha virt. eigenvalues --   -0.02275  -0.01776  -0.01614  -0.01095  -0.00812
 Alpha virt. eigenvalues --   -0.00485   0.00036   0.00339   0.00398   0.00552

  Beta  occ. eigenvalues --  -38.44898 -38.44153 -38.44016 -38.44009 -38.44005
  Beta  occ. eigenvalues --  -38.43756 -38.43640  -2.20639  -2.19881  -2.19866
  Beta  occ. eigenvalues --   -2.19808  -2.19777  -2.19617  -2.19525  -1.14360
  Beta  occ. eigenvalues --   -1.14336  -1.14228  -1.13622  -1.13599  -1.13574
  Beta  occ. eigenvalues --   -1.13569  -1.13561  -1.13528  -1.13467  -1.13453
  Beta  occ. eigenvalues --   -1.13447  -1.13442  -1.13407  -1.13392  -1.13376
  Beta  occ. eigenvalues --   -1.13302  -1.13282  -1.13184  -1.13167  -1.13075
  Beta  occ. eigenvalues --   -0.16356  -0.13084  -0.12402
  Beta virt. eigenvalues --   -0.07248  -0.06006  -0.05192  -0.04515  -0.03157
  Beta virt. eigenvalues --   -0.02581  -0.02178  -0.01629  -0.01310  -0.00699
  Beta virt. eigenvalues --   -0.00489  -0.00218   0.00215   0.00491   0.00548

 Mulliken charges and spin densities:
               1          2
     1  Na  -0.832994  -0.009142
     2  Na   0.615003   0.111112
     3  Na   0.140424   0.284322
     4  Na   0.601762   0.122355
     5  Na  -1.217588  -0.079621
     6  Na   0.710029   0.030749
     7  Na  -0.016636   0.540226
 Sum of Mulliken charges =  -0.00000   1.00000

 Dipole moment (field-independent basis, Debye):
    X=             -0.8855    Y=              0.1357    Z=              0.0408  Tot=              0.8968
 Quadrupole moment (field-independent basis, Debye-Ang):
   XX=            -70.2262   YY=            -61.2816   ZZ=            -68.7010
   XY=             -0.1985   XZ=             -3.3741   YZ=              1.1977

 Normal termination of Gaussian 16 at Tue Nov 28 21:49:08 2023.
