 Gaussian 16, Revision B.01,
 Gaussian 16:  ES64L-G16RevB.01 20-Dec-2017

 -------------------------
 #P B3LYP/6-311+g(d) force
 -------------------------

 -----
 DPGEN
 -----
 Symbolic Z-matrix:
 Charge =  0 Multiplicity = 2

                         Standard orientation:
 ---------------------------------------------------------------------
 Center     Atomic      Atomic             Coordinates (Angstroms)
 Number     Number       Type             X           Y           Z
 ---------------------------------------------------------------------
      1         11           0        2.280654    2.120529    0.051524
      2         11           0       -3.469958    0.064988   -1.564952
      3         11           0        1.334876   -0.590751    1.759878
      4         11           0       -1.124586    2.096131    0.261914
      5         11           0       -0.069243   -1.057287   -0.933051
      6         11           0        3.862509   -1.340422   -0.969322
      7         11           0       -2.814251   -1.293188    1.394009
 ---------------------------------------------------------------------

 SCF Done:  E(UB3LYP) =  -1136.12227605     A.U. after   24 cycles

 The electronic state is 2-A.
 Alpha  occ. eigenvalues --  -38.44774 -38.44740 -38.44345 -38.44337 -38.43880
 Alpha  occ. eigenvalues --  -38.43561 -38.42640  -2.20609  -2.20595  -2.20223
 Alpha  occ. eigenvalues --   -2.20194  -2.19662  -2.19393  -2.18492  -1.14392
 Alpha  occ. eigenvalues --   -1.14278  -1.14258  -1.14248  -1.14245  -1.14191
 Alpha  occ. eigenvalues --   -1.13937  -1.13857  -1.13857  -1.13829  -1.13815
 Alpha  occ. eigenvalues --   -1.13811  -1.13331  -1.13322  -1.13274  -1.13084
 Alpha  occ. eigenvalues --   -1.13055  -1.13012  -1.12198  -1.12168  -1.12104
 Alpha  occ. eigenvalues --   -0.18186  -0.14248  -0.11007  -0.10780
 Alpha virt. eigenvalues --   -0.06740  -0.05355  -0.05270  -0.03033  -0.02733
 Alpha virt. eigenvalues --   -0.02341  -0.02049  -0.01255  -0.01104  -0.00233
 Alpha virt. eigenvalues --    0.00045   0.00167   0.00307   0.00338   0.00498

  Beta  occ. eigenvalues --  -38.44739 -38.44736 -38.44294 -38.44292 -38.43843
  Beta  occ. eigenvalues --  -38.43561 -38.42635  -2.20606  -2.20534  -2.20144
  Beta  occ. eigenvalues --   -2.20099  -2.19592  -2.19395  -2.18488  -1.14356
  Beta  occ. eigenvalues --   -1.14270  -1.14227  -1.14218  -1.14184  -1.14174
  Beta  occ. eigenvalues --   -1.13885  -1.13795  -1.13789  -1.13761  -1.13756
  Beta  occ. eigenvalues --   -1.13744  -1.13280  -1.13273  -1.13231  -1.13082
  Beta  occ. eigenvalues --   -1.13057  -1.13009  -1.12196  -1.12149  -1.12097
  Beta  occ. eigenvalues --   -0.17559  -0.13918  -0.10731
  Beta virt. eigenvalues --   -0.07247  -0.06500  -0.05110  -0.04683  -0.02875
  Beta virt. eigenvalues --   -0.02573  -0.01713  -0.01559  -0.01063  -0.00700
  Beta virt. eigenvalues --   -0.00115   0.00113   0.00362   0.00393   0.00444

 Mulliken charges and spin densities:
               1          2
     1  Na  -0.034638  -0.009816
     2  Na   0.996956   0.196020
     3  Na   0.300875   0.230279
     4  Na  -0.448505   0.059413
     5  Na  -1.091197   0.072366
     6  Na   0.178372   0.256105
     7  Na   0.098137   0.195633
 Sum of Mulliken charges =  -0.00000   1.00000

 Dipole moment (field-independent basis, Debye):
    X=             -0.6299    Y=             -0.1520    Z=              0.3233  Tot=              0.7242
 Quadrupole moment (field-independent basis, Debye-Ang):
   XX=            -51.4863   YY=            -78.2627   ZZ=            -66.2158
   XY=              2.8900   XZ=             -0.5791   YZ=             -1.5744

 Normal termination of Gaussian 16 at Thu Dec  7 11:19:07 2023.
