 Gaussian 16, Revision B.01,
 Gaussian 16:  ES64L-G16RevB.01 20-Dec-2017

 -------------------------
 #P B3LYP/6-311+g(d) force
 -------------------------

 -----
 DPGEN
 -----
 Symbolic Z-matrix:
 Charge =  0 Multiplicity = 2

                         Standard orientation:
 ---------------------------------------------------------------------
 Center     Atomic      Atomic             Coordinates (Angstroms)
 Number     Number       Type             X           Y           Z
 ---------------------------------------------------------------------
      1         11           0       -2.762320   -1.627880   -0.529658
      2         11           0        0.156885    0.316758   -1.628425
      3         11           0        0.847637   -2.762271    0.241445
      4         11           0        0.933277    2.821311    0.099753
      5         11           0        3.182959   -0.289188   -0.216327
      6         11           0       -2.200865    1.798442    0.242955
      7         11           0       -0.157571   -0.257171    1.790258
 ---------------------------------------------------------------------

 SCF Done:  E(UB3LYP) =  -1136.13773610     A.U. after   19 cycles

 The electronic state is 2-A.
 Alpha  occ. eigenvalues --  -38.43945 -38.43747 -38.43586 -38.43540 -38.43469
 Alpha  occ. eigenvalues --  -38.43198 -38.43111  -2.19771  -2.19559  -2.19453
 Alpha  occ. eigenvalues --   -2.19442  -2.19347  -2.19166  -2.19101  -1.13454
 Alpha  occ. eigenvalues --   -1.13428  -1.13414  -1.13229  -1.13219  -1.13204
 Alpha  occ. eigenvalues --   -1.13188  -1.13157  -1.13119  -1.13108  -1.13080
 Alpha  occ. eigenvalues --   -1.13063  -1.13051  -1.13001  -1.12959  -1.12848
 Alpha  occ. eigenvalues --   -1.12793  -1.12774  -1.12765  -1.12727  -1.12709
 Alpha  occ. eigenvalues --   -0.18859  -0.13022  -0.12654  -0.10569
 Alpha virt. eigenvalues --   -0.05474  -0.05104  -0.04933  -0.03060  -0.02946
 Alpha virt. eigenvalues --   -0.02217  -0.01518  -0.01211  -0.00377  -0.00259
 Alpha virt. eigenvalues --    0.00029   0.00348   0.00843   0.00873   0.00895

  Beta  occ. eigenvalues --  -38.43942 -38.43733 -38.43577 -38.43529 -38.43465
  Beta  occ. eigenvalues --  -38.43117 -38.43047  -2.19767  -2.19535  -2.19440
  Beta  occ. eigenvalues --   -2.19428  -2.19342  -2.19017  -2.18985  -1.13443
  Beta  occ. eigenvalues --   -1.13422  -1.13407  -1.13206  -1.13199  -1.13185
  Beta  occ. eigenvalues --   -1.13165  -1.13148  -1.13093  -1.13083  -1.13059
  Beta  occ. eigenvalues --   -1.13058  -1.13037  -1.12985  -1.12950  -1.12755
  Beta  occ. eigenvalues --   -1.12690  -1.12683  -1.12664  -1.12650  -1.12620
  Beta  occ. eigenvalues --   -0.18156  -0.12751  -0.12384
  Beta virt. eigenvalues --   -0.06721  -0.05412  -0.05081  -0.04878  -0.02296
  Beta virt. eigenvalues --   -0.02203  -0.01416  -0.01215  -0.01131  -0.00397
  Beta virt. eigenvalues --   -0.00306   0.00149   0.00381   0.00864   0.00896

 Mulliken charges and spin densities:
               1          2
     1  Na  -0.077483   0.022701
     2  Na  -0.306094   0.675622
     3  Na   0.130950  -0.050398
     4  Na   0.082463  -0.106535
     5  Na   0.003829  -0.108413
     6  Na   0.300266   0.029418
     7  Na  -0.133930   0.537605
 Sum of Mulliken charges =  -0.00000   1.00000

 Dipole moment (field-independent basis, Debye):
    X=              0.1486    Y=             -0.0467    Z=              0.0170  Tot=              0.1567
 Quadrupole moment (field-independent basis, Debye-Ang):
   XX=            -56.6943   YY=            -60.6179   ZZ=            -75.2116
   XY=              0.5859   XZ=              0.6610   YZ=              1.5265

 Normal termination of Gaussian 16 at Thu Dec  7 15:25:08 2023.
