 Gaussian 16, Revision B.01,
 Gaussian 16:  ES64L-G16RevB.01 20-Dec-2017

 -------------------------
 #P B3LYP/6-311+g(d) force
 -------------------------

 -----
 DPGEN
 -----
 Symbolic Z-matrix:
 Charge =  0 Multiplicity = 2

                         Standard orientation:
 ---------------------------------------------------------------------
 Center     Atomic      Atomic             Coordinates (Angstroms)
 Number     Number       Type             X           Y           Z
 ---------------------------------------------------------------------
      1         11           0       -0.626153    0.675034    2.283764
      2         11           0        2.299291   -0.577839    1.774905
      3         11           0        2.824095   -0.264696   -1.182346
      4         11           0        0.878958    2.318211   -0.959928
      5         11           0       -2.368676    2.155039   -0.683309
      6         11           0        0.525573   -2.376842   -1.094791
      7         11           0       -3.533090   -1.928907   -0.138295
 ---------------------------------------------------------------------

 SCF Done:  E(UB3LYP) =  -1136.11542235     A.U. after   23 cycles

 The electronic state is 2-A.
 Alpha  occ. eigenvalues --  -38.45101 -38.44872 -38.44243 -38.44230 -38.44106
 Alpha  occ. eigenvalues --  -38.44101 -38.43456  -2.20923  -2.20769  -2.20046
 Alpha  occ. eigenvalues --   -2.20032  -2.20026  -2.19813  -2.19307  -1.14639
 Alpha  occ. eigenvalues --   -1.14549  -1.14538  -1.14448  -1.14419  -1.14378
 Alpha  occ. eigenvalues --   -1.13794  -1.13722  -1.13708  -1.13694  -1.13690
 Alpha  occ. eigenvalues --   -1.13688  -1.13672  -1.13658  -1.13588  -1.13497
 Alpha  occ. eigenvalues --   -1.13472  -1.13458  -1.12983  -1.12955  -1.12943
 Alpha  occ. eigenvalues --   -0.17960  -0.13173  -0.12221  -0.11529
 Alpha virt. eigenvalues --   -0.06199  -0.05613  -0.04767  -0.03726  -0.03200
 Alpha virt. eigenvalues --   -0.02824  -0.01611  -0.01050  -0.00599  -0.00301
 Alpha virt. eigenvalues --   -0.00145   0.00185   0.00316   0.00435   0.00462

  Beta  occ. eigenvalues --  -38.45018 -38.44809 -38.44236 -38.44208 -38.44110
  Beta  occ. eigenvalues --  -38.44078 -38.43428  -2.20774  -2.20657  -2.20019
  Beta  occ. eigenvalues --   -2.19997  -2.19986  -2.19830  -2.19257  -1.14525
  Beta  occ. eigenvalues --   -1.14452  -1.14424  -1.14368  -1.14332  -1.14293
  Beta  occ. eigenvalues --   -1.13757  -1.13708  -1.13683  -1.13674  -1.13657
  Beta  occ. eigenvalues --   -1.13651  -1.13649  -1.13646  -1.13557  -1.13508
  Beta  occ. eigenvalues --   -1.13484  -1.13470  -1.12946  -1.12920  -1.12905
  Beta  occ. eigenvalues --   -0.17163  -0.13080  -0.11386
  Beta virt. eigenvalues --   -0.08009  -0.06073  -0.05372  -0.04228  -0.03409
  Beta virt. eigenvalues --   -0.02410  -0.02289  -0.01533  -0.00968  -0.00329
  Beta virt. eigenvalues --   -0.00181  -0.00093   0.00361   0.00417   0.00593

 Mulliken charges and spin densities:
               1          2
     1  Na  -0.349774   0.427271
     2  Na   0.455883   0.006894
     3  Na   0.266842   0.525565
     4  Na  -0.173525   0.063511
     5  Na   0.238787   0.029746
     6  Na  -0.463080   0.028979
     7  Na   0.024867  -0.081966
 Sum of Mulliken charges =  -0.00000   1.00000

 Dipole moment (field-independent basis, Debye):
    X=              0.4197    Y=              0.2793    Z=              0.3146  Tot=              0.5942
 Quadrupole moment (field-independent basis, Debye-Ang):
   XX=            -59.0748   YY=            -73.8428   ZZ=            -67.0130
   XY=             -3.0276   XZ=             -0.0478   YZ=             -0.8294

 Normal termination of Gaussian 16 at Wed Nov 29 02:58:18 2023.
