 Gaussian 16, Revision B.01,
 Gaussian 16:  ES64L-G16RevB.01 20-Dec-2017

 -------------------------
 #P B3LYP/6-311+g(d) force
 -------------------------

 -----
 DPGEN
 -----
 Symbolic Z-matrix:
 Charge =  0 Multiplicity = 2

                         Standard orientation:
 ---------------------------------------------------------------------
 Center     Atomic      Atomic             Coordinates (Angstroms)
 Number     Number       Type             X           Y           Z
 ---------------------------------------------------------------------
      1         11           0       -3.154296   -1.852276   -0.569706
      2         11           0        3.871118   -0.217490   -1.195001
      3         11           0       -2.547288    2.037160   -0.365001
      4         11           0        0.815184    2.125050    0.727662
      5         11           0        2.352688   -1.041147    1.330573
      6         11           0       -0.159695   -0.326521   -1.709423
      7         11           0       -1.177711   -0.724775    1.780896
 ---------------------------------------------------------------------

 SCF Done:  E(UB3LYP) =  -1136.12541652     A.U. after   24 cycles

 The electronic state is 2-A.
 Alpha  occ. eigenvalues --  -38.44948 -38.44668 -38.44178 -38.44077 -38.43910
 Alpha  occ. eigenvalues --  -38.43065 -38.42749  -2.20785  -2.20487  -2.20053
 Alpha  occ. eigenvalues --   -2.19891  -2.19812  -2.18893  -2.18600  -1.14487
 Alpha  occ. eigenvalues --   -1.14432  -1.14399  -1.14190  -1.14129  -1.14116
 Alpha  occ. eigenvalues --   -1.13721  -1.13701  -1.13692  -1.13577  -1.13542
 Alpha  occ. eigenvalues --   -1.13511  -1.13499  -1.13450  -1.13425  -1.12569
 Alpha  occ. eigenvalues --   -1.12548  -1.12539  -1.12294  -1.12277  -1.12212
 Alpha  occ. eigenvalues --   -0.18277  -0.13989  -0.11473  -0.10942
 Alpha virt. eigenvalues --   -0.06655  -0.05181  -0.04871  -0.03157  -0.02735
 Alpha virt. eigenvalues --   -0.02455  -0.02265  -0.01183  -0.00977  -0.00138
 Alpha virt. eigenvalues --    0.00125   0.00205   0.00318   0.00519   0.00638

  Beta  occ. eigenvalues --  -38.44906 -38.44642 -38.44148 -38.44064 -38.43840
  Beta  occ. eigenvalues --  -38.43067 -38.42741  -2.20709  -2.20436  -2.20003
  Beta  occ. eigenvalues --   -2.19868  -2.19684  -2.18898  -2.18589  -1.14431
  Beta  occ. eigenvalues --   -1.14375  -1.14341  -1.14161  -1.14093  -1.14077
  Beta  occ. eigenvalues --   -1.13683  -1.13670  -1.13627  -1.13553  -1.13527
  Beta  occ. eigenvalues --   -1.13497  -1.13414  -1.13354  -1.13330  -1.12568
  Beta  occ. eigenvalues --   -1.12551  -1.12537  -1.12289  -1.12243  -1.12209
  Beta  occ. eigenvalues --   -0.17525  -0.13788  -0.10807
  Beta virt. eigenvalues --   -0.07577  -0.06415  -0.04904  -0.04387  -0.02895
  Beta virt. eigenvalues --   -0.02324  -0.01981  -0.01787  -0.00953  -0.00668
  Beta virt. eigenvalues --   -0.00058   0.00165   0.00322   0.00427   0.00600

 Mulliken charges and spin densities:
               1          2
     1  Na   0.258353  -0.048472
     2  Na   0.282715   0.153855
     3  Na   0.006887   0.006744
     4  Na  -0.108360   0.065343
     5  Na   0.059119   0.087969
     6  Na  -0.488808   0.443907
     7  Na  -0.009906   0.290653
 Sum of Mulliken charges =  -0.00000   1.00000

 Dipole moment (field-independent basis, Debye):
    X=              0.3848    Y=              0.3806    Z=             -0.3869  Tot=              0.6653
 Quadrupole moment (field-independent basis, Debye-Ang):
   XX=            -52.4535   YY=            -76.6797   ZZ=            -67.2065
   XY=             -1.5886   XZ=             -0.6745   YZ=             -1.5231

 Normal termination of Gaussian 16 at Fri Dec  8 00:58:35 2023.
