 Gaussian 16, Revision B.01,
 Gaussian 16:  ES64L-G16RevB.01 20-Dec-2017

 -------------------------
 #P B3LYP/6-311+g(d) force
 -------------------------

 -----
 DPGEN
 -----
 Symbolic Z-matrix:
 Charge =  0 Multiplicity = 2

                         Standard orientation:
 ---------------------------------------------------------------------
 Center     Atomic      Atomic             Coordinates (Angstroms)
 Number     Number       Type             X           Y           Z
 ---------------------------------------------------------------------
      1         11           0       -2.166795    1.731051    0.211476
      2         11           0       -3.052735   -1.045863    0.153599
      3         11           0       -0.242131   -0.032852   -1.856802
      4         11           0        0.645770   -0.089513    1.908444
      5         11           0        3.091848   -0.425439   -0.163543
      6         11           0        1.278308    2.383659   -0.163810
      7         11           0        0.445735   -2.521044   -0.089364
 ---------------------------------------------------------------------

 SCF Done:  E(UB3LYP) =  -1136.13185050     A.U. after   19 cycles

 The electronic state is 2-A.
 Alpha  occ. eigenvalues --  -38.44447 -38.44314 -38.43668 -38.43526 -38.43495
 Alpha  occ. eigenvalues --  -38.42851 -38.42804  -2.20329  -2.20172  -2.19634
 Alpha  occ. eigenvalues --   -2.19475  -2.19441  -2.18772  -2.18712  -1.14018
 Alpha  occ. eigenvalues --   -1.13986  -1.13967  -1.13928  -1.13817  -1.13789
 Alpha  occ. eigenvalues --   -1.13315  -1.13272  -1.13252  -1.13171  -1.13154
 Alpha  occ. eigenvalues --   -1.13106  -1.13093  -1.13071  -1.13054  -1.12470
 Alpha  occ. eigenvalues --   -1.12447  -1.12396  -1.12377  -1.12371  -1.12341
 Alpha  occ. eigenvalues --   -0.19249  -0.13680  -0.12119  -0.11075
 Alpha virt. eigenvalues --   -0.06124  -0.04855  -0.04015  -0.03610  -0.02783
 Alpha virt. eigenvalues --   -0.02672  -0.01810  -0.00811  -0.00064  -0.00058
 Alpha virt. eigenvalues --    0.00028   0.00369   0.00825   0.00886   0.00947

  Beta  occ. eigenvalues --  -38.44442 -38.44312 -38.43589 -38.43520 -38.43411
  Beta  occ. eigenvalues --  -38.42841 -38.42796  -2.20324  -2.20172  -2.19488
  Beta  occ. eigenvalues --   -2.19432  -2.19322  -2.18757  -2.18701  -1.14009
  Beta  occ. eigenvalues --   -1.13969  -1.13957  -1.13930  -1.13799  -1.13791
  Beta  occ. eigenvalues --   -1.13220  -1.13168  -1.13148  -1.13123  -1.13083
  Beta  occ. eigenvalues --   -1.13060  -1.13055  -1.12999  -1.12964  -1.12463
  Beta  occ. eigenvalues --   -1.12396  -1.12393  -1.12367  -1.12340  -1.12333
  Beta  occ. eigenvalues --   -0.18489  -0.13449  -0.11842
  Beta virt. eigenvalues --   -0.07136  -0.06026  -0.04870  -0.04009  -0.02805
  Beta virt. eigenvalues --   -0.01971  -0.01718  -0.01599  -0.00769  -0.00099
  Beta virt. eigenvalues --   -0.00014   0.00094   0.00386   0.00890   0.00937

 Mulliken charges and spin densities:
               1          2
     1  Na   0.147548  -0.018202
     2  Na   0.038317  -0.074172
     3  Na  -0.481237   0.620504
     4  Na  -0.590144   0.684634
     5  Na   0.438159  -0.039026
     6  Na   0.195846  -0.048914
     7  Na   0.251511  -0.124824
 Sum of Mulliken charges =  -0.00000   1.00000

 Dipole moment (field-independent basis, Debye):
    X=              0.1174    Y=             -0.1805    Z=              0.0387  Tot=              0.2188
 Quadrupole moment (field-independent basis, Debye-Ang):
   XX=            -53.4943   YY=            -68.8128   ZZ=            -72.2474
   XY=              0.7466   XZ=             -1.7339   YZ=              0.0605

 Normal termination of Gaussian 16 at Tue Dec  5 20:39:08 2023.
