 Gaussian 16, Revision B.01,
 Gaussian 16:  ES64L-G16RevB.01 20-Dec-2017

 -------------------------
 #P B3LYP/6-311+g(d) force
 -------------------------

 -----
 DPGEN
 -----
 Symbolic Z-matrix:
 Charge =  0 Multiplicity = 2

                         Standard orientation:
 ---------------------------------------------------------------------
 Center     Atomic      Atomic             Coordinates (Angstroms)
 Number     Number       Type             X           Y           Z
 ---------------------------------------------------------------------
      1         11           0       -0.830022    2.503438   -0.638244
      2         11           0        2.619656    1.193554   -0.789268
      3         11           0        1.723773   -2.000517   -0.765324
      4         11           0        1.923097    0.550788    1.834101
      5         11           0       -1.318307   -1.107099   -1.577379
      6         11           0       -3.598391    0.231188    0.566208
      7         11           0       -0.519806   -1.371351    1.369906
 ---------------------------------------------------------------------

 SCF Done:  E(UB3LYP) =  -1136.12274899     A.U. after   20 cycles

 The electronic state is 2-A.
 Alpha  occ. eigenvalues --  -38.44784 -38.44216 -38.44021 -38.43786 -38.43703
 Alpha  occ. eigenvalues --  -38.43274 -38.43132  -2.20587  -2.20166  -2.19927
 Alpha  occ. eigenvalues --   -2.19711  -2.19480  -2.19257  -2.19060  -1.14262
 Alpha  occ. eigenvalues --   -1.14242  -1.14218  -1.14039  -1.13837  -1.13744
 Alpha  occ. eigenvalues --   -1.13562  -1.13529  -1.13515  -1.13445  -1.13365
 Alpha  occ. eigenvalues --   -1.13315  -1.13175  -1.13154  -1.13091  -1.12951
 Alpha  occ. eigenvalues --   -1.12914  -1.12879  -1.12731  -1.12695  -1.12684
 Alpha  occ. eigenvalues --   -0.18754  -0.13780  -0.11717  -0.11400
 Alpha virt. eigenvalues --   -0.06318  -0.04834  -0.04474  -0.03587  -0.02912
 Alpha virt. eigenvalues --   -0.02708  -0.01883  -0.00625  -0.00411  -0.00038
 Alpha virt. eigenvalues --    0.00131   0.00338   0.00404   0.00800   0.00854

  Beta  occ. eigenvalues --  -38.44780 -38.44158 -38.44010 -38.43749 -38.43692
  Beta  occ. eigenvalues --  -38.43226 -38.43108  -2.20579  -2.20063  -2.19907
  Beta  occ. eigenvalues --   -2.19644  -2.19462  -2.19171  -2.19020  -1.14251
  Beta  occ. eigenvalues --   -1.14237  -1.14214  -1.13981  -1.13760  -1.13676
  Beta  occ. eigenvalues --   -1.13538  -1.13515  -1.13476  -1.13404  -1.13306
  Beta  occ. eigenvalues --   -1.13262  -1.13154  -1.13139  -1.13081  -1.12901
  Beta  occ. eigenvalues --   -1.12832  -1.12819  -1.12695  -1.12664  -1.12639
  Beta  occ. eigenvalues --   -0.18025  -0.13634  -0.11501
  Beta virt. eigenvalues --   -0.07449  -0.06078  -0.04804  -0.03826  -0.03448
  Beta virt. eigenvalues --   -0.02300  -0.01804  -0.01704  -0.00589  -0.00083
  Beta virt. eigenvalues --    0.00005   0.00175   0.00390   0.00585   0.00851

 Mulliken charges and spin densities:
               1          2
     1  Na  -0.418295   0.064136
     2  Na  -0.001719   0.268754
     3  Na   0.241026   0.201349
     4  Na   0.164873  -0.112073
     5  Na  -0.153440   0.252250
     6  Na   0.410784  -0.125678
     7  Na  -0.243229   0.451263
 Sum of Mulliken charges =  -0.00000   1.00000

 Dipole moment (field-independent basis, Debye):
    X=             -0.7949    Y=              0.0640    Z=             -0.0421  Tot=              0.7986
 Quadrupole moment (field-independent basis, Debye-Ang):
   XX=            -53.7444   YY=            -74.3244   ZZ=            -67.7199
   XY=             -1.0231   XZ=             -2.3877   YZ=              0.5936

 Normal termination of Gaussian 16 at Tue Dec  5 13:22:41 2023.
