 Gaussian 16, Revision B.01,
 Gaussian 16:  ES64L-G16RevB.01 20-Dec-2017

 -------------------------
 #P B3LYP/6-311+g(d) force
 -------------------------

 -----
 DPGEN
 -----
 Symbolic Z-matrix:
 Charge =  0 Multiplicity = 2

                         Standard orientation:
 ---------------------------------------------------------------------
 Center     Atomic      Atomic             Coordinates (Angstroms)
 Number     Number       Type             X           Y           Z
 ---------------------------------------------------------------------
      1         11           0       -1.469985    2.167290    0.621673
      2         11           0        2.565057   -0.035797   -0.837781
      3         11           0       -0.530319   -1.768214   -1.718224
      4         11           0        1.575895    2.872275   -0.787181
      5         11           0       -3.835895   -0.765097   -0.512976
      6         11           0        2.020913   -2.525289    1.055902
      7         11           0       -0.325667    0.054832    2.178587
 ---------------------------------------------------------------------

 SCF Done:  E(UB3LYP) =  -1136.12103776     A.U. after   20 cycles

 The electronic state is 2-A.
 Alpha  occ. eigenvalues --  -38.44835 -38.44594 -38.44378 -38.44036 -38.43871
 Alpha  occ. eigenvalues --  -38.43704 -38.43402  -2.20708  -2.20376  -2.20130
 Alpha  occ. eigenvalues --   -2.19872  -2.19739  -2.19597  -2.19242  -1.14459
 Alpha  occ. eigenvalues --   -1.14325  -1.14306  -1.14063  -1.14038  -1.13980
 Alpha  occ. eigenvalues --   -1.13807  -1.13786  -1.13763  -1.13567  -1.13525
 Alpha  occ. eigenvalues --   -1.13500  -1.13474  -1.13381  -1.13316  -1.13295
 Alpha  occ. eigenvalues --   -1.13263  -1.13233  -1.12907  -1.12893  -1.12861
 Alpha  occ. eigenvalues --   -0.17693  -0.13048  -0.12437  -0.11515
 Alpha virt. eigenvalues --   -0.06015  -0.05133  -0.04874  -0.03633  -0.03296
 Alpha virt. eigenvalues --   -0.02635  -0.01753  -0.01105  -0.00321  -0.00259
 Alpha virt. eigenvalues --   -0.00129   0.00287   0.00439   0.00547   0.00726

  Beta  occ. eigenvalues --  -38.44745 -38.44553 -38.44369 -38.44011 -38.43859
  Beta  occ. eigenvalues --  -38.43683 -38.43385  -2.20544  -2.20300  -2.20114
  Beta  occ. eigenvalues --   -2.19827  -2.19720  -2.19561  -2.19212  -1.14340
  Beta  occ. eigenvalues --   -1.14209  -1.14198  -1.14009  -1.13987  -1.13925
  Beta  occ. eigenvalues --   -1.13796  -1.13765  -1.13755  -1.13540  -1.13483
  Beta  occ. eigenvalues --   -1.13466  -1.13439  -1.13361  -1.13316  -1.13266
  Beta  occ. eigenvalues --   -1.13233  -1.13201  -1.12883  -1.12870  -1.12839
  Beta  occ. eigenvalues --   -0.17033  -0.12837  -0.12013
  Beta virt. eigenvalues --   -0.07896  -0.05723  -0.04882  -0.04520  -0.03123
  Beta virt. eigenvalues --   -0.02793  -0.02034  -0.01536  -0.00989  -0.00292
  Beta virt. eigenvalues --   -0.00108   0.00014   0.00377   0.00575   0.00724

 Mulliken charges and spin densities:
               1          2
     1  Na   0.193950   0.337619
     2  Na  -0.130608   0.398751
     3  Na  -0.299594   0.143324
     4  Na  -0.081769  -0.157640
     5  Na   0.042138  -0.006412
     6  Na   0.537507   0.078484
     7  Na  -0.261624   0.205875
 Sum of Mulliken charges =  -0.00000   1.00000

 Dipole moment (field-independent basis, Debye):
    X=             -0.3533    Y=             -0.5830    Z=              0.1331  Tot=              0.6946
 Quadrupole moment (field-independent basis, Debye-Ang):
   XX=            -61.5594   YY=            -66.3538   ZZ=            -69.6735
   XY=             -2.7239   XZ=              0.4576   YZ=             -2.1434

 Normal termination of Gaussian 16 at Sun Dec  3 15:32:06 2023.
