 Gaussian 16, Revision B.01,
 Gaussian 16:  ES64L-G16RevB.01 20-Dec-2017

 -------------------------
 #P B3LYP/6-311+g(d) force
 -------------------------

 -----
 DPGEN
 -----
 Symbolic Z-matrix:
 Charge =  0 Multiplicity = 2

                         Standard orientation:
 ---------------------------------------------------------------------
 Center     Atomic      Atomic             Coordinates (Angstroms)
 Number     Number       Type             X           Y           Z
 ---------------------------------------------------------------------
      1         11           0       -0.509390   -0.843960   -1.634386
      2         11           0       -1.430162   -0.868817    1.984217
      3         11           0       -2.070011    2.310357    0.201866
      4         11           0        2.344319   -1.725675    0.583588
      5         11           0        1.485792    1.809384    0.176785
      6         11           0       -4.081105   -0.883498   -0.765128
      7         11           0        4.260558    0.202209   -0.546942
 ---------------------------------------------------------------------

 SCF Done:  E(UB3LYP) =  -1136.11329980     A.U. after   27 cycles

 The electronic state is 2-A.
 Alpha  occ. eigenvalues --  -38.46140 -38.44886 -38.44796 -38.44303 -38.43978
 Alpha  occ. eigenvalues --  -38.43138 -38.42853  -2.21910  -2.20762  -2.20603
 Alpha  occ. eigenvalues --   -2.20102  -2.19850  -2.18943  -2.18700  -1.15597
 Alpha  occ. eigenvalues --   -1.15571  -1.15541  -1.14473  -1.14395  -1.14388
 Alpha  occ. eigenvalues --   -1.14263  -1.14241  -1.14235  -1.13765  -1.13749
 Alpha  occ. eigenvalues --   -1.13720  -1.13512  -1.13506  -1.13500  -1.12630
 Alpha  occ. eigenvalues --   -1.12604  -1.12576  -1.12411  -1.12382  -1.12313
 Alpha  occ. eigenvalues --   -0.17847  -0.14606  -0.10821  -0.10700
 Alpha virt. eigenvalues --   -0.07646  -0.05572  -0.04686  -0.03387  -0.03034
 Alpha virt. eigenvalues --   -0.02232  -0.02097  -0.01517  -0.01329  -0.00468
 Alpha virt. eigenvalues --   -0.00357   0.00157   0.00215   0.00554   0.00636

  Beta  occ. eigenvalues --  -38.46137 -38.44852 -38.44729 -38.44246 -38.43961
  Beta  occ. eigenvalues --  -38.43134 -38.42854  -2.21907  -2.20698  -2.20483
  Beta  occ. eigenvalues --   -2.19997  -2.19824  -2.18937  -2.18703  -1.15582
  Beta  occ. eigenvalues --   -1.15570  -1.15535  -1.14434  -1.14351  -1.14343
  Beta  occ. eigenvalues --   -1.14175  -1.14152  -1.14148  -1.13689  -1.13674
  Beta  occ. eigenvalues --   -1.13654  -1.13499  -1.13492  -1.13448  -1.12622
  Beta  occ. eigenvalues --   -1.12601  -1.12564  -1.12417  -1.12373  -1.12307
  Beta  occ. eigenvalues --   -0.17313  -0.14166  -0.10556
  Beta virt. eigenvalues --   -0.07457  -0.07108  -0.05419  -0.04087  -0.03142
  Beta virt. eigenvalues --   -0.02879  -0.01734  -0.01675  -0.01336  -0.00784
  Beta virt. eigenvalues --   -0.00378  -0.00197   0.00195   0.00338   0.00626

 Mulliken charges and spin densities:
               1          2
     1  Na  -0.206759  -0.016799
     2  Na  -0.051709   0.288384
     3  Na  -0.234046   0.091546
     4  Na   0.078986   0.118445
     5  Na  -0.757128   0.005460
     6  Na   0.308008   0.357249
     7  Na   0.862647   0.155715
 Sum of Mulliken charges =  -0.00000   1.00000

 Dipole moment (field-independent basis, Debye):
    X=              0.3056    Y=             -0.5488    Z=              0.0414  Tot=              0.6295
 Quadrupole moment (field-independent basis, Debye-Ang):
   XX=            -52.0461   YY=            -80.8774   ZZ=            -66.3323
   XY=             -1.4565   XZ=             -4.7221   YZ=             -1.7653

 Normal termination of Gaussian 16 at Fri Dec  8 01:32:18 2023.
