 Gaussian 16, Revision B.01,
 Gaussian 16:  ES64L-G16RevB.01 20-Dec-2017

 -------------------------
 #P B3LYP/6-311+g(d) force
 -------------------------

 -----
 DPGEN
 -----
 Symbolic Z-matrix:
 Charge =  0 Multiplicity = 2

                         Standard orientation:
 ---------------------------------------------------------------------
 Center     Atomic      Atomic             Coordinates (Angstroms)
 Number     Number       Type             X           Y           Z
 ---------------------------------------------------------------------
      1         11           0       -3.186762   -0.784103   -0.461288
      2         11           0       -1.514681    2.759205   -0.152979
      3         11           0        0.019027   -0.059405   -1.611321
      4         11           0        2.853348   -1.052899   -0.494684
      5         11           0        0.072968   -2.849477    0.304834
      6         11           0       -0.468441   -0.176182    2.099920
      7         11           0        2.224542    2.162861    0.315517
 ---------------------------------------------------------------------

 SCF Done:  E(UB3LYP) =  -1136.13657199     A.U. after   20 cycles

 The electronic state is 2-A.
 Alpha  occ. eigenvalues --  -38.44290 -38.43892 -38.43731 -38.43720 -38.43532
 Alpha  occ. eigenvalues --  -38.43356 -38.43265  -2.20084  -2.19681  -2.19596
 Alpha  occ. eigenvalues --   -2.19540  -2.19403  -2.19230  -2.19229  -1.13766
 Alpha  occ. eigenvalues --   -1.13733  -1.13718  -1.13368  -1.13347  -1.13311
 Alpha  occ. eigenvalues --   -1.13273  -1.13226  -1.13219  -1.13214  -1.13208
 Alpha  occ. eigenvalues --   -1.13180  -1.13118  -1.13053  -1.13035  -1.12935
 Alpha  occ. eigenvalues --   -1.12905  -1.12893  -1.12850  -1.12846  -1.12838
 Alpha  occ. eigenvalues --   -0.18380  -0.12867  -0.12399  -0.10799
 Alpha virt. eigenvalues --   -0.05777  -0.05101  -0.04748  -0.03166  -0.02989
 Alpha virt. eigenvalues --   -0.02595  -0.01598  -0.01179  -0.00473  -0.00345
 Alpha virt. eigenvalues --   -0.00009   0.00346   0.00780   0.00815   0.00887

  Beta  occ. eigenvalues --  -38.44279 -38.43891 -38.43729 -38.43625 -38.43523
  Beta  occ. eigenvalues --  -38.43345 -38.43207  -2.20065  -2.19682  -2.19536
  Beta  occ. eigenvalues --   -2.19420  -2.19389  -2.19214  -2.19125  -1.13738
  Beta  occ. eigenvalues --   -1.13722  -1.13704  -1.13360  -1.13344  -1.13310
  Beta  occ. eigenvalues --   -1.13220  -1.13195  -1.13178  -1.13157  -1.13097
  Beta  occ. eigenvalues --   -1.13095  -1.13090  -1.13034  -1.13027  -1.12910
  Beta  occ. eigenvalues --   -1.12861  -1.12838  -1.12829  -1.12777  -1.12771
  Beta  occ. eigenvalues --   -0.17674  -0.12616  -0.12174
  Beta virt. eigenvalues --   -0.06912  -0.05762  -0.05042  -0.04654  -0.02465
  Beta virt. eigenvalues --   -0.02228  -0.01574  -0.01489  -0.01112  -0.00479
  Beta virt. eigenvalues --   -0.00376   0.00123   0.00386   0.00811   0.00865

 Mulliken charges and spin densities:
               1          2
     1  Na   0.047443  -0.058623
     2  Na  -0.072695  -0.068341
     3  Na  -0.011143   0.392638
     4  Na   0.208786   0.021215
     5  Na   0.241917   0.025918
     6  Na  -0.348580   0.677036
     7  Na  -0.065729   0.010159
 Sum of Mulliken charges =  -0.00000   1.00000

 Dipole moment (field-independent basis, Debye):
    X=             -0.3906    Y=              0.1001    Z=              0.0918  Tot=              0.4136
 Quadrupole moment (field-independent basis, Debye-Ang):
   XX=            -57.0666   YY=            -62.2657   ZZ=            -74.0793
   XY=              0.1501   XZ=              0.9738   YZ=              0.7053

 Normal termination of Gaussian 16 at Thu Dec  7 13:38:28 2023.
