 Gaussian 16, Revision B.01,
 Gaussian 16:  ES64L-G16RevB.01 20-Dec-2017

 -------------------------
 #P B3LYP/6-311+g(d) force
 -------------------------

 -----
 DPGEN
 -----
 Symbolic Z-matrix:
 Charge =  0 Multiplicity = 2

                         Standard orientation:
 ---------------------------------------------------------------------
 Center     Atomic      Atomic             Coordinates (Angstroms)
 Number     Number       Type             X           Y           Z
 ---------------------------------------------------------------------
      1         11           0       -1.217191    2.638968    0.144590
      2         11           0        2.432753   -1.640734    0.333302
      3         11           0        2.353390    1.936717   -0.200282
      4         11           0       -3.231405   -0.218476   -0.395438
      5         11           0       -0.139993    0.100755    1.938069
      6         11           0       -0.801128   -2.601480    0.050802
      7         11           0        0.603574   -0.215750   -1.871042
 ---------------------------------------------------------------------

 SCF Done:  E(UB3LYP) =  -1136.13878873     A.U. after   19 cycles

 The electronic state is 2-A.
 Alpha  occ. eigenvalues --  -38.43975 -38.43662 -38.43649 -38.43583 -38.43539
 Alpha  occ. eigenvalues --  -38.43456 -38.43131  -2.19783  -2.19551  -2.19526
 Alpha  occ. eigenvalues --   -2.19495  -2.19468  -2.19292  -2.19026  -1.13452
 Alpha  occ. eigenvalues --   -1.13441  -1.13431  -1.13299  -1.13239  -1.13227
 Alpha  occ. eigenvalues --   -1.13186  -1.13177  -1.13152  -1.13140  -1.13125
 Alpha  occ. eigenvalues --   -1.13124  -1.13116  -1.13107  -1.13083  -1.12967
 Alpha  occ. eigenvalues --   -1.12953  -1.12913  -1.12708  -1.12696  -1.12649
 Alpha  occ. eigenvalues --   -0.18767  -0.12970  -0.12539  -0.10962
 Alpha virt. eigenvalues --   -0.05477  -0.05214  -0.04565  -0.03306  -0.03033
 Alpha virt. eigenvalues --   -0.02665  -0.01399  -0.01054  -0.00312  -0.00145
 Alpha virt. eigenvalues --   -0.00029   0.00366   0.00836   0.00899   0.00923

  Beta  occ. eigenvalues --  -38.43970 -38.43652 -38.43643 -38.43510 -38.43453
  Beta  occ. eigenvalues --  -38.43452 -38.43124  -2.19774  -2.19537  -2.19488
  Beta  occ. eigenvalues --   -2.19392  -2.19311  -2.19288  -2.19017  -1.13442
  Beta  occ. eigenvalues --   -1.13432  -1.13422  -1.13269  -1.13206  -1.13186
  Beta  occ. eigenvalues --   -1.13172  -1.13133  -1.13120  -1.13092  -1.13050
  Beta  occ. eigenvalues --   -1.13044  -1.13032  -1.13020  -1.12978  -1.12942
  Beta  occ. eigenvalues --   -1.12925  -1.12915  -1.12704  -1.12663  -1.12638
  Beta  occ. eigenvalues --   -0.18022  -0.12742  -0.12278
  Beta virt. eigenvalues --   -0.07068  -0.05387  -0.05206  -0.04518  -0.02549
  Beta virt. eigenvalues --   -0.02237  -0.01639  -0.01306  -0.00983  -0.00341
  Beta virt. eigenvalues --   -0.00198   0.00108   0.00394   0.00892   0.00910

 Mulliken charges and spin densities:
               1          2
     1  Na   0.049998  -0.088133
     2  Na   0.395641  -0.045912
     3  Na   0.128741  -0.116001
     4  Na  -0.114744  -0.031920
     5  Na  -0.274621   0.607268
     6  Na   0.170253  -0.007186
     7  Na  -0.355267   0.681884
 Sum of Mulliken charges =  -0.00000   1.00000

 Dipole moment (field-independent basis, Debye):
    X=              0.0512    Y=              0.0858    Z=             -0.0260  Tot=              0.1033
 Quadrupole moment (field-independent basis, Debye-Ang):
   XX=            -57.5236   YY=            -64.1523   ZZ=            -72.7163
   XY=             -0.0752   XZ=              1.8564   YZ=             -0.6871

 Normal termination of Gaussian 16 at Tue Dec  5 19:39:01 2023.
