 Gaussian 16, Revision B.01,
 Gaussian 16:  ES64L-G16RevB.01 20-Dec-2017

 -------------------------
 #P B3LYP/6-311+g(d) force
 -------------------------

 -----
 DPGEN
 -----
 Symbolic Z-matrix:
 Charge =  0 Multiplicity = 2

                         Standard orientation:
 ---------------------------------------------------------------------
 Center     Atomic      Atomic             Coordinates (Angstroms)
 Number     Number       Type             X           Y           Z
 ---------------------------------------------------------------------
      1         11           0       -1.761108   -1.936060   -0.338663
      2         11           0       -5.030370   -2.168617   -0.062908
      3         11           0       -5.204258    1.702464    0.154198
      4         11           0        1.320527    0.227667    0.706792
      5         11           0       -2.143072    2.349742   -0.429490
      6         11           0        7.710585    0.065841   -0.695874
      7         11           0        5.107696   -0.241037    0.665945
 ---------------------------------------------------------------------

 SCF Done:  E(UB3LYP) =  -1136.10515304     A.U. after   26 cycles

 The electronic state is 2-A.
 Alpha  occ. eigenvalues --  -38.45878 -38.45512 -38.44967 -38.44965 -38.43864
 Alpha  occ. eigenvalues --  -38.43455 -38.43392  -2.21674  -2.21302  -2.20772
 Alpha  occ. eigenvalues --   -2.20765  -2.19670  -2.19273  -2.19144  -1.15350
 Alpha  occ. eigenvalues --   -1.15336  -1.15273  -1.14986  -1.14962  -1.14909
 Alpha  occ. eigenvalues --   -1.14451  -1.14433  -1.14430  -1.14422  -1.14386
 Alpha  occ. eigenvalues --   -1.14365  -1.13404  -1.13314  -1.13313  -1.12929
 Alpha  occ. eigenvalues --   -1.12928  -1.12900  -1.12827  -1.12820  -1.12769
 Alpha  occ. eigenvalues --   -0.16397  -0.13510  -0.13060  -0.11456
 Alpha virt. eigenvalues --   -0.06933  -0.05190  -0.04507  -0.03932  -0.03391
 Alpha virt. eigenvalues --   -0.02365  -0.02245  -0.01721  -0.01588  -0.00918
 Alpha virt. eigenvalues --   -0.00578  -0.00249  -0.00076   0.00137   0.00600

  Beta  occ. eigenvalues --  -38.45802 -38.45449 -38.44924 -38.44908 -38.43862
  Beta  occ. eigenvalues --  -38.43456 -38.43389  -2.21538  -2.21189  -2.20695
  Beta  occ. eigenvalues --   -2.20663  -2.19667  -2.19274  -2.19139  -1.15256
  Beta  occ. eigenvalues --   -1.15249  -1.15160  -1.14912  -1.14892  -1.14805
  Beta  occ. eigenvalues --   -1.14385  -1.14381  -1.14355  -1.14348  -1.14327
  Beta  occ. eigenvalues --   -1.14302  -1.13402  -1.13311  -1.13311  -1.12930
  Beta  occ. eigenvalues --   -1.12929  -1.12899  -1.12824  -1.12814  -1.12768
  Beta  occ. eigenvalues --   -0.15325  -0.13421  -0.11437
  Beta virt. eigenvalues --   -0.08814  -0.06815  -0.04624  -0.04104  -0.03441
  Beta virt. eigenvalues --   -0.03078  -0.02256  -0.02201  -0.01590  -0.01037
  Beta virt. eigenvalues --   -0.00609  -0.00455  -0.00089   0.00094   0.00195

 Mulliken charges and spin densities:
               1          2
     1  Na  -0.433775   0.482070
     2  Na   0.544138   0.056996
     3  Na   0.156759   0.135607
     4  Na   0.060234  -0.091453
     5  Na   0.079563   0.425251
     6  Na   0.578734   0.001852
     7  Na  -0.985653  -0.010324
 Sum of Mulliken charges =  -0.00000   1.00000

 Dipole moment (field-independent basis, Debye):
    X=             -2.5843    Y=              0.1746    Z=             -0.4539  Tot=              2.6297
 Quadrupole moment (field-independent basis, Debye-Ang):
   XX=            -58.8845   YY=            -64.5397   ZZ=            -72.1640
   XY=              1.5494   XZ=             -4.5614   YZ=             -0.3878

 Normal termination of Gaussian 16 at Sun Dec  3 23:40:53 2023.
