 Gaussian 16, Revision B.01,
 Gaussian 16:  ES64L-G16RevB.01 20-Dec-2017

 -------------------------
 #P B3LYP/6-311+g(d) force
 -------------------------

 -----
 DPGEN
 -----
 Symbolic Z-matrix:
 Charge =  0 Multiplicity = 2

                         Standard orientation:
 ---------------------------------------------------------------------
 Center     Atomic      Atomic             Coordinates (Angstroms)
 Number     Number       Type             X           Y           Z
 ---------------------------------------------------------------------
      1         11           0        0.414412    0.162995    2.145500
      2         11           0       -2.795235    1.138786    0.510362
      3         11           0        0.954955   -2.520587   -0.100944
      4         11           0       -2.271226   -2.034881   -0.406653
      5         11           0        3.326654   -0.232035   -0.095802
      6         11           0       -0.183922    0.351425   -1.580371
      7         11           0        0.554361    3.134297   -0.472091
 ---------------------------------------------------------------------

 SCF Done:  E(UB3LYP) =  -1136.13462766     A.U. after   19 cycles

 The electronic state is 2-A.
 Alpha  occ. eigenvalues --  -38.44366 -38.44151 -38.43938 -38.43674 -38.43293
 Alpha  occ. eigenvalues --  -38.43190 -38.43141  -2.20167  -2.19982  -2.19794
 Alpha  occ. eigenvalues --   -2.19492  -2.19163  -2.19122  -2.19087  -1.13843
 Alpha  occ. eigenvalues --   -1.13828  -1.13807  -1.13658  -1.13649  -1.13612
 Alpha  occ. eigenvalues --   -1.13461  -1.13426  -1.13405  -1.13224  -1.13134
 Alpha  occ. eigenvalues --   -1.13114  -1.12879  -1.12836  -1.12812  -1.12800
 Alpha  occ. eigenvalues --   -1.12778  -1.12751  -1.12735  -1.12728  -1.12698
 Alpha  occ. eigenvalues --   -0.18479  -0.12934  -0.12438  -0.10868
 Alpha virt. eigenvalues --   -0.05939  -0.04963  -0.04624  -0.03266  -0.02929
 Alpha virt. eigenvalues --   -0.02646  -0.01657  -0.01180  -0.00441  -0.00191
 Alpha virt. eigenvalues --   -0.00016   0.00344   0.00797   0.00826   0.00865

  Beta  occ. eigenvalues --  -38.44367 -38.44138 -38.43844 -38.43662 -38.43288
  Beta  occ. eigenvalues --  -38.43183 -38.43083  -2.20171  -2.19960  -2.19620
  Beta  occ. eigenvalues --   -2.19473  -2.19156  -2.19077  -2.19018  -1.13844
  Beta  occ. eigenvalues --   -1.13819  -1.13810  -1.13646  -1.13611  -1.13602
  Beta  occ. eigenvalues --   -1.13346  -1.13308  -1.13276  -1.13198  -1.13115
  Beta  occ. eigenvalues --   -1.13101  -1.12865  -1.12829  -1.12791  -1.12771
  Beta  occ. eigenvalues --   -1.12728  -1.12718  -1.12689  -1.12668  -1.12663
  Beta  occ. eigenvalues --   -0.17773  -0.12749  -0.12150
  Beta virt. eigenvalues --   -0.06980  -0.05859  -0.04889  -0.04587  -0.02532
  Beta virt. eigenvalues --   -0.02209  -0.01645  -0.01525  -0.01088  -0.00453
  Beta virt. eigenvalues --   -0.00207   0.00118   0.00376   0.00807   0.00865

 Mulliken charges and spin densities:
               1          2
     1  Na  -0.454897   0.604442
     2  Na   0.136691   0.131498
     3  Na   0.172982   0.070836
     4  Na   0.175067   0.007479
     5  Na   0.132426  -0.069763
     6  Na  -0.200392   0.319251
     7  Na   0.038122  -0.063743
 Sum of Mulliken charges =  -0.00000   1.00000

 Dipole moment (field-independent basis, Debye):
    X=              0.2676    Y=              0.3273    Z=              0.2640  Tot=              0.4984
 Quadrupole moment (field-independent basis, Debye-Ang):
   XX=            -56.1294   YY=            -63.7517   ZZ=            -73.8328
   XY=              0.4335   XZ=             -1.2814   YZ=              0.8968

 Normal termination of Gaussian 16 at Thu Dec  7 04:09:38 2023.
