 Gaussian 16, Revision B.01,
 Gaussian 16:  ES64L-G16RevB.01 20-Dec-2017

 -------------------------
 #P B3LYP/6-311+g(d) force
 -------------------------

 -----
 DPGEN
 -----
 Symbolic Z-matrix:
 Charge =  0 Multiplicity = 2

                         Standard orientation:
 ---------------------------------------------------------------------
 Center     Atomic      Atomic             Coordinates (Angstroms)
 Number     Number       Type             X           Y           Z
 ---------------------------------------------------------------------
      1         11           0       -2.489205    1.772577   -0.558585
      2         11           0       -3.680645   -0.803302    1.482859
      3         11           0       -2.204020   -2.582964   -1.012629
      4         11           0        1.452990   -3.349720   -0.145577
      5         11           0        4.287982   -0.942325    0.243988
      6         11           0       -0.225149    3.959641   -0.333950
      7         11           0        2.858048    1.946092    0.323894
 ---------------------------------------------------------------------

 SCF Done:  E(UB3LYP) =  -1136.11352499     A.U. after   21 cycles

 The electronic state is 2-A.
 Alpha  occ. eigenvalues --  -38.45147 -38.44841 -38.44825 -38.44374 -38.44365
 Alpha  occ. eigenvalues --  -38.43938 -38.43305  -2.20909  -2.20632  -2.20621
 Alpha  occ. eigenvalues --   -2.20184  -2.20138  -2.19738  -2.19127  -1.14604
 Alpha  occ. eigenvalues --   -1.14582  -1.14532  -1.14324  -1.14306  -1.14300
 Alpha  occ. eigenvalues --   -1.14291  -1.14264  -1.14250  -1.13838  -1.13830
 Alpha  occ. eigenvalues --   -1.13808  -1.13801  -1.13793  -1.13750  -1.13407
 Alpha  occ. eigenvalues --   -1.13401  -1.13372  -1.12799  -1.12776  -1.12760
 Alpha  occ. eigenvalues --   -0.15834  -0.13925  -0.13238  -0.10633
 Alpha virt. eigenvalues --   -0.07099  -0.05602  -0.04233  -0.03157  -0.03101
 Alpha virt. eigenvalues --   -0.02537  -0.02234  -0.01847  -0.01481  -0.01028
 Alpha virt. eigenvalues --   -0.00087   0.00007   0.00048   0.00550   0.00577

  Beta  occ. eigenvalues --  -38.45138 -38.44810 -38.44808 -38.44314 -38.44307
  Beta  occ. eigenvalues --  -38.43920 -38.43277  -2.20898  -2.20605  -2.20568
  Beta  occ. eigenvalues --   -2.20078  -2.20027  -2.19710  -2.19076  -1.14601
  Beta  occ. eigenvalues --   -1.14579  -1.14489  -1.14309  -1.14292  -1.14266
  Beta  occ. eigenvalues --   -1.14258  -1.14213  -1.14191  -1.13764  -1.13756
  Beta  occ. eigenvalues --   -1.13733  -1.13733  -1.13719  -1.13671  -1.13385
  Beta  occ. eigenvalues --   -1.13381  -1.13343  -1.12758  -1.12741  -1.12729
  Beta  occ. eigenvalues --   -0.15342  -0.13340  -0.12524
  Beta virt. eigenvalues --   -0.07373  -0.07170  -0.05192  -0.04017  -0.02865
  Beta virt. eigenvalues --   -0.02625  -0.02195  -0.02003  -0.01720  -0.01344
  Beta virt. eigenvalues --   -0.00783   0.00147   0.00193   0.00322   0.00541

 Mulliken charges and spin densities:
               1          2
     1  Na  -0.753625   0.076135
     2  Na   0.534856   0.302303
     3  Na   0.282130   0.017620
     4  Na  -0.422972   0.293843
     5  Na   0.283541  -0.101513
     6  Na   0.558759   0.163791
     7  Na  -0.482690   0.247821
 Sum of Mulliken charges =  -0.00000   1.00000

 Dipole moment (field-independent basis, Debye):
    X=             -0.7403    Y=             -0.3359    Z=              0.2539  Tot=              0.8517
 Quadrupole moment (field-independent basis, Debye-Ang):
   XX=            -63.8518   YY=            -68.1776   ZZ=            -68.7323
   XY=              1.1714   XZ=              0.4500   YZ=              0.4941

 Normal termination of Gaussian 16 at Sun Dec  3 16:03:16 2023.
