 Gaussian 16, Revision B.01,
 Gaussian 16:  ES64L-G16RevB.01 20-Dec-2017

 -------------------------
 #P B3LYP/6-311+g(d) force
 -------------------------

 -----
 DPGEN
 -----
 Symbolic Z-matrix:
 Charge =  0 Multiplicity = 2

                         Standard orientation:
 ---------------------------------------------------------------------
 Center     Atomic      Atomic             Coordinates (Angstroms)
 Number     Number       Type             X           Y           Z
 ---------------------------------------------------------------------
      1         11           0        2.318574   -3.073593   -0.005407
      2         11           0       -3.880729    1.418401   -0.328519
      3         11           0       -0.884728   -1.665589    0.696838
      4         11           0       -3.833349   -2.201548   -0.339625
      5         11           0        4.551577   -0.265200   -0.227868
      6         11           0        2.535025    2.571340   -0.223146
      7         11           0       -0.806371    3.216189    0.427727
 ---------------------------------------------------------------------

 SCF Done:  E(UB3LYP) =  -1136.11200517     A.U. after   25 cycles

 The electronic state is 2-A.
 Alpha  occ. eigenvalues --  -38.46070 -38.44982 -38.44522 -38.44384 -38.44047
 Alpha  occ. eigenvalues --  -38.43949 -38.43343  -2.21824  -2.20779  -2.20306
 Alpha  occ. eigenvalues --   -2.20160  -2.19882  -2.19736  -2.19133  -1.15514
 Alpha  occ. eigenvalues --   -1.15482  -1.15445  -1.14478  -1.14460  -1.14392
 Alpha  occ. eigenvalues --   -1.13978  -1.13969  -1.13937  -1.13845  -1.13835
 Alpha  occ. eigenvalues --   -1.13782  -1.13549  -1.13526  -1.13498  -1.13402
 Alpha  occ. eigenvalues --   -1.13388  -1.13370  -1.12803  -1.12797  -1.12768
 Alpha  occ. eigenvalues --   -0.16036  -0.14058  -0.12908  -0.10550
 Alpha virt. eigenvalues --   -0.07680  -0.05015  -0.04283  -0.03693  -0.03375
 Alpha virt. eigenvalues --   -0.02516  -0.02216  -0.01715  -0.01176  -0.00723
 Alpha virt. eigenvalues --   -0.00259  -0.00029   0.00216   0.00414   0.00609

  Beta  occ. eigenvalues --  -38.46044 -38.44956 -38.44488 -38.44372 -38.43997
  Beta  occ. eigenvalues --  -38.43915 -38.43321  -2.21780  -2.20735  -2.20246
  Beta  occ. eigenvalues --   -2.20141  -2.19788  -2.19674  -2.19091  -1.15489
  Beta  occ. eigenvalues --   -1.15455  -1.15380  -1.14448  -1.14431  -1.14338
  Beta  occ. eigenvalues --   -1.13939  -1.13926  -1.13886  -1.13835  -1.13825
  Beta  occ. eigenvalues --   -1.13750  -1.13486  -1.13462  -1.13433  -1.13361
  Beta  occ. eigenvalues --   -1.13344  -1.13324  -1.12774  -1.12771  -1.12739
  Beta  occ. eigenvalues --   -0.15501  -0.13433  -0.12407
  Beta virt. eigenvalues --   -0.07782  -0.07208  -0.04659  -0.03905  -0.03422
  Beta virt. eigenvalues --   -0.02833  -0.02317  -0.02046  -0.01561  -0.00949
  Beta virt. eigenvalues --   -0.00493  -0.00074   0.00209   0.00383   0.00450

 Mulliken charges and spin densities:
               1          2
     1  Na   0.516827   0.073430
     2  Na   0.283549   0.167845
     3  Na  -1.139503   0.182313
     4  Na   0.554281   0.241971
     5  Na  -0.375519   0.135427
     6  Na   0.236387   0.114721
     7  Na  -0.076022   0.084293
 Sum of Mulliken charges =  -0.00000   1.00000

 Dipole moment (field-independent basis, Debye):
    X=             -1.1353    Y=             -0.4171    Z=             -0.2962  Tot=              1.2453
 Quadrupole moment (field-independent basis, Debye-Ang):
   XX=            -55.3694   YY=            -68.9128   ZZ=            -73.0064
   XY=             -5.2351   XZ=              1.3308   YZ=              0.6011

 Normal termination of Gaussian 16 at Sun Dec  3 12:30:26 2023.
