 Gaussian 16, Revision B.01,
 Gaussian 16:  ES64L-G16RevB.01 20-Dec-2017

 -------------------------
 #P B3LYP/6-311+g(d) force
 -------------------------

 -----
 DPGEN
 -----
 Symbolic Z-matrix:
 Charge =  0 Multiplicity = 2

                         Standard orientation:
 ---------------------------------------------------------------------
 Center     Atomic      Atomic             Coordinates (Angstroms)
 Number     Number       Type             X           Y           Z
 ---------------------------------------------------------------------
      1         11           0        1.612895    1.956026   -0.218777
      2         11           0       -1.768090    2.625468   -0.801164
      3         11           0        3.074673   -1.328757   -1.430045
      4         11           0       -4.000542   -1.610291   -0.243129
      5         11           0       -1.212012    0.033156    1.744795
      6         11           0        2.523018   -0.441143    1.704849
      7         11           0       -0.229942   -1.234458   -0.756529
 ---------------------------------------------------------------------

 SCF Done:  E(UB3LYP) =  -1136.12258598     A.U. after   23 cycles

 The electronic state is 2-A.
 Alpha  occ. eigenvalues --  -38.44606 -38.44216 -38.44202 -38.44158 -38.43882
 Alpha  occ. eigenvalues --  -38.43490 -38.43388  -2.20346  -2.20111  -2.20090
 Alpha  occ. eigenvalues --   -2.20050  -2.19740  -2.19356  -2.19183  -1.14027
 Alpha  occ. eigenvalues --   -1.14019  -1.13981  -1.13965  -1.13798  -1.13761
 Alpha  occ. eigenvalues --   -1.13737  -1.13724  -1.13716  -1.13684  -1.13666
 Alpha  occ. eigenvalues --   -1.13622  -1.13398  -1.13382  -1.13361  -1.13050
 Alpha  occ. eigenvalues --   -1.13036  -1.12966  -1.12856  -1.12829  -1.12811
 Alpha  occ. eigenvalues --   -0.18309  -0.13598  -0.11375  -0.11011
 Alpha virt. eigenvalues --   -0.06680  -0.05436  -0.04561  -0.03216  -0.02560
 Alpha virt. eigenvalues --   -0.02517  -0.02099  -0.01303  -0.00894  -0.00229
 Alpha virt. eigenvalues --    0.00099   0.00161   0.00248   0.00567   0.00647

  Beta  occ. eigenvalues --  -38.44617 -38.44163 -38.44155 -38.44134 -38.43840
  Beta  occ. eigenvalues --  -38.43478 -38.43370  -2.20367  -2.20021  -2.20013
  Beta  occ. eigenvalues --   -2.19997  -2.19662  -2.19337  -2.19149  -1.14039
  Beta  occ. eigenvalues --   -1.14033  -1.13982  -1.13923  -1.13736  -1.13695
  Beta  occ. eigenvalues --   -1.13679  -1.13661  -1.13649  -1.13634  -1.13618
  Beta  occ. eigenvalues --   -1.13570  -1.13336  -1.13326  -1.13315  -1.13028
  Beta  occ. eigenvalues --   -1.13003  -1.12960  -1.12829  -1.12805  -1.12791
  Beta  occ. eigenvalues --   -0.17564  -0.13497  -0.11118
  Beta virt. eigenvalues --   -0.07143  -0.06497  -0.05267  -0.04008  -0.02983
  Beta virt. eigenvalues --   -0.02466  -0.01984  -0.01441  -0.01122  -0.00465
  Beta virt. eigenvalues --   -0.00202   0.00168   0.00301   0.00332   0.00635

 Mulliken charges and spin densities:
               1          2
     1  Na  -0.334744   0.231772
     2  Na  -0.091796   0.022593
     3  Na   1.281321  -0.085893
     4  Na   0.516783   0.003412
     5  Na   0.222424   0.214617
     6  Na   0.500557   0.202166
     7  Na  -2.094544   0.411334
 Sum of Mulliken charges =  -0.00000   1.00000

 Dipole moment (field-independent basis, Debye):
    X=             -0.2371    Y=             -0.1507    Z=              0.0520  Tot=              0.2857
 Quadrupole moment (field-independent basis, Debye-Ang):
   XX=            -49.0528   YY=            -75.0258   ZZ=            -69.1287
   XY=             -0.6736   XZ=              1.5098   YZ=              0.3365

 Normal termination of Gaussian 16 at Tue Dec  5 13:06:23 2023.
