 Gaussian 16, Revision B.01,
 Gaussian 16:  ES64L-G16RevB.01 20-Dec-2017

 -------------------------
 #P B3LYP/6-311+g(d) force
 -------------------------

 -----
 DPGEN
 -----
 Symbolic Z-matrix:
 Charge =  0 Multiplicity = 2

                         Standard orientation:
 ---------------------------------------------------------------------
 Center     Atomic      Atomic             Coordinates (Angstroms)
 Number     Number       Type             X           Y           Z
 ---------------------------------------------------------------------
      1         11           0        2.680472    1.544593   -0.831645
      2         11           0        2.836892   -2.140026    0.431940
      3         11           0        0.763896    0.968141    1.726286
      4         11           0       -3.234644   -1.388119   -0.790153
      5         11           0       -1.914825   -0.082860    1.961456
      6         11           0       -1.442550    2.166648   -0.947553
      7         11           0        0.310759   -1.068378   -1.550331
 ---------------------------------------------------------------------

 SCF Done:  E(UB3LYP) =  -1136.12327762     A.U. after   23 cycles

 The electronic state is 2-A.
 Alpha  occ. eigenvalues --  -38.44734 -38.44449 -38.44116 -38.43982 -38.43825
 Alpha  occ. eigenvalues --  -38.43485 -38.43166  -2.20551  -2.20256  -2.20029
 Alpha  occ. eigenvalues --   -2.19774  -2.19630  -2.19338  -2.19109  -1.14242
 Alpha  occ. eigenvalues --   -1.14219  -1.14154  -1.13940  -1.13906  -1.13870
 Alpha  occ. eigenvalues --   -1.13797  -1.13642  -1.13634  -1.13442  -1.13434
 Alpha  occ. eigenvalues --   -1.13404  -1.13305  -1.13282  -1.13270  -1.13033
 Alpha  occ. eigenvalues --   -1.13016  -1.12947  -1.12825  -1.12744  -1.12697
 Alpha  occ. eigenvalues --   -0.18202  -0.13493  -0.11691  -0.11179
 Alpha virt. eigenvalues --   -0.06108  -0.05517  -0.04557  -0.03311  -0.02898
 Alpha virt. eigenvalues --   -0.02634  -0.01873  -0.01230  -0.00592  -0.00122
 Alpha virt. eigenvalues --    0.00231   0.00286   0.00324   0.00502   0.00720

  Beta  occ. eigenvalues --  -38.44718 -38.44409 -38.44053 -38.43966 -38.43822
  Beta  occ. eigenvalues --  -38.43465 -38.43122  -2.20522  -2.20183  -2.19915
  Beta  occ. eigenvalues --   -2.19743  -2.19626  -2.19303  -2.19034  -1.14222
  Beta  occ. eigenvalues --   -1.14194  -1.14130  -1.13884  -1.13853  -1.13818
  Beta  occ. eigenvalues --   -1.13706  -1.13566  -1.13554  -1.13421  -1.13410
  Beta  occ. eigenvalues --   -1.13385  -1.13293  -1.13281  -1.13265  -1.13012
  Beta  occ. eigenvalues --   -1.12973  -1.12923  -1.12761  -1.12680  -1.12641
  Beta  occ. eigenvalues --   -0.17468  -0.13322  -0.11002
  Beta virt. eigenvalues --   -0.07736  -0.05969  -0.05192  -0.04084  -0.02983
  Beta virt. eigenvalues --   -0.02392  -0.01932  -0.01778  -0.00959  -0.00284
  Beta virt. eigenvalues --   -0.00053   0.00278   0.00310   0.00393   0.00629

 Mulliken charges and spin densities:
               1          2
     1  Na   0.484136   0.174986
     2  Na  -0.014372  -0.076662
     3  Na   0.271634   0.257132
     4  Na   0.263700  -0.029041
     5  Na  -0.230141   0.112274
     6  Na  -0.279415   0.300995
     7  Na  -0.495542   0.260316
 Sum of Mulliken charges =  -0.00000   1.00000

 Dipole moment (field-independent basis, Debye):
    X=              0.2089    Y=              0.4634    Z=             -0.3394  Tot=              0.6112
 Quadrupole moment (field-independent basis, Debye-Ang):
   XX=            -54.3527   YY=            -71.3478   ZZ=            -69.3047
   XY=              0.7822   XZ=              0.8600   YZ=             -6.4351

 Normal termination of Gaussian 16 at Fri Dec  8 05:14:38 2023.
