 Gaussian 16, Revision B.01,
 Gaussian 16:  ES64L-G16RevB.01 20-Dec-2017

 -------------------------
 #P B3LYP/6-311+g(d) force
 -------------------------

 -----
 DPGEN
 -----
 Symbolic Z-matrix:
 Charge =  0 Multiplicity = 2

                         Standard orientation:
 ---------------------------------------------------------------------
 Center     Atomic      Atomic             Coordinates (Angstroms)
 Number     Number       Type             X           Y           Z
 ---------------------------------------------------------------------
      1         11           0       -1.014908   -0.410845   -1.657825
      2         11           0        1.230004   -2.652331   -0.949884
      3         11           0       -1.565743   -1.884806    1.341793
      4         11           0        0.172810    2.769671    0.693427
      5         11           0        2.360028    1.571219   -1.123158
      6         11           0        2.148130   -0.414470    1.782369
      7         11           0       -3.330320    1.021562   -0.086723
 ---------------------------------------------------------------------

 SCF Done:  E(UB3LYP) =  -1136.13116773     A.U. after   19 cycles

 The electronic state is 2-A.
 Alpha  occ. eigenvalues --  -38.44282 -38.44169 -38.43959 -38.43910 -38.43696
 Alpha  occ. eigenvalues --  -38.43474 -38.43406  -2.20098  -2.19980  -2.19801
 Alpha  occ. eigenvalues --   -2.19723  -2.19515  -2.19335  -2.19308  -1.13777
 Alpha  occ. eigenvalues --   -1.13765  -1.13709  -1.13654  -1.13637  -1.13597
 Alpha  occ. eigenvalues --   -1.13554  -1.13449  -1.13439  -1.13387  -1.13367
 Alpha  occ. eigenvalues --   -1.13322  -1.13240  -1.13165  -1.13149  -1.13056
 Alpha  occ. eigenvalues --   -1.12990  -1.12968  -1.12948  -1.12941  -1.12923
 Alpha  occ. eigenvalues --   -0.17855  -0.12999  -0.12306  -0.10947
 Alpha virt. eigenvalues --   -0.05610  -0.05237  -0.04657  -0.03788  -0.03280
 Alpha virt. eigenvalues --   -0.02652  -0.01242  -0.00958  -0.00586  -0.00094
 Alpha virt. eigenvalues --   -0.00054   0.00365   0.00422   0.00662   0.00804

  Beta  occ. eigenvalues --  -38.44250 -38.44119 -38.43945 -38.43906 -38.43696
  Beta  occ. eigenvalues --  -38.43454 -38.43353  -2.20037  -2.19887  -2.19776
  Beta  occ. eigenvalues --   -2.19718  -2.19516  -2.19276  -2.19240  -1.13739
  Beta  occ. eigenvalues --   -1.13712  -1.13666  -1.13584  -1.13576  -1.13545
  Beta  occ. eigenvalues --   -1.13528  -1.13424  -1.13415  -1.13376  -1.13357
  Beta  occ. eigenvalues --   -1.13317  -1.13230  -1.13160  -1.13150  -1.13010
  Beta  occ. eigenvalues --   -1.12935  -1.12926  -1.12908  -1.12895  -1.12861
  Beta  occ. eigenvalues --   -0.17177  -0.12839  -0.12113
  Beta virt. eigenvalues --   -0.07176  -0.05482  -0.05086  -0.04363  -0.03284
  Beta virt. eigenvalues --   -0.02686  -0.01779  -0.01172  -0.00907  -0.00296
  Beta virt. eigenvalues --   -0.00073   0.00083   0.00477   0.00520   0.00764

 Mulliken charges and spin densities:
               1          2
     1  Na  -0.191310   0.302193
     2  Na   0.354208  -0.028065
     3  Na  -0.199371   0.258274
     4  Na  -0.165064   0.033392
     5  Na   0.172372   0.067707
     6  Na  -0.244212   0.359181
     7  Na   0.273376   0.007319
 Sum of Mulliken charges =  -0.00000   1.00000

 Dipole moment (field-independent basis, Debye):
    X=              0.0310    Y=              0.0470    Z=              0.3532  Tot=              0.3576
 Quadrupole moment (field-independent basis, Debye-Ang):
   XX=            -60.9978   YY=            -66.3373   ZZ=            -68.7625
   XY=             -1.6465   XZ=             -2.9766   YZ=             -0.1299

 Normal termination of Gaussian 16 at Sun Dec  3 21:22:16 2023.
