 Gaussian 16, Revision B.01,
 Gaussian 16:  ES64L-G16RevB.01 20-Dec-2017

 -------------------------
 #P B3LYP/6-311+g(d) force
 -------------------------

 -----
 DPGEN
 -----
 Symbolic Z-matrix:
 Charge =  0 Multiplicity = 2

                         Standard orientation:
 ---------------------------------------------------------------------
 Center     Atomic      Atomic             Coordinates (Angstroms)
 Number     Number       Type             X           Y           Z
 ---------------------------------------------------------------------
      1         11           0       -1.141884    1.848783   -1.220110
      2         11           0        1.519295   -1.177160   -1.447566
      3         11           0       -1.914217   -1.810661   -0.980131
      4         11           0        1.853332    1.990377   -0.114487
      5         11           0        3.473840   -0.844966    1.167714
      6         11           0       -3.566980    0.096132    1.296450
      7         11           0       -0.223386   -0.102505    1.298130
 ---------------------------------------------------------------------

 SCF Done:  E(UB3LYP) =  -1136.12832013     A.U. after   22 cycles

 The electronic state is 2-A.
 Alpha  occ. eigenvalues --  -38.44612 -38.44102 -38.43999 -38.43821 -38.43685
 Alpha  occ. eigenvalues --  -38.42844 -38.42600  -2.20451  -2.20080  -2.19840
 Alpha  occ. eigenvalues --   -2.19729  -2.19561  -2.18766  -2.18491  -1.14124
 Alpha  occ. eigenvalues --   -1.14082  -1.14080  -1.13813  -1.13730  -1.13702
 Alpha  occ. eigenvalues --   -1.13516  -1.13490  -1.13485  -1.13418  -1.13368
 Alpha  occ. eigenvalues --   -1.13339  -1.13244  -1.13215  -1.13180  -1.12466
 Alpha  occ. eigenvalues --   -1.12446  -1.12385  -1.12172  -1.12145  -1.12110
 Alpha  occ. eigenvalues --   -0.18800  -0.14227  -0.11461  -0.10996
 Alpha virt. eigenvalues --   -0.06307  -0.05080  -0.04769  -0.03168  -0.02576
 Alpha virt. eigenvalues --   -0.02334  -0.02189  -0.01045  -0.00732  -0.00080
 Alpha virt. eigenvalues --    0.00166   0.00359   0.00525   0.00630   0.00732

  Beta  occ. eigenvalues --  -38.44567 -38.44078 -38.43976 -38.43775 -38.43651
  Beta  occ. eigenvalues --  -38.42839 -38.42586  -2.20366  -2.20038  -2.19796
  Beta  occ. eigenvalues --   -2.19647  -2.19503  -2.18760  -2.18467  -1.14058
  Beta  occ. eigenvalues --   -1.14031  -1.14024  -1.13759  -1.13707  -1.13670
  Beta  occ. eigenvalues --   -1.13487  -1.13460  -1.13448  -1.13363  -1.13311
  Beta  occ. eigenvalues --   -1.13265  -1.13207  -1.13174  -1.13112  -1.12465
  Beta  occ. eigenvalues --   -1.12429  -1.12377  -1.12158  -1.12108  -1.12097
  Beta  occ. eigenvalues --   -0.18097  -0.13900  -0.10865
  Beta virt. eigenvalues --   -0.07569  -0.06066  -0.04725  -0.04420  -0.02919
  Beta virt. eigenvalues --   -0.02219  -0.01919  -0.01512  -0.00741  -0.00554
  Beta virt. eigenvalues --    0.00053   0.00218   0.00458   0.00550   0.00772

 Mulliken charges and spin densities:
               1          2
     1  Na  -0.330764   0.159782
     2  Na  -0.250662   0.155406
     3  Na  -0.043977   0.174515
     4  Na   0.126982   0.076258
     5  Na   0.821251   0.107170
     6  Na   0.989288   0.163593
     7  Na  -1.312118   0.163276
 Sum of Mulliken charges =  -0.00000   1.00000

 Dipole moment (field-independent basis, Debye):
    X=             -0.3867    Y=              0.0109    Z=              0.1740  Tot=              0.4242
 Quadrupole moment (field-independent basis, Debye-Ang):
   XX=            -50.6154   YY=            -77.1198   ZZ=            -66.3990
   XY=             -0.3365   XZ=              0.8843   YZ=              1.8991

 Normal termination of Gaussian 16 at Tue Dec  5 21:52:19 2023.
