 Gaussian 16, Revision B.01,
 Gaussian 16:  ES64L-G16RevB.01 20-Dec-2017

 -------------------------
 #P B3LYP/6-311+g(d) force
 -------------------------

 -----
 DPGEN
 -----
 Symbolic Z-matrix:
 Charge =  0 Multiplicity = 2

                         Standard orientation:
 ---------------------------------------------------------------------
 Center     Atomic      Atomic             Coordinates (Angstroms)
 Number     Number       Type             X           Y           Z
 ---------------------------------------------------------------------
      1         11           0       -5.437242    0.488360   -0.796087
      2         11           0        2.422555   -2.719909    0.735987
      3         11           0       -3.308120    0.021145    1.494443
      4         11           0       -0.666350   -2.270938   -1.120461
      5         11           0        0.016641    1.450296    0.191812
      6         11           0        4.330136   -0.137543   -0.344404
      7         11           0        2.642381    3.168588   -0.161289
 ---------------------------------------------------------------------

 SCF Done:  E(UB3LYP) =  -1136.11282072     A.U. after   22 cycles

 The electronic state is 2-A.
 Alpha  occ. eigenvalues --  -38.44864 -38.44772 -38.44674 -38.44656 -38.44135
 Alpha  occ. eigenvalues --  -38.43666 -38.43160  -2.20670  -2.20558  -2.20450
 Alpha  occ. eigenvalues --   -2.20432  -2.19948  -2.19446  -2.18969  -1.14361
 Alpha  occ. eigenvalues --   -1.14308  -1.14304  -1.14230  -1.14202  -1.14184
 Alpha  occ. eigenvalues --   -1.14120  -1.14110  -1.14100  -1.14082  -1.14055
 Alpha  occ. eigenvalues --   -1.14048  -1.13638  -1.13595  -1.13575  -1.13123
 Alpha  occ. eigenvalues --   -1.13120  -1.13080  -1.12646  -1.12629  -1.12607
 Alpha  occ. eigenvalues --   -0.16094  -0.14060  -0.11853  -0.11103
 Alpha virt. eigenvalues --   -0.06581  -0.05536  -0.04823  -0.03365  -0.03088
 Alpha virt. eigenvalues --   -0.02281  -0.02061  -0.01606  -0.00899  -0.00784
 Alpha virt. eigenvalues --   -0.00679  -0.00254   0.00281   0.00413   0.00535

  Beta  occ. eigenvalues --  -38.44790 -38.44782 -38.44640 -38.44584 -38.44089
  Beta  occ. eigenvalues --  -38.43662 -38.43163  -2.20582  -2.20533  -2.20368
  Beta  occ. eigenvalues --   -2.20316  -2.19863  -2.19442  -2.18976  -1.14309
  Beta  occ. eigenvalues --   -1.14254  -1.14219  -1.14211  -1.14199  -1.14141
  Beta  occ. eigenvalues --   -1.14065  -1.14034  -1.14028  -1.14012  -1.14011
  Beta  occ. eigenvalues --   -1.13959  -1.13581  -1.13542  -1.13513  -1.13124
  Beta  occ. eigenvalues --   -1.13113  -1.13061  -1.12644  -1.12636  -1.12609
  Beta  occ. eigenvalues --   -0.15479  -0.13313  -0.11714
  Beta virt. eigenvalues --   -0.07801  -0.06171  -0.05016  -0.04573  -0.03165
  Beta virt. eigenvalues --   -0.02808  -0.02052  -0.01796  -0.01262  -0.00778
  Beta virt. eigenvalues --   -0.00616  -0.00334  -0.00016   0.00374   0.00479

 Mulliken charges and spin densities:
               1          2
     1  Na   0.282119   0.319640
     2  Na  -0.010204   0.075648
     3  Na   0.456711  -0.010158
     4  Na   0.092535   0.081408
     5  Na  -1.236979   0.107930
     6  Na  -0.078121   0.370763
     7  Na   0.493939   0.054769
 Sum of Mulliken charges =  -0.00000   1.00000

 Dipole moment (field-independent basis, Debye):
    X=             -1.0604    Y=             -0.2859    Z=             -0.4091  Tot=              1.1720
 Quadrupole moment (field-independent basis, Debye-Ang):
   XX=            -62.7270   YY=            -72.6405   ZZ=            -64.1465
   XY=              2.8110   XZ=              3.4247   YZ=             -1.1924

 Normal termination of Gaussian 16 at Sun Dec  3 11:39:53 2023.
