 Gaussian 16, Revision B.01,
 Gaussian 16:  ES64L-G16RevB.01 20-Dec-2017

 -------------------------
 #P B3LYP/6-311+g(d) force
 -------------------------

 -----
 DPGEN
 -----
 Symbolic Z-matrix:
 Charge =  0 Multiplicity = 2

                         Standard orientation:
 ---------------------------------------------------------------------
 Center     Atomic      Atomic             Coordinates (Angstroms)
 Number     Number       Type             X           Y           Z
 ---------------------------------------------------------------------
      1         11           0       -3.443177   -1.102797   -1.164136
      2         11           0       -1.630119    1.997023   -0.897352
      3         11           0       -3.096604   -0.246671    1.942194
      4         11           0        2.854065    1.033129    0.761529
      5         11           0        3.675403   -2.443240   -0.347091
      6         11           0        0.163342   -2.739739   -0.061872
      7         11           0        1.477090    3.502294   -0.233272
 ---------------------------------------------------------------------

 SCF Done:  E(UB3LYP) =  -1136.11229003     A.U. after   24 cycles

 The electronic state is 2-A.
 Alpha  occ. eigenvalues --  -38.45277 -38.45162 -38.44498 -38.44332 -38.44277
 Alpha  occ. eigenvalues --  -38.43957 -38.43607  -2.21011  -2.20965  -2.20259
 Alpha  occ. eigenvalues --   -2.20148  -2.20076  -2.19796  -2.19440  -1.14702
 Alpha  occ. eigenvalues --   -1.14689  -1.14639  -1.14627  -1.14619  -1.14611
 Alpha  occ. eigenvalues --   -1.13933  -1.13922  -1.13899  -1.13846  -1.13813
 Alpha  occ. eigenvalues --   -1.13781  -1.13756  -1.13741  -1.13684  -1.13443
 Alpha  occ. eigenvalues --   -1.13437  -1.13410  -1.13121  -1.13089  -1.13077
 Alpha  occ. eigenvalues --   -0.16484  -0.14004  -0.12768  -0.09767
 Alpha virt. eigenvalues --   -0.06885  -0.06644  -0.04884  -0.03216  -0.02614
 Alpha virt. eigenvalues --   -0.02436  -0.02025  -0.01951  -0.01328  -0.01144
 Alpha virt. eigenvalues --   -0.00209  -0.00172   0.00258   0.00301   0.00459

  Beta  occ. eigenvalues --  -38.45262 -38.45159 -38.44505 -38.44307 -38.44225
  Beta  occ. eigenvalues --  -38.43864 -38.43609  -2.20983  -2.20965  -2.20273
  Beta  occ. eigenvalues --   -2.20100  -2.19980  -2.19623  -2.19448  -1.14675
  Beta  occ. eigenvalues --   -1.14671  -1.14633  -1.14624  -1.14597  -1.14594
  Beta  occ. eigenvalues --   -1.13944  -1.13927  -1.13906  -1.13818  -1.13781
  Beta  occ. eigenvalues --   -1.13746  -1.13683  -1.13673  -1.13623  -1.13324
  Beta  occ. eigenvalues --   -1.13317  -1.13293  -1.13119  -1.13097  -1.13068
  Beta  occ. eigenvalues --   -0.16000  -0.13661  -0.12556
  Beta virt. eigenvalues --   -0.06704  -0.06539  -0.06002  -0.04630  -0.03044
  Beta virt. eigenvalues --   -0.02268  -0.02223  -0.01885  -0.01469  -0.01115
  Beta virt. eigenvalues --   -0.00923   0.00076   0.00178   0.00408   0.00479

 Mulliken charges and spin densities:
               1          2
     1  Na   0.752097   0.330914
     2  Na  -0.602121   0.188980
     3  Na  -0.051517   0.431292
     4  Na  -0.760155   0.140607
     5  Na   0.388677  -0.060132
     6  Na  -0.381685   0.005807
     7  Na   0.654703  -0.037468
 Sum of Mulliken charges =  -0.00000   1.00000

 Dipole moment (field-independent basis, Debye):
    X=              0.1490    Y=             -0.8542    Z=             -0.6875  Tot=              1.1066
 Quadrupole moment (field-independent basis, Debye-Ang):
   XX=            -59.7206   YY=            -65.8332   ZZ=            -75.0852
   XY=             -0.2605   XZ=              4.4169   YZ=              3.0778

 Normal termination of Gaussian 16 at Sun Dec  3 21:23:43 2023.
