 Gaussian 16, Revision B.01,
 Gaussian 16:  ES64L-G16RevB.01 20-Dec-2017

 -------------------------
 #P B3LYP/6-311+g(d) force
 -------------------------

 -----
 DPGEN
 -----
 Symbolic Z-matrix:
 Charge =  0 Multiplicity = 2

                         Standard orientation:
 ---------------------------------------------------------------------
 Center     Atomic      Atomic             Coordinates (Angstroms)
 Number     Number       Type             X           Y           Z
 ---------------------------------------------------------------------
      1         11           0        2.141135   -2.662685   -1.099592
      2         11           0        1.737212    3.006212   -0.273401
      3         11           0       -0.832710    1.598735    1.371684
      4         11           0       -3.469419    1.063196   -1.232160
      5         11           0        0.102842   -1.522013    2.485751
      6         11           0        2.962158    0.310013   -0.690035
      7         11           0       -2.641218   -1.793459   -0.562248
 ---------------------------------------------------------------------

 SCF Done:  E(UB3LYP) =  -1136.11455052     A.U. after   21 cycles

 The electronic state is 2-A.
 Alpha  occ. eigenvalues --  -38.45054 -38.44869 -38.44575 -38.44261 -38.43815
 Alpha  occ. eigenvalues --  -38.43736 -38.43392  -2.20851  -2.20663  -2.20399
 Alpha  occ. eigenvalues --   -2.20087  -2.19687  -2.19530  -2.19238  -1.14515
 Alpha  occ. eigenvalues --   -1.14487  -1.14451  -1.14388  -1.14323  -1.14301
 Alpha  occ. eigenvalues --   -1.14046  -1.14030  -1.14023  -1.13772  -1.13754
 Alpha  occ. eigenvalues --   -1.13709  -1.13438  -1.13357  -1.13329  -1.13188
 Alpha  occ. eigenvalues --   -1.13178  -1.13151  -1.12903  -1.12876  -1.12873
 Alpha  occ. eigenvalues --   -0.16942  -0.13687  -0.12016  -0.11739
 Alpha virt. eigenvalues --   -0.06337  -0.05248  -0.04377  -0.03739  -0.03523
 Alpha virt. eigenvalues --   -0.02642  -0.01348  -0.01198  -0.00833  -0.00716
 Alpha virt. eigenvalues --   -0.00379   0.00110   0.00429   0.00523   0.00680

  Beta  occ. eigenvalues --  -38.44952 -38.44857 -38.44539 -38.44225 -38.43790
  Beta  occ. eigenvalues --  -38.43721 -38.43391  -2.20663  -2.20645  -2.20332
  Beta  occ. eigenvalues --   -2.20024  -2.19643  -2.19503  -2.19236  -1.14379
  Beta  occ. eigenvalues --   -1.14364  -1.14362  -1.14319  -1.14313  -1.14278
  Beta  occ. eigenvalues --   -1.13999  -1.13987  -1.13978  -1.13727  -1.13687
  Beta  occ. eigenvalues --   -1.13673  -1.13405  -1.13329  -1.13299  -1.13167
  Beta  occ. eigenvalues --   -1.13157  -1.13132  -1.12897  -1.12875  -1.12869
  Beta  occ. eigenvalues --   -0.16259  -0.13162  -0.11848
  Beta virt. eigenvalues --   -0.07978  -0.06198  -0.04868  -0.04003  -0.03495
  Beta virt. eigenvalues --   -0.03025  -0.01982  -0.01251  -0.00995  -0.00755
  Beta virt. eigenvalues --   -0.00653  -0.00094   0.00278   0.00493   0.00685

 Mulliken charges and spin densities:
               1          2
     1  Na   0.047198   0.049894
     2  Na   0.222738  -0.193499
     3  Na   0.308924   0.424091
     4  Na   0.128192   0.078855
     5  Na  -0.161055   0.332381
     6  Na  -0.340648   0.225609
     7  Na  -0.205351   0.082668
 Sum of Mulliken charges =  -0.00000   1.00000

 Dipole moment (field-independent basis, Debye):
    X=             -1.1163    Y=             -0.2347    Z=             -0.0388  Tot=              1.1414
 Quadrupole moment (field-independent basis, Debye-Ang):
   XX=            -67.5299   YY=            -64.0405   ZZ=            -68.2426
   XY=             -0.3833   XZ=              1.6031   YZ=             -1.8826

 Normal termination of Gaussian 16 at Mon Dec  4 00:06:54 2023.
