 Gaussian 16, Revision B.01,
 Gaussian 16:  ES64L-G16RevB.01 20-Dec-2017

 -------------------------
 #P B3LYP/6-311+g(d) force
 -------------------------

 -----
 DPGEN
 -----
 Symbolic Z-matrix:
 Charge =  0 Multiplicity = 2

                         Standard orientation:
 ---------------------------------------------------------------------
 Center     Atomic      Atomic             Coordinates (Angstroms)
 Number     Number       Type             X           Y           Z
 ---------------------------------------------------------------------
      1         11           0        1.990295    0.542832    2.077221
      2         11           0       -1.235172    2.124993   -1.288202
      3         11           0        2.512171   -1.668656   -0.873340
      4         11           0       -3.002879    0.598512    1.291501
      5         11           0       -1.290337   -1.452309   -1.878126
      6         11           0        1.963367    1.904051   -0.499058
      7         11           0       -0.937446   -2.049423    1.170004
 ---------------------------------------------------------------------

 SCF Done:  E(UB3LYP) =  -1136.12310893     A.U. after   21 cycles

 The electronic state is 2-A.
 Alpha  occ. eigenvalues --  -38.44746 -38.44618 -38.44515 -38.44362 -38.43489
 Alpha  occ. eigenvalues --  -38.43454 -38.43045  -2.20596  -2.20422  -2.20293
 Alpha  occ. eigenvalues --   -2.20200  -2.19345  -2.19339  -2.18880  -1.14322
 Alpha  occ. eigenvalues --   -1.14226  -1.14201  -1.14093  -1.14068  -1.14056
 Alpha  occ. eigenvalues --   -1.13980  -1.13943  -1.13921  -1.13890  -1.13859
 Alpha  occ. eigenvalues --   -1.13806  -1.13046  -1.13031  -1.13013  -1.12996
 Alpha  occ. eigenvalues --   -1.12964  -1.12955  -1.12555  -1.12534  -1.12516
 Alpha  occ. eigenvalues --   -0.17790  -0.13349  -0.11748  -0.11560
 Alpha virt. eigenvalues --   -0.05991  -0.04997  -0.04821  -0.03612  -0.03383
 Alpha virt. eigenvalues --   -0.03047  -0.01450  -0.00651  -0.00429  -0.00018
 Alpha virt. eigenvalues --    0.00123   0.00284   0.00389   0.00467   0.00619

  Beta  occ. eigenvalues --  -38.44700 -38.44584 -38.44501 -38.44315 -38.43470
  Beta  occ. eigenvalues --  -38.43450 -38.43024  -2.20509  -2.20360  -2.20268
  Beta  occ. eigenvalues --   -2.20115  -2.19335  -2.19312  -2.18843  -1.14265
  Beta  occ. eigenvalues --   -1.14162  -1.14143  -1.14043  -1.14026  -1.14013
  Beta  occ. eigenvalues --   -1.13956  -1.13928  -1.13899  -1.13837  -1.13792
  Beta  occ. eigenvalues --   -1.13743  -1.13029  -1.13011  -1.12984  -1.12978
  Beta  occ. eigenvalues --   -1.12956  -1.12931  -1.12525  -1.12502  -1.12494
  Beta  occ. eigenvalues --   -0.17105  -0.13111  -0.11530
  Beta virt. eigenvalues --   -0.07916  -0.05670  -0.04615  -0.04436  -0.03433
  Beta virt. eigenvalues --   -0.02840  -0.02224  -0.01328  -0.00510  -0.00205
  Beta virt. eigenvalues --    0.00135   0.00175   0.00368   0.00491   0.00641

 Mulliken charges and spin densities:
               1          2
     1  Na   0.010579   0.153650
     2  Na  -0.318867  -0.040643
     3  Na  -0.106645  -0.104540
     4  Na   0.190255   0.004615
     5  Na  -0.032288   0.439630
     6  Na   0.292738   0.225157
     7  Na  -0.035773   0.322131
 Sum of Mulliken charges =  -0.00000   1.00000

 Dipole moment (field-independent basis, Debye):
    X=              0.1380    Y=             -0.4225    Z=              0.3380  Tot=              0.5584
 Quadrupole moment (field-independent basis, Debye-Ang):
   XX=            -60.9688   YY=            -74.1762   ZZ=            -63.0054
   XY=             -1.8932   XZ=             -1.7624   YZ=              1.9666

 Normal termination of Gaussian 16 at Sun Dec  3 18:21:47 2023.
