 Gaussian 16, Revision B.01,
 Gaussian 16:  ES64L-G16RevB.01 20-Dec-2017

 -------------------------
 #P B3LYP/6-311+g(d) force
 -------------------------

 -----
 DPGEN
 -----
 Symbolic Z-matrix:
 Charge =  0 Multiplicity = 2

                         Standard orientation:
 ---------------------------------------------------------------------
 Center     Atomic      Atomic             Coordinates (Angstroms)
 Number     Number       Type             X           Y           Z
 ---------------------------------------------------------------------
      1         11           0        0.526791    3.061146   -0.292051
      2         11           0       -0.300248    0.102900   -1.556878
      3         11           0        3.703505    0.282224    0.255313
      4         11           0        1.388715   -2.725422   -0.417007
      5         11           0        0.135937   -0.115772    1.682143
      6         11           0       -2.579439   -1.913604    0.120865
      7         11           0       -2.875261    1.308529    0.207616
 ---------------------------------------------------------------------

 SCF Done:  E(UB3LYP) =  -1136.13102725     A.U. after   22 cycles

 The electronic state is 2-A.
 Alpha  occ. eigenvalues --  -38.45099 -38.44097 -38.43840 -38.43655 -38.43631
 Alpha  occ. eigenvalues --  -38.43364 -38.42812  -2.20839  -2.19959  -2.19688
 Alpha  occ. eigenvalues --   -2.19555  -2.19439  -2.19172  -2.18794  -1.14517
 Alpha  occ. eigenvalues --   -1.14489  -1.14472  -1.13654  -1.13624  -1.13594
 Alpha  occ. eigenvalues --   -1.13358  -1.13349  -1.13323  -1.13279  -1.13193
 Alpha  occ. eigenvalues --   -1.13156  -1.13120  -1.13103  -1.13061  -1.12865
 Alpha  occ. eigenvalues --   -1.12834  -1.12801  -1.12496  -1.12424  -1.12395
 Alpha  occ. eigenvalues --   -0.18318  -0.13125  -0.12164  -0.10046
 Alpha virt. eigenvalues --   -0.06490  -0.05224  -0.04795  -0.03020  -0.02524
 Alpha virt. eigenvalues --   -0.02222  -0.01904  -0.01320  -0.00729  -0.00612
 Alpha virt. eigenvalues --   -0.00032   0.00269   0.00661   0.00771   0.00803

  Beta  occ. eigenvalues --  -38.45091 -38.44088 -38.43834 -38.43617 -38.43598
  Beta  occ. eigenvalues --  -38.43357 -38.42739  -2.20823  -2.19945  -2.19680
  Beta  occ. eigenvalues --   -2.19451  -2.19417  -2.19162  -2.18663  -1.14495
  Beta  occ. eigenvalues --   -1.14481  -1.14462  -1.13648  -1.13602  -1.13571
  Beta  occ. eigenvalues --   -1.13353  -1.13337  -1.13300  -1.13203  -1.13131
  Beta  occ. eigenvalues --   -1.13094  -1.13083  -1.13070  -1.13042  -1.12849
  Beta  occ. eigenvalues --   -1.12820  -1.12793  -1.12403  -1.12337  -1.12292
  Beta  occ. eigenvalues --   -0.17658  -0.12863  -0.11884
  Beta virt. eigenvalues --   -0.06528  -0.06139  -0.05229  -0.04727  -0.02364
  Beta virt. eigenvalues --   -0.02057  -0.01849  -0.01248  -0.01013  -0.00738
  Beta virt. eigenvalues --   -0.00619   0.00125   0.00329   0.00710   0.00809

 Mulliken charges and spin densities:
               1          2
     1  Na  -0.092964  -0.087239
     2  Na   0.064000   0.492177
     3  Na  -0.082413  -0.004794
     4  Na  -0.049710  -0.031884
     5  Na  -0.230802   0.582148
     6  Na   0.172699   0.008746
     7  Na   0.219191   0.040846
 Sum of Mulliken charges =  -0.00000   1.00000

 Dipole moment (field-independent basis, Debye):
    X=              0.3369    Y=             -0.0077    Z=              0.0696  Tot=              0.3441
 Quadrupole moment (field-independent basis, Debye-Ang):
   XX=            -51.1193   YY=            -62.2164   ZZ=            -77.3861
   XY=              0.5774   XZ=             -0.7827   YZ=              0.5991

 Normal termination of Gaussian 16 at Thu Dec  7 10:06:36 2023.
