 Gaussian 16, Revision B.01,
 Gaussian 16:  ES64L-G16RevB.01 20-Dec-2017

 -------------------------
 #P B3LYP/6-311+g(d) force
 -------------------------

 -----
 DPGEN
 -----
 Symbolic Z-matrix:
 Charge =  0 Multiplicity = 2

                         Standard orientation:
 ---------------------------------------------------------------------
 Center     Atomic      Atomic             Coordinates (Angstroms)
 Number     Number       Type             X           Y           Z
 ---------------------------------------------------------------------
      1         11           0       -1.340426    0.354623   -1.519274
      2         11           0       -2.701470   -1.968394    0.378409
      3         11           0        0.489438   -0.536611    2.058734
      4         11           0        1.401263   -1.773234   -1.393951
      5         11           0       -3.173047    1.538035    0.405180
      6         11           0        1.139951    2.363901   -0.302342
      7         11           0        4.184291    0.021681    0.373245
 ---------------------------------------------------------------------

 SCF Done:  E(UB3LYP) =  -1136.11541729     A.U. after   26 cycles

 The electronic state is 2-A.
 Alpha  occ. eigenvalues --  -38.45855 -38.44988 -38.44649 -38.43742 -38.43739
 Alpha  occ. eigenvalues --  -38.43372 -38.43167  -2.21593  -2.20774  -2.20496
 Alpha  occ. eigenvalues --   -2.19561  -2.19551  -2.19157  -2.19153  -1.15270
 Alpha  occ. eigenvalues --   -1.15254  -1.15219  -1.14454  -1.14425  -1.14377
 Alpha  occ. eigenvalues --   -1.14244  -1.14133  -1.14095  -1.13247  -1.13243
 Alpha  occ. eigenvalues --   -1.13214  -1.13206  -1.13192  -1.13175  -1.12878
 Alpha  occ. eigenvalues --   -1.12851  -1.12838  -1.12808  -1.12768  -1.12733
 Alpha  occ. eigenvalues --   -0.17910  -0.13798  -0.10959  -0.10868
 Alpha virt. eigenvalues --   -0.07372  -0.05417  -0.04346  -0.03151  -0.02851
 Alpha virt. eigenvalues --   -0.02510  -0.02422  -0.01301  -0.00951  -0.00362
 Alpha virt. eigenvalues --    0.00047   0.00110   0.00264   0.00579   0.00655

  Beta  occ. eigenvalues --  -38.45853 -38.44924 -38.44632 -38.43743 -38.43682
  Beta  occ. eigenvalues --  -38.43377 -38.43119  -2.21590  -2.20654  -2.20463
  Beta  occ. eigenvalues --   -2.19562  -2.19453  -2.19168  -2.19067  -1.15260
  Beta  occ. eigenvalues --   -1.15254  -1.15218  -1.14373  -1.14341  -1.14287
  Beta  occ. eigenvalues --   -1.14220  -1.14105  -1.14075  -1.13251  -1.13209
  Beta  occ. eigenvalues --   -1.13194  -1.13167  -1.13122  -1.13101  -1.12879
  Beta  occ. eigenvalues --   -1.12840  -1.12781  -1.12755  -1.12753  -1.12684
  Beta  occ. eigenvalues --   -0.17214  -0.13646  -0.10713
  Beta virt. eigenvalues --   -0.07212  -0.06987  -0.05377  -0.03834  -0.02916
  Beta virt. eigenvalues --   -0.02670  -0.01908  -0.01647  -0.01164  -0.00689
  Beta virt. eigenvalues --   -0.00239   0.00070   0.00132   0.00425   0.00649

 Mulliken charges and spin densities:
               1          2
     1  Na   0.462554   0.074077
     2  Na  -0.086222   0.091005
     3  Na  -0.333994   0.512529
     4  Na  -0.209899   0.149615
     5  Na   0.235020   0.166430
     6  Na  -0.296618  -0.030804
     7  Na   0.229159   0.037146
 Sum of Mulliken charges =  -0.00000   1.00000

 Dipole moment (field-independent basis, Debye):
    X=              0.9990    Y=             -0.0992    Z=              0.6903  Tot=              1.2184
 Quadrupole moment (field-independent basis, Debye-Ang):
   XX=            -44.4131   YY=            -75.7118   ZZ=            -72.1813
   XY=             -0.5979   XZ=             -1.6159   YZ=              2.5873

 Normal termination of Gaussian 16 at Thu Dec  7 14:33:12 2023.
