 Gaussian 16, Revision B.01,
 Gaussian 16:  ES64L-G16RevB.01 20-Dec-2017

 -------------------------
 #P B3LYP/6-311+g(d) force
 -------------------------

 -----
 DPGEN
 -----
 Symbolic Z-matrix:
 Charge =  0 Multiplicity = 2

                         Standard orientation:
 ---------------------------------------------------------------------
 Center     Atomic      Atomic             Coordinates (Angstroms)
 Number     Number       Type             X           Y           Z
 ---------------------------------------------------------------------
      1         11           0        3.123707    0.482869    0.036462
      2         11           0        0.795584    2.807744   -0.161225
      3         11           0       -0.123731    0.070348   -1.830338
      4         11           0       -2.639678   -1.945144   -0.470668
      5         11           0       -0.256839   -0.396668    1.883775
      6         11           0       -2.708321    1.577374    0.431934
      7         11           0        1.809278   -2.596523    0.110060
 ---------------------------------------------------------------------

 SCF Done:  E(UB3LYP) =  -1136.13659987     A.U. after   20 cycles

 The electronic state is 2-A.
 Alpha  occ. eigenvalues --  -38.44180 -38.44135 -38.44069 -38.43617 -38.43592
 Alpha  occ. eigenvalues --  -38.43533 -38.42992  -2.19982  -2.19955  -2.19910
 Alpha  occ. eigenvalues --   -2.19499  -2.19437  -2.19408  -2.18845  -1.13657
 Alpha  occ. eigenvalues --   -1.13641  -1.13632  -1.13629  -1.13607  -1.13585
 Alpha  occ. eigenvalues --   -1.13579  -1.13574  -1.13558  -1.13182  -1.13139
 Alpha  occ. eigenvalues --   -1.13125  -1.13116  -1.13082  -1.13068  -1.13062
 Alpha  occ. eigenvalues --   -1.13056  -1.13047  -1.12526  -1.12511  -1.12479
 Alpha  occ. eigenvalues --   -0.18300  -0.13223  -0.12121  -0.10679
 Alpha virt. eigenvalues --   -0.05779  -0.05612  -0.04467  -0.03335  -0.02779
 Alpha virt. eigenvalues --   -0.02516  -0.01678  -0.01313  -0.00557  -0.00357
 Alpha virt. eigenvalues --   -0.00028   0.00345   0.00732   0.00798   0.00876

  Beta  occ. eigenvalues --  -38.44166 -38.44122 -38.44069 -38.43591 -38.43543
  Beta  occ. eigenvalues --  -38.43457 -38.42990  -2.19958  -2.19933  -2.19911
  Beta  occ. eigenvalues --   -2.19409  -2.19363  -2.19299  -2.18843  -1.13632
  Beta  occ. eigenvalues --   -1.13616  -1.13613  -1.13602  -1.13586  -1.13586
  Beta  occ. eigenvalues --   -1.13574  -1.13566  -1.13548  -1.13099  -1.13073
  Beta  occ. eigenvalues --   -1.13069  -1.13049  -1.13035  -1.13021  -1.13005
  Beta  occ. eigenvalues --   -1.12976  -1.12954  -1.12522  -1.12503  -1.12468
  Beta  occ. eigenvalues --   -0.17597  -0.12993  -0.11883
  Beta virt. eigenvalues --   -0.06838  -0.05727  -0.05524  -0.04433  -0.02594
  Beta virt. eigenvalues --   -0.02080  -0.01566  -0.01507  -0.01185  -0.00609
  Beta virt. eigenvalues --   -0.00385   0.00111   0.00380   0.00796   0.00818

 Mulliken charges and spin densities:
               1          2
     1  Na  -0.007666  -0.045629
     2  Na   0.065752  -0.043088
     3  Na  -0.126056   0.625120
     4  Na   0.020167  -0.054646
     5  Na  -0.197381   0.571397
     6  Na   0.134421   0.039349
     7  Na   0.110762  -0.092503
 Sum of Mulliken charges =  -0.00000   1.00000

 Dipole moment (field-independent basis, Debye):
    X=             -0.3124    Y=             -0.2247    Z=              0.0460  Tot=              0.3875
 Quadrupole moment (field-independent basis, Debye-Ang):
   XX=            -55.3070   YY=            -63.6808   ZZ=            -74.6985
   XY=              0.0543   XZ=              0.1146   YZ=              1.3836

 Normal termination of Gaussian 16 at Thu Dec  7 20:34:23 2023.
