 Gaussian 16, Revision B.01,
 Gaussian 16:  ES64L-G16RevB.01 20-Dec-2017

 -------------------------
 #P B3LYP/6-311+g(d) force
 -------------------------

 -----
 DPGEN
 -----
 Symbolic Z-matrix:
 Charge =  0 Multiplicity = 2

                         Standard orientation:
 ---------------------------------------------------------------------
 Center     Atomic      Atomic             Coordinates (Angstroms)
 Number     Number       Type             X           Y           Z
 ---------------------------------------------------------------------
      1         11           0       -2.315548    1.629301    0.620301
      2         11           0       -0.969707   -2.500287   -0.580401
      3         11           0        0.173045    3.136225   -1.194148
      4         11           0       -4.162865   -1.236280    0.394895
      5         11           0        1.431459   -0.667750   -1.503181
      6         11           0        4.232517   -1.069343    0.469451
      7         11           0        1.611099    0.708135    1.793083
 ---------------------------------------------------------------------

 SCF Done:  E(UB3LYP) =  -1136.12042756     A.U. after   21 cycles

 The electronic state is 2-A.
 Alpha  occ. eigenvalues --  -38.45431 -38.44579 -38.43885 -38.43864 -38.43857
 Alpha  occ. eigenvalues --  -38.43688 -38.43560  -2.21221  -2.20385  -2.19770
 Alpha  occ. eigenvalues --   -2.19679  -2.19661  -2.19488  -2.19349  -1.14911
 Alpha  occ. eigenvalues --   -1.14886  -1.14821  -1.14049  -1.14035  -1.14015
 Alpha  occ. eigenvalues --   -1.13517  -1.13411  -1.13388  -1.13362  -1.13343
 Alpha  occ. eigenvalues --   -1.13336  -1.13332  -1.13288  -1.13278  -1.13150
 Alpha  occ. eigenvalues --   -1.13139  -1.13113  -1.13017  -1.13007  -1.12974
 Alpha  occ. eigenvalues --   -0.17096  -0.13631  -0.12026  -0.10913
 Alpha virt. eigenvalues --   -0.06748  -0.05292  -0.04711  -0.03214  -0.02896
 Alpha virt. eigenvalues --   -0.02689  -0.02070  -0.01430  -0.00700  -0.00631
 Alpha virt. eigenvalues --   -0.00205   0.00026   0.00292   0.00458   0.00706

  Beta  occ. eigenvalues --  -38.45399 -38.44550 -38.43843 -38.43828 -38.43827
  Beta  occ. eigenvalues --  -38.43664 -38.43541  -2.21162  -2.20332  -2.19667
  Beta  occ. eigenvalues --   -2.19637  -2.19617  -2.19442  -2.19313  -1.14871
  Beta  occ. eigenvalues --   -1.14849  -1.14768  -1.14013  -1.13992  -1.13979
  Beta  occ. eigenvalues --   -1.13439  -1.13346  -1.13336  -1.13321  -1.13318
  Beta  occ. eigenvalues --   -1.13303  -1.13280  -1.13258  -1.13219  -1.13119
  Beta  occ. eigenvalues --   -1.13100  -1.13087  -1.12992  -1.12979  -1.12952
  Beta  occ. eigenvalues --   -0.16506  -0.13149  -0.11759
  Beta virt. eigenvalues --   -0.07406  -0.06436  -0.05067  -0.04360  -0.02882
  Beta virt. eigenvalues --   -0.02516  -0.02353  -0.01713  -0.01211  -0.00536
  Beta virt. eigenvalues --   -0.00409  -0.00003   0.00104   0.00473   0.00611

 Mulliken charges and spin densities:
               1          2
     1  Na  -0.358878   0.191758
     2  Na  -0.126183   0.055399
     3  Na   0.146486  -0.008595
     4  Na   0.135675   0.105607
     5  Na   0.118919   0.294027
     6  Na   0.119836   0.087937
     7  Na  -0.035856   0.273867
 Sum of Mulliken charges =  -0.00000   1.00000

 Dipole moment (field-independent basis, Debye):
    X=              1.1941    Y=             -0.0007    Z=              0.2262  Tot=              1.2153
 Quadrupole moment (field-independent basis, Debye-Ang):
   XX=            -58.9964   YY=            -70.3871   ZZ=            -68.2757
   XY=             -0.8818   XZ=             -2.3522   YZ=             -2.0117

 Normal termination of Gaussian 16 at Mon Dec  4 00:59:01 2023.
