 Gaussian 16, Revision B.01,
 Gaussian 16:  ES64L-G16RevB.01 20-Dec-2017

 -------------------------
 #P B3LYP/6-311+g(d) force
 -------------------------

 -----
 DPGEN
 -----
 Symbolic Z-matrix:
 Charge =  0 Multiplicity = 2

                         Standard orientation:
 ---------------------------------------------------------------------
 Center     Atomic      Atomic             Coordinates (Angstroms)
 Number     Number       Type             X           Y           Z
 ---------------------------------------------------------------------
      1         11           0        0.225001    0.362629    1.592674
      2         11           0        2.563629   -1.226473    0.823722
      3         11           0       -3.802891   -0.488467    0.249840
      4         11           0       -1.293754    0.300761   -0.719348
      5         11           0        0.162546   -2.197761   -0.610536
      6         11           0        0.409453    2.781218    0.023707
      7         11           0        1.736017    0.468093   -1.360058
 ---------------------------------------------------------------------

 SCF Done:  E(UB3LYP) =  -1136.09587122     A.U. after   22 cycles

 The electronic state is 2-A.
 Alpha  occ. eigenvalues --  -38.44938 -38.44142 -38.43902 -38.43613 -38.43601
 Alpha  occ. eigenvalues --  -38.43124 -38.42976  -2.20761  -2.20168  -2.20064
 Alpha  occ. eigenvalues --   -2.19731  -2.19632  -2.19355  -2.18968  -1.14531
 Alpha  occ. eigenvalues --   -1.14387  -1.14375  -1.14001  -1.13928  -1.13872
 Alpha  occ. eigenvalues --   -1.13809  -1.13684  -1.13598  -1.13501  -1.13403
 Alpha  occ. eigenvalues --   -1.13350  -1.13333  -1.13258  -1.13202  -1.13013
 Alpha  occ. eigenvalues --   -1.12967  -1.12917  -1.12642  -1.12602  -1.12568
 Alpha  occ. eigenvalues --   -0.20399  -0.13498  -0.12562  -0.11392
 Alpha virt. eigenvalues --   -0.06456  -0.04298  -0.03723  -0.03371  -0.02704
 Alpha virt. eigenvalues --   -0.02419  -0.01953  -0.00807  -0.00342   0.00208
 Alpha virt. eigenvalues --    0.00339   0.00482   0.00728   0.00871   0.00995

  Beta  occ. eigenvalues --  -38.44944 -38.44113 -38.43825 -38.43589 -38.43543
  Beta  occ. eigenvalues --  -38.43092 -38.42969  -2.20771  -2.20119  -2.19927
  Beta  occ. eigenvalues --   -2.19628  -2.19593  -2.19304  -2.18960  -1.14537
  Beta  occ. eigenvalues --   -1.14389  -1.14382  -1.13959  -1.13835  -1.13809
  Beta  occ. eigenvalues --   -1.13765  -1.13592  -1.13512  -1.13442  -1.13347
  Beta  occ. eigenvalues --   -1.13272  -1.13260  -1.13212  -1.13154  -1.12984
  Beta  occ. eigenvalues --   -1.12890  -1.12869  -1.12634  -1.12574  -1.12557
  Beta  occ. eigenvalues --   -0.19566  -0.13321  -0.12296
  Beta virt. eigenvalues --   -0.07123  -0.06338  -0.04295  -0.03689  -0.02711
  Beta virt. eigenvalues --   -0.02001  -0.01982  -0.01179  -0.00757  -0.00067
  Beta virt. eigenvalues --    0.00233   0.00337   0.00527   0.00859   0.00898

 Mulliken charges and spin densities:
               1          2
     1  Na  -0.204768   0.526825
     2  Na   0.511403   0.029927
     3  Na   0.206032  -0.178875
     4  Na  -0.514599   0.484619
     5  Na  -0.641847   0.071521
     6  Na  -0.073429  -0.107056
     7  Na   0.717208   0.173039
 Sum of Mulliken charges =  -0.00000   1.00000

 Dipole moment (field-independent basis, Debye):
    X=             -0.2554    Y=             -0.1536    Z=              0.1797  Tot=              0.3480
 Quadrupole moment (field-independent basis, Debye-Ang):
   XX=            -53.5120   YY=            -66.8817   ZZ=            -71.5771
   XY=              0.4532   XZ=             -1.6992   YZ=             -0.3739

 Normal termination of Gaussian 16 at Fri Dec  8 05:23:17 2023.
