 Gaussian 16, Revision B.01,
 Gaussian 16:  ES64L-G16RevB.01 20-Dec-2017

 -------------------------
 #P B3LYP/6-311+g(d) force
 -------------------------

 -----
 DPGEN
 -----
 Symbolic Z-matrix:
 Charge =  0 Multiplicity = 2

                         Standard orientation:
 ---------------------------------------------------------------------
 Center     Atomic      Atomic             Coordinates (Angstroms)
 Number     Number       Type             X           Y           Z
 ---------------------------------------------------------------------
      1         11           0        3.116336   -1.147728   -0.114244
      2         11           0       -2.830220   -2.040019   -0.978869
      3         11           0       -0.836777    3.261115   -0.151983
      4         11           0       -2.808536    1.073368    1.119054
      5         11           0        0.620440   -2.843192    1.061459
      6         11           0        2.736594    1.940726   -0.020192
      7         11           0        0.002163   -0.244270   -0.915225
 ---------------------------------------------------------------------

 SCF Done:  E(UB3LYP) =  -1136.12567851     A.U. after   20 cycles

 The electronic state is 2-A.
 Alpha  occ. eigenvalues --  -38.44389 -38.43933 -38.43805 -38.43779 -38.43726
 Alpha  occ. eigenvalues --  -38.43714 -38.43608  -2.20214  -2.19833  -2.19740
 Alpha  occ. eigenvalues --   -2.19625  -2.19582  -2.19537  -2.19437  -1.13889
 Alpha  occ. eigenvalues --   -1.13882  -1.13837  -1.13547  -1.13531  -1.13496
 Alpha  occ. eigenvalues --   -1.13462  -1.13398  -1.13368  -1.13277  -1.13260
 Alpha  occ. eigenvalues --   -1.13251  -1.13240  -1.13224  -1.13208  -1.13201
 Alpha  occ. eigenvalues --   -1.13190  -1.13170  -1.13096  -1.13073  -1.13053
 Alpha  occ. eigenvalues --   -0.17625  -0.13832  -0.13013  -0.09816
 Alpha virt. eigenvalues --   -0.06325  -0.05598  -0.04941  -0.03080  -0.02776
 Alpha virt. eigenvalues --   -0.02178  -0.01463  -0.01415  -0.01257  -0.00752
 Alpha virt. eigenvalues --    0.00038   0.00254   0.00548   0.00609   0.00716

  Beta  occ. eigenvalues --  -38.44358 -38.43922 -38.43801 -38.43748 -38.43702
  Beta  occ. eigenvalues --  -38.43671 -38.43546  -2.20161  -2.19819  -2.19731
  Beta  occ. eigenvalues --   -2.19567  -2.19519  -2.19483  -2.19322  -1.13853
  Beta  occ. eigenvalues --   -1.13848  -1.13780  -1.13537  -1.13516  -1.13457
  Beta  occ. eigenvalues --   -1.13441  -1.13402  -1.13357  -1.13237  -1.13219
  Beta  occ. eigenvalues --   -1.13216  -1.13199  -1.13186  -1.13176  -1.13162
  Beta  occ. eigenvalues --   -1.13138  -1.13107  -1.13014  -1.12997  -1.12981
  Beta  occ. eigenvalues --   -0.17298  -0.13214  -0.12452
  Beta virt. eigenvalues --   -0.06541  -0.06245  -0.05416  -0.04620  -0.02683
  Beta virt. eigenvalues --   -0.02316  -0.01895  -0.01293  -0.01164  -0.00969
  Beta virt. eigenvalues --   -0.00505   0.00264   0.00394   0.00635   0.00697

 Mulliken charges and spin densities:
               1          2
     1  Na   0.504572   0.122952
     2  Na   0.500993   0.186959
     3  Na   0.195518   0.074190
     4  Na  -0.075282   0.114245
     5  Na  -0.152964   0.173592
     6  Na   0.182118   0.161180
     7  Na  -1.154955   0.166882
 Sum of Mulliken charges =  -0.00000   1.00000

 Dipole moment (field-independent basis, Debye):
    X=             -0.0472    Y=              0.0439    Z=              0.4324  Tot=              0.4372
 Quadrupole moment (field-independent basis, Debye-Ang):
   XX=            -60.6515   YY=            -66.7369   ZZ=            -70.8500
   XY=              3.2164   XZ=             -2.0547   YZ=             -1.2481

 Normal termination of Gaussian 16 at Wed Nov 29 16:43:41 2023.
