 Gaussian 16, Revision B.01,
 Gaussian 16:  ES64L-G16RevB.01 20-Dec-2017

 -------------------------
 #P B3LYP/6-311+g(d) force
 -------------------------

 -----
 DPGEN
 -----
 Symbolic Z-matrix:
 Charge =  0 Multiplicity = 2

                         Standard orientation:
 ---------------------------------------------------------------------
 Center     Atomic      Atomic             Coordinates (Angstroms)
 Number     Number       Type             X           Y           Z
 ---------------------------------------------------------------------
      1         11           0       -3.345959   -0.041862   -0.179538
      2         11           0        3.233972    0.952829   -0.253657
      3         11           0        1.783615   -2.275477   -0.116626
      4         11           0        0.000833    0.498212   -1.749655
      5         11           0        0.534459    0.128423    1.775283
      6         11           0       -0.770661    2.746119    0.350250
      7         11           0       -1.436259   -2.008245    0.173942
 ---------------------------------------------------------------------

 SCF Done:  E(UB3LYP) =  -1136.12701562     A.U. after   21 cycles

 The electronic state is 2-A.
 Alpha  occ. eigenvalues --  -38.44904 -38.44844 -38.43457 -38.43388 -38.43326
 Alpha  occ. eigenvalues --  -38.43131 -38.43042  -2.20710  -2.20707  -2.19400
 Alpha  occ. eigenvalues --   -2.19271  -2.19185  -2.19112  -2.19022  -1.14506
 Alpha  occ. eigenvalues --   -1.14385  -1.14360  -1.14345  -1.14339  -1.14301
 Alpha  occ. eigenvalues --   -1.13110  -1.13071  -1.13006  -1.12979  -1.12939
 Alpha  occ. eigenvalues --   -1.12908  -1.12893  -1.12845  -1.12798  -1.12792
 Alpha  occ. eigenvalues --   -1.12737  -1.12712  -1.12697  -1.12656  -1.12637
 Alpha  occ. eigenvalues --   -0.18989  -0.13482  -0.12222  -0.10689
 Alpha virt. eigenvalues --   -0.06530  -0.04941  -0.04107  -0.03334  -0.02758
 Alpha virt. eigenvalues --   -0.02349  -0.02172  -0.01011  -0.00418  -0.00041
 Alpha virt. eigenvalues --    0.00066   0.00313   0.00731   0.00784   0.00872

  Beta  occ. eigenvalues --  -38.44896 -38.44843 -38.43392 -38.43382 -38.43315
  Beta  occ. eigenvalues --  -38.43047 -38.43033  -2.20709  -2.20695  -2.19281
  Beta  occ. eigenvalues --   -2.19264  -2.19168  -2.19009  -2.18959  -1.14509
  Beta  occ. eigenvalues --   -1.14359  -1.14348  -1.14338  -1.14321  -1.14304
  Beta  occ. eigenvalues --   -1.13035  -1.13000  -1.12964  -1.12924  -1.12916
  Beta  occ. eigenvalues --   -1.12888  -1.12858  -1.12808  -1.12785  -1.12716
  Beta  occ. eigenvalues --   -1.12691  -1.12650  -1.12626  -1.12608  -1.12578
  Beta  occ. eigenvalues --   -0.18261  -0.13251  -0.11948
  Beta virt. eigenvalues --   -0.06808  -0.06447  -0.04920  -0.04084  -0.02606
  Beta virt. eigenvalues --   -0.02075  -0.01959  -0.01307  -0.00958  -0.00447
  Beta virt. eigenvalues --    0.00040   0.00114   0.00345   0.00784   0.00891

 Mulliken charges and spin densities:
               1          2
     1  Na   0.142455  -0.000173
     2  Na   0.248045  -0.046089
     3  Na   0.155263   0.049108
     4  Na  -0.515707   0.591010
     5  Na  -0.286865   0.514251
     6  Na   0.137977  -0.137369
     7  Na   0.118832   0.029264
 Sum of Mulliken charges =  -0.00000   1.00000

 Dipole moment (field-independent basis, Debye):
    X=              0.4410    Y=              0.4928    Z=             -0.1239  Tot=              0.6728
 Quadrupole moment (field-independent basis, Debye-Ang):
   XX=            -50.6645   YY=            -67.4781   ZZ=            -74.6223
   XY=             -0.6653   XZ=             -0.6525   YZ=              0.7229

 Normal termination of Gaussian 16 at Tue Dec  5 18:00:28 2023.
