 Gaussian 16, Revision B.01,
 Gaussian 16:  ES64L-G16RevB.01 20-Dec-2017

 -------------------------
 #P B3LYP/6-311+g(d) force
 -------------------------

 -----
 DPGEN
 -----
 Symbolic Z-matrix:
 Charge =  0 Multiplicity = 2

                         Standard orientation:
 ---------------------------------------------------------------------
 Center     Atomic      Atomic             Coordinates (Angstroms)
 Number     Number       Type             X           Y           Z
 ---------------------------------------------------------------------
      1         11           0       -2.828872   -1.634493   -0.953862
      2         11           0        3.846535    0.281435   -0.610563
      3         11           0        0.153807    0.303901   -1.574049
      4         11           0       -2.511183    2.032204    0.010423
      5         11           0        1.633492   -1.980048    0.572176
      6         11           0       -1.050632   -1.012447    1.632431
      7         11           0        0.756853    2.009446    0.923445
 ---------------------------------------------------------------------

 SCF Done:  E(UB3LYP) =  -1136.12854176     A.U. after   21 cycles

 The electronic state is 2-A.
 Alpha  occ. eigenvalues --  -38.44754 -38.44161 -38.43901 -38.43788 -38.43490
 Alpha  occ. eigenvalues --  -38.43092 -38.43017  -2.20551  -2.20089  -2.19738
 Alpha  occ. eigenvalues --   -2.19619  -2.19377  -2.18990  -2.18981  -1.14218
 Alpha  occ. eigenvalues --   -1.14211  -1.14175  -1.13826  -1.13742  -1.13689
 Alpha  occ. eigenvalues --   -1.13416  -1.13389  -1.13365  -1.13296  -1.13276
 Alpha  occ. eigenvalues --   -1.13257  -1.13120  -1.13039  -1.12987  -1.12710
 Alpha  occ. eigenvalues --   -1.12668  -1.12642  -1.12613  -1.12582  -1.12577
 Alpha  occ. eigenvalues --   -0.18655  -0.13664  -0.11650  -0.10914
 Alpha virt. eigenvalues --   -0.06507  -0.05240  -0.04010  -0.03323  -0.02722
 Alpha virt. eigenvalues --   -0.02382  -0.02202  -0.01174  -0.00589  -0.00077
 Alpha virt. eigenvalues --    0.00168   0.00231   0.00509   0.00710   0.00758

  Beta  occ. eigenvalues --  -38.44737 -38.44124 -38.43870 -38.43786 -38.43469
  Beta  occ. eigenvalues --  -38.43065 -38.42958  -2.20519  -2.20023  -2.19681
  Beta  occ. eigenvalues --   -2.19618  -2.19344  -2.18945  -2.18877  -1.14194
  Beta  occ. eigenvalues --   -1.14187  -1.14154  -1.13769  -1.13701  -1.13637
  Beta  occ. eigenvalues --   -1.13379  -1.13346  -1.13321  -1.13287  -1.13277
  Beta  occ. eigenvalues --   -1.13245  -1.13081  -1.12998  -1.12970  -1.12682
  Beta  occ. eigenvalues --   -1.12600  -1.12581  -1.12551  -1.12531  -1.12502
  Beta  occ. eigenvalues --   -0.17962  -0.13362  -0.11416
  Beta virt. eigenvalues --   -0.07125  -0.06267  -0.05214  -0.03595  -0.03028
  Beta virt. eigenvalues --   -0.02203  -0.02048  -0.01355  -0.01140  -0.00300
  Beta virt. eigenvalues --    0.00008   0.00181   0.00267   0.00649   0.00772

 Mulliken charges and spin densities:
               1          2
     1  Na  -0.053270   0.150674
     2  Na   0.405492   0.124434
     3  Na  -0.337182   0.390727
     4  Na   0.180637  -0.018794
     5  Na  -0.261221   0.011025
     6  Na   0.310136   0.210607
     7  Na  -0.244593   0.131327
 Sum of Mulliken charges =  -0.00000   1.00000

 Dipole moment (field-independent basis, Debye):
    X=              0.3897    Y=              0.2799    Z=             -0.2223  Tot=              0.5288
 Quadrupole moment (field-independent basis, Debye-Ang):
   XX=            -48.9781   YY=            -72.6295   ZZ=            -71.0390
   XY=             -0.2434   XZ=              0.0342   YZ=              1.6655

 Normal termination of Gaussian 16 at Thu Dec  7 15:55:21 2023.
