 Gaussian 16, Revision B.01,
 Gaussian 16:  ES64L-G16RevB.01 20-Dec-2017

 -------------------------
 #P B3LYP/6-311+g(d) force
 -------------------------

 -----
 DPGEN
 -----
 Symbolic Z-matrix:
 Charge =  0 Multiplicity = 2

                         Standard orientation:
 ---------------------------------------------------------------------
 Center     Atomic      Atomic             Coordinates (Angstroms)
 Number     Number       Type             X           Y           Z
 ---------------------------------------------------------------------
      1         11           0       -3.962165   -0.174657   -0.576339
      2         11           0        3.739958    1.279866    1.137696
      3         11           0       -2.193262    3.231858   -0.217856
      4         11           0        1.077609    2.745379   -0.288372
      5         11           0        3.470317   -1.737849   -0.766169
      6         11           0        0.748278   -2.952392   -0.550668
      7         11           0       -2.880734   -2.392204    1.261708
 ---------------------------------------------------------------------

 SCF Done:  E(UB3LYP) =  -1136.11048200     A.U. after   19 cycles

 The electronic state is 2-A.
 Alpha  occ. eigenvalues --  -38.45074 -38.44499 -38.44415 -38.44413 -38.44270
 Alpha  occ. eigenvalues --  -38.44258 -38.43677  -2.20864  -2.20315  -2.20244
 Alpha  occ. eigenvalues --   -2.20224  -2.20080  -2.20057  -2.19481  -1.14562
 Alpha  occ. eigenvalues --   -1.14528  -1.14501  -1.14105  -1.13969  -1.13950
 Alpha  occ. eigenvalues --   -1.13897  -1.13881  -1.13871  -1.13870  -1.13855
 Alpha  occ. eigenvalues --   -1.13827  -1.13770  -1.13741  -1.13735  -1.13722
 Alpha  occ. eigenvalues --   -1.13699  -1.13671  -1.13132  -1.13127  -1.13113
 Alpha  occ. eigenvalues --   -0.15842  -0.14130  -0.13238  -0.10850
 Alpha virt. eigenvalues --   -0.07089  -0.04838  -0.04511  -0.03672  -0.03222
 Alpha virt. eigenvalues --   -0.02398  -0.02160  -0.01742  -0.01178  -0.00976
 Alpha virt. eigenvalues --   -0.00437  -0.00117   0.00172   0.00504   0.00614

  Beta  occ. eigenvalues --  -38.45064 -38.44451 -38.44395 -38.44382 -38.44270
  Beta  occ. eigenvalues --  -38.44181 -38.43623  -2.20850  -2.20233  -2.20215
  Beta  occ. eigenvalues --   -2.20164  -2.20063  -2.19937  -2.19380  -1.14543
  Beta  occ. eigenvalues --   -1.14523  -1.14477  -1.14044  -1.13918  -1.13891
  Beta  occ. eigenvalues --   -1.13880  -1.13851  -1.13838  -1.13828  -1.13815
  Beta  occ. eigenvalues --   -1.13763  -1.13756  -1.13744  -1.13695  -1.13626
  Beta  occ. eigenvalues --   -1.13607  -1.13597  -1.13064  -1.13059  -1.13046
  Beta  occ. eigenvalues --   -0.15308  -0.13440  -0.12407
  Beta virt. eigenvalues --   -0.07717  -0.07209  -0.04536  -0.04068  -0.03415
  Beta virt. eigenvalues --   -0.02805  -0.02091  -0.02022  -0.01484  -0.00936
  Beta virt. eigenvalues --   -0.00697  -0.00270   0.00111   0.00327   0.00509

 Mulliken charges and spin densities:
               1          2
     1  Na  -0.058165   0.041684
     2  Na   0.327715   0.328202
     3  Na   0.167074   0.247420
     4  Na  -0.612372   0.021553
     5  Na   0.251948   0.034311
     6  Na  -0.202770   0.164348
     7  Na   0.126571   0.162482
 Sum of Mulliken charges =  -0.00000   1.00000

 Dipole moment (field-independent basis, Debye):
    X=             -0.2028    Y=             -0.6237    Z=              0.2090  Tot=              0.6883
 Quadrupole moment (field-independent basis, Debye-Ang):
   XX=            -59.1067   YY=            -73.3975   ZZ=            -68.6448
   XY=             -1.2727   XZ=              1.7469   YZ=             -1.9414

 Normal termination of Gaussian 16 at Sun Dec  3 23:09:35 2023.
