 Gaussian 16, Revision B.01,
 Gaussian 16:  ES64L-G16RevB.01 20-Dec-2017

 -------------------------
 #P B3LYP/6-311+g(d) force
 -------------------------

 -----
 DPGEN
 -----
 Symbolic Z-matrix:
 Charge =  0 Multiplicity = 2

                         Standard orientation:
 ---------------------------------------------------------------------
 Center     Atomic      Atomic             Coordinates (Angstroms)
 Number     Number       Type             X           Y           Z
 ---------------------------------------------------------------------
      1         11           0        4.237925    0.281940    1.386478
      2         11           0       -2.398932   -2.934346    0.031561
      3         11           0        1.707613    2.447615   -0.458192
      4         11           0        2.939745   -1.988375   -1.085970
      5         11           0       -3.543906   -0.070244    0.911389
      6         11           0       -0.406264   -0.505614   -0.275545
      7         11           0       -2.536182    2.769025   -0.509721
 ---------------------------------------------------------------------

 SCF Done:  E(UB3LYP) =  -1136.11450574     A.U. after   27 cycles

 The electronic state is 2-A.
 Alpha  occ. eigenvalues --  -38.45573 -38.45264 -38.44021 -38.43980 -38.43845
 Alpha  occ. eigenvalues --  -38.43731 -38.43264  -2.21316  -2.21009  -2.19816
 Alpha  occ. eigenvalues --   -2.19793  -2.19730  -2.19542  -2.19179  -1.14999
 Alpha  occ. eigenvalues --   -1.14970  -1.14953  -1.14702  -1.14684  -1.14615
 Alpha  occ. eigenvalues --   -1.13528  -1.13498  -1.13481  -1.13474  -1.13472
 Alpha  occ. eigenvalues --   -1.13427  -1.13396  -1.13374  -1.13315  -1.13191
 Alpha  occ. eigenvalues --   -1.13189  -1.13151  -1.12884  -1.12825  -1.12804
 Alpha  occ. eigenvalues --   -0.16864  -0.14259  -0.11914  -0.10048
 Alpha virt. eigenvalues --   -0.07411  -0.05013  -0.04811  -0.03807  -0.02860
 Alpha virt. eigenvalues --   -0.02408  -0.01745  -0.01481  -0.01304  -0.00627
 Alpha virt. eigenvalues --   -0.00467   0.00128   0.00150   0.00432   0.00460

  Beta  occ. eigenvalues --  -38.45563 -38.45244 -38.44029 -38.43988 -38.43809
  Beta  occ. eigenvalues --  -38.43638 -38.43224  -2.21301  -2.20977  -2.19833
  Beta  occ. eigenvalues --   -2.19810  -2.19661  -2.19368  -2.19109  -1.14991
  Beta  occ. eigenvalues --   -1.14954  -1.14923  -1.14683  -1.14653  -1.14582
  Beta  occ. eigenvalues --   -1.13536  -1.13498  -1.13487  -1.13486  -1.13472
  Beta  occ. eigenvalues --   -1.13427  -1.13349  -1.13334  -1.13281  -1.13071
  Beta  occ. eigenvalues --   -1.13068  -1.13038  -1.12836  -1.12773  -1.12746
  Beta  occ. eigenvalues --   -0.16394  -0.13668  -0.11725
  Beta virt. eigenvalues --   -0.07286  -0.06574  -0.04942  -0.04206  -0.03604
  Beta virt. eigenvalues --   -0.02490  -0.02032  -0.01589  -0.01294  -0.00821
  Beta virt. eigenvalues --   -0.00571  -0.00234   0.00245   0.00351   0.00477

 Mulliken charges and spin densities:
               1          2
     1  Na   0.173041   0.604083
     2  Na   0.880166   0.021314
     3  Na   0.759272   0.064706
     4  Na   0.210383  -0.042723
     5  Na   1.380690   0.317305
     6  Na  -4.038238   0.080170
     7  Na   0.634686  -0.044855
 Sum of Mulliken charges =  -0.00000   1.00000

 Dipole moment (field-independent basis, Debye):
    X=             -0.2017    Y=             -0.4417    Z=             -0.7436  Tot=              0.8881
 Quadrupole moment (field-independent basis, Debye-Ang):
   XX=            -67.0555   YY=            -60.2587   ZZ=            -71.0415
   XY=             -2.0353   XZ=             -4.5932   YZ=              0.9417

 Normal termination of Gaussian 16 at Tue Dec  5 17:16:32 2023.
