 Gaussian 16, Revision B.01,
 Gaussian 16:  ES64L-G16RevB.01 20-Dec-2017

 -------------------------
 #P B3LYP/6-311+g(d) force
 -------------------------

 -----
 DPGEN
 -----
 Symbolic Z-matrix:
 Charge =  0 Multiplicity = 2

                         Standard orientation:
 ---------------------------------------------------------------------
 Center     Atomic      Atomic             Coordinates (Angstroms)
 Number     Number       Type             X           Y           Z
 ---------------------------------------------------------------------
      1         11           0        0.751867   -0.611841    1.438157
      2         11           0       -0.548164   -0.594778   -1.598842
      3         11           0        3.246218   -2.220724    0.047860
      4         11           0        2.653378    1.239371   -0.292011
      5         11           0        0.023917    2.733214   -0.442022
      6         11           0       -2.169297    1.023705    1.131651
      7         11           0       -3.957919   -1.568949   -0.284792
 ---------------------------------------------------------------------

 SCF Done:  E(UB3LYP) =  -1136.12181167     A.U. after   23 cycles

 The electronic state is 2-A.
 Alpha  occ. eigenvalues --  -38.44603 -38.44483 -38.44465 -38.43920 -38.43734
 Alpha  occ. eigenvalues --  -38.43567 -38.42740  -2.20377  -2.20369  -2.20341
 Alpha  occ. eigenvalues --   -2.19733  -2.19693  -2.19485  -2.18658  -1.14093
 Alpha  occ. eigenvalues --   -1.14064  -1.14045  -1.14036  -1.14034  -1.14003
 Alpha  occ. eigenvalues --   -1.14000  -1.13989  -1.13921  -1.13423  -1.13398
 Alpha  occ. eigenvalues --   -1.13393  -1.13379  -1.13346  -1.13276  -1.13159
 Alpha  occ. eigenvalues --   -1.13154  -1.13088  -1.12358  -1.12307  -1.12288
 Alpha  occ. eigenvalues --   -0.18614  -0.13761  -0.11912  -0.10481
 Alpha virt. eigenvalues --   -0.06837  -0.05676  -0.04019  -0.03254  -0.02636
 Alpha virt. eigenvalues --   -0.02442  -0.02118  -0.01578  -0.00595  -0.00304
 Alpha virt. eigenvalues --    0.00104   0.00158   0.00511   0.00609   0.00702

  Beta  occ. eigenvalues --  -38.44600 -38.44451 -38.44425 -38.43922 -38.43678
  Beta  occ. eigenvalues --  -38.43521 -38.42731  -2.20365  -2.20353  -2.20234
  Beta  occ. eigenvalues --   -2.19738  -2.19593  -2.19404  -2.18647  -1.14078
  Beta  occ. eigenvalues --   -1.14042  -1.14025  -1.13999  -1.13996  -1.13991
  Beta  occ. eigenvalues --   -1.13983  -1.13917  -1.13841  -1.13413  -1.13395
  Beta  occ. eigenvalues --   -1.13382  -1.13322  -1.13284  -1.13199  -1.13110
  Beta  occ. eigenvalues --   -1.13089  -1.13019  -1.12348  -1.12303  -1.12250
  Beta  occ. eigenvalues --   -0.17917  -0.13578  -0.11665
  Beta virt. eigenvalues --   -0.06781  -0.06558  -0.05551  -0.03755  -0.02853
  Beta virt. eigenvalues --   -0.02390  -0.01872  -0.01681  -0.01046  -0.00638
  Beta virt. eigenvalues --   -0.00048   0.00148   0.00233   0.00632   0.00690

 Mulliken charges and spin densities:
               1          2
     1  Na  -0.484025   0.143551
     2  Na  -0.544907   0.579324
     3  Na   0.359250  -0.013517
     4  Na   0.195401   0.187792
     5  Na  -0.207360  -0.010374
     6  Na   0.704326   0.166209
     7  Na  -0.022684  -0.052985
 Sum of Mulliken charges =  -0.00000   1.00000

 Dipole moment (field-independent basis, Debye):
    X=              0.0972    Y=             -0.4430    Z=             -0.2364  Tot=              0.5115
 Quadrupole moment (field-independent basis, Debye-Ang):
   XX=            -51.2905   YY=            -66.3812   ZZ=            -75.1154
   XY=              0.0374   XZ=             -2.1462   YZ=              1.2136

 Normal termination of Gaussian 16 at Fri Dec  8 07:16:57 2023.
