 Gaussian 16, Revision B.01,
 Gaussian 16:  ES64L-G16RevB.01 20-Dec-2017

 -------------------------
 #P B3LYP/6-311+g(d) force
 -------------------------

 -----
 DPGEN
 -----
 Symbolic Z-matrix:
 Charge =  0 Multiplicity = 2

                         Standard orientation:
 ---------------------------------------------------------------------
 Center     Atomic      Atomic             Coordinates (Angstroms)
 Number     Number       Type             X           Y           Z
 ---------------------------------------------------------------------
      1         11           0       -0.246379   -1.678149   -0.400234
      2         11           0        3.753921   -1.562189   -1.149843
      3         11           0        2.341303   -0.538529    2.067328
      4         11           0        2.881357    2.109109   -0.508365
      5         11           0       -0.538725    2.368338    0.191540
      6         11           0       -4.366853    1.403990   -0.330082
      7         11           0       -3.824624   -2.102570    0.129655
 ---------------------------------------------------------------------

 SCF Done:  E(UB3LYP) =  -1136.10848454     A.U. after   27 cycles

 The electronic state is 2-A.
 Alpha  occ. eigenvalues --  -38.46059 -38.44766 -38.44729 -38.44586 -38.44219
 Alpha  occ. eigenvalues --  -38.43983 -38.43233  -2.21817  -2.20518  -2.20493
 Alpha  occ. eigenvalues --   -2.20371  -2.19999  -2.19790  -2.18998  -1.15492
 Alpha  occ. eigenvalues --   -1.15468  -1.15461  -1.14200  -1.14177  -1.14176
 Alpha  occ. eigenvalues --   -1.14161  -1.14131  -1.14110  -1.14068  -1.14029
 Alpha  occ. eigenvalues --   -1.13994  -1.13685  -1.13666  -1.13599  -1.13457
 Alpha  occ. eigenvalues --   -1.13427  -1.13406  -1.12697  -1.12671  -1.12622
 Alpha  occ. eigenvalues --   -0.16712  -0.13973  -0.11356  -0.10323
 Alpha virt. eigenvalues --   -0.07271  -0.06836  -0.04034  -0.03232  -0.03026
 Alpha virt. eigenvalues --   -0.02799  -0.01996  -0.01890  -0.01466  -0.00863
 Alpha virt. eigenvalues --   -0.00214  -0.00076   0.00123   0.00282   0.00302

  Beta  occ. eigenvalues --  -38.46054 -38.44773 -38.44677 -38.44572 -38.44177
  Beta  occ. eigenvalues --  -38.43907 -38.43231  -2.21810  -2.20533  -2.20396
  Beta  occ. eigenvalues --   -2.20348  -2.19921  -2.19650  -2.18997  -1.15471
  Beta  occ. eigenvalues --   -1.15464  -1.15450  -1.14213  -1.14186  -1.14164
  Beta  occ. eigenvalues --   -1.14095  -1.14066  -1.14055  -1.14051  -1.14016
  Beta  occ. eigenvalues --   -1.13955  -1.13625  -1.13607  -1.13556  -1.13362
  Beta  occ. eigenvalues --   -1.13326  -1.13311  -1.12698  -1.12665  -1.12617
  Beta  occ. eigenvalues --   -0.16128  -0.13460  -0.11231
  Beta virt. eigenvalues --   -0.07042  -0.06823  -0.06674  -0.03601  -0.02966
  Beta virt. eigenvalues --   -0.02722  -0.02448  -0.01857  -0.01581  -0.01173
  Beta virt. eigenvalues --   -0.00394  -0.00138   0.00063   0.00174   0.00337

 Mulliken charges and spin densities:
               1          2
     1  Na  -1.170673  -0.052776
     2  Na   0.405391   0.728808
     3  Na   0.323295   0.046384
     4  Na   0.323196   0.100078
     5  Na  -0.252307  -0.065615
     6  Na  -0.048278   0.340830
     7  Na   0.419375  -0.097710
 Sum of Mulliken charges =  -0.00000   1.00000

 Dipole moment (field-independent basis, Debye):
    X=              0.1236    Y=             -0.5111    Z=              1.0318  Tot=              1.1581
 Quadrupole moment (field-independent basis, Debye-Ang):
   XX=            -61.8431   YY=            -73.5685   ZZ=            -65.3237
   XY=              3.1030   XZ=              3.8789   YZ=             -0.9044

 Normal termination of Gaussian 16 at Fri Dec  8 18:40:42 2023.
