 Gaussian 16, Revision B.01,
 Gaussian 16:  ES64L-G16RevB.01 20-Dec-2017

 -------------------------
 #P B3LYP/6-311+g(d) force
 -------------------------

 -----
 DPGEN
 -----
 Symbolic Z-matrix:
 Charge =  0 Multiplicity = 2

                         Standard orientation:
 ---------------------------------------------------------------------
 Center     Atomic      Atomic             Coordinates (Angstroms)
 Number     Number       Type             X           Y           Z
 ---------------------------------------------------------------------
      1         11           0       -4.033849   -0.568786    0.131182
      2         11           0        2.269946    0.674648   -1.641290
      3         11           0       -1.365487    2.323484   -0.407866
      4         11           0        2.532701   -2.046510    0.275356
      5         11           0        2.263766    1.374788    1.539826
      6         11           0       -0.952460   -0.680485    1.731686
      7         11           0       -0.714616   -1.077140   -1.628895
 ---------------------------------------------------------------------

 SCF Done:  E(UB3LYP) =  -1136.12359375     A.U. after   27 cycles

 The electronic state is 2-A.
 Alpha  occ. eigenvalues --  -38.45406 -38.44466 -38.44231 -38.43984 -38.43810
 Alpha  occ. eigenvalues --  -38.43350 -38.43228  -2.21178  -2.20316  -2.20105
 Alpha  occ. eigenvalues --   -2.19846  -2.19640  -2.19169  -2.19015  -1.14860
 Alpha  occ. eigenvalues --   -1.14830  -1.14804  -1.14019  -1.13951  -1.13931
 Alpha  occ. eigenvalues --   -1.13793  -1.13778  -1.13715  -1.13547  -1.13499
 Alpha  occ. eigenvalues --   -1.13444  -1.13316  -1.13297  -1.13254  -1.12843
 Alpha  occ. eigenvalues --   -1.12830  -1.12812  -1.12706  -1.12692  -1.12629
 Alpha  occ. eigenvalues --   -0.18131  -0.13861  -0.11467  -0.10612
 Alpha virt. eigenvalues --   -0.06802  -0.05155  -0.04846  -0.03122  -0.02702
 Alpha virt. eigenvalues --   -0.02558  -0.02469  -0.00955  -0.00823  -0.00274
 Alpha virt. eigenvalues --    0.00149   0.00198   0.00242   0.00568   0.00743

  Beta  occ. eigenvalues --  -38.45404 -38.44416 -38.44194 -38.43933 -38.43775
  Beta  occ. eigenvalues --  -38.43347 -38.43218  -2.21176  -2.20224  -2.20040
  Beta  occ. eigenvalues --   -2.19755  -2.19577  -2.19166  -2.18998  -1.14850
  Beta  occ. eigenvalues --   -1.14830  -1.14804  -1.13958  -1.13885  -1.13858
  Beta  occ. eigenvalues --   -1.13740  -1.13724  -1.13671  -1.13491  -1.13415
  Beta  occ. eigenvalues --   -1.13379  -1.13270  -1.13251  -1.13207  -1.12842
  Beta  occ. eigenvalues --   -1.12821  -1.12801  -1.12693  -1.12667  -1.12621
  Beta  occ. eigenvalues --   -0.17370  -0.13703  -0.10454
  Beta virt. eigenvalues --   -0.07528  -0.06634  -0.05076  -0.04177  -0.02834
  Beta virt. eigenvalues --   -0.02415  -0.02087  -0.01801  -0.00813  -0.00438
  Beta virt. eigenvalues --   -0.00244   0.00176   0.00234   0.00345   0.00654

 Mulliken charges and spin densities:
               1          2
     1  Na   0.367623   0.020246
     2  Na   0.314204   0.188080
     3  Na  -0.302463  -0.072218
     4  Na   0.056246  -0.006137
     5  Na  -0.022165   0.183239
     6  Na  -0.274089   0.347507
     7  Na  -0.139356   0.339284
 Sum of Mulliken charges =  -0.00000   1.00000

 Dipole moment (field-independent basis, Debye):
    X=             -1.2750    Y=             -0.1988    Z=              0.0560  Tot=              1.2916
 Quadrupole moment (field-independent basis, Debye-Ang):
   XX=            -47.1648   YY=            -78.4503   ZZ=            -67.5950
   XY=              0.8171   XZ=              0.5182   YZ=             -1.5166

 Normal termination of Gaussian 16 at Fri Dec  8 04:39:37 2023.
