 Gaussian 16, Revision B.01,
 Gaussian 16:  ES64L-G16RevB.01 20-Dec-2017

 -------------------------
 #P B3LYP/6-311+g(d) force
 -------------------------

 -----
 DPGEN
 -----
 Symbolic Z-matrix:
 Charge =  0 Multiplicity = 2

                         Standard orientation:
 ---------------------------------------------------------------------
 Center     Atomic      Atomic             Coordinates (Angstroms)
 Number     Number       Type             X           Y           Z
 ---------------------------------------------------------------------
      1         11           0        3.313386   -0.460919   -0.347368
      2         11           0       -1.538977   -1.339257   -1.866222
      3         11           0        1.205343    1.582581   -1.335459
      4         11           0        0.847002    0.959375    2.370274
      5         11           0        0.596265   -2.222618    0.400574
      6         11           0       -1.797905    2.367730   -0.380833
      7         11           0       -2.625114   -0.886892    1.159034
 ---------------------------------------------------------------------

 SCF Done:  E(UB3LYP) =  -1136.13064969     A.U. after   21 cycles

 The electronic state is 2-A.
 Alpha  occ. eigenvalues --  -38.44960 -38.44296 -38.44212 -38.43934 -38.43316
 Alpha  occ. eigenvalues --  -38.43016 -38.42990  -2.20762  -2.20128  -2.20072
 Alpha  occ. eigenvalues --   -2.19784  -2.19204  -2.18868  -2.18834  -1.14425
 Alpha  occ. eigenvalues --   -1.14391  -1.14379  -1.13832  -1.13798  -1.13761
 Alpha  occ. eigenvalues --   -1.13746  -1.13688  -1.13682  -1.13494  -1.13436
 Alpha  occ. eigenvalues --   -1.13416  -1.12877  -1.12854  -1.12849  -1.12565
 Alpha  occ. eigenvalues --   -1.12549  -1.12514  -1.12489  -1.12485  -1.12475
 Alpha  occ. eigenvalues --   -0.18210  -0.13130  -0.11744  -0.11725
 Alpha virt. eigenvalues --   -0.05780  -0.04883  -0.04643  -0.03545  -0.03374
 Alpha virt. eigenvalues --   -0.03055  -0.01394  -0.00672  -0.00631   0.00077
 Alpha virt. eigenvalues --    0.00204   0.00294   0.00439   0.00592   0.00867

  Beta  occ. eigenvalues --  -38.44874 -38.44283 -38.44171 -38.43931 -38.43285
  Beta  occ. eigenvalues --  -38.43016 -38.42981  -2.20602  -2.20105  -2.19997
  Beta  occ. eigenvalues --   -2.19780  -2.19149  -2.18856  -2.18836  -1.14313
  Beta  occ. eigenvalues --   -1.14278  -1.14266  -1.13809  -1.13769  -1.13746
  Beta  occ. eigenvalues --   -1.13694  -1.13641  -1.13630  -1.13485  -1.13435
  Beta  occ. eigenvalues --   -1.13405  -1.12841  -1.12818  -1.12799  -1.12554
  Beta  occ. eigenvalues --   -1.12513  -1.12508  -1.12485  -1.12482  -1.12474
  Beta  occ. eigenvalues --   -0.17450  -0.12981  -0.11573
  Beta virt. eigenvalues --   -0.07833  -0.05474  -0.04789  -0.04055  -0.03424
  Beta virt. eigenvalues --   -0.02590  -0.02226  -0.01335  -0.00601  -0.00257
  Beta virt. eigenvalues --    0.00167   0.00224   0.00421   0.00521   0.00731

 Mulliken charges and spin densities:
               1          2
     1  Na   0.385044  -0.127967
     2  Na  -0.014280   0.128690
     3  Na  -0.155818   0.230740
     4  Na  -0.430564   0.475499
     5  Na   0.002461   0.224948
     6  Na   0.048240  -0.046909
     7  Na   0.164918   0.115000
 Sum of Mulliken charges =  -0.00000   1.00000

 Dipole moment (field-independent basis, Debye):
    X=             -0.0583    Y=             -0.1663    Z=              0.3668  Tot=              0.4069
 Quadrupole moment (field-independent basis, Debye-Ang):
   XX=            -58.6924   YY=            -74.7483   ZZ=            -63.4340
   XY=             -0.0785   XZ=             -0.6272   YZ=              1.5260

 Normal termination of Gaussian 16 at Thu Dec  7 09:52:28 2023.
