 Gaussian 16, Revision B.01,
 Gaussian 16:  ES64L-G16RevB.01 20-Dec-2017

 -------------------------
 #P B3LYP/6-311+g(d) force
 -------------------------

 -----
 DPGEN
 -----
 Symbolic Z-matrix:
 Charge =  0 Multiplicity = 2

                         Standard orientation:
 ---------------------------------------------------------------------
 Center     Atomic      Atomic             Coordinates (Angstroms)
 Number     Number       Type             X           Y           Z
 ---------------------------------------------------------------------
      1         11           0        3.235803   -0.291349   -0.046089
      2         11           0       -2.463236   -1.884359    0.077099
      3         11           0       -2.777275    1.856552    0.271699
      4         11           0        0.614711   -2.649305   -0.343946
      5         11           0        1.111965    2.924461   -0.172935
      6         11           0       -0.262739    0.236282   -1.719381
      7         11           0        0.540771   -0.192282    1.933554
 ---------------------------------------------------------------------

 SCF Done:  E(UB3LYP) =  -1136.13603194     A.U. after   20 cycles

 The electronic state is 2-A.
 Alpha  occ. eigenvalues --  -38.44231 -38.44132 -38.43977 -38.43740 -38.43510
 Alpha  occ. eigenvalues --  -38.43178 -38.43140  -2.20001  -2.19952  -2.19772
 Alpha  occ. eigenvalues --   -2.19581  -2.19406  -2.19112  -2.19055  -1.13678
 Alpha  occ. eigenvalues --   -1.13657  -1.13641  -1.13633  -1.13612  -1.13591
 Alpha  occ. eigenvalues --   -1.13461  -1.13437  -1.13396  -1.13269  -1.13243
 Alpha  occ. eigenvalues --   -1.13223  -1.13085  -1.13037  -1.13023  -1.12819
 Alpha  occ. eigenvalues --   -1.12768  -1.12734  -1.12719  -1.12695  -1.12678
 Alpha  occ. eigenvalues --   -0.18404  -0.12840  -0.12515  -0.10494
 Alpha virt. eigenvalues --   -0.05908  -0.05302  -0.04746  -0.03093  -0.02937
 Alpha virt. eigenvalues --   -0.02356  -0.01617  -0.01263  -0.00653  -0.00362
 Alpha virt. eigenvalues --   -0.00013   0.00349   0.00756   0.00818   0.00884

  Beta  occ. eigenvalues --  -38.44227 -38.44129 -38.43972 -38.43738 -38.43429
  Beta  occ. eigenvalues --  -38.43127 -38.43108  -2.19996  -2.19950  -2.19765
  Beta  occ. eigenvalues --   -2.19579  -2.19257  -2.19036  -2.18985  -1.13665
  Beta  occ. eigenvalues --   -1.13653  -1.13639  -1.13623  -1.13603  -1.13588
  Beta  occ. eigenvalues --   -1.13446  -1.13423  -1.13395  -1.13268  -1.13230
  Beta  occ. eigenvalues --   -1.13215  -1.12987  -1.12933  -1.12915  -1.12760
  Beta  occ. eigenvalues --   -1.12697  -1.12682  -1.12664  -1.12641  -1.12624
  Beta  occ. eigenvalues --   -0.17679  -0.12622  -0.12287
  Beta virt. eigenvalues --   -0.06653  -0.05861  -0.05241  -0.04699  -0.02366
  Beta virt. eigenvalues --   -0.02182  -0.01521  -0.01356  -0.01185  -0.00697
  Beta virt. eigenvalues --   -0.00395   0.00132   0.00379   0.00782   0.00852

 Mulliken charges and spin densities:
               1          2
     1  Na   0.286587  -0.064800
     2  Na  -0.010484  -0.053192
     3  Na  -0.084277  -0.059480
     4  Na   0.304938   0.015282
     5  Na  -0.046779  -0.162907
     6  Na  -0.026494   0.531665
     7  Na  -0.423491   0.793432
 Sum of Mulliken charges =  -0.00000   1.00000

 Dipole moment (field-independent basis, Debye):
    X=              0.0642    Y=              0.3535    Z=              0.1023  Tot=              0.3736
 Quadrupole moment (field-independent basis, Debye-Ang):
   XX=            -55.5092   YY=            -61.8950   ZZ=            -75.3801
   XY=              0.1903   XZ=             -1.9490   YZ=              0.9957

 Normal termination of Gaussian 16 at Thu Dec  7 10:27:36 2023.
