 Gaussian 16, Revision B.01,
 Gaussian 16:  ES64L-G16RevB.01 20-Dec-2017

 -------------------------
 #P B3LYP/6-311+g(d) force
 -------------------------

 -----
 DPGEN
 -----
 Symbolic Z-matrix:
 Charge =  0 Multiplicity = 2

                         Standard orientation:
 ---------------------------------------------------------------------
 Center     Atomic      Atomic             Coordinates (Angstroms)
 Number     Number       Type             X           Y           Z
 ---------------------------------------------------------------------
      1         11           0       -0.056988    0.589587    1.795997
      2         11           0        0.180530   -0.499764   -1.760699
      3         11           0        0.674085   -2.831111    0.451278
      4         11           0       -2.646683   -1.562252   -0.421308
      5         11           0       -2.350384    1.739448    0.414470
      6         11           0        3.181891   -0.287975    0.214043
      7         11           0        1.017549    2.852067   -0.693782
 ---------------------------------------------------------------------

 SCF Done:  E(UB3LYP) =  -1136.13634118     A.U. after   20 cycles

 The electronic state is 2-A.
 Alpha  occ. eigenvalues --  -38.44037 -38.43736 -38.43657 -38.43615 -38.43558
 Alpha  occ. eigenvalues --  -38.43480 -38.43341  -2.19843  -2.19554  -2.19506
 Alpha  occ. eigenvalues --   -2.19505  -2.19425  -2.19402  -2.19281  -1.13521
 Alpha  occ. eigenvalues --   -1.13504  -1.13481  -1.13364  -1.13230  -1.13214
 Alpha  occ. eigenvalues --   -1.13209  -1.13187  -1.13179  -1.13152  -1.13127
 Alpha  occ. eigenvalues --   -1.13122  -1.13096  -1.13068  -1.13049  -1.13031
 Alpha  occ. eigenvalues --   -1.13022  -1.12998  -1.12951  -1.12911  -1.12890
 Alpha  occ. eigenvalues --   -0.18553  -0.12876  -0.12611  -0.10773
 Alpha virt. eigenvalues --   -0.05512  -0.05027  -0.04888  -0.03256  -0.03098
 Alpha virt. eigenvalues --   -0.02417  -0.01426  -0.01189  -0.00405  -0.00245
 Alpha virt. eigenvalues --    0.00025   0.00364   0.00816   0.00861   0.00892

  Beta  occ. eigenvalues --  -38.44033 -38.43716 -38.43648 -38.43603 -38.43550
  Beta  occ. eigenvalues --  -38.43410 -38.43274  -2.19839  -2.19518  -2.19491
  Beta  occ. eigenvalues --   -2.19486  -2.19391  -2.19298  -2.19159  -1.13507
  Beta  occ. eigenvalues --   -1.13503  -1.13472  -1.13318  -1.13198  -1.13195
  Beta  occ. eigenvalues --   -1.13184  -1.13162  -1.13156  -1.13134  -1.13112
  Beta  occ. eigenvalues --   -1.13102  -1.13072  -1.13038  -1.13019  -1.12988
  Beta  occ. eigenvalues --   -1.12939  -1.12921  -1.12872  -1.12827  -1.12799
  Beta  occ. eigenvalues --   -0.17861  -0.12612  -0.12354
  Beta virt. eigenvalues --   -0.06949  -0.05510  -0.04935  -0.04766  -0.02520
  Beta virt. eigenvalues --   -0.02386  -0.01446  -0.01348  -0.01075  -0.00387
  Beta virt. eigenvalues --   -0.00267   0.00135   0.00400   0.00845   0.00880

 Mulliken charges and spin densities:
               1          2
     1  Na  -0.089343   0.451433
     2  Na  -0.085179   0.543596
     3  Na  -0.021836   0.039549
     4  Na   0.036584  -0.039953
     5  Na   0.287620   0.039544
     6  Na  -0.006160  -0.070037
     7  Na  -0.121685   0.035868
 Sum of Mulliken charges =  -0.00000   1.00000

 Dipole moment (field-independent basis, Debye):
    X=              0.2984    Y=             -0.0413    Z=             -0.0177  Tot=              0.3017
 Quadrupole moment (field-independent basis, Debye-Ang):
   XX=            -58.2417   YY=            -61.5762   ZZ=            -73.7509
   XY=              0.5065   XZ=              0.7132   YZ=             -2.4359

 Normal termination of Gaussian 16 at Fri Dec  8 06:15:04 2023.
