 Gaussian 16, Revision B.01,
 Gaussian 16:  ES64L-G16RevB.01 20-Dec-2017

 -------------------------
 #P B3LYP/6-311+g(d) force
 -------------------------

 -----
 DPGEN
 -----
 Symbolic Z-matrix:
 Charge =  0 Multiplicity = 2

                         Standard orientation:
 ---------------------------------------------------------------------
 Center     Atomic      Atomic             Coordinates (Angstroms)
 Number     Number       Type             X           Y           Z
 ---------------------------------------------------------------------
      1         11           0       -0.728479    1.970860    0.331951
      2         11           0        1.887234   -1.654944   -0.570847
      3         11           0       -0.788961   -1.673540    0.905731
      4         11           0        0.856367    0.243288    1.899459
      5         11           0        2.137305    1.289377   -0.565137
      6         11           0       -0.229542   -0.094361   -1.603270
      7         11           0       -3.133925   -0.080679   -0.397886
 ---------------------------------------------------------------------

 SCF Done:  E(UB3LYP) =  -1136.09639821     A.U. after   21 cycles

 The electronic state is 2-A.
 Alpha  occ. eigenvalues --  -38.44583 -38.44141 -38.43976 -38.43535 -38.43303
 Alpha  occ. eigenvalues --  -38.43224 -38.42792  -2.20749  -2.20229  -2.20055
 Alpha  occ. eigenvalues --   -2.19625  -2.19372  -2.19338  -2.18890  -1.14540
 Alpha  occ. eigenvalues --   -1.14426  -1.14338  -1.14012  -1.13956  -1.13893
 Alpha  occ. eigenvalues --   -1.13720  -1.13701  -1.13688  -1.13343  -1.13271
 Alpha  occ. eigenvalues --   -1.13265  -1.13104  -1.13035  -1.13008  -1.12959
 Alpha  occ. eigenvalues --   -1.12945  -1.12844  -1.12608  -1.12568  -1.12435
 Alpha  occ. eigenvalues --   -0.21085  -0.13888  -0.12511  -0.12174
 Alpha virt. eigenvalues --   -0.05576  -0.04016  -0.03913  -0.03662  -0.03104
 Alpha virt. eigenvalues --   -0.03028  -0.01452  -0.00406  -0.00238   0.00308
 Alpha virt. eigenvalues --    0.00616   0.00857   0.00950   0.01071   0.01097

  Beta  occ. eigenvalues --  -38.44484 -38.44137 -38.43901 -38.43514 -38.43284
  Beta  occ. eigenvalues --  -38.43189 -38.42776  -2.20569  -2.20095  -2.20050
  Beta  occ. eigenvalues --   -2.19594  -2.19342  -2.19280  -2.18867  -1.14413
  Beta  occ. eigenvalues --   -1.14297  -1.14214  -1.13925  -1.13869  -1.13808
  Beta  occ. eigenvalues --   -1.13710  -1.13686  -1.13666  -1.13322  -1.13253
  Beta  occ. eigenvalues --   -1.13199  -1.13082  -1.12982  -1.12943  -1.12932
  Beta  occ. eigenvalues --   -1.12892  -1.12813  -1.12597  -1.12501  -1.12429
  Beta  occ. eigenvalues --   -0.20279  -0.13583  -0.11887
  Beta virt. eigenvalues --   -0.08220  -0.05513  -0.04009  -0.03519  -0.03053
  Beta virt. eigenvalues --   -0.02238  -0.02024  -0.01354  -0.00391  -0.00032
  Beta virt. eigenvalues --    0.00326   0.00652   0.00836   0.01028   0.01074

 Mulliken charges and spin densities:
               1          2
     1  Na   0.005822   0.092218
     2  Na   0.116452   0.021781
     3  Na   0.211913   0.194771
     4  Na  -0.199943   0.349830
     5  Na   0.129678  -0.002128
     6  Na  -0.501433   0.402743
     7  Na   0.237511  -0.059216
 Sum of Mulliken charges =  -0.00000   1.00000

 Dipole moment (field-independent basis, Debye):
    X=             -0.3661    Y=             -0.0109    Z=             -0.0285  Tot=              0.3674
 Quadrupole moment (field-independent basis, Debye-Ang):
   XX=            -55.6450   YY=            -73.4134   ZZ=            -66.7849
   XY=             -0.0765   XZ=             -0.3910   YZ=             -0.0833

 Normal termination of Gaussian 16 at Thu Dec  7 05:07:15 2023.
