 Gaussian 16, Revision B.01,
 Gaussian 16:  ES64L-G16RevB.01 20-Dec-2017

 -------------------------
 #P B3LYP/6-311+g(d) force
 -------------------------

 -----
 DPGEN
 -----
 Symbolic Z-matrix:
 Charge =  0 Multiplicity = 2

                         Standard orientation:
 ---------------------------------------------------------------------
 Center     Atomic      Atomic             Coordinates (Angstroms)
 Number     Number       Type             X           Y           Z
 ---------------------------------------------------------------------
      1         11           0       -2.751519   -0.826255   -1.572136
      2         11           0        0.599349    0.953684    2.015367
      3         11           0       -2.513526   -0.548320    1.716891
      4         11           0       -1.088101    1.996770   -1.047736
      5         11           0        3.550417   -1.345142   -0.275657
      6         11           0        0.081232   -1.575220   -0.194080
      7         11           0        2.122150    1.344484   -0.642649
 ---------------------------------------------------------------------

 SCF Done:  E(UB3LYP) =  -1136.12547480     A.U. after   25 cycles

 The electronic state is 2-A.
 Alpha  occ. eigenvalues --  -38.44718 -38.44021 -38.43837 -38.43561 -38.43489
 Alpha  occ. eigenvalues --  -38.43412 -38.43183  -2.20594  -2.19915  -2.19752
 Alpha  occ. eigenvalues --   -2.19454  -2.19399  -2.19340  -2.19076  -1.14277
 Alpha  occ. eigenvalues --   -1.14234  -1.14217  -1.13596  -1.13563  -1.13540
 Alpha  occ. eigenvalues --   -1.13461  -1.13429  -1.13352  -1.13195  -1.13139
 Alpha  occ. eigenvalues --   -1.13111  -1.13059  -1.13046  -1.13043  -1.13022
 Alpha  occ. eigenvalues --   -1.12971  -1.12922  -1.12762  -1.12718  -1.12688
 Alpha  occ. eigenvalues --   -0.18944  -0.14051  -0.12072  -0.11117
 Alpha virt. eigenvalues --   -0.06169  -0.04884  -0.04795  -0.03376  -0.02812
 Alpha virt. eigenvalues --   -0.02547  -0.02042  -0.00843  -0.00667   0.00141
 Alpha virt. eigenvalues --    0.00219   0.00375   0.00478   0.00587   0.00822

  Beta  occ. eigenvalues --  -38.44664 -38.43984 -38.43786 -38.43567 -38.43479
  Beta  occ. eigenvalues --  -38.43397 -38.43136  -2.20499  -2.19848  -2.19660
  Beta  occ. eigenvalues --   -2.19436  -2.19410  -2.19315  -2.18991  -1.14200
  Beta  occ. eigenvalues --   -1.14172  -1.14140  -1.13547  -1.13519  -1.13484
  Beta  occ. eigenvalues --   -1.13407  -1.13345  -1.13293  -1.13191  -1.13122
  Beta  occ. eigenvalues --   -1.13093  -1.13053  -1.13049  -1.13015  -1.12996
  Beta  occ. eigenvalues --   -1.12967  -1.12914  -1.12700  -1.12663  -1.12619
  Beta  occ. eigenvalues --   -0.18187  -0.13864  -0.10988
  Beta virt. eigenvalues --   -0.07908  -0.05993  -0.04680  -0.04196  -0.02989
  Beta virt. eigenvalues --   -0.02171  -0.02158  -0.01742  -0.00626  -0.00376
  Beta virt. eigenvalues --    0.00202   0.00270   0.00512   0.00529   0.00713

 Mulliken charges and spin densities:
               1          2
     1  Na   1.001421  -0.026810
     2  Na   0.093859   0.223799
     3  Na   0.115161   0.072615
     4  Na  -0.734497   0.341144
     5  Na   0.043174  -0.089597
     6  Na  -1.095414   0.419733
     7  Na   0.576297   0.059116
 Sum of Mulliken charges =  -0.00000   1.00000

 Dipole moment (field-independent basis, Debye):
    X=             -0.6185    Y=              0.1962    Z=              0.3818  Tot=              0.7528
 Quadrupole moment (field-independent basis, Debye-Ang):
   XX=            -54.1585   YY=            -76.8039   ZZ=            -64.8441
   XY=              0.6053   XZ=              0.0415   YZ=             -1.8569

 Normal termination of Gaussian 16 at Tue Dec  5 22:17:10 2023.
