 Gaussian 16, Revision B.01,
 Gaussian 16:  ES64L-G16RevB.01 20-Dec-2017

 -------------------------
 #P B3LYP/6-311+g(d) force
 -------------------------

 -----
 DPGEN
 -----
 Symbolic Z-matrix:
 Charge =  0 Multiplicity = 2

                         Standard orientation:
 ---------------------------------------------------------------------
 Center     Atomic      Atomic             Coordinates (Angstroms)
 Number     Number       Type             X           Y           Z
 ---------------------------------------------------------------------
      1         11           0       -1.821440   -2.252163   -0.069183
      2         11           0       -2.966302    0.761120    0.011145
      3         11           0        0.011288    2.730388    0.245031
      4         11           0       -0.109273    0.331941   -1.820682
      5         11           0        0.151341   -0.435938    1.925522
      6         11           0        2.039032   -1.961116   -0.305513
      7         11           0        2.695355    0.825768    0.013679
 ---------------------------------------------------------------------

 SCF Done:  E(UB3LYP) =  -1136.13523832     A.U. after   19 cycles

 The electronic state is 2-A.
 Alpha  occ. eigenvalues --  -38.44062 -38.43740 -38.43530 -38.43498 -38.43428
 Alpha  occ. eigenvalues --  -38.43391 -38.42905  -2.19920  -2.19699  -2.19454
 Alpha  occ. eigenvalues --   -2.19448  -2.19371  -2.19297  -2.18804  -1.13603
 Alpha  occ. eigenvalues --   -1.13582  -1.13562  -1.13514  -1.13357  -1.13341
 Alpha  occ. eigenvalues --   -1.13154  -1.13106  -1.13095  -1.13086  -1.13059
 Alpha  occ. eigenvalues --   -1.13054  -1.13037  -1.13012  -1.12990  -1.12959
 Alpha  occ. eigenvalues --   -1.12950  -1.12928  -1.12486  -1.12460  -1.12434
 Alpha  occ. eigenvalues --   -0.19282  -0.13481  -0.12363  -0.11093
 Alpha virt. eigenvalues --   -0.05610  -0.05027  -0.04319  -0.03487  -0.02972
 Alpha virt. eigenvalues --   -0.02618  -0.01435  -0.00890  -0.00096  -0.00026
 Alpha virt. eigenvalues --   -0.00006   0.00388   0.00831   0.00945   0.00965

  Beta  occ. eigenvalues --  -38.44060 -38.43731 -38.43519 -38.43423 -38.43414
  Beta  occ. eigenvalues --  -38.43316 -38.42897  -2.19919  -2.19689  -2.19440
  Beta  occ. eigenvalues --   -2.19294  -2.19293  -2.19234  -2.18793  -1.13600
  Beta  occ. eigenvalues --   -1.13567  -1.13562  -1.13510  -1.13351  -1.13296
  Beta  occ. eigenvalues --   -1.13112  -1.13058  -1.13054  -1.13023  -1.12991
  Beta  occ. eigenvalues --   -1.12965  -1.12953  -1.12948  -1.12934  -1.12911
  Beta  occ. eigenvalues --   -1.12901  -1.12884  -1.12480  -1.12431  -1.12422
  Beta  occ. eigenvalues --   -0.18508  -0.13221  -0.12121
  Beta virt. eigenvalues --   -0.07127  -0.05568  -0.05031  -0.04286  -0.02637
  Beta virt. eigenvalues --   -0.02180  -0.01566  -0.01344  -0.00827  -0.00139
  Beta virt. eigenvalues --   -0.00058   0.00114   0.00402   0.00892   0.00940

 Mulliken charges and spin densities:
               1          2
     1  Na   0.168036  -0.103015
     2  Na   0.087047  -0.078187
     3  Na   0.161453  -0.038700
     4  Na  -0.457024   0.561403
     5  Na  -0.548756   0.643391
     6  Na   0.275762  -0.029692
     7  Na   0.313482   0.044802
 Sum of Mulliken charges =  -0.00000   1.00000

 Dipole moment (field-independent basis, Debye):
    X=             -0.3234    Y=             -0.0666    Z=              0.0522  Tot=              0.3343
 Quadrupole moment (field-independent basis, Debye-Ang):
   XX=            -57.4748   YY=            -65.2484   ZZ=            -72.2719
   XY=             -0.4022   XZ=             -0.4607   YZ=              1.7392

 Normal termination of Gaussian 16 at Wed Nov 29 17:11:24 2023.
