 Gaussian 16, Revision B.01,
 Gaussian 16:  ES64L-G16RevB.01 20-Dec-2017

 -------------------------
 #P B3LYP/6-311+g(d) force
 -------------------------

 -----
 DPGEN
 -----
 Symbolic Z-matrix:
 Charge =  0 Multiplicity = 2

                         Standard orientation:
 ---------------------------------------------------------------------
 Center     Atomic      Atomic             Coordinates (Angstroms)
 Number     Number       Type             X           Y           Z
 ---------------------------------------------------------------------
      1         11           0       -2.205740    0.459743    2.024322
      2         11           0       -3.486921   -1.366335   -0.636474
      3         11           0       -0.106239    2.522018    0.510719
      4         11           0       -1.084418    0.136639   -1.902350
      5         11           0        0.435158   -1.743214    0.526988
      6         11           0        4.286476   -1.203136    0.535954
      7         11           0        2.161684    1.194284   -1.059158
 ---------------------------------------------------------------------

 SCF Done:  E(UB3LYP) =  -1136.12176487     A.U. after   24 cycles

 The electronic state is 2-A.
 Alpha  occ. eigenvalues --  -38.44967 -38.44460 -38.44405 -38.44096 -38.44091
 Alpha  occ. eigenvalues --  -38.43646 -38.42660  -2.20752  -2.20326  -2.20246
 Alpha  occ. eigenvalues --   -2.20031  -2.19851  -2.19534  -2.18551  -1.14479
 Alpha  occ. eigenvalues --   -1.14446  -1.14325  -1.13992  -1.13977  -1.13966
 Alpha  occ. eigenvalues --   -1.13947  -1.13889  -1.13859  -1.13720  -1.13663
 Alpha  occ. eigenvalues --   -1.13614  -1.13525  -1.13522  -1.13475  -1.13243
 Alpha  occ. eigenvalues --   -1.13220  -1.13131  -1.12233  -1.12215  -1.12188
 Alpha  occ. eigenvalues --   -0.18353  -0.13647  -0.11823  -0.11332
 Alpha virt. eigenvalues --   -0.06942  -0.05068  -0.04446  -0.03319  -0.02940
 Alpha virt. eigenvalues --   -0.02642  -0.02476  -0.01229  -0.00815  -0.00023
 Alpha virt. eigenvalues --    0.00085   0.00236   0.00270   0.00493   0.00747

  Beta  occ. eigenvalues --  -38.44956 -38.44389 -38.44374 -38.44089 -38.44019
  Beta  occ. eigenvalues --  -38.43636 -38.42653  -2.20735  -2.20220  -2.20167
  Beta  occ. eigenvalues --   -2.19890  -2.19847  -2.19517  -2.18543  -1.14453
  Beta  occ. eigenvalues --   -1.14428  -1.14318  -1.13938  -1.13886  -1.13874
  Beta  occ. eigenvalues --   -1.13862  -1.13856  -1.13803  -1.13625  -1.13575
  Beta  occ. eigenvalues --   -1.13523  -1.13519  -1.13507  -1.13473  -1.13237
  Beta  occ. eigenvalues --   -1.13200  -1.13115  -1.12228  -1.12209  -1.12157
  Beta  occ. eigenvalues --   -0.17635  -0.13422  -0.11304
  Beta virt. eigenvalues --   -0.07718  -0.06747  -0.04823  -0.03931  -0.02983
  Beta virt. eigenvalues --   -0.02565  -0.02235  -0.01905  -0.01075  -0.00437
  Beta virt. eigenvalues --    0.00021   0.00109   0.00295   0.00493   0.00624

 Mulliken charges and spin densities:
               1          2
     1  Na   0.089234   0.252236
     2  Na   0.603442   0.125739
     3  Na  -0.236183   0.083001
     4  Na  -0.175251   0.284518
     5  Na  -0.803307   0.228035
     6  Na   0.206340  -0.073991
     7  Na   0.315725   0.100462
 Sum of Mulliken charges =  -0.00000   1.00000

 Dipole moment (field-independent basis, Debye):
    X=             -0.5769    Y=             -0.2035    Z=              0.1010  Tot=              0.6200
 Quadrupole moment (field-independent basis, Debye-Ang):
   XX=            -53.7308   YY=            -73.8573   ZZ=            -69.1807
   XY=              2.8832   XZ=             -0.5315   YZ=             -0.2543

 Normal termination of Gaussian 16 at Tue Dec  5 20:56:32 2023.
