 Gaussian 16, Revision B.01,
 Gaussian 16:  ES64L-G16RevB.01 20-Dec-2017

 -------------------------
 #P B3LYP/6-311+g(d) force
 -------------------------

 -----
 DPGEN
 -----
 Symbolic Z-matrix:
 Charge =  0 Multiplicity = 2

                         Standard orientation:
 ---------------------------------------------------------------------
 Center     Atomic      Atomic             Coordinates (Angstroms)
 Number     Number       Type             X           Y           Z
 ---------------------------------------------------------------------
      1         11           0        0.430707   -2.839174    0.048358
      2         11           0        1.864307    2.225724   -0.198729
      3         11           0       -0.189354   -0.409577   -1.688077
      4         11           0        3.281785   -0.645243    0.246452
      5         11           0       -1.576989    2.534380   -0.230489
      6         11           0       -0.811035    0.234086    1.975949
      7         11           0       -2.999422   -1.100197   -0.153463
 ---------------------------------------------------------------------

 SCF Done:  E(UB3LYP) =  -1136.13472145     A.U. after   19 cycles

 The electronic state is 2-A.
 Alpha  occ. eigenvalues --  -38.44383 -38.44054 -38.43676 -38.43578 -38.43535
 Alpha  occ. eigenvalues --  -38.43493 -38.43234  -2.20225  -2.19862  -2.19527
 Alpha  occ. eigenvalues --   -2.19436  -2.19433  -2.19336  -2.19203  -1.13909
 Alpha  occ. eigenvalues --   -1.13900  -1.13849  -1.13546  -1.13525  -1.13501
 Alpha  occ. eigenvalues --   -1.13281  -1.13186  -1.13162  -1.13132  -1.13105
 Alpha  occ. eigenvalues --   -1.13084  -1.13075  -1.13059  -1.13031  -1.13009
 Alpha  occ. eigenvalues --   -1.13002  -1.12966  -1.12870  -1.12829  -1.12818
 Alpha  occ. eigenvalues --   -0.18532  -0.13089  -0.12557  -0.10592
 Alpha virt. eigenvalues --   -0.05980  -0.05213  -0.04662  -0.03180  -0.02960
 Alpha virt. eigenvalues --   -0.02416  -0.01644  -0.01115  -0.00523  -0.00314
 Alpha virt. eigenvalues --   -0.00021   0.00345   0.00814   0.00860   0.00877

  Beta  occ. eigenvalues --  -38.44375 -38.44053 -38.43671 -38.43570 -38.43490
  Beta  occ. eigenvalues --  -38.43451 -38.43164  -2.20215  -2.19861  -2.19521
  Beta  occ. eigenvalues --   -2.19423  -2.19333  -2.19279  -2.19075  -1.13899
  Beta  occ. eigenvalues --   -1.13863  -1.13845  -1.13548  -1.13514  -1.13501
  Beta  occ. eigenvalues --   -1.13265  -1.13163  -1.13132  -1.13132  -1.13073
  Beta  occ. eigenvalues --   -1.13068  -1.13007  -1.12984  -1.12981  -1.12968
  Beta  occ. eigenvalues --   -1.12950  -1.12937  -1.12785  -1.12739  -1.12724
  Beta  occ. eigenvalues --   -0.17823  -0.12883  -0.12313
  Beta virt. eigenvalues --   -0.06724  -0.05926  -0.05158  -0.04603  -0.02463
  Beta virt. eigenvalues --   -0.02174  -0.01582  -0.01389  -0.01053  -0.00561
  Beta virt. eigenvalues --   -0.00352   0.00143   0.00389   0.00826   0.00884

 Mulliken charges and spin densities:
               1          2
     1  Na   0.096833  -0.055109
     2  Na  -0.047052  -0.038201
     3  Na  -0.041223   0.555377
     4  Na  -0.141862  -0.025335
     5  Na   0.204270  -0.102561
     6  Na  -0.399243   0.800137
     7  Na   0.328276  -0.134308
 Sum of Mulliken charges =  -0.00000   1.00000

 Dipole moment (field-independent basis, Debye):
    X=             -0.3141    Y=             -0.2040    Z=              0.0858  Tot=              0.3843
 Quadrupole moment (field-independent basis, Debye-Ang):
   XX=            -55.6466   YY=            -63.3093   ZZ=            -74.9649
   XY=             -0.0923   XZ=              1.5976   YZ=             -1.4794

 Normal termination of Gaussian 16 at Thu Dec  7 18:12:42 2023.
