 Gaussian 16, Revision B.01,
 Gaussian 16:  ES64L-G16RevB.01 20-Dec-2017

 -------------------------
 #P B3LYP/6-311+g(d) force
 -------------------------

 -----
 DPGEN
 -----
 Symbolic Z-matrix:
 Charge =  0 Multiplicity = 2

                         Standard orientation:
 ---------------------------------------------------------------------
 Center     Atomic      Atomic             Coordinates (Angstroms)
 Number     Number       Type             X           Y           Z
 ---------------------------------------------------------------------
      1         11           0       -0.150741    1.077669    1.223955
      2         11           0       -1.875754    3.462858   -0.990617
      3         11           0       -3.277176    0.632224    0.513040
      4         11           0       -0.215153   -2.148886   -0.218281
      5         11           0        2.829565   -0.451605    1.125151
      6         11           0       -3.308978   -2.683333   -0.719183
      7         11           0        5.998237    0.111073   -0.934065
 ---------------------------------------------------------------------

 SCF Done:  E(UB3LYP) =  -1136.12024473     A.U. after   21 cycles

 The electronic state is 2-A.
 Alpha  occ. eigenvalues --  -38.44913 -38.44597 -38.44469 -38.44101 -38.43968
 Alpha  occ. eigenvalues --  -38.43290 -38.43250  -2.20698  -2.20371  -2.20312
 Alpha  occ. eigenvalues --   -2.19935  -2.19851  -2.19120  -2.19053  -1.14328
 Alpha  occ. eigenvalues --   -1.14328  -1.14299  -1.14049  -1.14043  -1.14039
 Alpha  occ. eigenvalues --   -1.14003  -1.13976  -1.13883  -1.13630  -1.13622
 Alpha  occ. eigenvalues --   -1.13560  -1.13554  -1.13529  -1.13427  -1.12784
 Alpha  occ. eigenvalues --   -1.12772  -1.12758  -1.12744  -1.12729  -1.12692
 Alpha  occ. eigenvalues --   -0.16911  -0.13594  -0.12364  -0.11329
 Alpha virt. eigenvalues --   -0.06483  -0.05125  -0.04652  -0.03757  -0.02679
 Alpha virt. eigenvalues --   -0.02326  -0.02016  -0.01809  -0.00928  -0.00716
 Alpha virt. eigenvalues --   -0.00537  -0.00244   0.00150   0.00443   0.00626

  Beta  occ. eigenvalues --  -38.44774 -38.44590 -38.44457 -38.44091 -38.43937
  Beta  occ. eigenvalues --  -38.43277 -38.43254  -2.20440  -2.20357  -2.20291
  Beta  occ. eigenvalues --   -2.19919  -2.19798  -2.19096  -2.19067  -1.14153
  Beta  occ. eigenvalues --   -1.14153  -1.14128  -1.14034  -1.14032  -1.14026
  Beta  occ. eigenvalues --   -1.13993  -1.13965  -1.13865  -1.13619  -1.13610
  Beta  occ. eigenvalues --   -1.13538  -1.13526  -1.13496  -1.13375  -1.12769
  Beta  occ. eigenvalues --   -1.12759  -1.12755  -1.12746  -1.12741  -1.12652
  Beta  occ. eigenvalues --   -0.16556  -0.12665  -0.12257
  Beta virt. eigenvalues --   -0.07582  -0.06384  -0.04658  -0.04395  -0.03633
  Beta virt. eigenvalues --   -0.02496  -0.01998  -0.01460  -0.01369  -0.00758
  Beta virt. eigenvalues --   -0.00430  -0.00321   0.00023   0.00302   0.00548

 Mulliken charges and spin densities:
               1          2
     1  Na  -0.659532   0.069432
     2  Na   0.328847   0.062582
     3  Na   0.130595   0.159042
     4  Na  -0.381959   0.030919
     5  Na   0.207581  -0.071478
     6  Na   0.394331   0.059129
     7  Na  -0.019863   0.690374
 Sum of Mulliken charges =  -0.00000   1.00000

 Dipole moment (field-independent basis, Debye):
    X=             -0.9525    Y=              0.8612    Z=             -0.7160  Tot=              1.4702
 Quadrupole moment (field-independent basis, Debye-Ang):
   XX=            -66.5301   YY=            -65.3349   ZZ=            -67.3583
   XY=             -0.5442   XZ=             -1.3058   YZ=             -2.5029

 Normal termination of Gaussian 16 at Tue Nov 28 22:41:03 2023.
