 Gaussian 16, Revision B.01,
 Gaussian 16:  ES64L-G16RevB.01 20-Dec-2017

 -------------------------
 #P B3LYP/6-311+g(d) force
 -------------------------

 -----
 DPGEN
 -----
 Symbolic Z-matrix:
 Charge =  0 Multiplicity = 2

                         Standard orientation:
 ---------------------------------------------------------------------
 Center     Atomic      Atomic             Coordinates (Angstroms)
 Number     Number       Type             X           Y           Z
 ---------------------------------------------------------------------
      1         11           0       -2.739371    0.265302    1.925709
      2         11           0        1.906108    1.740928   -0.202452
      3         11           0        2.002346   -1.000392    1.782952
      4         11           0        0.004995   -0.815740   -0.553268
      5         11           0       -3.680869   -1.849314   -1.257426
      6         11           0        4.010288   -0.888117   -0.922020
      7         11           0       -1.503498    2.547333   -0.773495
 ---------------------------------------------------------------------

 SCF Done:  E(UB3LYP) =  -1136.11195331     A.U. after   25 cycles

 The electronic state is 2-A.
 Alpha  occ. eigenvalues --  -38.45708 -38.45007 -38.44746 -38.44022 -38.43748
 Alpha  occ. eigenvalues --  -38.43414 -38.43020  -2.21443  -2.20829  -2.20645
 Alpha  occ. eigenvalues --   -2.19932  -2.19520  -2.19309  -2.18822  -1.15123
 Alpha  occ. eigenvalues --   -1.15099  -1.15078  -1.14496  -1.14486  -1.14452
 Alpha  occ. eigenvalues --   -1.14402  -1.14307  -1.14256  -1.13624  -1.13582
 Alpha  occ. eigenvalues --   -1.13513  -1.13179  -1.13176  -1.13131  -1.13026
 Alpha  occ. eigenvalues --   -1.12996  -1.12894  -1.12502  -1.12477  -1.12452
 Alpha  occ. eigenvalues --   -0.17928  -0.14066  -0.10961  -0.10407
 Alpha virt. eigenvalues --   -0.07147  -0.05782  -0.05177  -0.03065  -0.02872
 Alpha virt. eigenvalues --   -0.02231  -0.01921  -0.01560  -0.01082  -0.00384
 Alpha virt. eigenvalues --   -0.00110   0.00026   0.00047   0.00265   0.00509

  Beta  occ. eigenvalues --  -38.45708 -38.44979 -38.44729 -38.43961 -38.43689
  Beta  occ. eigenvalues --  -38.43412 -38.43017  -2.21444  -2.20777  -2.20619
  Beta  occ. eigenvalues --   -2.19819  -2.19410  -2.19308  -2.18816  -1.15117
  Beta  occ. eigenvalues --   -1.15099  -1.15073  -1.14462  -1.14442  -1.14421
  Beta  occ. eigenvalues --   -1.14336  -1.14294  -1.14245  -1.13546  -1.13507
  Beta  occ. eigenvalues --   -1.13424  -1.13102  -1.13100  -1.13062  -1.13029
  Beta  occ. eigenvalues --   -1.12971  -1.12898  -1.12492  -1.12472  -1.12455
  Beta  occ. eigenvalues --   -0.17393  -0.13821  -0.10722
  Beta virt. eigenvalues --   -0.07033  -0.06725  -0.05408  -0.04794  -0.02815
  Beta virt. eigenvalues --   -0.02722  -0.01870  -0.01465  -0.01201  -0.00718
  Beta virt. eigenvalues --   -0.00310   0.00034   0.00170   0.00234   0.00414

 Mulliken charges and spin densities:
               1          2
     1  Na   0.184691   0.026931
     2  Na   0.088330   0.221656
     3  Na   0.423945   0.254566
     4  Na  -1.969524   0.056285
     5  Na   0.235552   0.210019
     6  Na   1.053506   0.204511
     7  Na  -0.016501   0.026033
 Sum of Mulliken charges =  -0.00000   1.00000

 Dipole moment (field-independent basis, Debye):
    X=              0.7976    Y=              0.1454    Z=              0.7973  Tot=              1.1371
 Quadrupole moment (field-independent basis, Debye-Ang):
   XX=            -52.9828   YY=            -76.4258   ZZ=            -66.9248
   XY=             -6.0774   XZ=             -3.9360   YZ=              4.4077

 Normal termination of Gaussian 16 at Tue Dec  5 22:32:25 2023.
