 Gaussian 16, Revision B.01,
 Gaussian 16:  ES64L-G16RevB.01 20-Dec-2017

 -------------------------
 #P B3LYP/6-311+g(d) force
 -------------------------

 -----
 DPGEN
 -----
 Symbolic Z-matrix:
 Charge =  0 Multiplicity = 2

                         Standard orientation:
 ---------------------------------------------------------------------
 Center     Atomic      Atomic             Coordinates (Angstroms)
 Number     Number       Type             X           Y           Z
 ---------------------------------------------------------------------
      1         11           0       -3.191731    0.708354   -1.143240
      2         11           0        2.419298   -1.550309   -0.824646
      3         11           0        0.205666    1.807889   -0.747005
      4         11           0       -0.649924   -1.706158   -1.311878
      5         11           0       -2.437851    0.034787    1.777886
      6         11           0        3.092370    1.667486    0.283427
      7         11           0        0.562172   -0.962049    1.965457
 ---------------------------------------------------------------------

 SCF Done:  E(UB3LYP) =  -1136.12575933     A.U. after   24 cycles

 The electronic state is 2-A.
 Alpha  occ. eigenvalues --  -38.44659 -38.44291 -38.43971 -38.43936 -38.43491
 Alpha  occ. eigenvalues --  -38.43359 -38.43298  -2.20550  -2.20156  -2.19867
 Alpha  occ. eigenvalues --   -2.19824  -2.19402  -2.19227  -2.19149  -1.14258
 Alpha  occ. eigenvalues --   -1.14202  -1.14174  -1.13820  -1.13798  -1.13786
 Alpha  occ. eigenvalues --   -1.13562  -1.13545  -1.13524  -1.13485  -1.13444
 Alpha  occ. eigenvalues --   -1.13436  -1.13092  -1.13036  -1.13011  -1.12965
 Alpha  occ. eigenvalues --   -1.12908  -1.12898  -1.12803  -1.12785  -1.12739
 Alpha  occ. eigenvalues --   -0.18710  -0.14012  -0.12082  -0.11282
 Alpha virt. eigenvalues --   -0.06288  -0.05011  -0.04772  -0.03562  -0.02850
 Alpha virt. eigenvalues --   -0.02558  -0.02064  -0.00839  -0.00694   0.00046
 Alpha virt. eigenvalues --    0.00209   0.00334   0.00397   0.00605   0.00811

  Beta  occ. eigenvalues --  -38.44603 -38.44273 -38.43919 -38.43910 -38.43439
  Beta  occ. eigenvalues --  -38.43351 -38.43297  -2.20449  -2.20124  -2.19794
  Beta  occ. eigenvalues --   -2.19757  -2.19308  -2.19214  -2.19148  -1.14162
  Beta  occ. eigenvalues --   -1.14141  -1.14108  -1.13786  -1.13773  -1.13765
  Beta  occ. eigenvalues --   -1.13512  -1.13483  -1.13478  -1.13422  -1.13408
  Beta  occ. eigenvalues --   -1.13379  -1.13029  -1.12967  -1.12954  -1.12940
  Beta  occ. eigenvalues --   -1.12899  -1.12883  -1.12798  -1.12785  -1.12734
  Beta  occ. eigenvalues --   -0.17985  -0.13842  -0.11099
  Beta virt. eigenvalues --   -0.07936  -0.06172  -0.04658  -0.04302  -0.03125
  Beta virt. eigenvalues --   -0.02278  -0.02001  -0.01918  -0.00654  -0.00375
  Beta virt. eigenvalues --    0.00167   0.00252   0.00373   0.00510   0.00750

 Mulliken charges and spin densities:
               1          2
     1  Na   1.122991   0.220000
     2  Na   0.424722   0.026077
     3  Na  -1.313873   0.178438
     4  Na  -0.572477   0.319153
     5  Na  -0.124881  -0.019489
     6  Na   0.691292  -0.137535
     7  Na  -0.227774   0.413357
 Sum of Mulliken charges =  -0.00000   1.00000

 Dipole moment (field-independent basis, Debye):
    X=             -0.5046    Y=             -0.3671    Z=              0.1178  Tot=              0.6351
 Quadrupole moment (field-independent basis, Debye-Ang):
   XX=            -52.1354   YY=            -78.5258   ZZ=            -66.4089
   XY=             -2.8264   XZ=              1.5246   YZ=              1.7549

 Normal termination of Gaussian 16 at Tue Dec  5 22:00:14 2023.
