 Gaussian 16, Revision B.01,
 Gaussian 16:  ES64L-G16RevB.01 20-Dec-2017

 -------------------------
 #P B3LYP/6-311+g(d) force
 -------------------------

 -----
 DPGEN
 -----
 Symbolic Z-matrix:
 Charge =  0 Multiplicity = 2

                         Standard orientation:
 ---------------------------------------------------------------------
 Center     Atomic      Atomic             Coordinates (Angstroms)
 Number     Number       Type             X           Y           Z
 ---------------------------------------------------------------------
      1         11           0       -0.767219   -2.825571   -0.327113
      2         11           0        2.347249    1.956546   -0.199353
      3         11           0       -2.822693   -0.315563   -0.681250
      4         11           0        0.548041   -0.045915   -1.600794
      5         11           0       -0.897776    0.000619    2.463781
      6         11           0       -1.349357    2.620152   -0.086019
      7         11           0        2.941756   -1.390269    0.430749
 ---------------------------------------------------------------------

 SCF Done:  E(UB3LYP) =  -1136.13373010     A.U. after   19 cycles

 The electronic state is 2-A.
 Alpha  occ. eigenvalues --  -38.44392 -38.44218 -38.43787 -38.43749 -38.43404
 Alpha  occ. eigenvalues --  -38.43269 -38.43245  -2.20208  -2.20018  -2.19639
 Alpha  occ. eigenvalues --   -2.19630  -2.19383  -2.19113  -2.19083  -1.13849
 Alpha  occ. eigenvalues --   -1.13835  -1.13827  -1.13689  -1.13685  -1.13656
 Alpha  occ. eigenvalues --   -1.13401  -1.13314  -1.13293  -1.13290  -1.13277
 Alpha  occ. eigenvalues --   -1.13244  -1.13061  -1.13027  -1.13000  -1.12790
 Alpha  occ. eigenvalues --   -1.12766  -1.12757  -1.12748  -1.12747  -1.12721
 Alpha  occ. eigenvalues --   -0.18279  -0.13158  -0.12167  -0.11125
 Alpha virt. eigenvalues --   -0.05602  -0.05174  -0.04601  -0.03554  -0.02985
 Alpha virt. eigenvalues --   -0.02922  -0.01361  -0.01003  -0.00358  -0.00298
 Alpha virt. eigenvalues --   -0.00085   0.00356   0.00725   0.00840   0.00868

  Beta  occ. eigenvalues --  -38.44283 -38.44213 -38.43785 -38.43735 -38.43358
  Beta  occ. eigenvalues --  -38.43264 -38.43242  -2.20009  -2.20004  -2.19637
  Beta  occ. eigenvalues --   -2.19609  -2.19301  -2.19107  -2.19081  -1.13710
  Beta  occ. eigenvalues --   -1.13698  -1.13683  -1.13679  -1.13674  -1.13650
  Beta  occ. eigenvalues --   -1.13388  -1.13297  -1.13284  -1.13276  -1.13245
  Beta  occ. eigenvalues --   -1.13243  -1.13009  -1.12970  -1.12937  -1.12780
  Beta  occ. eigenvalues --   -1.12756  -1.12755  -1.12737  -1.12736  -1.12712
  Beta  occ. eigenvalues --   -0.17596  -0.12959  -0.11971
  Beta virt. eigenvalues --   -0.07161  -0.05469  -0.05142  -0.04491  -0.02871
  Beta virt. eigenvalues --   -0.02199  -0.01937  -0.01255  -0.00934  -0.00381
  Beta virt. eigenvalues --   -0.00324   0.00117   0.00410   0.00864   0.00871

 Mulliken charges and spin densities:
               1          2
     1  Na   0.028086   0.037180
     2  Na   0.194234  -0.006539
     3  Na   0.336514   0.061010
     4  Na   0.259171   0.065247
     5  Na  -0.754597   0.717659
     6  Na   0.065517   0.038361
     7  Na  -0.128926   0.087082
 Sum of Mulliken charges =  -0.00000   1.00000

 Dipole moment (field-independent basis, Debye):
    X=              0.3433    Y=             -0.0773    Z=              0.3381  Tot=              0.4880
 Quadrupole moment (field-independent basis, Debye-Ang):
   XX=            -59.3711   YY=            -64.6342   ZZ=            -71.6467
   XY=             -0.5429   XZ=              2.7404   YZ=             -0.6912

 Normal termination of Gaussian 16 at Thu Dec  7 02:30:11 2023.
