 Gaussian 16, Revision B.01,
 Gaussian 16:  ES64L-G16RevB.01 20-Dec-2017

 -------------------------
 #P B3LYP/6-311+g(d) force
 -------------------------

 -----
 DPGEN
 -----
 Symbolic Z-matrix:
 Charge =  0 Multiplicity = 2

                         Standard orientation:
 ---------------------------------------------------------------------
 Center     Atomic      Atomic             Coordinates (Angstroms)
 Number     Number       Type             X           Y           Z
 ---------------------------------------------------------------------
      1         11           0        0.141749   -0.101304    2.115869
      2         11           0        1.195065   -1.563458   -0.985624
      3         11           0       -1.311705    1.565930   -0.652895
      4         11           0        1.543857    1.906917   -0.775712
      5         11           0       -2.033549   -1.590027   -0.785766
      6         11           0       -3.738924    0.166695    0.621458
      7         11           0        4.203507   -0.384753    0.462670
 ---------------------------------------------------------------------

 SCF Done:  E(UB3LYP) =  -1136.10562572     A.U. after   31 cycles

 The electronic state is 2-A.
 Alpha  occ. eigenvalues --  -38.46413 -38.45614 -38.45382 -38.43464 -38.43356
 Alpha  occ. eigenvalues --  -38.42715 -38.42446  -2.22198  -2.21384  -2.21292
 Alpha  occ. eigenvalues --   -2.19433  -2.19249  -2.18633  -2.18461  -1.15894
 Alpha  occ. eigenvalues --   -1.15837  -1.15809  -1.15051  -1.15041  -1.15035
 Alpha  occ. eigenvalues --   -1.15002  -1.14938  -1.14895  -1.13140  -1.13099
 Alpha  occ. eigenvalues --   -1.13050  -1.12940  -1.12895  -1.12867  -1.12478
 Alpha  occ. eigenvalues --   -1.12275  -1.12257  -1.12111  -1.12093  -1.12059
 Alpha  occ. eigenvalues --   -0.18913  -0.14477  -0.11161  -0.10846
 Alpha virt. eigenvalues --   -0.08121  -0.04705  -0.04586  -0.03495  -0.03196
 Alpha virt. eigenvalues --   -0.02224  -0.02174  -0.01314  -0.01057  -0.00218
 Alpha virt. eigenvalues --   -0.00114   0.00232   0.00274   0.00687   0.00768

  Beta  occ. eigenvalues --  -38.46366 -38.45587 -38.45361 -38.43433 -38.43313
  Beta  occ. eigenvalues --  -38.42704 -38.42431  -2.22108  -2.21333  -2.21253
  Beta  occ. eigenvalues --   -2.19380  -2.19175  -2.18616  -2.18440  -1.15828
  Beta  occ. eigenvalues --   -1.15778  -1.15740  -1.15014  -1.15013  -1.15006
  Beta  occ. eigenvalues --   -1.14969  -1.14914  -1.14858  -1.13082  -1.13067
  Beta  occ. eigenvalues --   -1.13003  -1.12897  -1.12840  -1.12788  -1.12454
  Beta  occ. eigenvalues --   -1.12257  -1.12243  -1.12103  -1.12051  -1.12034
  Beta  occ. eigenvalues --   -0.18217  -0.14248  -0.10681
  Beta virt. eigenvalues --   -0.07805  -0.07291  -0.04733  -0.03978  -0.03155
  Beta virt. eigenvalues --   -0.02934  -0.01644  -0.01585  -0.00989  -0.00853
  Beta virt. eigenvalues --   -0.00136  -0.00059   0.00288   0.00421   0.00782

 Mulliken charges and spin densities:
               1          2
     1  Na  -0.599382   0.296758
     2  Na  -0.546570   0.126637
     3  Na  -0.926897   0.142688
     4  Na  -0.471164  -0.129627
     5  Na  -0.593823  -0.099579
     6  Na   2.191998   0.433034
     7  Na   0.945838   0.230089
 Sum of Mulliken charges =  -0.00000   1.00000

 Dipole moment (field-independent basis, Debye):
    X=              0.4925    Y=              0.1253    Z=              1.0223  Tot=              1.1416
 Quadrupole moment (field-independent basis, Debye-Ang):
   XX=            -44.7298   YY=            -81.6550   ZZ=            -68.8242
   XY=              0.2030   XZ=             -0.9604   YZ=              0.1545

 Normal termination of Gaussian 16 at Fri Dec  8 03:34:42 2023.
