 Gaussian 16, Revision B.01,
 Gaussian 16:  ES64L-G16RevB.01 20-Dec-2017

 -------------------------
 #P B3LYP/6-311+g(d) force
 -------------------------

 -----
 DPGEN
 -----
 Symbolic Z-matrix:
 Charge =  0 Multiplicity = 2

                         Standard orientation:
 ---------------------------------------------------------------------
 Center     Atomic      Atomic             Coordinates (Angstroms)
 Number     Number       Type             X           Y           Z
 ---------------------------------------------------------------------
      1         11           0        1.713194    1.646089    0.901299
      2         11           0        3.795228   -0.161171   -0.543893
      3         11           0        0.800676   -2.231963    0.778480
      4         11           0       -1.825577    2.406622   -0.508532
      5         11           0       -1.758696    0.097761    1.528063
      6         11           0       -2.672212   -1.546663   -0.588800
      7         11           0       -0.052613   -0.210674   -1.566617
 ---------------------------------------------------------------------

 SCF Done:  E(UB3LYP) =  -1136.12395693     A.U. after   22 cycles

 The electronic state is 2-A.
 Alpha  occ. eigenvalues --  -38.44924 -38.44323 -38.43692 -38.43529 -38.43453
 Alpha  occ. eigenvalues --  -38.43410 -38.43061  -2.20732  -2.20247  -2.19549
 Alpha  occ. eigenvalues --   -2.19468  -2.19410  -2.19380  -2.18933  -1.14426
 Alpha  occ. eigenvalues --   -1.14387  -1.14355  -1.14038  -1.13931  -1.13817
 Alpha  occ. eigenvalues --   -1.13239  -1.13220  -1.13173  -1.13167  -1.13140
 Alpha  occ. eigenvalues --   -1.13118  -1.13087  -1.13062  -1.13047  -1.13038
 Alpha  occ. eigenvalues --   -1.13007  -1.12965  -1.12606  -1.12598  -1.12549
 Alpha  occ. eigenvalues --   -0.18923  -0.13882  -0.11732  -0.10684
 Alpha virt. eigenvalues --   -0.06599  -0.05141  -0.04074  -0.03380  -0.02586
 Alpha virt. eigenvalues --   -0.02224  -0.02155  -0.01025  -0.00598   0.00004
 Alpha virt. eigenvalues --    0.00101   0.00282   0.00514   0.00787   0.00809

  Beta  occ. eigenvalues --  -38.44923 -38.44307 -38.43677 -38.43511 -38.43399
  Beta  occ. eigenvalues --  -38.43344 -38.43053  -2.20729  -2.20222  -2.19524
  Beta  occ. eigenvalues --   -2.19369  -2.19349  -2.19292  -2.18922  -1.14425
  Beta  occ. eigenvalues --   -1.14379  -1.14354  -1.14017  -1.13891  -1.13795
  Beta  occ. eigenvalues --   -1.13222  -1.13180  -1.13159  -1.13123  -1.13069
  Beta  occ. eigenvalues --   -1.13050  -1.13021  -1.12996  -1.12988  -1.12955
  Beta  occ. eigenvalues --   -1.12942  -1.12931  -1.12595  -1.12579  -1.12531
  Beta  occ. eigenvalues --   -0.18189  -0.13711  -0.11491
  Beta virt. eigenvalues --   -0.06749  -0.06465  -0.05092  -0.03811  -0.02986
  Beta virt. eigenvalues --   -0.02126  -0.01879  -0.01200  -0.00975  -0.00362
  Beta virt. eigenvalues --    0.00092   0.00121   0.00324   0.00657   0.00822

 Mulliken charges and spin densities:
               1          2
     1  Na  -0.347148   0.034518
     2  Na   0.406988  -0.004436
     3  Na  -0.223304   0.053445
     4  Na   0.083995  -0.012817
     5  Na   0.028009   0.466113
     6  Na   0.539780   0.000248
     7  Na  -0.488321   0.462930
 Sum of Mulliken charges =  -0.00000   1.00000

 Dipole moment (field-independent basis, Debye):
    X=              0.8382    Y=             -0.3002    Z=             -0.1504  Tot=              0.9030
 Quadrupole moment (field-independent basis, Debye-Ang):
   XX=            -49.3195   YY=            -70.2064   ZZ=            -72.6130
   XY=             -0.2502   XZ=             -0.1709   YZ=             -0.2611

 Normal termination of Gaussian 16 at Tue Dec  5 10:21:10 2023.
