 Gaussian 16, Revision B.01,
 Gaussian 16:  ES64L-G16RevB.01 20-Dec-2017

 -------------------------
 #P B3LYP/6-311+g(d) force
 -------------------------

 -----
 DPGEN
 -----
 Symbolic Z-matrix:
 Charge =  0 Multiplicity = 2

                         Standard orientation:
 ---------------------------------------------------------------------
 Center     Atomic      Atomic             Coordinates (Angstroms)
 Number     Number       Type             X           Y           Z
 ---------------------------------------------------------------------
      1         11           0       -1.085798    2.563613   -0.397728
      2         11           0       -0.583684   -2.555014    0.477126
      3         11           0       -0.308429   -0.488273   -1.749713
      4         11           0        2.797242   -1.653063   -0.430872
      5         11           0        2.220571    2.140635    0.052196
      6         11           0       -3.277409   -0.288515    0.025698
      7         11           0        0.237507    0.280617    2.023292
 ---------------------------------------------------------------------

 SCF Done:  E(UB3LYP) =  -1136.13748403     A.U. after   18 cycles

 The electronic state is 2-A.
 Alpha  occ. eigenvalues --  -38.43992 -38.43887 -38.43651 -38.43644 -38.43489
 Alpha  occ. eigenvalues --  -38.43360 -38.43320  -2.19810  -2.19685  -2.19554
 Alpha  occ. eigenvalues --   -2.19475  -2.19441  -2.19268  -2.19182  -1.13482
 Alpha  occ. eigenvalues --   -1.13465  -1.13463  -1.13362  -1.13335  -1.13332
 Alpha  occ. eigenvalues --   -1.13234  -1.13220  -1.13190  -1.13177  -1.13143
 Alpha  occ. eigenvalues --   -1.13123  -1.13110  -1.13100  -1.13036  -1.12940
 Alpha  occ. eigenvalues --   -1.12921  -1.12864  -1.12857  -1.12847  -1.12798
 Alpha  occ. eigenvalues --   -0.18592  -0.12783  -0.12562  -0.10923
 Alpha virt. eigenvalues --   -0.05594  -0.05189  -0.04547  -0.03218  -0.03056
 Alpha virt. eigenvalues --   -0.02639  -0.01630  -0.01068  -0.00270  -0.00189
 Alpha virt. eigenvalues --   -0.00026   0.00346   0.00780   0.00876   0.00901

  Beta  occ. eigenvalues --  -38.43992 -38.43879 -38.43642 -38.43561 -38.43426
  Beta  occ. eigenvalues --  -38.43344 -38.43311  -2.19812  -2.19672  -2.19474
  Beta  occ. eigenvalues --   -2.19389  -2.19326  -2.19243  -2.19167  -1.13477
  Beta  occ. eigenvalues --   -1.13468  -1.13453  -1.13339  -1.13327  -1.13323
  Beta  occ. eigenvalues --   -1.13171  -1.13140  -1.13135  -1.13112  -1.13105
  Beta  occ. eigenvalues --   -1.13065  -1.13044  -1.13024  -1.12951  -1.12907
  Beta  occ. eigenvalues --   -1.12871  -1.12849  -1.12839  -1.12824  -1.12788
  Beta  occ. eigenvalues --   -0.17852  -0.12578  -0.12309
  Beta virt. eigenvalues --   -0.07008  -0.05534  -0.05172  -0.04465  -0.02460
  Beta virt. eigenvalues --   -0.02321  -0.01606  -0.01540  -0.01010  -0.00278
  Beta virt. eigenvalues --   -0.00205   0.00098   0.00371   0.00850   0.00872

 Mulliken charges and spin densities:
               1          2
     1  Na   0.042668  -0.066685
     2  Na   0.309044   0.058037
     3  Na  -0.271053   0.599481
     4  Na   0.020057  -0.047462
     5  Na   0.058538  -0.065949
     6  Na   0.136194  -0.080228
     7  Na  -0.295449   0.602806
 Sum of Mulliken charges =  -0.00000   1.00000

 Dipole moment (field-independent basis, Debye):
    X=             -0.0115    Y=             -0.0109    Z=              0.0423  Tot=              0.0452
 Quadrupole moment (field-independent basis, Debye-Ang):
   XX=            -55.6367   YY=            -65.0674   ZZ=            -73.0500
   XY=             -0.0326   XZ=             -1.2912   YZ=             -1.2125

 Normal termination of Gaussian 16 at Tue Dec  5 21:03:03 2023.
