 Gaussian 16, Revision B.01,
 Gaussian 16:  ES64L-G16RevB.01 20-Dec-2017

 -------------------------
 #P B3LYP/6-311+g(d) force
 -------------------------

 -----
 DPGEN
 -----
 Symbolic Z-matrix:
 Charge =  0 Multiplicity = 2

                         Standard orientation:
 ---------------------------------------------------------------------
 Center     Atomic      Atomic             Coordinates (Angstroms)
 Number     Number       Type             X           Y           Z
 ---------------------------------------------------------------------
      1         11           0       -1.771405    1.536568   -0.768189
      2         11           0        1.922698    1.100182    0.436313
      3         11           0        1.032528   -2.203487   -0.837871
      4         11           0       -1.664955   -1.881544    1.674429
      5         11           0       -3.780443   -1.256303   -0.576355
      6         11           0        4.129131   -1.340750   -0.183919
      7         11           0        0.132447    4.045334    0.255593
 ---------------------------------------------------------------------

 SCF Done:  E(UB3LYP) =  -1136.12438802     A.U. after   21 cycles

 The electronic state is 2-A.
 Alpha  occ. eigenvalues --  -38.45000 -38.44352 -38.43909 -38.43720 -38.43652
 Alpha  occ. eigenvalues --  -38.43644 -38.43531  -2.20808  -2.20186  -2.19743
 Alpha  occ. eigenvalues --   -2.19567  -2.19486  -2.19471  -2.19381  -1.14507
 Alpha  occ. eigenvalues --   -1.14481  -1.14421  -1.13897  -1.13883  -1.13781
 Alpha  occ. eigenvalues --   -1.13449  -1.13421  -1.13359  -1.13232  -1.13211
 Alpha  occ. eigenvalues --   -1.13190  -1.13190  -1.13137  -1.13136  -1.13127
 Alpha  occ. eigenvalues --   -1.13125  -1.13098  -1.13034  -1.13022  -1.12988
 Alpha  occ. eigenvalues --   -0.17022  -0.13851  -0.13061  -0.09689
 Alpha virt. eigenvalues --   -0.06503  -0.05630  -0.04901  -0.03269  -0.02779
 Alpha virt. eigenvalues --   -0.02444  -0.01824  -0.01457  -0.00982  -0.00741
 Alpha virt. eigenvalues --   -0.00174   0.00021   0.00298   0.00524   0.00665

  Beta  occ. eigenvalues --  -38.44989 -38.44345 -38.43876 -38.43683 -38.43650
  Beta  occ. eigenvalues --  -38.43595 -38.43492  -2.20792  -2.20174  -2.19686
  Beta  occ. eigenvalues --   -2.19497  -2.19466  -2.19396  -2.19310  -1.14500
  Beta  occ. eigenvalues --   -1.14468  -1.14387  -1.13892  -1.13868  -1.13767
  Beta  occ. eigenvalues --   -1.13415  -1.13384  -1.13296  -1.13183  -1.13160
  Beta  occ. eigenvalues --   -1.13147  -1.13133  -1.13130  -1.13123  -1.13093
  Beta  occ. eigenvalues --   -1.13075  -1.13055  -1.12986  -1.12962  -1.12928
  Beta  occ. eigenvalues --   -0.16597  -0.13340  -0.12829
  Beta virt. eigenvalues --   -0.06360  -0.06123  -0.05471  -0.04599  -0.02915
  Beta virt. eigenvalues --   -0.02444  -0.02202  -0.01737  -0.01110  -0.00872
  Beta virt. eigenvalues --   -0.00350   0.00190   0.00250   0.00466   0.00594

 Mulliken charges and spin densities:
               1          2
     1  Na  -0.821158   0.196831
     2  Na  -1.152725   0.058945
     3  Na  -0.439826   0.048750
     4  Na   0.182628   0.308885
     5  Na   0.302830   0.192824
     6  Na   0.958561   0.167428
     7  Na   0.969690   0.026337
 Sum of Mulliken charges =  -0.00000   1.00000

 Dipole moment (field-independent basis, Debye):
    X=              0.9461    Y=             -0.1048    Z=              0.2318  Tot=              0.9797
 Quadrupole moment (field-independent basis, Debye-Ang):
   XX=            -67.7368   YY=            -61.9378   ZZ=            -69.4819
   XY=              2.2374   XZ=             -0.2117   YZ=              4.1605

 Normal termination of Gaussian 16 at Wed Nov 29 03:48:18 2023.
