 Gaussian 16, Revision B.01,
 Gaussian 16:  ES64L-G16RevB.01 20-Dec-2017

 -------------------------
 #P B3LYP/6-311+g(d) force
 -------------------------

 -----
 DPGEN
 -----
 Symbolic Z-matrix:
 Charge =  0 Multiplicity = 2

                         Standard orientation:
 ---------------------------------------------------------------------
 Center     Atomic      Atomic             Coordinates (Angstroms)
 Number     Number       Type             X           Y           Z
 ---------------------------------------------------------------------
      1         11           0        3.350102   -0.031562    1.745968
      2         11           0       -4.353710   -0.856801   -0.091574
      3         11           0        1.652336    2.280830   -0.579202
      4         11           0       -2.750269    1.650309    0.714118
      5         11           0       -0.366587   -1.626854    1.087018
      6         11           0       -0.652211   -0.256415   -1.602842
      7         11           0        3.120339   -1.159506   -1.273487
 ---------------------------------------------------------------------

 SCF Done:  E(UB3LYP) =  -1136.10611962     A.U. after   32 cycles

 The electronic state is 2-A.
 Alpha  occ. eigenvalues --  -38.45844 -38.45184 -38.44617 -38.44421 -38.44165
 Alpha  occ. eigenvalues --  -38.43655 -38.42438  -2.21628  -2.20995  -2.20447
 Alpha  occ. eigenvalues --   -2.20231  -2.19999  -2.19572  -2.18241  -1.15321
 Alpha  occ. eigenvalues --   -1.15276  -1.15269  -1.14697  -1.14652  -1.14607
 Alpha  occ. eigenvalues --   -1.14129  -1.14092  -1.14063  -1.13984  -1.13911
 Alpha  occ. eigenvalues --   -1.13800  -1.13666  -1.13636  -1.13612  -1.13287
 Alpha  occ. eigenvalues --   -1.13189  -1.13160  -1.11932  -1.11905  -1.11873
 Alpha  occ. eigenvalues --   -0.17679  -0.14683  -0.10967  -0.10191
 Alpha virt. eigenvalues --   -0.07415  -0.05768  -0.04712  -0.03453  -0.02785
 Alpha virt. eigenvalues --   -0.02390  -0.02013  -0.01516  -0.01027  -0.00603
 Alpha virt. eigenvalues --   -0.00163   0.00099   0.00177   0.00431   0.00520

  Beta  occ. eigenvalues --  -38.45845 -38.45154 -38.44590 -38.44398 -38.44101
  Beta  occ. eigenvalues --  -38.43582 -38.42433  -2.21635  -2.20942  -2.20397
  Beta  occ. eigenvalues --   -2.20195  -2.19879  -2.19442  -2.18233  -1.15304
  Beta  occ. eigenvalues --   -1.15281  -1.15267  -1.14650  -1.14617  -1.14568
  Beta  occ. eigenvalues --   -1.14095  -1.14065  -1.14015  -1.13939  -1.13877
  Beta  occ. eigenvalues --   -1.13786  -1.13583  -1.13558  -1.13528  -1.13198
  Beta  occ. eigenvalues --   -1.13095  -1.13064  -1.11926  -1.11898  -1.11857
  Beta  occ. eigenvalues --   -0.17022  -0.14088  -0.10065
  Beta virt. eigenvalues --   -0.07372  -0.07228  -0.05423  -0.04402  -0.03100
  Beta virt. eigenvalues --   -0.02660  -0.01864  -0.01573  -0.01233  -0.00804
  Beta virt. eigenvalues --   -0.00411   0.00030   0.00162   0.00239   0.00513

 Mulliken charges and spin densities:
               1          2
     1  Na   0.170094   0.450841
     2  Na   0.555086   0.177766
     3  Na  -0.496241  -0.071421
     4  Na  -0.022186   0.146757
     5  Na  -0.509023  -0.342336
     6  Na  -0.118383   0.581601
     7  Na   0.420653   0.056791
 Sum of Mulliken charges =  -0.00000   1.00000

 Dipole moment (field-independent basis, Debye):
    X=             -0.7335    Y=             -0.8268    Z=             -0.4761  Tot=              1.2035
 Quadrupole moment (field-independent basis, Debye-Ang):
   XX=            -55.6625   YY=            -78.8739   ZZ=            -64.3001
   XY=              0.8443   XZ=             -2.7486   YZ=              9.7353

 Normal termination of Gaussian 16 at Tue Dec  5 13:39:27 2023.
