 Gaussian 16, Revision B.01,
 Gaussian 16:  ES64L-G16RevB.01 20-Dec-2017

 -------------------------
 #P B3LYP/6-311+g(d) force
 -------------------------

 -----
 DPGEN
 -----
 Symbolic Z-matrix:
 Charge =  0 Multiplicity = 2

                         Standard orientation:
 ---------------------------------------------------------------------
 Center     Atomic      Atomic             Coordinates (Angstroms)
 Number     Number       Type             X           Y           Z
 ---------------------------------------------------------------------
      1         11           0       -0.117014    0.050258    2.127806
      2         11           0        0.020897   -0.246677   -1.636072
      3         11           0        0.136460    2.721797   -0.253029
      4         11           0        2.278230   -1.912437    0.116231
      5         11           0       -3.547459    0.613026   -0.001356
      6         11           0       -1.616706   -2.164776   -0.236253
      7         11           0        2.845591    0.938809   -0.117326
 ---------------------------------------------------------------------

 SCF Done:  E(UB3LYP) =  -1136.12649782     A.U. after   21 cycles

 The electronic state is 2-A.
 Alpha  occ. eigenvalues --  -38.45210 -38.44051 -38.43904 -38.43504 -38.43488
 Alpha  occ. eigenvalues --  -38.43473 -38.42761  -2.20974  -2.19978  -2.19778
 Alpha  occ. eigenvalues --   -2.19497  -2.19405  -2.19390  -2.18628  -1.14647
 Alpha  occ. eigenvalues --   -1.14637  -1.14610  -1.13730  -1.13633  -1.13612
 Alpha  occ. eigenvalues --   -1.13448  -1.13407  -1.13391  -1.13359  -1.13162
 Alpha  occ. eigenvalues --   -1.13126  -1.13071  -1.13038  -1.13033  -1.13014
 Alpha  occ. eigenvalues --   -1.12991  -1.12972  -1.12322  -1.12287  -1.12256
 Alpha  occ. eigenvalues --   -0.18912  -0.13547  -0.11926  -0.10957
 Alpha virt. eigenvalues --   -0.06547  -0.04853  -0.03987  -0.03501  -0.02802
 Alpha virt. eigenvalues --   -0.02582  -0.02191  -0.00941  -0.00173  -0.00109
 Alpha virt. eigenvalues --   -0.00065   0.00306   0.00701   0.00748   0.00908

  Beta  occ. eigenvalues --  -38.45214 -38.44045 -38.43805 -38.43498 -38.43476
  Beta  occ. eigenvalues --  -38.43406 -38.42755  -2.20983  -2.19971  -2.19595
  Beta  occ. eigenvalues --   -2.19399  -2.19390  -2.19360  -2.18620  -1.14647
  Beta  occ. eigenvalues --   -1.14638  -1.14616  -1.13731  -1.13624  -1.13584
  Beta  occ. eigenvalues --   -1.13331  -1.13298  -1.13277  -1.13258  -1.13102
  Beta  occ. eigenvalues --   -1.13068  -1.13052  -1.13009  -1.13001  -1.12986
  Beta  occ. eigenvalues --   -1.12957  -1.12932  -1.12314  -1.12266  -1.12248
  Beta  occ. eigenvalues --   -0.18155  -0.13339  -0.11673
  Beta virt. eigenvalues --   -0.06987  -0.06486  -0.04861  -0.03976  -0.02710
  Beta virt. eigenvalues --   -0.02097  -0.01903  -0.01585  -0.00890  -0.00207
  Beta virt. eigenvalues --   -0.00148   0.00087   0.00328   0.00790   0.00889

 Mulliken charges and spin densities:
               1          2
     1  Na  -0.722078   0.715640
     2  Na  -0.356316   0.332374
     3  Na   0.087324  -0.057660
     4  Na   0.413170   0.060526
     5  Na  -0.036848  -0.085241
     6  Na   0.413839   0.003190
     7  Na   0.200909   0.031170
 Sum of Mulliken charges =  -0.00000   1.00000

 Dipole moment (field-independent basis, Debye):
    X=             -0.7848    Y=              0.1065    Z=              0.2859  Tot=              0.8421
 Quadrupole moment (field-independent basis, Debye-Ang):
   XX=            -50.9692   YY=            -68.9021   ZZ=            -73.6267
   XY=             -1.7215   XZ=              0.0886   YZ=             -0.6529

 Normal termination of Gaussian 16 at Tue Dec  5 21:39:05 2023.
