 Gaussian 16, Revision B.01,
 Gaussian 16:  ES64L-G16RevB.01 20-Dec-2017

 -------------------------
 #P B3LYP/6-311+g(d) force
 -------------------------

 -----
 DPGEN
 -----
 Symbolic Z-matrix:
 Charge =  0 Multiplicity = 2

                         Standard orientation:
 ---------------------------------------------------------------------
 Center     Atomic      Atomic             Coordinates (Angstroms)
 Number     Number       Type             X           Y           Z
 ---------------------------------------------------------------------
      1         11           0       -1.025614    3.004535    0.837205
      2         11           0        2.085793    2.974019   -0.025643
      3         11           0       -4.097271   -1.845347   -0.670745
      4         11           0       -3.980648    1.195516   -0.357605
      5         11           0        4.387377    0.259370   -0.850401
      6         11           0        3.003604   -2.708835    0.257567
      7         11           0       -0.373242   -2.879259    0.809621
 ---------------------------------------------------------------------

 SCF Done:  E(UB3LYP) =  -1136.10877192     A.U. after   22 cycles

 The electronic state is 2-A.
 Alpha  occ. eigenvalues --  -38.45068 -38.44828 -38.44744 -38.44634 -38.44508
 Alpha  occ. eigenvalues --  -38.44225 -38.43784  -2.20874  -2.20600  -2.20551
 Alpha  occ. eigenvalues --   -2.20405  -2.20281  -2.20028  -2.19591  -1.14581
 Alpha  occ. eigenvalues --   -1.14536  -1.14519  -1.14260  -1.14254  -1.14217
 Alpha  occ. eigenvalues --   -1.14201  -1.14194  -1.14181  -1.14089  -1.14085
 Alpha  occ. eigenvalues --   -1.14056  -1.13962  -1.13952  -1.13933  -1.13678
 Alpha  occ. eigenvalues --   -1.13662  -1.13655  -1.13245  -1.13242  -1.13227
 Alpha  occ. eigenvalues --   -0.15641  -0.14169  -0.13194  -0.11011
 Alpha virt. eigenvalues --   -0.07629  -0.04935  -0.04456  -0.03708  -0.03492
 Alpha virt. eigenvalues --   -0.02346  -0.01989  -0.01714  -0.01300  -0.01136
 Alpha virt. eigenvalues --   -0.00708  -0.00182   0.00007   0.00393   0.00757

  Beta  occ. eigenvalues --  -38.45049 -38.44760 -38.44715 -38.44638 -38.44512
  Beta  occ. eigenvalues --  -38.44150 -38.43742  -2.20844  -2.20500  -2.20474
  Beta  occ. eigenvalues --   -2.20418  -2.20294  -2.19888  -2.19513  -1.14547
  Beta  occ. eigenvalues --   -1.14519  -1.14488  -1.14176  -1.14171  -1.14168
  Beta  occ. eigenvalues --   -1.14158  -1.14140  -1.14124  -1.14099  -1.14096
  Beta  occ. eigenvalues --   -1.14033  -1.13977  -1.13965  -1.13899  -1.13583
  Beta  occ. eigenvalues --   -1.13571  -1.13565  -1.13193  -1.13190  -1.13176
  Beta  occ. eigenvalues --   -0.15103  -0.13484  -0.12498
  Beta virt. eigenvalues --   -0.07857  -0.07726  -0.04390  -0.03916  -0.03536
  Beta virt. eigenvalues --   -0.03185  -0.02140  -0.01957  -0.01574  -0.00957
  Beta virt. eigenvalues --   -0.00847  -0.00475   0.00096   0.00241   0.00375

 Mulliken charges and spin densities:
               1          2
     1  Na  -0.153938   0.156596
     2  Na   0.060357   0.022400
     3  Na   0.596066   0.135687
     4  Na  -0.212283   0.074317
     5  Na   0.123063   0.356401
     6  Na   0.014688  -0.075665
     7  Na  -0.427953   0.330265
 Sum of Mulliken charges =  -0.00000   1.00000

 Dipole moment (field-independent basis, Debye):
    X=             -0.7313    Y=             -0.4374    Z=             -0.1767  Tot=              0.8703
 Quadrupole moment (field-independent basis, Debye-Ang):
   XX=            -60.4927   YY=            -66.7043   ZZ=            -72.9183
   XY=              0.2832   XZ=             -0.6645   YZ=              0.1040

 Normal termination of Gaussian 16 at Sun Dec  3 23:27:28 2023.
