 Gaussian 16, Revision B.01,
 Gaussian 16:  ES64L-G16RevB.01 20-Dec-2017

 -------------------------
 #P B3LYP/6-311+g(d) force
 -------------------------

 -----
 DPGEN
 -----
 Symbolic Z-matrix:
 Charge =  0 Multiplicity = 2

                         Standard orientation:
 ---------------------------------------------------------------------
 Center     Atomic      Atomic             Coordinates (Angstroms)
 Number     Number       Type             X           Y           Z
 ---------------------------------------------------------------------
      1         11           0       -0.253555   -0.022291   -1.629318
      2         11           0        0.289357    2.918348   -0.428715
      3         11           0        0.103286    0.316178    2.044427
      4         11           0        3.171325    0.471369    0.195659
      5         11           0       -3.089331    0.978960    0.022111
      6         11           0       -1.925804   -2.367451    0.194015
      7         11           0        1.704723   -2.295113   -0.398179
 ---------------------------------------------------------------------

 SCF Done:  E(UB3LYP) =  -1136.13728906     A.U. after   19 cycles

 The electronic state is 2-A.
 Alpha  occ. eigenvalues --  -38.44381 -38.44134 -38.43688 -38.43551 -38.43366
 Alpha  occ. eigenvalues --  -38.43274 -38.43104  -2.20190  -2.19967  -2.19561
 Alpha  occ. eigenvalues --   -2.19381  -2.19203  -2.19149  -2.19089  -1.13871
 Alpha  occ. eigenvalues --   -1.13850  -1.13822  -1.13651  -1.13633  -1.13602
 Alpha  occ. eigenvalues --   -1.13232  -1.13191  -1.13178  -1.13062  -1.13047
 Alpha  occ. eigenvalues --   -1.13017  -1.12929  -1.12872  -1.12860  -1.12822
 Alpha  occ. eigenvalues --   -1.12800  -1.12783  -1.12753  -1.12705  -1.12697
 Alpha  occ. eigenvalues --   -0.18540  -0.13098  -0.12295  -0.10720
 Alpha virt. eigenvalues --   -0.05924  -0.05103  -0.04560  -0.03241  -0.02862
 Alpha virt. eigenvalues --   -0.02534  -0.01705  -0.01104  -0.00466  -0.00271
 Alpha virt. eigenvalues --   -0.00010   0.00361   0.00784   0.00850   0.00900

  Beta  occ. eigenvalues --  -38.44379 -38.44131 -38.43599 -38.43547 -38.43354
  Beta  occ. eigenvalues --  -38.43265 -38.43038  -2.20188  -2.19964  -2.19396
  Beta  occ. eigenvalues --   -2.19377  -2.19186  -2.19136  -2.18969  -1.13861
  Beta  occ. eigenvalues --   -1.13842  -1.13822  -1.13653  -1.13608  -1.13603
  Beta  occ. eigenvalues --   -1.13122  -1.13077  -1.13061  -1.13052  -1.13032
  Beta  occ. eigenvalues --   -1.13012  -1.12902  -1.12847  -1.12834  -1.12812
  Beta  occ. eigenvalues --   -1.12780  -1.12771  -1.12677  -1.12623  -1.12615
  Beta  occ. eigenvalues --   -0.17820  -0.12889  -0.12036
  Beta virt. eigenvalues --   -0.06826  -0.05880  -0.05081  -0.04512  -0.02478
  Beta virt. eigenvalues --   -0.02108  -0.01609  -0.01481  -0.01033  -0.00512
  Beta virt. eigenvalues --   -0.00304   0.00127   0.00381   0.00815   0.00866

 Mulliken charges and spin densities:
               1          2
     1  Na  -0.041652   0.437772
     2  Na   0.070299  -0.090312
     3  Na  -0.451504   0.751377
     4  Na   0.158190   0.010751
     5  Na   0.107239  -0.077755
     6  Na   0.016308  -0.006133
     7  Na   0.141119  -0.025701
 Sum of Mulliken charges =  -0.00000   1.00000

 Dipole moment (field-independent basis, Debye):
    X=             -0.2466    Y=              0.2216    Z=              0.2257  Tot=              0.4010
 Quadrupole moment (field-independent basis, Debye-Ang):
   XX=            -54.6885   YY=            -63.7419   ZZ=            -74.6227
   XY=              0.2545   XZ=             -0.6363   YZ=             -0.6319

 Normal termination of Gaussian 16 at Thu Dec  7 12:23:24 2023.
