 Gaussian 16, Revision B.01,
 Gaussian 16:  ES64L-G16RevB.01 20-Dec-2017

 -------------------------
 #P B3LYP/6-311+g(d) force
 -------------------------

 -----
 DPGEN
 -----
 Symbolic Z-matrix:
 Charge =  0 Multiplicity = 2

                         Standard orientation:
 ---------------------------------------------------------------------
 Center     Atomic      Atomic             Coordinates (Angstroms)
 Number     Number       Type             X           Y           Z
 ---------------------------------------------------------------------
      1         11           0       -1.970083    1.805513   -0.728256
      2         11           0       -2.743690   -1.264134    0.346276
      3         11           0        0.748070   -2.806142    0.102110
      4         11           0       -0.110369    0.094708    1.660281
      5         11           0        3.037863   -0.076665   -0.190601
      6         11           0        0.117057   -0.449691   -1.613272
      7         11           0        0.921151    2.696412    0.423460
 ---------------------------------------------------------------------

 SCF Done:  E(UB3LYP) =  -1136.13472733     A.U. after   17 cycles

 The electronic state is 2-A.
 Alpha  occ. eigenvalues --  -38.43872 -38.43697 -38.43657 -38.43315 -38.43254
 Alpha  occ. eigenvalues --  -38.43069 -38.43024  -2.19725  -2.19567  -2.19548
 Alpha  occ. eigenvalues --   -2.19245  -2.19158  -2.19121  -2.19067  -1.13422
 Alpha  occ. eigenvalues --   -1.13387  -1.13357  -1.13308  -1.13266  -1.13228
 Alpha  occ. eigenvalues --   -1.13216  -1.13199  -1.13141  -1.12986  -1.12936
 Alpha  occ. eigenvalues --   -1.12896  -1.12879  -1.12816  -1.12786  -1.12767
 Alpha  occ. eigenvalues --   -1.12740  -1.12718  -1.12712  -1.12669  -1.12660
 Alpha  occ. eigenvalues --   -0.19334  -0.13076  -0.12800  -0.10805
 Alpha virt. eigenvalues --   -0.05458  -0.04893  -0.04637  -0.03159  -0.02972
 Alpha virt. eigenvalues --   -0.02285  -0.01441  -0.01112  -0.00146  -0.00057
 Alpha virt. eigenvalues --    0.00143   0.00361   0.00877   0.00919   0.00965

  Beta  occ. eigenvalues --  -38.43868 -38.43688 -38.43651 -38.43292 -38.43244
  Beta  occ. eigenvalues --  -38.42999 -38.42948  -2.19721  -2.19555  -2.19541
  Beta  occ. eigenvalues --   -2.19205  -2.19143  -2.18995  -2.18929  -1.13412
  Beta  occ. eigenvalues --   -1.13375  -1.13350  -1.13296  -1.13252  -1.13198
  Beta  occ. eigenvalues --   -1.13195  -1.13191  -1.13135  -1.12955  -1.12893
  Beta  occ. eigenvalues --   -1.12864  -1.12838  -1.12771  -1.12752  -1.12729
  Beta  occ. eigenvalues --   -1.12654  -1.12627  -1.12622  -1.12577  -1.12566
  Beta  occ. eigenvalues --   -0.18623  -0.12799  -0.12514
  Beta virt. eigenvalues --   -0.06863  -0.05454  -0.04856  -0.04601  -0.02370
  Beta virt. eigenvalues --   -0.02198  -0.01378  -0.01242  -0.01034  -0.00101
  Beta virt. eigenvalues --   -0.00073   0.00190   0.00390   0.00876   0.00938

 Mulliken charges and spin densities:
               1          2
     1  Na   0.116942   0.111673
     2  Na   0.076687  -0.007480
     3  Na  -0.019732  -0.083439
     4  Na  -0.218282   0.589147
     5  Na  -0.024847  -0.067254
     6  Na  -0.051344   0.443067
     7  Na   0.120576   0.014287
 Sum of Mulliken charges =  -0.00000   1.00000

 Dipole moment (field-independent basis, Debye):
    X=              0.1444    Y=             -0.2847    Z=              0.0398  Tot=              0.3217
 Quadrupole moment (field-independent basis, Debye-Ang):
   XX=            -57.2720   YY=            -61.0078   ZZ=            -74.3157
   XY=              0.5988   XZ=              0.2655   YZ=             -1.3448

 Normal termination of Gaussian 16 at Tue Nov 28 21:38:20 2023.
