 Gaussian 16, Revision B.01,
 Gaussian 16:  ES64L-G16RevB.01 20-Dec-2017

 -------------------------
 #P B3LYP/6-311+g(d) force
 -------------------------

 -----
 DPGEN
 -----
 Symbolic Z-matrix:
 Charge =  0 Multiplicity = 2

                         Standard orientation:
 ---------------------------------------------------------------------
 Center     Atomic      Atomic             Coordinates (Angstroms)
 Number     Number       Type             X           Y           Z
 ---------------------------------------------------------------------
      1         11           0        3.371806    0.451741    0.069561
      2         11           0        1.684062   -2.304827   -0.125142
      3         11           0        0.100940   -0.028069   -1.451515
      4         11           0       -0.057737    0.214555    2.064179
      5         11           0       -2.269404   -2.292975   -0.189532
      6         11           0       -2.801650    0.980389    0.071576
      7         11           0       -0.028017    2.979186   -0.439127
 ---------------------------------------------------------------------

 SCF Done:  E(UB3LYP) =  -1136.13458681     A.U. after   20 cycles

 The electronic state is 2-A.
 Alpha  occ. eigenvalues --  -38.44599 -38.43938 -38.43651 -38.43572 -38.43506
 Alpha  occ. eigenvalues --  -38.43170 -38.42983  -2.20405  -2.19817  -2.19530
 Alpha  occ. eigenvalues --   -2.19453  -2.19328  -2.19023  -2.19007  -1.14076
 Alpha  occ. eigenvalues --   -1.14069  -1.14045  -1.13500  -1.13491  -1.13450
 Alpha  occ. eigenvalues --   -1.13268  -1.13185  -1.13142  -1.13126  -1.13073
 Alpha  occ. eigenvalues --   -1.13068  -1.13001  -1.12985  -1.12972  -1.12775
 Alpha  occ. eigenvalues --   -1.12695  -1.12665  -1.12655  -1.12625  -1.12596
 Alpha  occ. eigenvalues --   -0.18644  -0.13333  -0.12205  -0.10545
 Alpha virt. eigenvalues --   -0.05999  -0.05120  -0.04617  -0.03235  -0.02612
 Alpha virt. eigenvalues --   -0.02395  -0.01838  -0.01156  -0.00440  -0.00349
 Alpha virt. eigenvalues --   -0.00007   0.00335   0.00757   0.00851   0.00880

  Beta  occ. eigenvalues --  -38.44598 -38.43932 -38.43644 -38.43505 -38.43474
  Beta  occ. eigenvalues --  -38.43159 -38.42925  -2.20406  -2.19810  -2.19521
  Beta  occ. eigenvalues --   -2.19328  -2.19271  -2.19005  -2.18905  -1.14080
  Beta  occ. eigenvalues --   -1.14052  -1.14048  -1.13498  -1.13457  -1.13448
  Beta  occ. eigenvalues --   -1.13256  -1.13156  -1.13141  -1.13007  -1.12998
  Beta  occ. eigenvalues --   -1.12974  -1.12971  -1.12946  -1.12937  -1.12741
  Beta  occ. eigenvalues --   -1.12645  -1.12643  -1.12612  -1.12561  -1.12528
  Beta  occ. eigenvalues --   -0.17929  -0.13127  -0.11958
  Beta virt. eigenvalues --   -0.06623  -0.05943  -0.05114  -0.04580  -0.02451
  Beta virt. eigenvalues --   -0.01914  -0.01737  -0.01323  -0.01082  -0.00483
  Beta virt. eigenvalues --   -0.00380   0.00147   0.00365   0.00799   0.00854

 Mulliken charges and spin densities:
               1          2
     1  Na   0.134262  -0.026449
     2  Na   0.204590  -0.006612
     3  Na  -0.389699   0.297296
     4  Na  -0.506727   0.708324
     5  Na   0.033235  -0.039909
     6  Na   0.393164   0.081795
     7  Na   0.131174  -0.014445
 Sum of Mulliken charges =  -0.00000   1.00000

 Dipole moment (field-independent basis, Debye):
    X=              0.4095    Y=              0.0747    Z=              0.2299  Tot=              0.4755
 Quadrupole moment (field-independent basis, Debye-Ang):
   XX=            -53.5069   YY=            -62.9912   ZZ=            -75.8962
   XY=              1.1647   XZ=              0.3327   YZ=             -0.3345

 Normal termination of Gaussian 16 at Fri Dec  8 03:58:58 2023.
