 Gaussian 16, Revision B.01,
 Gaussian 16:  ES64L-G16RevB.01 20-Dec-2017

 -------------------------
 #P B3LYP/6-311+g(d) force
 -------------------------

 -----
 DPGEN
 -----
 Symbolic Z-matrix:
 Charge =  0 Multiplicity = 2

                         Standard orientation:
 ---------------------------------------------------------------------
 Center     Atomic      Atomic             Coordinates (Angstroms)
 Number     Number       Type             X           Y           Z
 ---------------------------------------------------------------------
      1         11           0       -3.193394   -1.783427    0.272738
      2         11           0        3.855435   -0.942931    0.319749
      3         11           0       -0.917779    3.315506    0.528102
      4         11           0       -0.194564   -2.336955   -0.813062
      5         11           0        1.840277    1.185434   -1.264644
      6         11           0       -1.764018    0.871556   -0.904545
      7         11           0        0.374043   -0.309182    1.861661
 ---------------------------------------------------------------------

 SCF Done:  E(UB3LYP) =  -1136.12760655     A.U. after   19 cycles

 The electronic state is 2-A.
 Alpha  occ. eigenvalues --  -38.44529 -38.44429 -38.44233 -38.43671 -38.43596
 Alpha  occ. eigenvalues --  -38.43423 -38.43088  -2.20304  -2.20263  -2.20086
 Alpha  occ. eigenvalues --   -2.19514  -2.19456  -2.19259  -2.19050  -1.13985
 Alpha  occ. eigenvalues --   -1.13968  -1.13950  -1.13937  -1.13930  -1.13904
 Alpha  occ. eigenvalues --   -1.13783  -1.13759  -1.13674  -1.13205  -1.13184
 Alpha  occ. eigenvalues --   -1.13142  -1.13118  -1.13089  -1.13057  -1.13037
 Alpha  occ. eigenvalues --   -1.12894  -1.12890  -1.12733  -1.12707  -1.12637
 Alpha  occ. eigenvalues --   -0.18127  -0.13241  -0.12376  -0.10192
 Alpha virt. eigenvalues --   -0.06469  -0.05086  -0.04761  -0.03230  -0.02841
 Alpha virt. eigenvalues --   -0.02207  -0.02103  -0.01371  -0.00661  -0.00219
 Alpha virt. eigenvalues --    0.00083   0.00225   0.00626   0.00701   0.00788

  Beta  occ. eigenvalues --  -38.44532 -38.44431 -38.44216 -38.43632 -38.43506
  Beta  occ. eigenvalues --  -38.43421 -38.43068  -2.20312  -2.20268  -2.20057
  Beta  occ. eigenvalues --   -2.19443  -2.19291  -2.19255  -2.19018  -1.13990
  Beta  occ. eigenvalues --   -1.13962  -1.13955  -1.13941  -1.13931  -1.13893
  Beta  occ. eigenvalues --   -1.13767  -1.13710  -1.13659  -1.13155  -1.13122
  Beta  occ. eigenvalues --   -1.13070  -1.13034  -1.13029  -1.12972  -1.12938
  Beta  occ. eigenvalues --   -1.12890  -1.12877  -1.12711  -1.12663  -1.12617
  Beta  occ. eigenvalues --   -0.17422  -0.13059  -0.12211
  Beta virt. eigenvalues --   -0.06393  -0.06355  -0.04953  -0.04672  -0.02646
  Beta virt. eigenvalues --   -0.02236  -0.02076  -0.01297  -0.01196  -0.00560
  Beta virt. eigenvalues --   -0.00093   0.00174   0.00290   0.00690   0.00757

 Mulliken charges and spin densities:
               1          2
     1  Na   0.536849  -0.073013
     2  Na   0.294348  -0.053030
     3  Na   0.015217  -0.189615
     4  Na  -0.051579   0.086713
     5  Na  -0.303917   0.155844
     6  Na  -0.055002   0.401590
     7  Na  -0.435917   0.671511
 Sum of Mulliken charges =  -0.00000   1.00000

 Dipole moment (field-independent basis, Debye):
    X=              0.1028    Y=             -0.6658    Z=              0.2771  Tot=              0.7284
 Quadrupole moment (field-independent basis, Debye-Ang):
   XX=            -52.6768   YY=            -63.6427   ZZ=            -75.3752
   XY=              0.2364   XZ=             -1.2111   YZ=              1.3078

 Normal termination of Gaussian 16 at Wed Nov 29 17:14:08 2023.
