 Gaussian 16, Revision B.01,
 Gaussian 16:  ES64L-G16RevB.01 20-Dec-2017

 -------------------------
 #P B3LYP/6-311+g(d) force
 -------------------------

 -----
 DPGEN
 -----
 Symbolic Z-matrix:
 Charge =  0 Multiplicity = 2

                         Standard orientation:
 ---------------------------------------------------------------------
 Center     Atomic      Atomic             Coordinates (Angstroms)
 Number     Number       Type             X           Y           Z
 ---------------------------------------------------------------------
      1         11           0       -0.441240    0.208007    2.060049
      2         11           0       -3.498905   -1.457565   -0.134542
      3         11           0       -0.290900   -2.209517   -0.817134
      4         11           0        2.485010    1.127261   -1.197445
      5         11           0       -0.553355    3.297476    0.461990
      6         11           0        3.105651   -1.893192    0.800417
      7         11           0       -0.806262    0.927530   -1.173336
 ---------------------------------------------------------------------

 SCF Done:  E(UB3LYP) =  -1136.12583877     A.U. after   19 cycles

 The electronic state is 2-A.
 Alpha  occ. eigenvalues --  -38.44296 -38.44255 -38.44167 -38.43749 -38.43721
 Alpha  occ. eigenvalues --  -38.43652 -38.43164  -2.20102  -2.20044  -2.20022
 Alpha  occ. eigenvalues --   -2.19585  -2.19519  -2.19516  -2.19191  -1.13799
 Alpha  occ. eigenvalues --   -1.13759  -1.13715  -1.13710  -1.13707  -1.13704
 Alpha  occ. eigenvalues --   -1.13678  -1.13641  -1.13636  -1.13342  -1.13300
 Alpha  occ. eigenvalues --   -1.13258  -1.13192  -1.13179  -1.13167  -1.13156
 Alpha  occ. eigenvalues --   -1.13145  -1.13134  -1.12880  -1.12833  -1.12762
 Alpha  occ. eigenvalues --   -0.18116  -0.12722  -0.12411  -0.10852
 Alpha virt. eigenvalues --   -0.05907  -0.05428  -0.04362  -0.03245  -0.02982
 Alpha virt. eigenvalues --   -0.02578  -0.01925  -0.01319  -0.00489  -0.00197
 Alpha virt. eigenvalues --    0.00167   0.00252   0.00631   0.00724   0.00777

  Beta  occ. eigenvalues --  -38.44260 -38.44257 -38.44078 -38.43738 -38.43707
  Beta  occ. eigenvalues --  -38.43650 -38.43127  -2.20048  -2.20038  -2.19858
  Beta  occ. eigenvalues --   -2.19562  -2.19516  -2.19498  -2.19127  -1.13745
  Beta  occ. eigenvalues --   -1.13719  -1.13714  -1.13700  -1.13682  -1.13661
  Beta  occ. eigenvalues --   -1.13602  -1.13530  -1.13514  -1.13328  -1.13292
  Beta  occ. eigenvalues --   -1.13225  -1.13178  -1.13157  -1.13153  -1.13150
  Beta  occ. eigenvalues --   -1.13132  -1.13117  -1.12843  -1.12765  -1.12714
  Beta  occ. eigenvalues --   -0.17392  -0.12483  -0.12220
  Beta virt. eigenvalues --   -0.07040  -0.05806  -0.05150  -0.04295  -0.02649
  Beta virt. eigenvalues --   -0.02422  -0.01885  -0.01604  -0.01182  -0.00251
  Beta virt. eigenvalues --   -0.00189   0.00230   0.00295   0.00721   0.00775

 Mulliken charges and spin densities:
               1          2
     1  Na  -0.466256   0.610273
     2  Na   0.313209  -0.048768
     3  Na  -0.164219   0.034563
     4  Na  -0.165257   0.004165
     5  Na   0.286067  -0.019713
     6  Na   0.140573   0.038024
     7  Na   0.055883   0.381456
 Sum of Mulliken charges =  -0.00000   1.00000

 Dipole moment (field-independent basis, Debye):
    X=             -0.4247    Y=              0.0914    Z=              0.3102  Tot=              0.5338
 Quadrupole moment (field-independent basis, Debye-Ang):
   XX=            -57.0602   YY=            -63.4827   ZZ=            -72.2308
   XY=              1.5121   XZ=             -0.6486   YZ=             -0.3101

 Normal termination of Gaussian 16 at Tue Dec  5 19:26:39 2023.
