 Gaussian 16, Revision B.01,
 Gaussian 16:  ES64L-G16RevB.01 20-Dec-2017

 -------------------------
 #P B3LYP/6-311+g(d) force
 -------------------------

 -----
 DPGEN
 -----
 Symbolic Z-matrix:
 Charge =  0 Multiplicity = 2

                         Standard orientation:
 ---------------------------------------------------------------------
 Center     Atomic      Atomic             Coordinates (Angstroms)
 Number     Number       Type             X           Y           Z
 ---------------------------------------------------------------------
      1         11           0       -2.372190   -1.501318   -0.086121
      2         11           0       -2.615153    1.663811   -0.122083
      3         11           0        0.265605    0.049743   -1.308441
      4         11           0        3.099899   -0.133035    0.176859
      5         11           0        0.620597   -2.897367   -0.422209
      6         11           0       -0.046162   -0.032216    2.110323
      7         11           0        1.047404    2.850382   -0.348327
 ---------------------------------------------------------------------

 SCF Done:  E(UB3LYP) =  -1136.13542299     A.U. after   19 cycles

 The electronic state is 2-A.
 Alpha  occ. eigenvalues --  -38.44096 -38.43737 -38.43723 -38.43544 -38.43392
 Alpha  occ. eigenvalues --  -38.43360 -38.42722  -2.19935  -2.19582  -2.19568
 Alpha  occ. eigenvalues --   -2.19437  -2.19309  -2.19238  -2.18823  -1.13628
 Alpha  occ. eigenvalues --   -1.13598  -1.13559  -1.13312  -1.13273  -1.13232
 Alpha  occ. eigenvalues --   -1.13227  -1.13211  -1.13188  -1.13115  -1.13062
 Alpha  occ. eigenvalues --   -1.13047  -1.13013  -1.12968  -1.12956  -1.12939
 Alpha  occ. eigenvalues --   -1.12874  -1.12850  -1.12502  -1.12464  -1.12441
 Alpha  occ. eigenvalues --   -0.18927  -0.13071  -0.12611  -0.10650
 Alpha virt. eigenvalues --   -0.05614  -0.04982  -0.04841  -0.03082  -0.02732
 Alpha virt. eigenvalues --   -0.02437  -0.01481  -0.01221  -0.00388  -0.00243
 Alpha virt. eigenvalues --    0.00013   0.00346   0.00836   0.00884   0.00912

  Beta  occ. eigenvalues --  -38.44091 -38.43729 -38.43721 -38.43440 -38.43385
  Beta  occ. eigenvalues --  -38.43349 -38.42674  -2.19929  -2.19570  -2.19566
  Beta  occ. eigenvalues --   -2.19301  -2.19245  -2.19221  -2.18737  -1.13623
  Beta  occ. eigenvalues --   -1.13572  -1.13559  -1.13297  -1.13275  -1.13217
  Beta  occ. eigenvalues --   -1.13205  -1.13205  -1.13183  -1.13021  -1.12977
  Beta  occ. eigenvalues --   -1.12961  -1.12941  -1.12925  -1.12914  -1.12898
  Beta  occ. eigenvalues --   -1.12851  -1.12839  -1.12430  -1.12400  -1.12382
  Beta  occ. eigenvalues --   -0.18212  -0.12846  -0.12342
  Beta virt. eigenvalues --   -0.06704  -0.05583  -0.04959  -0.04800  -0.02286
  Beta virt. eigenvalues --   -0.02017  -0.01401  -0.01333  -0.01135  -0.00427
  Beta virt. eigenvalues --   -0.00281   0.00162   0.00387   0.00855   0.00908

 Mulliken charges and spin densities:
               1          2
     1  Na   0.378775   0.087487
     2  Na   0.140316  -0.000987
     3  Na  -0.909391   0.054430
     4  Na   0.248123   0.056424
     5  Na   0.422505   0.074405
     6  Na  -0.536350   0.723567
     7  Na   0.256022   0.004674
 Sum of Mulliken charges =  -0.00000   1.00000

 Dipole moment (field-independent basis, Debye):
    X=              0.2813    Y=              0.1947    Z=              0.3041  Tot=              0.4577
 Quadrupole moment (field-independent basis, Debye-Ang):
   XX=            -56.9159   YY=            -60.2239   ZZ=            -75.2492
   XY=             -0.7633   XZ=              0.7097   YZ=              0.1524

 Normal termination of Gaussian 16 at Thu Dec  7 04:23:14 2023.
