 Gaussian 16, Revision B.01,
 Gaussian 16:  ES64L-G16RevB.01 20-Dec-2017

 -------------------------
 #P B3LYP/6-311+g(d) force
 -------------------------

 -----
 DPGEN
 -----
 Symbolic Z-matrix:
 Charge =  0 Multiplicity = 2

                         Standard orientation:
 ---------------------------------------------------------------------
 Center     Atomic      Atomic             Coordinates (Angstroms)
 Number     Number       Type             X           Y           Z
 ---------------------------------------------------------------------
      1         11           0        2.588257   -2.543401   -0.284598
      2         11           0       -3.468944   -0.814648    0.426534
      3         11           0        1.201352    3.410092   -0.449287
      4         11           0       -2.428893    2.440162   -0.091916
      5         11           0       -1.271308   -2.940323   -0.357504
      6         11           0        3.345108    0.553872    0.619867
      7         11           0        0.034428   -0.105754    0.136903
 ---------------------------------------------------------------------

 SCF Done:  E(UB3LYP) =  -1136.12712592     A.U. after   23 cycles

 The electronic state is 2-A.
 Alpha  occ. eigenvalues --  -38.44619 -38.44348 -38.43887 -38.43855 -38.43537
 Alpha  occ. eigenvalues --  -38.43399 -38.43274  -2.20449  -2.20205  -2.19815
 Alpha  occ. eigenvalues --   -2.19689  -2.19369  -2.19209  -2.19168  -1.14140
 Alpha  occ. eigenvalues --   -1.14122  -1.14073  -1.13882  -1.13877  -1.13855
 Alpha  occ. eigenvalues --   -1.13554  -1.13476  -1.13451  -1.13354  -1.13334
 Alpha  occ. eigenvalues --   -1.13322  -1.13037  -1.13029  -1.12988  -1.12873
 Alpha  occ. eigenvalues --   -1.12851  -1.12837  -1.12828  -1.12806  -1.12794
 Alpha  occ. eigenvalues --   -0.17422  -0.14037  -0.13235  -0.09561
 Alpha virt. eigenvalues --   -0.06676  -0.05722  -0.04242  -0.03206  -0.02679
 Alpha virt. eigenvalues --   -0.02189  -0.02121  -0.01653  -0.01303  -0.00150
 Alpha virt. eigenvalues --    0.00114   0.00295   0.00471   0.00531   0.00716

  Beta  occ. eigenvalues --  -38.44602 -38.44331 -38.43899 -38.43820 -38.43489
  Beta  occ. eigenvalues --  -38.43349 -38.43226  -2.20425  -2.20183  -2.19835
  Beta  occ. eigenvalues --   -2.19628  -2.19283  -2.19115  -2.19079  -1.14131
  Beta  occ. eigenvalues --   -1.14112  -1.14008  -1.13874  -1.13864  -1.13786
  Beta  occ. eigenvalues --   -1.13564  -1.13492  -1.13477  -1.13315  -1.13294
  Beta  occ. eigenvalues --   -1.13265  -1.12981  -1.12975  -1.12909  -1.12809
  Beta  occ. eigenvalues --   -1.12785  -1.12777  -1.12771  -1.12745  -1.12737
  Beta  occ. eigenvalues --   -0.17173  -0.13268  -0.12646
  Beta virt. eigenvalues --   -0.06749  -0.06287  -0.05402  -0.04143  -0.02766
  Beta virt. eigenvalues --   -0.02104  -0.02020  -0.01841  -0.01379  -0.01047
  Beta virt. eigenvalues --   -0.00035   0.00312   0.00463   0.00514   0.00735

 Mulliken charges and spin densities:
               1          2
     1  Na   1.005965   0.244189
     2  Na   0.968075   0.104793
     3  Na   0.607937   0.270009
     4  Na   0.716476   0.314955
     5  Na   0.703624   0.154935
     6  Na   1.303132   0.167957
     7  Na  -5.305209  -0.256837
 Sum of Mulliken charges =  -0.00000   1.00000

 Dipole moment (field-independent basis, Debye):
    X=              0.2924    Y=             -0.4564    Z=             -0.0013  Tot=              0.5421
 Quadrupole moment (field-independent basis, Debye-Ang):
   XX=            -62.8648   YY=            -63.6140   ZZ=            -70.8943
   XY=              2.8549   XZ=              0.2026   YZ=              0.5773

 Normal termination of Gaussian 16 at Wed Nov 29 16:35:07 2023.
