 Gaussian 16, Revision B.01,
 Gaussian 16:  ES64L-G16RevB.01 20-Dec-2017

 -------------------------
 #P B3LYP/6-311+g(d) force
 -------------------------

 -----
 DPGEN
 -----
 Symbolic Z-matrix:
 Charge =  0 Multiplicity = 2

                         Standard orientation:
 ---------------------------------------------------------------------
 Center     Atomic      Atomic             Coordinates (Angstroms)
 Number     Number       Type             X           Y           Z
 ---------------------------------------------------------------------
      1         11           0       -1.146596   -2.499497   -0.160640
      2         11           0        2.671097    1.760108   -1.086281
      3         11           0        2.477779   -1.785910    0.154353
      4         11           0        1.412864    0.038827    2.456398
      5         11           0       -1.189225    3.109789    0.041788
      6         11           0       -0.898967   -0.647701   -2.373310
      7         11           0       -3.326953    0.024383    0.967692
 ---------------------------------------------------------------------

 SCF Done:  E(UB3LYP) =  -1136.11513869     A.U. after   21 cycles

 The electronic state is 2-A.
 Alpha  occ. eigenvalues --  -38.45004 -38.44934 -38.44705 -38.44578 -38.43868
 Alpha  occ. eigenvalues --  -38.43815 -38.43316  -2.20807  -2.20771  -2.20453
 Alpha  occ. eigenvalues --   -2.20345  -2.19696  -2.19535  -2.19190  -1.14497
 Alpha  occ. eigenvalues --   -1.14481  -1.14442  -1.14426  -1.14392  -1.14375
 Alpha  occ. eigenvalues --   -1.14125  -1.14095  -1.14088  -1.14022  -1.13986
 Alpha  occ. eigenvalues --   -1.13978  -1.13396  -1.13349  -1.13325  -1.13224
 Alpha  occ. eigenvalues --   -1.13203  -1.13179  -1.12919  -1.12836  -1.12799
 Alpha  occ. eigenvalues --   -0.17128  -0.13044  -0.11705  -0.11333
 Alpha virt. eigenvalues --   -0.06186  -0.05377  -0.04862  -0.03837  -0.03195
 Alpha virt. eigenvalues --   -0.03098  -0.01432  -0.00922  -0.00612  -0.00453
 Alpha virt. eigenvalues --   -0.00383   0.00093   0.00351   0.00466   0.00658

  Beta  occ. eigenvalues --  -38.44940 -38.44871 -38.44668 -38.44549 -38.43866
  Beta  occ. eigenvalues --  -38.43827 -38.43315  -2.20688  -2.20654  -2.20384
  Beta  occ. eigenvalues --   -2.20290  -2.19696  -2.19560  -2.19191  -1.14419
  Beta  occ. eigenvalues --   -1.14401  -1.14359  -1.14341  -1.14309  -1.14291
  Beta  occ. eigenvalues --   -1.14070  -1.14050  -1.14042  -1.13980  -1.13951
  Beta  occ. eigenvalues --   -1.13942  -1.13383  -1.13337  -1.13329  -1.13238
  Beta  occ. eigenvalues --   -1.13221  -1.13189  -1.12904  -1.12824  -1.12804
  Beta  occ. eigenvalues --   -0.16462  -0.12738  -0.11535
  Beta virt. eigenvalues --   -0.07813  -0.05776  -0.05130  -0.04550  -0.03480
  Beta virt. eigenvalues --   -0.02596  -0.02445  -0.01253  -0.00835  -0.00544
  Beta virt. eigenvalues --   -0.00386  -0.00104   0.00294   0.00450   0.00602

 Mulliken charges and spin densities:
               1          2
     1  Na   0.273479   0.139720
     2  Na  -0.135902   0.189883
     3  Na   0.272180   0.078371
     4  Na  -0.151440   0.280404
     5  Na  -0.189732  -0.063329
     6  Na  -0.032171   0.265882
     7  Na  -0.036414   0.109068
 Sum of Mulliken charges =  -0.00000   1.00000

 Dipole moment (field-independent basis, Debye):
    X=              0.2395    Y=             -0.1516    Z=              0.1365  Tot=              0.3146
 Quadrupole moment (field-independent basis, Debye-Ang):
   XX=            -62.9441   YY=            -71.4481   ZZ=            -65.5306
   XY=              1.0017   XZ=             -3.0636   YZ=             -1.3465

 Normal termination of Gaussian 16 at Sun Dec  3 20:51:21 2023.
