 Gaussian 16, Revision B.01,
 Gaussian 16:  ES64L-G16RevB.01 20-Dec-2017

 -------------------------
 #P B3LYP/6-311+g(d) force
 -------------------------

 -----
 DPGEN
 -----
 Symbolic Z-matrix:
 Charge =  0 Multiplicity = 2

                         Standard orientation:
 ---------------------------------------------------------------------
 Center     Atomic      Atomic             Coordinates (Angstroms)
 Number     Number       Type             X           Y           Z
 ---------------------------------------------------------------------
      1         11           0       -2.866199   -0.571069   -0.553416
      2         11           0        0.167133    0.401856   -1.401250
      3         11           0        3.039187   -1.338912    0.040872
      4         11           0       -0.372403   -2.786386   -0.462289
      5         11           0        2.221839    2.583628   -0.145698
      6         11           0       -0.282949   -0.708791    2.145393
      7         11           0       -1.906609    2.419675    0.376388
 ---------------------------------------------------------------------

 SCF Done:  E(UB3LYP) =  -1136.13394468     A.U. after   19 cycles

 The electronic state is 2-A.
 Alpha  occ. eigenvalues --  -38.44490 -38.44079 -38.43846 -38.43681 -38.43568
 Alpha  occ. eigenvalues --  -38.43292 -38.42946  -2.20260  -2.19859  -2.19674
 Alpha  occ. eigenvalues --   -2.19545  -2.19467  -2.19180  -2.18934  -1.13942
 Alpha  occ. eigenvalues --   -1.13916  -1.13895  -1.13552  -1.13518  -1.13486
 Alpha  occ. eigenvalues --   -1.13366  -1.13333  -1.13317  -1.13212  -1.13188
 Alpha  occ. eigenvalues --   -1.13157  -1.13152  -1.13111  -1.13104  -1.12867
 Alpha  occ. eigenvalues --   -1.12842  -1.12801  -1.12624  -1.12577  -1.12561
 Alpha  occ. eigenvalues --   -0.18401  -0.12848  -0.12469  -0.10606
 Alpha virt. eigenvalues --   -0.05957  -0.05244  -0.04721  -0.03074  -0.02856
 Alpha virt. eigenvalues --   -0.02451  -0.01576  -0.01302  -0.00616  -0.00413
 Alpha virt. eigenvalues --   -0.00020   0.00329   0.00762   0.00794   0.00878

  Beta  occ. eigenvalues --  -38.44490 -38.44081 -38.43838 -38.43583 -38.43551
  Beta  occ. eigenvalues --  -38.43277 -38.42901  -2.20261  -2.19863  -2.19661
  Beta  occ. eigenvalues --   -2.19441  -2.19365  -2.19157  -2.18853  -1.13932
  Beta  occ. eigenvalues --   -1.13918  -1.13897  -1.13549  -1.13518  -1.13491
  Beta  occ. eigenvalues --   -1.13359  -1.13313  -1.13302  -1.13138  -1.13102
  Beta  occ. eigenvalues --   -1.13085  -1.13066  -1.13060  -1.13020  -1.12850
  Beta  occ. eigenvalues --   -1.12809  -1.12773  -1.12566  -1.12511  -1.12504
  Beta  occ. eigenvalues --   -0.17684  -0.12658  -0.12258
  Beta virt. eigenvalues --   -0.06660  -0.05929  -0.05164  -0.04645  -0.02348
  Beta virt. eigenvalues --   -0.02212  -0.01532  -0.01393  -0.01177  -0.00605
  Beta virt. eigenvalues --   -0.00455   0.00156   0.00380   0.00776   0.00861

 Mulliken charges and spin densities:
               1          2
     1  Na   0.423041   0.089456
     2  Na   0.025510   0.156548
     3  Na  -0.042984  -0.057661
     4  Na   0.307552   0.040897
     5  Na  -0.032036  -0.057152
     6  Na  -0.628206   0.740647
     7  Na  -0.052876   0.087265
 Sum of Mulliken charges =  -0.00000   1.00000

 Dipole moment (field-independent basis, Debye):
    X=              0.4278    Y=              0.1051    Z=              0.2519  Tot=              0.5075
 Quadrupole moment (field-independent basis, Debye-Ang):
   XX=            -56.6011   YY=            -61.0873   ZZ=            -75.0478
   XY=             -0.9649   XZ=              1.0733   YZ=              2.4221

 Normal termination of Gaussian 16 at Fri Dec  8 02:03:15 2023.
