 Gaussian 16, Revision B.01,
 Gaussian 16:  ES64L-G16RevB.01 20-Dec-2017

 -------------------------
 #P B3LYP/6-311+g(d) force
 -------------------------

 -----
 DPGEN
 -----
 Symbolic Z-matrix:
 Charge =  0 Multiplicity = 2

                         Standard orientation:
 ---------------------------------------------------------------------
 Center     Atomic      Atomic             Coordinates (Angstroms)
 Number     Number       Type             X           Y           Z
 ---------------------------------------------------------------------
      1         11           0        1.971789   -1.389566   -0.446562
      2         11           0       -0.813283   -1.450062   -0.493361
      3         11           0       -3.339032   -0.106988    0.092258
      4         11           0       -0.933083    1.685200    0.182039
      5         11           0        0.638259    0.531347   -1.909353
      6         11           0        1.942940    1.451923    0.570645
      7         11           0        0.532410   -0.721853    2.004335
 ---------------------------------------------------------------------

 SCF Done:  E(UB3LYP) =  -1136.08478711     A.U. after   23 cycles

 The electronic state is 2-A.
 Alpha  occ. eigenvalues --  -38.44697 -38.44621 -38.44370 -38.43747 -38.43516
 Alpha  occ. eigenvalues --  -38.43190 -38.42796  -2.20817  -2.20592  -2.20455
 Alpha  occ. eigenvalues --   -2.19916  -2.19630  -2.19414  -2.18925  -1.14643
 Alpha  occ. eigenvalues --   -1.14501  -1.14425  -1.14316  -1.14270  -1.14230
 Alpha  occ. eigenvalues --   -1.14204  -1.14113  -1.14067  -1.13686  -1.13554
 Alpha  occ. eigenvalues --   -1.13507  -1.13351  -1.13261  -1.13216  -1.13091
 Alpha  occ. eigenvalues --   -1.13050  -1.12959  -1.12634  -1.12570  -1.12510
 Alpha  occ. eigenvalues --   -0.21307  -0.13979  -0.12913  -0.11831
 Alpha virt. eigenvalues --   -0.06023  -0.04030  -0.03878  -0.03676  -0.03027
 Alpha virt. eigenvalues --   -0.02936  -0.01541  -0.00440  -0.00230   0.00252
 Alpha virt. eigenvalues --    0.00599   0.00737   0.00869   0.00980   0.01092

  Beta  occ. eigenvalues --  -38.44703 -38.44530 -38.44287 -38.43719 -38.43487
  Beta  occ. eigenvalues --  -38.43159 -38.42779  -2.20655  -2.20605  -2.20304
  Beta  occ. eigenvalues --   -2.19874  -2.19585  -2.19366  -2.18900  -1.14537
  Beta  occ. eigenvalues --   -1.14383  -1.14324  -1.14302  -1.14277  -1.14206
  Beta  occ. eigenvalues --   -1.14146  -1.13996  -1.13954  -1.13647  -1.13530
  Beta  occ. eigenvalues --   -1.13423  -1.13320  -1.13203  -1.13171  -1.13061
  Beta  occ. eigenvalues --   -1.12957  -1.12934  -1.12619  -1.12509  -1.12497
  Beta  occ. eigenvalues --   -0.20395  -0.13751  -0.11633
  Beta virt. eigenvalues --   -0.08421  -0.05893  -0.03892  -0.03415  -0.03046
  Beta virt. eigenvalues --   -0.02397  -0.01991  -0.01477  -0.00296  -0.00093
  Beta virt. eigenvalues --    0.00303   0.00625   0.00783   0.00981   0.01054

 Mulliken charges and spin densities:
               1          2
     1  Na   0.593621  -0.144456
     2  Na  -0.486909   0.115779
     3  Na  -0.136277  -0.105205
     4  Na  -0.228367   0.117643
     5  Na   0.299137   0.357013
     6  Na   0.066267   0.160657
     7  Na  -0.107472   0.498570
 Sum of Mulliken charges =  -0.00000   1.00000

 Dipole moment (field-independent basis, Debye):
    X=             -0.5345    Y=              0.0908    Z=              0.3808  Tot=              0.6625
 Quadrupole moment (field-independent basis, Debye-Ang):
   XX=            -54.9795   YY=            -76.7748   ZZ=            -64.4951
   XY=              0.1105   XZ=             -0.3852   YZ=              2.1509

 Normal termination of Gaussian 16 at Thu Dec  7 08:57:35 2023.
