 Gaussian 16, Revision B.01,
 Gaussian 16:  ES64L-G16RevB.01 20-Dec-2017

 -------------------------
 #P B3LYP/6-311+g(d) force
 -------------------------

 -----
 DPGEN
 -----
 Symbolic Z-matrix:
 Charge =  0 Multiplicity = 2

                         Standard orientation:
 ---------------------------------------------------------------------
 Center     Atomic      Atomic             Coordinates (Angstroms)
 Number     Number       Type             X           Y           Z
 ---------------------------------------------------------------------
      1         11           0        0.730762   -1.646478    0.367861
      2         11           0        4.562841   -2.275504    0.238470
      3         11           0        2.775704    0.347422   -0.965979
      4         11           0        0.833993    3.755654    0.517350
      5         11           0       -1.272873    2.048465   -0.817918
      6         11           0       -2.832524   -0.305464    1.536313
      7         11           0       -4.797903   -1.924094   -0.876096
 ---------------------------------------------------------------------

 SCF Done:  E(UB3LYP) =  -1136.11235752     A.U. after   20 cycles

 The electronic state is 2-A.
 Alpha  occ. eigenvalues --  -38.45002 -38.44817 -38.44552 -38.43998 -38.43909
 Alpha  occ. eigenvalues --  -38.43863 -38.43785  -2.20820  -2.20603  -2.20373
 Alpha  occ. eigenvalues --   -2.19833  -2.19685  -2.19646  -2.19600  -1.14549
 Alpha  occ. eigenvalues --   -1.14511  -1.14409  -1.14266  -1.14264  -1.14207
 Alpha  occ. eigenvalues --   -1.14084  -1.14030  -1.14009  -1.13533  -1.13504
 Alpha  occ. eigenvalues --   -1.13397  -1.13374  -1.13350  -1.13337  -1.13294
 Alpha  occ. eigenvalues --   -1.13293  -1.13270  -1.13247  -1.13245  -1.13228
 Alpha  occ. eigenvalues --   -0.16558  -0.13721  -0.12493  -0.09838
 Alpha virt. eigenvalues --   -0.06782  -0.05604  -0.05174  -0.03324  -0.03064
 Alpha virt. eigenvalues --   -0.02397  -0.02070  -0.01683  -0.01129  -0.00490
 Alpha virt. eigenvalues --   -0.00394  -0.00081   0.00268   0.00315   0.00468

  Beta  occ. eigenvalues --  -38.45001 -38.44786 -38.44554 -38.43931 -38.43920
  Beta  occ. eigenvalues --  -38.43778 -38.43772  -2.20820  -2.20544  -2.20377
  Beta  occ. eigenvalues --   -2.19712  -2.19708  -2.19576  -2.19487  -1.14528
  Beta  occ. eigenvalues --   -1.14512  -1.14409  -1.14226  -1.14217  -1.14172
  Beta  occ. eigenvalues --   -1.14087  -1.14037  -1.14001  -1.13451  -1.13421
  Beta  occ. eigenvalues --   -1.13397  -1.13367  -1.13319  -1.13302  -1.13254
  Beta  occ. eigenvalues --   -1.13229  -1.13214  -1.13186  -1.13183  -1.13147
  Beta  occ. eigenvalues --   -0.16117  -0.13479  -0.11982
  Beta virt. eigenvalues --   -0.06618  -0.06297  -0.05429  -0.04840  -0.03106
  Beta virt. eigenvalues --   -0.02837  -0.02206  -0.01820  -0.01325  -0.00897
  Beta virt. eigenvalues --   -0.00286  -0.00041   0.00083   0.00379   0.00444

 Mulliken charges and spin densities:
               1          2
     1  Na  -0.632416   0.246425
     2  Na   0.726472   0.205044
     3  Na  -0.268717   0.100818
     4  Na   0.354249   0.049503
     5  Na  -0.328320   0.040671
     6  Na   0.130310  -0.136956
     7  Na   0.018423   0.494495
 Sum of Mulliken charges =  -0.00000   1.00000

 Dipole moment (field-independent basis, Debye):
    X=              2.0211    Y=             -0.3048    Z=              0.3255  Tot=              2.0697
 Quadrupole moment (field-independent basis, Debye-Ang):
   XX=            -70.9978   YY=            -67.6249   ZZ=            -65.4827
   XY=             -6.1770   XZ=              2.3249   YZ=              1.8747

 Normal termination of Gaussian 16 at Tue Nov 28 23:54:46 2023.
