 Gaussian 16, Revision B.01,
 Gaussian 16:  ES64L-G16RevB.01 20-Dec-2017

 -------------------------
 #P B3LYP/6-311+g(d) force
 -------------------------

 -----
 DPGEN
 -----
 Symbolic Z-matrix:
 Charge =  0 Multiplicity = 2

                         Standard orientation:
 ---------------------------------------------------------------------
 Center     Atomic      Atomic             Coordinates (Angstroms)
 Number     Number       Type             X           Y           Z
 ---------------------------------------------------------------------
      1         11           0       -0.164261   -0.117810   -1.552984
      2         11           0       -1.750319    2.724442   -0.076133
      3         11           0       -0.077634    0.241403    2.153747
      4         11           0        2.171731    1.921132   -0.318584
      5         11           0       -0.205899   -2.595072    0.072686
      6         11           0        3.168916   -1.072755   -0.061828
      7         11           0       -3.142534   -1.101340   -0.216904
 ---------------------------------------------------------------------

 SCF Done:  E(UB3LYP) =  -1136.13282757     A.U. after   19 cycles

 The electronic state is 2-A.
 Alpha  occ. eigenvalues --  -38.44460 -38.44061 -38.43796 -38.43649 -38.43584
 Alpha  occ. eigenvalues --  -38.43357 -38.43112  -2.20279  -2.19887  -2.19654
 Alpha  occ. eigenvalues --   -2.19515  -2.19369  -2.19350  -2.19028  -1.13953
 Alpha  occ. eigenvalues --   -1.13939  -1.13915  -1.13592  -1.13545  -1.13527
 Alpha  occ. eigenvalues --   -1.13345  -1.13314  -1.13267  -1.13184  -1.13140
 Alpha  occ. eigenvalues --   -1.13128  -1.13117  -1.13049  -1.13031  -1.13013
 Alpha  occ. eigenvalues --   -1.12992  -1.12950  -1.12708  -1.12679  -1.12626
 Alpha  occ. eigenvalues --   -0.18538  -0.13193  -0.12139  -0.10706
 Alpha virt. eigenvalues --   -0.05958  -0.05403  -0.04313  -0.03163  -0.02811
 Alpha virt. eigenvalues --   -0.02554  -0.01878  -0.01275  -0.00393  -0.00230
 Alpha virt. eigenvalues --   -0.00044   0.00312   0.00714   0.00824   0.00902

  Beta  occ. eigenvalues --  -38.44456 -38.44061 -38.43787 -38.43585 -38.43544
  Beta  occ. eigenvalues --  -38.43303 -38.43101  -2.20273  -2.19889  -2.19640
  Beta  occ. eigenvalues --   -2.19372  -2.19321  -2.19252  -2.19014  -1.13942
  Beta  occ. eigenvalues --   -1.13928  -1.13912  -1.13594  -1.13534  -1.13524
  Beta  occ. eigenvalues --   -1.13330  -1.13290  -1.13259  -1.13070  -1.13048
  Beta  occ. eigenvalues --   -1.13031  -1.13030  -1.13017  -1.13005  -1.12981
  Beta  occ. eigenvalues --   -1.12926  -1.12879  -1.12691  -1.12639  -1.12616
  Beta  occ. eigenvalues --   -0.17811  -0.12972  -0.11927
  Beta virt. eigenvalues --   -0.06751  -0.05896  -0.05403  -0.04286  -0.02426
  Beta virt. eigenvalues --   -0.02015  -0.01783  -0.01508  -0.01216  -0.00428
  Beta virt. eigenvalues --   -0.00259   0.00114   0.00346   0.00776   0.00820

 Mulliken charges and spin densities:
               1          2
     1  Na  -0.433090   0.308461
     2  Na   0.021857  -0.100002
     3  Na  -0.599130   0.739201
     4  Na   0.286532  -0.007649
     5  Na   0.363123   0.094695
     6  Na   0.108880   0.010410
     7  Na   0.251828  -0.045115
 Sum of Mulliken charges =  -0.00000   1.00000

 Dipole moment (field-independent basis, Debye):
    X=             -0.2356    Y=              0.0050    Z=              0.1469  Tot=              0.2776
 Quadrupole moment (field-independent basis, Debye-Ang):
   XX=            -52.8751   YY=            -65.1430   ZZ=            -74.8698
   XY=             -0.5300   XZ=              0.0634   YZ=             -0.7405

 Normal termination of Gaussian 16 at Thu Dec  7 20:10:40 2023.
