 Gaussian 16, Revision B.01,
 Gaussian 16:  ES64L-G16RevB.01 20-Dec-2017

 -------------------------
 #P B3LYP/6-311+g(d) force
 -------------------------

 -----
 DPGEN
 -----
 Symbolic Z-matrix:
 Charge =  0 Multiplicity = 2

                         Standard orientation:
 ---------------------------------------------------------------------
 Center     Atomic      Atomic             Coordinates (Angstroms)
 Number     Number       Type             X           Y           Z
 ---------------------------------------------------------------------
      1         11           0       -0.000654   -1.867097   -0.001486
      2         11           0        0.000115    0.167283   -1.564086
      3         11           0       -1.554909    1.708059   -0.000086
      4         11           0        1.557691    1.706707    0.000714
      5         11           0       -2.459268   -0.938255   -0.000086
      6         11           0        0.000415    0.164183    1.565714
      7         11           0        2.456612   -0.940879   -0.000686
 ---------------------------------------------------------------------

 SCF Done:  E(UB3LYP) =  -1136.04156684     A.U. after   21 cycles

 The electronic state is 2-A.
 Alpha  occ. eigenvalues --  -38.44488 -38.44483 -38.44430 -38.44266 -38.44264
 Alpha  occ. eigenvalues --  -38.43850 -38.43850  -2.20982  -2.20911  -2.20771
 Alpha  occ. eigenvalues --   -2.20408  -2.20390  -2.20054  -2.20047  -1.15250
 Alpha  occ. eigenvalues --   -1.14959  -1.14931  -1.14862  -1.14602  -1.14599
 Alpha  occ. eigenvalues --   -1.14566  -1.14205  -1.14174  -1.14125  -1.14114
 Alpha  occ. eigenvalues --   -1.14011  -1.13962  -1.13960  -1.13781  -1.13678
 Alpha  occ. eigenvalues --   -1.13663  -1.13637  -1.13631  -1.13571  -1.13493
 Alpha  occ. eigenvalues --   -0.22269  -0.14509  -0.12932  -0.12123
 Alpha virt. eigenvalues --   -0.05446  -0.04431  -0.03924  -0.03735  -0.02903
 Alpha virt. eigenvalues --   -0.02326  -0.01366  -0.00499  -0.00005   0.00320
 Alpha virt. eigenvalues --    0.00754   0.00825   0.00980   0.01146   0.01178

  Beta  occ. eigenvalues --  -38.44404 -38.44395 -38.44390 -38.44255 -38.44253
  Beta  occ. eigenvalues --  -38.43835 -38.43834  -2.20865  -2.20744  -2.20688
  Beta  occ. eigenvalues --   -2.20395  -2.20377  -2.20032  -2.20026  -1.15188
  Beta  occ. eigenvalues --   -1.14908  -1.14834  -1.14768  -1.14519  -1.14490
  Beta  occ. eigenvalues --   -1.14442  -1.14179  -1.14166  -1.14107  -1.14004
  Beta  occ. eigenvalues --   -1.13977  -1.13900  -1.13896  -1.13774  -1.13654
  Beta  occ. eigenvalues --   -1.13645  -1.13565  -1.13556  -1.13548  -1.13488
  Beta  occ. eigenvalues --   -0.21458  -0.14096  -0.12551
  Beta virt. eigenvalues --   -0.07847  -0.05493  -0.04405  -0.03873  -0.02718
  Beta virt. eigenvalues --   -0.01976  -0.01283  -0.01276  -0.00465   0.00133
  Beta virt. eigenvalues --    0.00357   0.00744   0.00813   0.00989   0.01166

 Mulliken charges and spin densities:
               1          2
     1  Na   0.509681   0.179562
     2  Na  -0.491730   0.450740
     3  Na   0.294729   0.022536
     4  Na   0.295932   0.022616
     5  Na  -0.060411  -0.064101
     6  Na  -0.489302   0.452360
     7  Na  -0.058899  -0.063713
 Sum of Mulliken charges =  -0.00000   1.00000

 Dipole moment (field-independent basis, Debye):
    X=             -0.0021    Y=              0.1892    Z=              0.0026  Tot=              0.1892
 Quadrupole moment (field-independent basis, Debye-Ang):
   XX=            -56.1728   YY=            -70.2210   ZZ=            -70.9099
   XY=              0.0042   XZ=             -0.0010   YZ=              0.0049

 Normal termination of Gaussian 16 at Fri Dec  8 18:53:02 2023.
