 Gaussian 16, Revision B.01,
 Gaussian 16:  ES64L-G16RevB.01 20-Dec-2017

 -------------------------
 #P B3LYP/6-311+g(d) force
 -------------------------

 -----
 DPGEN
 -----
 Symbolic Z-matrix:
 Charge =  0 Multiplicity = 2

                         Standard orientation:
 ---------------------------------------------------------------------
 Center     Atomic      Atomic             Coordinates (Angstroms)
 Number     Number       Type             X           Y           Z
 ---------------------------------------------------------------------
      1         11           0       -1.705377    1.669658   -0.829101
      2         11           0        4.404356   -0.909378   -0.678633
      3         11           0       -1.994624   -1.986529    0.721654
      4         11           0        1.268094   -1.246069   -0.581974
      5         11           0        2.172768    1.939290   -0.050115
      6         11           0       -0.104186    0.612348    2.436518
      7         11           0       -4.041030   -0.079322   -1.018349
 ---------------------------------------------------------------------

 SCF Done:  E(UB3LYP) =  -1136.11897690     A.U. after   24 cycles

 The electronic state is 2-A.
 Alpha  occ. eigenvalues --  -38.44446 -38.44267 -38.44219 -38.44146 -38.44019
 Alpha  occ. eigenvalues --  -38.43698 -38.43386  -2.20329  -2.20126  -2.20054
 Alpha  occ. eigenvalues --   -2.20024  -2.19900  -2.19521  -2.19203  -1.14063
 Alpha  occ. eigenvalues --   -1.14001  -1.13942  -1.13808  -1.13774  -1.13770
 Alpha  occ. eigenvalues --   -1.13762  -1.13741  -1.13718  -1.13667  -1.13654
 Alpha  occ. eigenvalues --   -1.13632  -1.13554  -1.13528  -1.13502  -1.13198
 Alpha  occ. eigenvalues --   -1.13184  -1.13136  -1.12872  -1.12861  -1.12842
 Alpha  occ. eigenvalues --   -0.17988  -0.14246  -0.11898  -0.10975
 Alpha virt. eigenvalues --   -0.06592  -0.05604  -0.04264  -0.03362  -0.02725
 Alpha virt. eigenvalues --   -0.02661  -0.02379  -0.01379  -0.00987  -0.00290
 Alpha virt. eigenvalues --   -0.00059   0.00065   0.00500   0.00553   0.00760

  Beta  occ. eigenvalues --  -38.44386 -38.44210 -38.44200 -38.44127 -38.43987
  Beta  occ. eigenvalues --  -38.43671 -38.43388  -2.20219  -2.20023  -2.20018
  Beta  occ. eigenvalues --   -2.19991  -2.19844  -2.19472  -2.19208  -1.13983
  Beta  occ. eigenvalues --   -1.13931  -1.13856  -1.13749  -1.13734  -1.13716
  Beta  occ. eigenvalues --   -1.13705  -1.13696  -1.13678  -1.13641  -1.13620
  Beta  occ. eigenvalues --   -1.13601  -1.13500  -1.13490  -1.13464  -1.13169
  Beta  occ. eigenvalues --   -1.13140  -1.13093  -1.12875  -1.12865  -1.12843
  Beta  occ. eigenvalues --   -0.17257  -0.13944  -0.10885
  Beta virt. eigenvalues --   -0.07935  -0.06294  -0.05221  -0.03909  -0.02859
  Beta virt. eigenvalues --   -0.02612  -0.02168  -0.01976  -0.01114  -0.00650
  Beta virt. eigenvalues --   -0.00160  -0.00004   0.00187   0.00560   0.00661

 Mulliken charges and spin densities:
               1          2
     1  Na  -0.122804   0.491001
     2  Na   0.542848  -0.021606
     3  Na   0.661528   0.175755
     4  Na  -1.232211   0.132944
     5  Na   0.253621   0.196958
     6  Na  -0.125488   0.136524
     7  Na   0.022505  -0.111576
 Sum of Mulliken charges =  -0.00000   1.00000

 Dipole moment (field-independent basis, Debye):
    X=             -0.1122    Y=              0.5098    Z=              0.6474  Tot=              0.8316
 Quadrupole moment (field-independent basis, Debye-Ang):
   XX=            -59.9649   YY=            -70.8913   ZZ=            -69.1096
   XY=              4.4965   XZ=              0.5501   YZ=             -4.0093

 Normal termination of Gaussian 16 at Sun Dec  3 21:51:36 2023.
