 Gaussian 16, Revision B.01,
 Gaussian 16:  ES64L-G16RevB.01 20-Dec-2017

 -------------------------
 #P B3LYP/6-311+g(d) force
 -------------------------

 -----
 DPGEN
 -----
 Symbolic Z-matrix:
 Charge =  0 Multiplicity = 2

                         Standard orientation:
 ---------------------------------------------------------------------
 Center     Atomic      Atomic             Coordinates (Angstroms)
 Number     Number       Type             X           Y           Z
 ---------------------------------------------------------------------
      1         11           0        0.106689   -2.744494   -0.481668
      2         11           0        3.001427   -0.926834    0.057397
      3         11           0        0.171727   -0.061367    1.748378
      4         11           0        1.668132    2.485134    0.129608
      5         11           0        0.075885    0.391520   -1.577369
      6         11           0       -2.166339    1.961978   -0.237690
      7         11           0       -2.857521   -1.105937    0.361344
 ---------------------------------------------------------------------

 SCF Done:  E(UB3LYP) =  -1136.13673515     A.U. after   19 cycles

 The electronic state is 2-A.
 Alpha  occ. eigenvalues --  -38.44123 -38.43741 -38.43701 -38.43581 -38.43129
 Alpha  occ. eigenvalues --  -38.43115 -38.42917  -2.19967  -2.19607  -2.19593
 Alpha  occ. eigenvalues --   -2.19451  -2.19107  -2.18995  -2.18962  -1.13646
 Alpha  occ. eigenvalues --   -1.13630  -1.13603  -1.13350  -1.13305  -1.13272
 Alpha  occ. eigenvalues --   -1.13253  -1.13230  -1.13179  -1.13160  -1.13125
 Alpha  occ. eigenvalues --   -1.13064  -1.12815  -1.12738  -1.12721  -1.12702
 Alpha  occ. eigenvalues --   -1.12646  -1.12629  -1.12622  -1.12579  -1.12565
 Alpha  occ. eigenvalues --   -0.19103  -0.13285  -0.12539  -0.10567
 Alpha virt. eigenvalues --   -0.05665  -0.05240  -0.04495  -0.03161  -0.02809
 Alpha virt. eigenvalues --   -0.02180  -0.01613  -0.01162  -0.00286  -0.00172
 Alpha virt. eigenvalues --    0.00055   0.00357   0.00815   0.00874   0.00925

  Beta  occ. eigenvalues --  -38.44119 -38.43733 -38.43693 -38.43575 -38.43102
  Beta  occ. eigenvalues --  -38.43052 -38.42847  -2.19963  -2.19596  -2.19582
  Beta  occ. eigenvalues --   -2.19443  -2.18974  -2.18966  -2.18834  -1.13637
  Beta  occ. eigenvalues --   -1.13617  -1.13596  -1.13345  -1.13285  -1.13255
  Beta  occ. eigenvalues --   -1.13233  -1.13208  -1.13173  -1.13154  -1.13097
  Beta  occ. eigenvalues --   -1.13058  -1.12728  -1.12676  -1.12641  -1.12616
  Beta  occ. eigenvalues --   -1.12611  -1.12600  -1.12540  -1.12490  -1.12476
  Beta  occ. eigenvalues --   -0.18392  -0.13020  -0.12260
  Beta virt. eigenvalues --   -0.06671  -0.05645  -0.05214  -0.04464  -0.02370
  Beta virt. eigenvalues --   -0.02038  -0.01526  -0.01161  -0.01101  -0.00319
  Beta virt. eigenvalues --   -0.00195   0.00164   0.00384   0.00855   0.00873

 Mulliken charges and spin densities:
               1          2
     1  Na   0.061829   0.023118
     2  Na   0.107385  -0.064740
     3  Na  -0.330070   0.681974
     4  Na   0.057368  -0.120384
     5  Na  -0.223626   0.496896
     6  Na   0.260526  -0.058463
     7  Na   0.066588   0.041598
 Sum of Mulliken charges =  -0.00000   1.00000

 Dipole moment (field-independent basis, Debye):
    X=              0.2453    Y=              0.0717    Z=              0.1396  Tot=              0.2912
 Quadrupole moment (field-independent basis, Debye-Ang):
   XX=            -54.3414   YY=            -62.4017   ZZ=            -75.4337
   XY=              0.1989   XZ=             -0.2627   YZ=              0.7856

 Normal termination of Gaussian 16 at Fri Dec  8 06:09:48 2023.
