 Gaussian 16, Revision B.01,
 Gaussian 16:  ES64L-G16RevB.01 20-Dec-2017

 -------------------------
 #P B3LYP/6-311+g(d) force
 -------------------------

 -----
 DPGEN
 -----
 Symbolic Z-matrix:
 Charge =  0 Multiplicity = 2

                         Standard orientation:
 ---------------------------------------------------------------------
 Center     Atomic      Atomic             Coordinates (Angstroms)
 Number     Number       Type             X           Y           Z
 ---------------------------------------------------------------------
      1         11           0       -0.258371   -2.782319    0.351520
      2         11           0        0.142039   -0.499802   -1.298652
      3         11           0       -1.157372    2.526414   -0.701464
      4         11           0       -1.078235    0.452437    1.908999
      5         11           0        3.251426   -1.175671   -0.180002
      6         11           0        2.180583    2.117952    0.353453
      7         11           0       -3.080070   -0.639009   -0.433855
 ---------------------------------------------------------------------

 SCF Done:  E(UB3LYP) =  -1136.13207118     A.U. after   20 cycles

 The electronic state is 2-A.
 Alpha  occ. eigenvalues --  -38.44298 -38.44202 -38.43832 -38.43746 -38.43326
 Alpha  occ. eigenvalues --  -38.43243 -38.42936  -2.20165  -2.20002  -2.19642
 Alpha  occ. eigenvalues --   -2.19628  -2.19203  -2.19164  -2.18989  -1.13844
 Alpha  occ. eigenvalues --   -1.13838  -1.13790  -1.13681  -1.13662  -1.13641
 Alpha  occ. eigenvalues --   -1.13446  -1.13316  -1.13308  -1.13280  -1.13274
 Alpha  occ. eigenvalues --   -1.13211  -1.12910  -1.12883  -1.12824  -1.12823
 Alpha  occ. eigenvalues --   -1.12798  -1.12759  -1.12671  -1.12625  -1.12586
 Alpha  occ. eigenvalues --   -0.18683  -0.13192  -0.12528  -0.10355
 Alpha virt. eigenvalues --   -0.05987  -0.05339  -0.04613  -0.03020  -0.02863
 Alpha virt. eigenvalues --   -0.02088  -0.01774  -0.01082  -0.00572  -0.00324
 Alpha virt. eigenvalues --   -0.00005   0.00330   0.00791   0.00814   0.00854

  Beta  occ. eigenvalues --  -38.44284 -38.44204 -38.43829 -38.43737 -38.43307
  Beta  occ. eigenvalues --  -38.43160 -38.42888  -2.20145  -2.20007  -2.19638
  Beta  occ. eigenvalues --   -2.19615  -2.19170  -2.19011  -2.18904  -1.13831
  Beta  occ. eigenvalues --   -1.13803  -1.13767  -1.13678  -1.13663  -1.13646
  Beta  occ. eigenvalues --   -1.13432  -1.13306  -1.13300  -1.13278  -1.13243
  Beta  occ. eigenvalues --   -1.13204  -1.12883  -1.12837  -1.12792  -1.12726
  Beta  occ. eigenvalues --   -1.12698  -1.12651  -1.12604  -1.12569  -1.12517
  Beta  occ. eigenvalues --   -0.17980  -0.13000  -0.12308
  Beta virt. eigenvalues --   -0.06432  -0.05916  -0.05291  -0.04540  -0.02391
  Beta virt. eigenvalues --   -0.02134  -0.01730  -0.01098  -0.00992  -0.00526
  Beta virt. eigenvalues --   -0.00352   0.00176   0.00390   0.00821   0.00858

 Mulliken charges and spin densities:
               1          2
     1  Na  -0.214361  -0.035028
     2  Na   0.257592   0.268606
     3  Na   0.070425   0.096490
     4  Na  -0.505864   0.666564
     5  Na   0.042960  -0.033150
     6  Na  -0.154398  -0.031064
     7  Na   0.503646   0.067583
 Sum of Mulliken charges =  -0.00000   1.00000

 Dipole moment (field-independent basis, Debye):
    X=              0.0673    Y=             -0.1611    Z=              0.1413  Tot=              0.2246
 Quadrupole moment (field-independent basis, Debye-Ang):
   XX=            -53.1472   YY=            -63.0981   ZZ=            -75.6682
   XY=              0.2512   XZ=              2.1684   YZ=             -1.3220

 Normal termination of Gaussian 16 at Tue Dec  5 16:31:38 2023.
