 Gaussian 16, Revision B.01,
 Gaussian 16:  ES64L-G16RevB.01 20-Dec-2017

 -------------------------
 #P B3LYP/6-311+g(d) force
 -------------------------

 -----
 DPGEN
 -----
 Symbolic Z-matrix:
 Charge =  0 Multiplicity = 2

                         Standard orientation:
 ---------------------------------------------------------------------
 Center     Atomic      Atomic             Coordinates (Angstroms)
 Number     Number       Type             X           Y           Z
 ---------------------------------------------------------------------
      1         11           0       -0.678969    0.396772    1.835528
      2         11           0       -3.523693    1.185239   -0.360218
      3         11           0        2.237562   -0.505738    1.863049
      4         11           0        0.213005    0.222006   -1.959637
      5         11           0       -2.261402   -2.085428    0.190075
      6         11           0        1.817145    2.412138   -0.266765
      7         11           0        2.196353   -1.624989   -1.302032
 ---------------------------------------------------------------------

 SCF Done:  E(UB3LYP) =  -1136.11627220     A.U. after   25 cycles

 The electronic state is 2-A.
 Alpha  occ. eigenvalues --  -38.45408 -38.45317 -38.44885 -38.43557 -38.43207
 Alpha  occ. eigenvalues --  -38.42764 -38.42709  -2.21176  -2.21110  -2.20726
 Alpha  occ. eigenvalues --   -2.19454  -2.19089  -2.18702  -2.18608  -1.14846
 Alpha  occ. eigenvalues --   -1.14834  -1.14809  -1.14792  -1.14749  -1.14721
 Alpha  occ. eigenvalues --   -1.14414  -1.14353  -1.14324  -1.13257  -1.13093
 Alpha  occ. eigenvalues --   -1.13059  -1.12804  -1.12734  -1.12714  -1.12376
 Alpha  occ. eigenvalues --   -1.12362  -1.12314  -1.12303  -1.12280  -1.12212
 Alpha  occ. eigenvalues --   -0.18198  -0.13641  -0.11666  -0.10950
 Alpha virt. eigenvalues --   -0.06549  -0.05488  -0.04107  -0.03282  -0.02962
 Alpha virt. eigenvalues --   -0.02754  -0.01943  -0.01290  -0.00473  -0.00244
 Alpha virt. eigenvalues --    0.00097   0.00307   0.00399   0.00627   0.00744

  Beta  occ. eigenvalues --  -38.45398 -38.45289 -38.44808 -38.43532 -38.43186
  Beta  occ. eigenvalues --  -38.42746 -38.42699  -2.21157  -2.21059  -2.20584
  Beta  occ. eigenvalues --   -2.19408  -2.19053  -2.18673  -2.18594  -1.14829
  Beta  occ. eigenvalues --   -1.14819  -1.14796  -1.14753  -1.14715  -1.14686
  Beta  occ. eigenvalues --   -1.14309  -1.14258  -1.14227  -1.13230  -1.13056
  Beta  occ. eigenvalues --   -1.13021  -1.12782  -1.12705  -1.12680  -1.12352
  Beta  occ. eigenvalues --   -1.12315  -1.12296  -1.12283  -1.12248  -1.12209
  Beta  occ. eigenvalues --   -0.17449  -0.13440  -0.10799
  Beta virt. eigenvalues --   -0.07967  -0.05936  -0.05105  -0.04011  -0.02954
  Beta virt. eigenvalues --   -0.02415  -0.02118  -0.01820  -0.00760  -0.00410
  Beta virt. eigenvalues --   -0.00021   0.00251   0.00350   0.00459   0.00728

 Mulliken charges and spin densities:
               1          2
     1  Na   0.042850   0.507580
     2  Na   0.263999   0.001244
     3  Na   0.048126   0.045391
     4  Na   0.060872   0.223780
     5  Na  -0.173554  -0.062322
     6  Na  -0.306318   0.038681
     7  Na   0.064025   0.245646
 Sum of Mulliken charges =  -0.00000   1.00000

 Dipole moment (field-independent basis, Debye):
    X=             -1.3829    Y=              0.2710    Z=             -0.0276  Tot=              1.4095
 Quadrupole moment (field-independent basis, Debye-Ang):
   XX=            -52.9705   YY=            -59.1807   ZZ=            -82.1435
   XY=             -0.9255   XZ=              2.0753   YZ=             -4.7221

 Normal termination of Gaussian 16 at Wed Dec  6 00:31:18 2023.
