 Gaussian 16, Revision B.01,
 Gaussian 16:  ES64L-G16RevB.01 20-Dec-2017

 -------------------------
 #P B3LYP/6-311+g(d) force
 -------------------------

 -----
 DPGEN
 -----
 Symbolic Z-matrix:
 Charge =  0 Multiplicity = 2

                         Standard orientation:
 ---------------------------------------------------------------------
 Center     Atomic      Atomic             Coordinates (Angstroms)
 Number     Number       Type             X           Y           Z
 ---------------------------------------------------------------------
      1         11           0        0.228561    0.236727    2.014169
      2         11           0       -0.206648    3.059569   -0.241212
      3         11           0       -3.225420    0.638261   -0.114305
      4         11           0        1.860925   -2.582409   -0.071404
      5         11           0       -1.875592   -2.189979    0.008603
      6         11           0        0.132222   -0.253733   -1.420186
      7         11           0        3.085951    1.091565   -0.175665
 ---------------------------------------------------------------------

 SCF Done:  E(UB3LYP) =  -1136.13499738     A.U. after   20 cycles

 The electronic state is 2-A.
 Alpha  occ. eigenvalues --  -38.44507 -38.44086 -38.43772 -38.43701 -38.43546
 Alpha  occ. eigenvalues --  -38.43225 -38.42940  -2.20303  -2.19910  -2.19598
 Alpha  occ. eigenvalues --   -2.19504  -2.19436  -2.19110  -2.18948  -1.13984
 Alpha  occ. eigenvalues --   -1.13963  -1.13933  -1.13609  -1.13571  -1.13545
 Alpha  occ. eigenvalues --   -1.13297  -1.13253  -1.13229  -1.13185  -1.13173
 Alpha  occ. eigenvalues --   -1.13152  -1.13133  -1.13086  -1.13057  -1.12793
 Alpha  occ. eigenvalues --   -1.12727  -1.12724  -1.12639  -1.12583  -1.12567
 Alpha  occ. eigenvalues --   -0.18471  -0.13068  -0.12417  -0.10254
 Alpha virt. eigenvalues --   -0.05981  -0.05320  -0.04815  -0.03001  -0.02689
 Alpha virt. eigenvalues --   -0.02190  -0.01757  -0.01353  -0.00680  -0.00468
 Alpha virt. eigenvalues --    0.00006   0.00328   0.00737   0.00822   0.00855

  Beta  occ. eigenvalues --  -38.44502 -38.44085 -38.43768 -38.43696 -38.43540
  Beta  occ. eigenvalues --  -38.43126 -38.42889  -2.20296  -2.19910  -2.19594
  Beta  occ. eigenvalues --   -2.19497  -2.19429  -2.18926  -2.18858  -1.13965
  Beta  occ. eigenvalues --   -1.13951  -1.13932  -1.13612  -1.13554  -1.13546
  Beta  occ. eigenvalues --   -1.13290  -1.13234  -1.13231  -1.13176  -1.13153
  Beta  occ. eigenvalues --   -1.13144  -1.13132  -1.13064  -1.13049  -1.12673
  Beta  occ. eigenvalues --   -1.12597  -1.12593  -1.12563  -1.12517  -1.12501
  Beta  occ. eigenvalues --   -0.17768  -0.12851  -0.12194
  Beta virt. eigenvalues --   -0.06357  -0.05960  -0.05302  -0.04776  -0.02249
  Beta virt. eigenvalues --   -0.01953  -0.01670  -0.01293  -0.01143  -0.00729
  Beta virt. eigenvalues --   -0.00504   0.00162   0.00371   0.00764   0.00853

 Mulliken charges and spin densities:
               1          2
     1  Na  -0.476850   0.782068
     2  Na   0.074642  -0.054329
     3  Na   0.066233  -0.023327
     4  Na   0.312975  -0.025227
     5  Na   0.374867   0.035528
     6  Na  -0.513726   0.353681
     7  Na   0.161859  -0.068394
 Sum of Mulliken charges =  -0.00000   1.00000

 Dipole moment (field-independent basis, Debye):
    X=              0.3296    Y=              0.1691    Z=              0.1057  Tot=              0.3852
 Quadrupole moment (field-independent basis, Debye-Ang):
   XX=            -53.7437   YY=            -60.5384   ZZ=            -77.2511
   XY=             -0.7316   XZ=             -0.1757   YZ=             -1.1578

 Normal termination of Gaussian 16 at Thu Dec  7 02:13:37 2023.
