 Gaussian 16, Revision B.01,
 Gaussian 16:  ES64L-G16RevB.01 20-Dec-2017

 -------------------------
 #P B3LYP/6-311+g(d) force
 -------------------------

 -----
 DPGEN
 -----
 Symbolic Z-matrix:
 Charge =  0 Multiplicity = 2

                         Standard orientation:
 ---------------------------------------------------------------------
 Center     Atomic      Atomic             Coordinates (Angstroms)
 Number     Number       Type             X           Y           Z
 ---------------------------------------------------------------------
      1         11           0        1.269468   -2.832360    0.084487
      2         11           0       -3.859402   -0.830068    0.353232
      3         11           0        2.650748    0.594870   -1.410224
      4         11           0       -1.783007   -3.190872   -0.718474
      5         11           0       -2.725827    2.553912    1.099181
      6         11           0        0.089500    3.761723   -0.967421
      7         11           0        4.358520   -0.057205    1.559217
 ---------------------------------------------------------------------

 SCF Done:  E(UB3LYP) =  -1136.10859883     A.U. after   21 cycles

 The electronic state is 2-A.
 Alpha  occ. eigenvalues --  -38.45312 -38.45060 -38.44760 -38.44484 -38.44282
 Alpha  occ. eigenvalues --  -38.44066 -38.43721  -2.21053  -2.20851  -2.20545
 Alpha  occ. eigenvalues --   -2.20222  -2.20073  -2.19828  -2.19544  -1.14741
 Alpha  occ. eigenvalues --   -1.14733  -1.14683  -1.14529  -1.14521  -1.14465
 Alpha  occ. eigenvalues --   -1.14195  -1.14194  -1.14149  -1.13913  -1.13897
 Alpha  occ. eigenvalues --   -1.13862  -1.13740  -1.13729  -1.13700  -1.13492
 Alpha  occ. eigenvalues --   -1.13475  -1.13450  -1.13218  -1.13202  -1.13195
 Alpha  occ. eigenvalues --   -0.15654  -0.13673  -0.12949  -0.10701
 Alpha virt. eigenvalues --   -0.07067  -0.06207  -0.03944  -0.03569  -0.03261
 Alpha virt. eigenvalues --   -0.02538  -0.01865  -0.01539  -0.01426  -0.01153
 Alpha virt. eigenvalues --   -0.00479  -0.00407  -0.00061   0.00391   0.00535

  Beta  occ. eigenvalues --  -38.45318 -38.45022 -38.44681 -38.44496 -38.44237
  Beta  occ. eigenvalues --  -38.44010 -38.43718  -2.21068  -2.20783  -2.20398
  Beta  occ. eigenvalues --   -2.20246  -2.19990  -2.19723  -2.19543  -1.14748
  Beta  occ. eigenvalues --   -1.14746  -1.14673  -1.14480  -1.14479  -1.14407
  Beta  occ. eigenvalues --   -1.14093  -1.14093  -1.14054  -1.13932  -1.13914
  Beta  occ. eigenvalues --   -1.13856  -1.13683  -1.13675  -1.13645  -1.13420
  Beta  occ. eigenvalues --   -1.13402  -1.13384  -1.13210  -1.13205  -1.13180
  Beta  occ. eigenvalues --   -0.15212  -0.13123  -0.12432
  Beta virt. eigenvalues --   -0.07509  -0.06971  -0.05598  -0.03694  -0.03315
  Beta virt. eigenvalues --   -0.03024  -0.02188  -0.01594  -0.01237  -0.01206
  Beta virt. eigenvalues --   -0.01046  -0.00319  -0.00102   0.00159   0.00474

 Mulliken charges and spin densities:
               1          2
     1  Na  -0.073872   0.206409
     2  Na  -0.014922   0.234234
     3  Na   0.014764  -0.046519
     4  Na  -0.049415  -0.027284
     5  Na  -0.016717  -0.086220
     6  Na  -0.015159   0.296216
     7  Na   0.155321   0.423163
 Sum of Mulliken charges =  -0.00000   1.00000

 Dipole moment (field-independent basis, Debye):
    X=              1.0314    Y=             -0.4047    Z=              0.2933  Tot=              1.1461
 Quadrupole moment (field-independent basis, Debye-Ang):
   XX=            -66.1797   YY=            -69.3364   ZZ=            -66.3424
   XY=              0.6153   XZ=              1.0903   YZ=              0.8409

 Normal termination of Gaussian 16 at Mon Dec  4 00:36:44 2023.
