 Gaussian 16, Revision B.01,
 Gaussian 16:  ES64L-G16RevB.01 20-Dec-2017

 -------------------------
 #P B3LYP/6-311+g(d) force
 -------------------------

 -----
 DPGEN
 -----
 Symbolic Z-matrix:
 Charge =  0 Multiplicity = 2

                         Standard orientation:
 ---------------------------------------------------------------------
 Center     Atomic      Atomic             Coordinates (Angstroms)
 Number     Number       Type             X           Y           Z
 ---------------------------------------------------------------------
      1         11           0        2.284917    1.799660   -0.288778
      2         11           0       -0.974411    2.507415    0.179123
      3         11           0        0.125273   -0.355754   -1.645753
      4         11           0       -1.223372   -2.624611   -0.035611
      5         11           0        2.820348   -1.299553   -0.367880
      6         11           0        0.227380   -0.360852    2.601516
      7         11           0       -3.260134    0.333694   -0.442617
 ---------------------------------------------------------------------

 SCF Done:  E(UB3LYP) =  -1136.13072747     A.U. after   19 cycles

 The electronic state is 2-A.
 Alpha  occ. eigenvalues --  -38.44722 -38.44226 -38.44111 -38.43559 -38.43504
 Alpha  occ. eigenvalues --  -38.43367 -38.42819  -2.20532  -2.20050  -2.19976
 Alpha  occ. eigenvalues --   -2.19551  -2.19388  -2.19208  -2.18685  -1.14165
 Alpha  occ. eigenvalues --   -1.14157  -1.14150  -1.13725  -1.13718  -1.13695
 Alpha  occ. eigenvalues --   -1.13681  -1.13639  -1.13602  -1.13255  -1.13225
 Alpha  occ. eigenvalues --   -1.13173  -1.13057  -1.13041  -1.13030  -1.12889
 Alpha  occ. eigenvalues --   -1.12865  -1.12824  -1.12361  -1.12343  -1.12336
 Alpha  occ. eigenvalues --   -0.18459  -0.13217  -0.12029  -0.11508
 Alpha virt. eigenvalues --   -0.05849  -0.05034  -0.04201  -0.03469  -0.03369
 Alpha virt. eigenvalues --   -0.02969  -0.01646  -0.00887  -0.00308  -0.00141
 Alpha virt. eigenvalues --    0.00011   0.00331   0.00715   0.00861   0.00905

  Beta  occ. eigenvalues --  -38.44596 -38.44222 -38.44105 -38.43514 -38.43499
  Beta  occ. eigenvalues --  -38.43365 -38.42816  -2.20299  -2.20042  -2.19967
  Beta  occ. eigenvalues --   -2.19469  -2.19383  -2.19206  -2.18681  -1.14007
  Beta  occ. eigenvalues --   -1.13999  -1.13984  -1.13721  -1.13702  -1.13683
  Beta  occ. eigenvalues --   -1.13678  -1.13630  -1.13587  -1.13204  -1.13173
  Beta  occ. eigenvalues --   -1.13111  -1.13048  -1.13039  -1.13010  -1.12881
  Beta  occ. eigenvalues --   -1.12848  -1.12823  -1.12360  -1.12340  -1.12318
  Beta  occ. eigenvalues --   -0.17775  -0.13013  -0.11846
  Beta virt. eigenvalues --   -0.07376  -0.05818  -0.05020  -0.04079  -0.02656
  Beta virt. eigenvalues --   -0.02358  -0.02153  -0.01561  -0.00847  -0.00331
  Beta virt. eigenvalues --   -0.00035   0.00081   0.00380   0.00858   0.00872

 Mulliken charges and spin densities:
               1          2
     1  Na   0.060231   0.093624
     2  Na  -0.050658   0.117661
     3  Na  -0.018747  -0.063708
     4  Na   0.058261   0.079424
     5  Na   0.403929   0.094665
     6  Na  -0.606266   0.671721
     7  Na   0.153249   0.006613
 Sum of Mulliken charges =  -0.00000   1.00000

 Dipole moment (field-independent basis, Debye):
    X=              0.0621    Y=             -0.3452    Z=              0.2718  Tot=              0.4438
 Quadrupole moment (field-independent basis, Debye-Ang):
   XX=            -56.6002   YY=            -68.8326   ZZ=            -70.7348
   XY=             -0.0537   XZ=              0.3978   YZ=             -0.4137

 Normal termination of Gaussian 16 at Thu Dec  7 07:29:43 2023.
