 Gaussian 16, Revision B.01,
 Gaussian 16:  ES64L-G16RevB.01 20-Dec-2017

 -------------------------
 #P B3LYP/6-311+g(d) force
 -------------------------

 -----
 DPGEN
 -----
 Symbolic Z-matrix:
 Charge =  0 Multiplicity = 2

                         Standard orientation:
 ---------------------------------------------------------------------
 Center     Atomic      Atomic             Coordinates (Angstroms)
 Number     Number       Type             X           Y           Z
 ---------------------------------------------------------------------
      1         11           0        1.354815    2.454246    0.220992
      2         11           0       -2.952962   -1.580683   -0.106876
      3         11           0       -0.271254   -0.356130    2.154850
      4         11           0        1.013228   -2.663463   -0.353454
      5         11           0        0.087328    0.254850   -1.671565
      6         11           0        3.144553   -0.166662   -0.019190
      7         11           0       -2.375707    2.057842   -0.224757
 ---------------------------------------------------------------------

 SCF Done:  E(UB3LYP) =  -1136.13525025     A.U. after   19 cycles

 The electronic state is 2-A.
 Alpha  occ. eigenvalues --  -38.44408 -38.44031 -38.43913 -38.43823 -38.43334
 Alpha  occ. eigenvalues --  -38.43272 -38.43179  -2.20180  -2.19903  -2.19723
 Alpha  occ. eigenvalues --   -2.19673  -2.19301  -2.19124  -2.19064  -1.13859
 Alpha  occ. eigenvalues --   -1.13833  -1.13826  -1.13584  -1.13565  -1.13553
 Alpha  occ. eigenvalues --   -1.13412  -1.13384  -1.13352  -1.13335  -1.13303
 Alpha  occ. eigenvalues --   -1.13290  -1.13007  -1.12968  -1.12921  -1.12798
 Alpha  occ. eigenvalues --   -1.12786  -1.12750  -1.12738  -1.12715  -1.12692
 Alpha  occ. eigenvalues --   -0.18490  -0.13149  -0.12170  -0.10802
 Alpha virt. eigenvalues --   -0.05903  -0.05426  -0.04296  -0.03319  -0.02904
 Alpha virt. eigenvalues --   -0.02610  -0.01687  -0.01210  -0.00403  -0.00279
 Alpha virt. eigenvalues --   -0.00045   0.00345   0.00717   0.00836   0.00908

  Beta  occ. eigenvalues --  -38.44409 -38.44028 -38.43908 -38.43726 -38.43273
  Beta  occ. eigenvalues --  -38.43262 -38.43171  -2.20184  -2.19900  -2.19717
  Beta  occ. eigenvalues --   -2.19494  -2.19189  -2.19110  -2.19053  -1.13845
  Beta  occ. eigenvalues --   -1.13837  -1.13831  -1.13585  -1.13561  -1.13531
  Beta  occ. eigenvalues --   -1.13398  -1.13371  -1.13352  -1.13216  -1.13178
  Beta  occ. eigenvalues --   -1.13160  -1.12936  -1.12897  -1.12842  -1.12780
  Beta  occ. eigenvalues --   -1.12759  -1.12737  -1.12725  -1.12689  -1.12677
  Beta  occ. eigenvalues --   -0.17761  -0.12943  -0.11940
  Beta virt. eigenvalues --   -0.06880  -0.05850  -0.05406  -0.04254  -0.02545
  Beta virt. eigenvalues --   -0.02118  -0.01653  -0.01521  -0.01148  -0.00458
  Beta virt. eigenvalues --   -0.00310   0.00112   0.00374   0.00786   0.00845

 Mulliken charges and spin densities:
               1          2
     1  Na   0.205533   0.052844
     2  Na   0.055456  -0.109786
     3  Na  -0.588332   0.735912
     4  Na   0.187166  -0.051422
     5  Na  -0.204974   0.397921
     6  Na   0.202641   0.025076
     7  Na   0.142511  -0.050545
 Sum of Mulliken charges =   0.00000   1.00000

 Dipole moment (field-independent basis, Debye):
    X=             -0.3921    Y=             -0.1203    Z=              0.1246  Tot=              0.4287
 Quadrupole moment (field-independent basis, Debye-Ang):
   XX=            -54.6211   YY=            -65.0772   ZZ=            -74.0071
   XY=              0.2693   XZ=              0.8148   YZ=              1.2532

 Normal termination of Gaussian 16 at Thu Dec  7 21:33:56 2023.
