 Gaussian 16, Revision B.01,
 Gaussian 16:  ES64L-G16RevB.01 20-Dec-2017

 -------------------------
 #P B3LYP/6-311+g(d) force
 -------------------------

 -----
 DPGEN
 -----
 Symbolic Z-matrix:
 Charge =  0 Multiplicity = 2

                         Standard orientation:
 ---------------------------------------------------------------------
 Center     Atomic      Atomic             Coordinates (Angstroms)
 Number     Number       Type             X           Y           Z
 ---------------------------------------------------------------------
      1         11           0       -3.068850    0.993610    0.099302
      2         11           0        0.157994    0.332027    1.820850
      3         11           0       -2.674360   -2.112557    0.026008
      4         11           0        0.468135    3.173308   -0.233898
      5         11           0        3.269494    0.402692   -0.034253
      6         11           0        2.018366   -2.709465    0.009836
      7         11           0       -0.170779   -0.079615   -1.687845
 ---------------------------------------------------------------------

 SCF Done:  E(UB3LYP) =  -1136.13159959     A.U. after   19 cycles

 The electronic state is 2-A.
 Alpha  occ. eigenvalues --  -38.44695 -38.44480 -38.44185 -38.43808 -38.43414
 Alpha  occ. eigenvalues --  -38.43305 -38.43239  -2.20502  -2.20318  -2.19999
 Alpha  occ. eigenvalues --   -2.19597  -2.19290  -2.19198  -2.19042  -1.14181
 Alpha  occ. eigenvalues --   -1.14165  -1.14135  -1.14011  -1.13983  -1.13958
 Alpha  occ. eigenvalues --   -1.13655  -1.13652  -1.13644  -1.13263  -1.13253
 Alpha  occ. eigenvalues --   -1.13251  -1.12988  -1.12916  -1.12911  -1.12888
 Alpha  occ. eigenvalues --   -1.12825  -1.12818  -1.12709  -1.12696  -1.12692
 Alpha  occ. eigenvalues --   -0.18019  -0.13465  -0.11915  -0.10082
 Alpha virt. eigenvalues --   -0.06118  -0.05605  -0.04921  -0.03271  -0.02498
 Alpha virt. eigenvalues --   -0.02128  -0.01961  -0.01360  -0.00917  -0.00707
 Alpha virt. eigenvalues --   -0.00017   0.00335   0.00692   0.00773   0.00782

  Beta  occ. eigenvalues --  -38.44693 -38.44474 -38.44184 -38.43809 -38.43337
  Beta  occ. eigenvalues --  -38.43234 -38.43232  -2.20500  -2.20311  -2.19999
  Beta  occ. eigenvalues --   -2.19600  -2.19149  -2.19064  -2.19036  -1.14166
  Beta  occ. eigenvalues --   -1.14156  -1.14138  -1.14010  -1.13958  -1.13951
  Beta  occ. eigenvalues --   -1.13655  -1.13646  -1.13636  -1.13260  -1.13254
  Beta  occ. eigenvalues --   -1.13247  -1.12890  -1.12819  -1.12809  -1.12793
  Beta  occ. eigenvalues --   -1.12731  -1.12725  -1.12691  -1.12688  -1.12679
  Beta  occ. eigenvalues --   -0.17319  -0.13279  -0.11721
  Beta virt. eigenvalues --   -0.06268  -0.06012  -0.05607  -0.04882  -0.02512
  Beta virt. eigenvalues --   -0.01848  -0.01827  -0.01291  -0.01141  -0.00971
  Beta virt. eigenvalues --   -0.00730   0.00150   0.00369   0.00749   0.00777

 Mulliken charges and spin densities:
               1          2
     1  Na   0.257824   0.001930
     2  Na  -0.138414   0.687718
     3  Na  -0.038899  -0.107779
     4  Na  -0.064438  -0.112595
     5  Na   0.179140  -0.042499
     6  Na  -0.104683  -0.126899
     7  Na  -0.090529   0.700124
 Sum of Mulliken charges =  -0.00000   1.00000

 Dipole moment (field-independent basis, Debye):
    X=             -0.0494    Y=             -0.0714    Z=              0.0215  Tot=              0.0895
 Quadrupole moment (field-independent basis, Debye-Ang):
   XX=            -53.5203   YY=            -60.6720   ZZ=            -78.2488
   XY=              0.8770   XZ=             -0.6895   YZ=             -0.9977

 Normal termination of Gaussian 16 at Thu Dec  7 09:14:39 2023.
