 Gaussian 16, Revision B.01,
 Gaussian 16:  ES64L-G16RevB.01 20-Dec-2017

 -------------------------
 #P B3LYP/6-311+g(d) force
 -------------------------

 -----
 DPGEN
 -----
 Symbolic Z-matrix:
 Charge =  0 Multiplicity = 2

                         Standard orientation:
 ---------------------------------------------------------------------
 Center     Atomic      Atomic             Coordinates (Angstroms)
 Number     Number       Type             X           Y           Z
 ---------------------------------------------------------------------
      1         11           0        1.810764    2.692727    0.029995
      2         11           0        0.690727   -2.528358   -0.177879
      3         11           0        0.040189    0.453459   -1.646672
      4         11           0       -0.119270   -0.119430    2.026954
      5         11           0       -3.088136    1.814230    0.027914
      6         11           0       -2.542987   -1.714483   -0.225665
      7         11           0        3.208712   -0.598145   -0.034648
 ---------------------------------------------------------------------

 SCF Done:  E(UB3LYP) =  -1136.13160615     A.U. after   21 cycles

 The electronic state is 2-A.
 Alpha  occ. eigenvalues --  -38.44653 -38.44568 -38.44003 -38.43792 -38.43602
 Alpha  occ. eigenvalues --  -38.43374 -38.42642  -2.20410  -2.20402  -2.19844
 Alpha  occ. eigenvalues --   -2.19596  -2.19477  -2.19293  -2.18570  -1.14088
 Alpha  occ. eigenvalues --   -1.14083  -1.14068  -1.14063  -1.14054  -1.14034
 Alpha  occ. eigenvalues --   -1.13520  -1.13511  -1.13478  -1.13286  -1.13254
 Alpha  occ. eigenvalues --   -1.13234  -1.13155  -1.13103  -1.13088  -1.12987
 Alpha  occ. eigenvalues --   -1.12938  -1.12904  -1.12252  -1.12223  -1.12219
 Alpha  occ. eigenvalues --   -0.18410  -0.13273  -0.12012  -0.10500
 Alpha virt. eigenvalues --   -0.06396  -0.05572  -0.04200  -0.03250  -0.02657
 Alpha virt. eigenvalues --   -0.02450  -0.01984  -0.01344  -0.00765  -0.00199
 Alpha virt. eigenvalues --   -0.00040   0.00305   0.00675   0.00749   0.00800

  Beta  occ. eigenvalues --  -38.44655 -38.44565 -38.43997 -38.43791 -38.43506
  Beta  occ. eigenvalues --  -38.43314 -38.42631  -2.20416  -2.20399  -2.19835
  Beta  occ. eigenvalues --   -2.19596  -2.19300  -2.19184  -2.18555  -1.14088
  Beta  occ. eigenvalues --   -1.14075  -1.14073  -1.14059  -1.14040  -1.14035
  Beta  occ. eigenvalues --   -1.13515  -1.13482  -1.13477  -1.13280  -1.13241
  Beta  occ. eigenvalues --   -1.13237  -1.13037  -1.12977  -1.12962  -1.12912
  Beta  occ. eigenvalues --   -1.12853  -1.12825  -1.12246  -1.12217  -1.12169
  Beta  occ. eigenvalues --   -0.17666  -0.13091  -0.11799
  Beta virt. eigenvalues --   -0.06582  -0.06376  -0.05502  -0.04196  -0.02510
  Beta virt. eigenvalues --   -0.01968  -0.01871  -0.01419  -0.01198  -0.00817
  Beta virt. eigenvalues --   -0.00233   0.00123   0.00338   0.00719   0.00786

 Mulliken charges and spin densities:
               1          2
     1  Na   0.060631  -0.104373
     2  Na   0.088751   0.070593
     3  Na  -0.169197   0.369107
     4  Na  -0.435581   0.700046
     5  Na   0.022190  -0.100290
     6  Na   0.230829   0.034723
     7  Na   0.202377   0.030194
 Sum of Mulliken charges =  -0.00000   1.00000

 Dipole moment (field-independent basis, Debye):
    X=             -0.1655    Y=              0.4080    Z=              0.1024  Tot=              0.4520
 Quadrupole moment (field-independent basis, Debye-Ang):
   XX=            -51.9487   YY=            -64.7039   ZZ=            -75.8911
   XY=             -0.6942   XZ=              0.3973   YZ=              1.4065

 Normal termination of Gaussian 16 at Thu Dec  7 03:42:43 2023.
