 Gaussian 16, Revision B.01,
 Gaussian 16:  ES64L-G16RevB.01 20-Dec-2017

 -------------------------
 #P B3LYP/6-311+g(d) force
 -------------------------

 -----
 DPGEN
 -----
 Symbolic Z-matrix:
 Charge =  0 Multiplicity = 2

                         Standard orientation:
 ---------------------------------------------------------------------
 Center     Atomic      Atomic             Coordinates (Angstroms)
 Number     Number       Type             X           Y           Z
 ---------------------------------------------------------------------
      1         11           0       -2.630037    1.963342   -0.006627
      2         11           0       -0.038799   -1.703523   -0.727772
      3         11           0       -3.519817   -1.980117   -0.549788
      4         11           0       -0.782796    0.268153    1.924324
      5         11           0        0.802536    3.201663   -0.694005
      6         11           0        2.790118   -2.853250    0.169045
      7         11           0        3.378793    1.103731   -0.115177
 ---------------------------------------------------------------------

 SCF Done:  E(UB3LYP) =  -1136.11755475     A.U. after   21 cycles

 The electronic state is 2-A.
 Alpha  occ. eigenvalues --  -38.44975 -38.44894 -38.44386 -38.44216 -38.43931
 Alpha  occ. eigenvalues --  -38.43673 -38.43500  -2.20815  -2.20701  -2.20181
 Alpha  occ. eigenvalues --   -2.19993  -2.19783  -2.19480  -2.19291  -1.14517
 Alpha  occ. eigenvalues --   -1.14484  -1.14428  -1.14369  -1.14336  -1.14314
 Alpha  occ. eigenvalues --   -1.13872  -1.13832  -1.13809  -1.13673  -1.13660
 Alpha  occ. eigenvalues --   -1.13610  -1.13491  -1.13458  -1.13391  -1.13132
 Alpha  occ. eigenvalues --   -1.13128  -1.13088  -1.12973  -1.12958  -1.12923
 Alpha  occ. eigenvalues --   -0.17116  -0.13316  -0.12754  -0.10099
 Alpha virt. eigenvalues --   -0.06795  -0.06019  -0.04618  -0.03092  -0.02775
 Alpha virt. eigenvalues --   -0.02293  -0.02167  -0.01564  -0.01455  -0.00721
 Alpha virt. eigenvalues --   -0.00078   0.00112   0.00303   0.00356   0.00643

  Beta  occ. eigenvalues --  -38.44917 -38.44884 -38.44371 -38.44186 -38.43926
  Beta  occ. eigenvalues --  -38.43594 -38.43489  -2.20706  -2.20687  -2.20152
  Beta  occ. eigenvalues --   -2.19939  -2.19778  -2.19334  -2.19273  -1.14457
  Beta  occ. eigenvalues --   -1.14406  -1.14364  -1.14356  -1.14309  -1.14293
  Beta  occ. eigenvalues --   -1.13853  -1.13809  -1.13791  -1.13638  -1.13625
  Beta  occ. eigenvalues --   -1.13560  -1.13484  -1.13457  -1.13368  -1.13031
  Beta  occ. eigenvalues --   -1.13025  -1.12993  -1.12963  -1.12946  -1.12892
  Beta  occ. eigenvalues --   -0.16729  -0.12972  -0.12072
  Beta virt. eigenvalues --   -0.06817  -0.06525  -0.05907  -0.04366  -0.02633
  Beta virt. eigenvalues --   -0.02342  -0.02160  -0.01856  -0.01311  -0.01071
  Beta virt. eigenvalues --   -0.00602   0.00111   0.00256   0.00426   0.00516

 Mulliken charges and spin densities:
               1          2
     1  Na   0.148407   0.099884
     2  Na  -0.972988   0.113039
     3  Na   0.229107   0.358209
     4  Na   0.178744   0.193853
     5  Na  -0.030980  -0.014661
     6  Na   0.548185   0.052401
     7  Na  -0.100475   0.197275
 Sum of Mulliken charges =  -0.00000   1.00000

 Dipole moment (field-independent basis, Debye):
    X=             -0.0789    Y=             -0.0159    Z=              0.7458  Tot=              0.7501
 Quadrupole moment (field-independent basis, Debye-Ang):
   XX=            -60.1372   YY=            -69.2820   ZZ=            -70.9043
   XY=            -10.6060   XZ=              2.0844   YZ=             -3.0643

 Normal termination of Gaussian 16 at Mon Dec  4 04:58:40 2023.
