 Gaussian 16, Revision B.01,
 Gaussian 16:  ES64L-G16RevB.01 20-Dec-2017

 -------------------------
 #P B3LYP/6-311+g(d) force
 -------------------------

 -----
 DPGEN
 -----
 Symbolic Z-matrix:
 Charge =  0 Multiplicity = 2

                         Standard orientation:
 ---------------------------------------------------------------------
 Center     Atomic      Atomic             Coordinates (Angstroms)
 Number     Number       Type             X           Y           Z
 ---------------------------------------------------------------------
      1         11           0        0.123078    1.777869    0.072871
      2         11           0        2.660040    3.564454   -0.421853
      3         11           0        2.674774   -0.025662    0.926612
      4         11           0        2.907241   -2.789576   -0.932673
      5         11           0        0.472047   -2.191375    0.826343
      6         11           0       -2.968549   -0.847398   -0.624039
      7         11           0       -5.868631    0.511688    0.152738
 ---------------------------------------------------------------------

 SCF Done:  E(UB3LYP) =  -1136.11691758     A.U. after   20 cycles

 The electronic state is 2-A.
 Alpha  occ. eigenvalues --  -38.44948 -38.44406 -38.44281 -38.44116 -38.44081
 Alpha  occ. eigenvalues --  -38.43630 -38.43082  -2.20851  -2.20270  -2.20094
 Alpha  occ. eigenvalues --   -2.19992  -2.19980  -2.19431  -2.18865  -1.14593
 Alpha  occ. eigenvalues --   -1.14542  -1.14444  -1.13967  -1.13913  -1.13897
 Alpha  occ. eigenvalues --   -1.13796  -1.13750  -1.13730  -1.13692  -1.13676
 Alpha  occ. eigenvalues --   -1.13657  -1.13644  -1.13571  -1.13543  -1.13070
 Alpha  occ. eigenvalues --   -1.13069  -1.13059  -1.12555  -1.12545  -1.12508
 Alpha  occ. eigenvalues --   -0.17460  -0.13270  -0.13110  -0.10316
 Alpha virt. eigenvalues --   -0.06630  -0.05443  -0.04665  -0.03624  -0.02824
 Alpha virt. eigenvalues --   -0.02429  -0.01831  -0.01361  -0.01131  -0.00761
 Alpha virt. eigenvalues --   -0.00401  -0.00143   0.00364   0.00443   0.00500

  Beta  occ. eigenvalues --  -38.44939 -38.44365 -38.44268 -38.44096 -38.44053
  Beta  occ. eigenvalues --  -38.43547 -38.43090  -2.20839  -2.20193  -2.20070
  Beta  occ. eigenvalues --   -2.19947  -2.19943  -2.19275  -2.18887  -1.14560
  Beta  occ. eigenvalues --   -1.14529  -1.14437  -1.13919  -1.13860  -1.13841
  Beta  occ. eigenvalues --   -1.13779  -1.13733  -1.13713  -1.13663  -1.13651
  Beta  occ. eigenvalues --   -1.13636  -1.13614  -1.13511  -1.13506  -1.12965
  Beta  occ. eigenvalues --   -1.12962  -1.12960  -1.12577  -1.12565  -1.12473
  Beta  occ. eigenvalues --   -0.16929  -0.13115  -0.12388
  Beta virt. eigenvalues --   -0.07015  -0.06338  -0.05068  -0.04356  -0.03249
  Beta virt. eigenvalues --   -0.02727  -0.02101  -0.01680  -0.01187  -0.00830
  Beta virt. eigenvalues --   -0.00462  -0.00091   0.00184   0.00471   0.00527

 Mulliken charges and spin densities:
               1          2
     1  Na  -1.159596  -0.090048
     2  Na   1.048809   0.172154
     3  Na   0.009502   0.283107
     4  Na   0.345232   0.267127
     5  Na  -0.137206  -0.033150
     6  Na  -0.266067   0.062427
     7  Na   0.159326   0.338381
 Sum of Mulliken charges =  -0.00000   1.00000

 Dipole moment (field-independent basis, Debye):
    X=              2.4366    Y=              0.2116    Z=             -0.1562  Tot=              2.4507
 Quadrupole moment (field-independent basis, Debye-Ang):
   XX=            -72.5034   YY=            -60.5716   ZZ=            -67.7575
   XY=              0.7713   XZ=             -3.0471   YZ=              0.7650

 Normal termination of Gaussian 16 at Tue Nov 28 20:42:46 2023.
