 Gaussian 16, Revision B.01,
 Gaussian 16:  ES64L-G16RevB.01 20-Dec-2017

 -------------------------
 #P B3LYP/6-311+g(d) force
 -------------------------

 -----
 DPGEN
 -----
 Symbolic Z-matrix:
 Charge =  0 Multiplicity = 2

                         Standard orientation:
 ---------------------------------------------------------------------
 Center     Atomic      Atomic             Coordinates (Angstroms)
 Number     Number       Type             X           Y           Z
 ---------------------------------------------------------------------
      1         11           0        3.081697    1.813099    0.330992
      2         11           0       -1.972396   -2.335457    0.009964
      3         11           0        2.537304   -2.157157   -1.505357
      4         11           0        0.393627    0.243219   -0.236388
      5         11           0       -0.510436   -1.414426    2.760653
      6         11           0       -1.102761    2.875251    0.770931
      7         11           0       -2.427036    0.975470   -2.130797
 ---------------------------------------------------------------------

 SCF Done:  E(UB3LYP) =  -1136.11732241     A.U. after   22 cycles

 The electronic state is 2-A.
 Alpha  occ. eigenvalues --  -38.44727 -38.44389 -38.44271 -38.44146 -38.43945
 Alpha  occ. eigenvalues --  -38.43740 -38.42265  -2.20491  -2.20153  -2.20097
 Alpha  occ. eigenvalues --   -2.19938  -2.19746  -2.19549  -2.18289  -1.14154
 Alpha  occ. eigenvalues --   -1.14129  -1.14103  -1.13846  -1.13824  -1.13773
 Alpha  occ. eigenvalues --   -1.13745  -1.13734  -1.13722  -1.13639  -1.13595
 Alpha  occ. eigenvalues --   -1.13556  -1.13422  -1.13386  -1.13359  -1.13223
 Alpha  occ. eigenvalues --   -1.13217  -1.13188  -1.12026  -1.11945  -1.11927
 Alpha  occ. eigenvalues --   -0.17251  -0.12259  -0.12080  -0.11310
 Alpha virt. eigenvalues --   -0.06130  -0.04930  -0.04793  -0.03230  -0.02971
 Alpha virt. eigenvalues --   -0.02620  -0.01487  -0.01415  -0.00800  -0.00159
 Alpha virt. eigenvalues --    0.00003   0.00296   0.00359   0.00563   0.00704

  Beta  occ. eigenvalues --  -38.44663 -38.44399 -38.44198 -38.44145 -38.43897
  Beta  occ. eigenvalues --  -38.43744 -38.42251  -2.20372  -2.20173  -2.19959
  Beta  occ. eigenvalues --   -2.19936  -2.19656  -2.19561  -2.18269  -1.14069
  Beta  occ. eigenvalues --   -1.14050  -1.14025  -1.13860  -1.13837  -1.13781
  Beta  occ. eigenvalues --   -1.13654  -1.13640  -1.13636  -1.13629  -1.13592
  Beta  occ. eigenvalues --   -1.13549  -1.13357  -1.13325  -1.13301  -1.13235
  Beta  occ. eigenvalues --   -1.13213  -1.13181  -1.11954  -1.11940  -1.11926
  Beta  occ. eigenvalues --   -0.16615  -0.12023  -0.11702
  Beta virt. eigenvalues --   -0.07819  -0.05780  -0.04599  -0.04310  -0.02971
  Beta virt. eigenvalues --   -0.02561  -0.02101  -0.01433  -0.01185  -0.00532
  Beta virt. eigenvalues --    0.00002   0.00128   0.00394   0.00460   0.00705

 Mulliken charges and spin densities:
               1          2
     1  Na  -0.055304  -0.061953
     2  Na   0.942691  -0.064705
     3  Na   0.562938   0.085296
     4  Na  -3.267705   0.686280
     5  Na  -0.264170   0.276757
     6  Na   1.639813  -0.119389
     7  Na   0.441737   0.197714
 Sum of Mulliken charges =  -0.00000   1.00000

 Dipole moment (field-independent basis, Debye):
    X=              0.1631    Y=              0.0519    Z=              0.2691  Tot=              0.3189
 Quadrupole moment (field-independent basis, Debye-Ang):
   XX=            -63.4060   YY=            -64.0189   ZZ=            -64.0124
   XY=              0.3518   XZ=              2.0215   YZ=              5.0565

 Normal termination of Gaussian 16 at Tue Dec  5 22:17:53 2023.
