 Gaussian 16, Revision B.01,
 Gaussian 16:  ES64L-G16RevB.01 20-Dec-2017

 -------------------------
 #P B3LYP/6-311+g(d) force
 -------------------------

 -----
 DPGEN
 -----
 Symbolic Z-matrix:
 Charge =  0 Multiplicity = 2

                         Standard orientation:
 ---------------------------------------------------------------------
 Center     Atomic      Atomic             Coordinates (Angstroms)
 Number     Number       Type             X           Y           Z
 ---------------------------------------------------------------------
      1         11           0       -3.185738    0.202570   -0.006414
      2         11           0        0.160488   -0.343386    2.379959
      3         11           0       -0.745594    2.572321   -0.026918
      4         11           0        2.598262    1.781296   -0.130462
      5         11           0       -0.159664    0.078633   -1.636566
      6         11           0        2.514270   -1.912712   -0.278627
      7         11           0       -1.182024   -2.378721   -0.300974
 ---------------------------------------------------------------------

 SCF Done:  E(UB3LYP) =  -1136.13403619     A.U. after   19 cycles

 The electronic state is 2-A.
 Alpha  occ. eigenvalues --  -38.44230 -38.43970 -38.43840 -38.43822 -38.43447
 Alpha  occ. eigenvalues --  -38.43274 -38.43056  -2.20062  -2.19826  -2.19641
 Alpha  occ. eigenvalues --   -2.19635  -2.19472  -2.19182  -2.18952  -1.13709
 Alpha  occ. eigenvalues --   -1.13689  -1.13679  -1.13501  -1.13485  -1.13481
 Alpha  occ. eigenvalues --   -1.13320  -1.13312  -1.13305  -1.13297  -1.13288
 Alpha  occ. eigenvalues --   -1.13265  -1.13225  -1.13175  -1.13062  -1.12857
 Alpha  occ. eigenvalues --   -1.12831  -1.12781  -1.12651  -1.12603  -1.12562
 Alpha  occ. eigenvalues --   -0.18667  -0.12976  -0.12311  -0.11152
 Alpha virt. eigenvalues --   -0.05597  -0.05312  -0.04230  -0.03325  -0.03076
 Alpha virt. eigenvalues --   -0.02874  -0.01581  -0.01065  -0.00180  -0.00130
 Alpha virt. eigenvalues --   -0.00080   0.00337   0.00736   0.00888   0.00930

  Beta  occ. eigenvalues --  -38.44119 -38.43968 -38.43838 -38.43822 -38.43390
  Beta  occ. eigenvalues --  -38.43263 -38.43051  -2.19856  -2.19826  -2.19640
  Beta  occ. eigenvalues --   -2.19635  -2.19367  -2.19167  -2.18945  -1.13572
  Beta  occ. eigenvalues --   -1.13544  -1.13535  -1.13500  -1.13488  -1.13462
  Beta  occ. eigenvalues --   -1.13314  -1.13300  -1.13296  -1.13293  -1.13287
  Beta  occ. eigenvalues --   -1.13268  -1.13161  -1.13105  -1.12987  -1.12835
  Beta  occ. eigenvalues --   -1.12793  -1.12775  -1.12639  -1.12577  -1.12562
  Beta  occ. eigenvalues --   -0.17937  -0.12791  -0.12084
  Beta virt. eigenvalues --   -0.07117  -0.05526  -0.05335  -0.04193  -0.02509
  Beta virt. eigenvalues --   -0.02204  -0.01870  -0.01490  -0.01017  -0.00237
  Beta virt. eigenvalues --   -0.00167   0.00101   0.00368   0.00819   0.00878

 Mulliken charges and spin densities:
               1          2
     1  Na   0.234830   0.064256
     2  Na  -0.795777   0.731874
     3  Na   0.241580   0.073496
     4  Na   0.084647  -0.024251
     5  Na  -0.305375   0.156308
     6  Na   0.143109  -0.044482
     7  Na   0.396987   0.042799
 Sum of Mulliken charges =  -0.00000   1.00000

 Dipole moment (field-independent basis, Debye):
    X=              0.1351    Y=             -0.0763    Z=              0.3130  Tot=              0.3493
 Quadrupole moment (field-independent basis, Debye-Ang):
   XX=            -55.4877   YY=            -66.6603   ZZ=            -72.3108
   XY=             -0.3221   XZ=             -0.6995   YZ=              0.7846

 Normal termination of Gaussian 16 at Thu Dec  7 13:24:33 2023.
