 Gaussian 16, Revision B.01,
 Gaussian 16:  ES64L-G16RevB.01 20-Dec-2017

 -------------------------
 #P B3LYP/6-311+g(d) force
 -------------------------

 -----
 DPGEN
 -----
 Symbolic Z-matrix:
 Charge =  0 Multiplicity = 2

                         Standard orientation:
 ---------------------------------------------------------------------
 Center     Atomic      Atomic             Coordinates (Angstroms)
 Number     Number       Type             X           Y           Z
 ---------------------------------------------------------------------
      1         11           0        0.085436   -0.218951    2.032258
      2         11           0       -2.962718   -0.733410   -0.209576
      3         11           0       -0.067654    0.198188   -1.621704
      4         11           0       -0.234123   -2.756761   -0.238698
      5         11           0        2.198049    2.243392   -0.256538
      6         11           0        3.051566   -0.994269    0.041588
      7         11           0       -2.070556    2.261811    0.252670
 ---------------------------------------------------------------------

 SCF Done:  E(UB3LYP) =  -1136.13655899     A.U. after   19 cycles

 The electronic state is 2-A.
 Alpha  occ. eigenvalues --  -38.44359 -38.44011 -38.43736 -38.43613 -38.43574
 Alpha  occ. eigenvalues --  -38.43209 -38.42805  -2.20181  -2.19899  -2.19560
 Alpha  occ. eigenvalues --   -2.19502  -2.19422  -2.19189  -2.18689  -1.13856
 Alpha  occ. eigenvalues --   -1.13842  -1.13821  -1.13588  -1.13563  -1.13544
 Alpha  occ. eigenvalues --   -1.13247  -1.13216  -1.13197  -1.13175  -1.13130
 Alpha  occ. eigenvalues --   -1.13120  -1.13094  -1.13074  -1.13063  -1.12877
 Alpha  occ. eigenvalues --   -1.12830  -1.12809  -1.12376  -1.12352  -1.12316
 Alpha  occ. eigenvalues --   -0.18712  -0.13432  -0.12107  -0.10732
 Alpha virt. eigenvalues --   -0.05859  -0.05388  -0.04321  -0.03355  -0.02719
 Alpha virt. eigenvalues --   -0.02517  -0.01726  -0.01116  -0.00431  -0.00251
 Alpha virt. eigenvalues --   -0.00018   0.00352   0.00739   0.00856   0.00906

  Beta  occ. eigenvalues --  -38.44357 -38.44004 -38.43731 -38.43568 -38.43519
  Beta  occ. eigenvalues --  -38.43145 -38.42796  -2.20180  -2.19891  -2.19554
  Beta  occ. eigenvalues --   -2.19415  -2.19329  -2.19074  -2.18679  -1.13846
  Beta  occ. eigenvalues --   -1.13835  -1.13820  -1.13585  -1.13547  -1.13525
  Beta  occ. eigenvalues --   -1.13235  -1.13203  -1.13193  -1.13093  -1.13065
  Beta  occ. eigenvalues --   -1.13058  -1.13049  -1.13009  -1.12987  -1.12799
  Beta  occ. eigenvalues --   -1.12744  -1.12726  -1.12369  -1.12327  -1.12300
  Beta  occ. eigenvalues --   -0.17982  -0.13207  -0.11857
  Beta virt. eigenvalues --   -0.06819  -0.05796  -0.05381  -0.04294  -0.02570
  Beta virt. eigenvalues --   -0.01969  -0.01631  -0.01456  -0.01033  -0.00477
  Beta virt. eigenvalues --   -0.00298   0.00129   0.00380   0.00809   0.00858

 Mulliken charges and spin densities:
               1          2
     1  Na  -0.499317   0.744492
     2  Na   0.300527   0.012792
     3  Na  -0.224362   0.420387
     4  Na   0.143984  -0.047579
     5  Na   0.066185  -0.075986
     6  Na   0.144164  -0.039497
     7  Na   0.068820  -0.014609
 Sum of Mulliken charges =  -0.00000   1.00000

 Dipole moment (field-independent basis, Debye):
    X=              0.2603    Y=              0.0618    Z=              0.1571  Tot=              0.3102
 Quadrupole moment (field-independent basis, Debye-Ang):
   XX=            -54.3488   YY=            -64.5234   ZZ=            -74.5894
   XY=             -0.4740   XZ=             -0.0455   YZ=              0.9622

 Normal termination of Gaussian 16 at Thu Dec  7 22:22:23 2023.
