 Gaussian 16, Revision B.01,
 Gaussian 16:  ES64L-G16RevB.01 20-Dec-2017

 -------------------------
 #P B3LYP/6-311+g(d) force
 -------------------------

 -----
 DPGEN
 -----
 Symbolic Z-matrix:
 Charge =  0 Multiplicity = 2

                         Standard orientation:
 ---------------------------------------------------------------------
 Center     Atomic      Atomic             Coordinates (Angstroms)
 Number     Number       Type             X           Y           Z
 ---------------------------------------------------------------------
      1         11           0       -2.355454   -2.110028   -0.271133
      2         11           0        2.436906    1.920127    0.428640
      3         11           0        0.243867   -0.693281    2.003776
      4         11           0        3.908395   -1.156053   -0.068175
      5         11           0       -4.579337    0.698380    0.133149
      6         11           0        1.004239   -0.529591   -1.660945
      7         11           0       -0.658617    1.870446   -0.565312
 ---------------------------------------------------------------------

 SCF Done:  E(UB3LYP) =  -1136.10759637     A.U. after   34 cycles

 The electronic state is 2-A.
 Alpha  occ. eigenvalues --  -38.45965 -38.45178 -38.44797 -38.44140 -38.43980
 Alpha  occ. eigenvalues --  -38.43378 -38.42465  -2.21837  -2.20949  -2.20626
 Alpha  occ. eigenvalues --   -2.20014  -2.19754  -2.19211  -2.18354  -1.15533
 Alpha  occ. eigenvalues --   -1.15492  -1.15468  -1.14604  -1.14589  -1.14561
 Alpha  occ. eigenvalues --   -1.14272  -1.14258  -1.14250  -1.13700  -1.13678
 Alpha  occ. eigenvalues --   -1.13643  -1.13451  -1.13416  -1.13394  -1.12877
 Alpha  occ. eigenvalues --   -1.12864  -1.12841  -1.12096  -1.12014  -1.11947
 Alpha  occ. eigenvalues --   -0.18107  -0.13972  -0.10934  -0.10733
 Alpha virt. eigenvalues --   -0.08200  -0.05508  -0.04033  -0.03436  -0.02991
 Alpha virt. eigenvalues --   -0.02402  -0.02143  -0.01907  -0.01006  -0.00631
 Alpha virt. eigenvalues --   -0.00551   0.00090   0.00250   0.00547   0.00580

  Beta  occ. eigenvalues --  -38.45959 -38.45098 -38.44708 -38.44137 -38.43987
  Beta  occ. eigenvalues --  -38.43343 -38.42468  -2.21828  -2.20798  -2.20461
  Beta  occ. eigenvalues --   -2.20012  -2.19770  -2.19147  -2.18362  -1.15513
  Beta  occ. eigenvalues --   -1.15493  -1.15455  -1.14500  -1.14485  -1.14462
  Beta  occ. eigenvalues --   -1.14159  -1.14152  -1.14130  -1.13691  -1.13679
  Beta  occ. eigenvalues --   -1.13630  -1.13467  -1.13427  -1.13381  -1.12834
  Beta  occ. eigenvalues --   -1.12817  -1.12795  -1.12105  -1.12003  -1.11956
  Beta  occ. eigenvalues --   -0.17657  -0.13310  -0.10725
  Beta virt. eigenvalues --   -0.07873  -0.07211  -0.05382  -0.03618  -0.03064
  Beta virt. eigenvalues --   -0.02731  -0.02078  -0.02008  -0.01376  -0.00670
  Beta virt. eigenvalues --   -0.00414  -0.00247   0.00160   0.00376   0.00608

 Mulliken charges and spin densities:
               1          2
     1  Na  -0.089650   0.004064
     2  Na   0.229043   0.047373
     3  Na  -0.086610   0.311845
     4  Na   0.007458   0.150096
     5  Na   0.070761   0.392297
     6  Na   0.226477   0.146759
     7  Na  -0.357478  -0.052435
 Sum of Mulliken charges =  -0.00000   1.00000

 Dipole moment (field-independent basis, Debye):
    X=             -0.0982    Y=              0.1970    Z=              0.7262  Tot=              0.7589
 Quadrupole moment (field-independent basis, Debye-Ang):
   XX=            -62.8934   YY=            -76.8802   ZZ=            -63.6532
   XY=              2.6133   XZ=              2.4408   YZ=              4.6253

 Normal termination of Gaussian 16 at Thu Dec  7 21:31:55 2023.
