 Gaussian 16, Revision B.01,
 Gaussian 16:  ES64L-G16RevB.01 20-Dec-2017

 -------------------------
 #P B3LYP/6-311+g(d) force
 -------------------------

 -----
 DPGEN
 -----
 Symbolic Z-matrix:
 Charge =  0 Multiplicity = 2

                         Standard orientation:
 ---------------------------------------------------------------------
 Center     Atomic      Atomic             Coordinates (Angstroms)
 Number     Number       Type             X           Y           Z
 ---------------------------------------------------------------------
      1         11           0        0.911216    1.511529    1.880394
      2         11           0       -1.399683    3.121223    0.308716
      3         11           0        3.607922   -0.964156   -0.409598
      4         11           0        1.449239    0.889718   -1.744658
      5         11           0       -2.412418    0.283174   -1.054897
      6         11           0       -2.935185   -2.594116    0.165448
      7         11           0        0.778909   -2.247372    0.854595
 ---------------------------------------------------------------------

 SCF Done:  E(UB3LYP) =  -1136.12627681     A.U. after   19 cycles

 The electronic state is 2-A.
 Alpha  occ. eigenvalues --  -38.44423 -38.44357 -38.44245 -38.44226 -38.43868
 Alpha  occ. eigenvalues --  -38.43715 -38.43538  -2.20270  -2.20195  -2.20083
 Alpha  occ. eigenvalues --   -2.20026  -2.19699  -2.19562  -2.19333  -1.13983
 Alpha  occ. eigenvalues --   -1.13939  -1.13910  -1.13861  -1.13833  -1.13800
 Alpha  occ. eigenvalues --   -1.13747  -1.13733  -1.13717  -1.13702  -1.13697
 Alpha  occ. eigenvalues --   -1.13628  -1.13389  -1.13363  -1.13336  -1.13242
 Alpha  occ. eigenvalues --   -1.13232  -1.13201  -1.12994  -1.12988  -1.12970
 Alpha  occ. eigenvalues --   -0.17580  -0.13435  -0.12469  -0.10887
 Alpha virt. eigenvalues --   -0.06022  -0.05738  -0.04909  -0.03369  -0.02946
 Alpha virt. eigenvalues --   -0.02638  -0.01838  -0.01286  -0.00540  -0.00379
 Alpha virt. eigenvalues --   -0.00189   0.00296   0.00323   0.00591   0.00698

  Beta  occ. eigenvalues --  -38.44359 -38.44348 -38.44196 -38.44172 -38.43868
  Beta  occ. eigenvalues --  -38.43693 -38.43547  -2.20184  -2.20152  -2.19972
  Beta  occ. eigenvalues --   -2.19948  -2.19702  -2.19520  -2.19351  -1.13928
  Beta  occ. eigenvalues --   -1.13866  -1.13846  -1.13830  -1.13810  -1.13747
  Beta  occ. eigenvalues --   -1.13672  -1.13656  -1.13653  -1.13639  -1.13613
  Beta  occ. eigenvalues --   -1.13595  -1.13389  -1.13343  -1.13337  -1.13209
  Beta  occ. eigenvalues --   -1.13207  -1.13181  -1.13007  -1.12992  -1.12979
  Beta  occ. eigenvalues --   -0.16933  -0.13201  -0.12282
  Beta virt. eigenvalues --   -0.07221  -0.05865  -0.05390  -0.04530  -0.02880
  Beta virt. eigenvalues --   -0.02522  -0.01891  -0.01726  -0.01219  -0.00496
  Beta virt. eigenvalues --   -0.00169   0.00078   0.00373   0.00476   0.00681

 Mulliken charges and spin densities:
               1          2
     1  Na  -0.174908   0.387259
     2  Na   0.413942  -0.084682
     3  Na   0.573701   0.038105
     4  Na  -0.184482   0.293730
     5  Na  -0.508805   0.278713
     6  Na   0.446645  -0.136297
     7  Na  -0.566091   0.223172
 Sum of Mulliken charges =  -0.00000   1.00000

 Dipole moment (field-independent basis, Debye):
    X=              0.7725    Y=              0.1760    Z=              0.1633  Tot=              0.8090
 Quadrupole moment (field-independent basis, Debye-Ang):
   XX=            -59.2085   YY=            -64.6176   ZZ=            -72.9262
   XY=             -3.1689   XZ=              0.4273   YZ=             -1.5515

 Normal termination of Gaussian 16 at Sun Dec  3 12:02:58 2023.
