 Gaussian 16, Revision B.01,
 Gaussian 16:  ES64L-G16RevB.01 20-Dec-2017

 -------------------------
 #P B3LYP/6-311+g(d) force
 -------------------------

 -----
 DPGEN
 -----
 Symbolic Z-matrix:
 Charge =  0 Multiplicity = 2

                         Standard orientation:
 ---------------------------------------------------------------------
 Center     Atomic      Atomic             Coordinates (Angstroms)
 Number     Number       Type             X           Y           Z
 ---------------------------------------------------------------------
      1         11           0       -0.210280    0.266937   -1.008734
      2         11           0       -3.611983    0.827933   -0.131761
      3         11           0       -1.542450   -2.157016   -0.593424
      4         11           0        0.670069    3.275595   -0.154750
      5         11           0        1.676940   -2.584167   -0.080712
      6         11           0        3.214010    0.566197   -0.286694
      7         11           0       -0.196307   -0.195479    2.256075
 ---------------------------------------------------------------------

 SCF Done:  E(UB3LYP) =  -1136.12526162     A.U. after   21 cycles

 The electronic state is 2-A.
 Alpha  occ. eigenvalues --  -38.44780 -38.44394 -38.43961 -38.43693 -38.43557
 Alpha  occ. eigenvalues --  -38.43304 -38.43038  -2.20543  -2.20192  -2.19751
 Alpha  occ. eigenvalues --   -2.19627  -2.19422  -2.19160  -2.19105  -1.14214
 Alpha  occ. eigenvalues --   -1.14200  -1.14179  -1.13874  -1.13855  -1.13819
 Alpha  occ. eigenvalues --   -1.13502  -1.13441  -1.13407  -1.13377  -1.13258
 Alpha  occ. eigenvalues --   -1.13211  -1.13100  -1.13033  -1.13023  -1.12829
 Alpha  occ. eigenvalues --   -1.12818  -1.12811  -1.12791  -1.12752  -1.12680
 Alpha  occ. eigenvalues --   -0.18345  -0.12950  -0.12311  -0.10379
 Alpha virt. eigenvalues --   -0.06428  -0.05037  -0.04780  -0.02795  -0.02572
 Alpha virt. eigenvalues --   -0.02385  -0.02125  -0.01284  -0.00803  -0.00370
 Alpha virt. eigenvalues --   -0.00056   0.00250   0.00712   0.00748   0.00866

  Beta  occ. eigenvalues --  -38.44780 -38.44388 -38.43962 -38.43673 -38.43436
  Beta  occ. eigenvalues --  -38.43300 -38.43009  -2.20544  -2.20182  -2.19754
  Beta  occ. eigenvalues --   -2.19595  -2.19197  -2.19155  -2.19057  -1.14210
  Beta  occ. eigenvalues --   -1.14195  -1.14182  -1.13860  -1.13844  -1.13814
  Beta  occ. eigenvalues --   -1.13482  -1.13438  -1.13401  -1.13380  -1.13209
  Beta  occ. eigenvalues --   -1.13192  -1.12953  -1.12878  -1.12866  -1.12823
  Beta  occ. eigenvalues --   -1.12817  -1.12785  -1.12733  -1.12709  -1.12649
  Beta  occ. eigenvalues --   -0.17642  -0.12734  -0.12144
  Beta virt. eigenvalues --   -0.06460  -0.06294  -0.04978  -0.04718  -0.02163
  Beta virt. eigenvalues --   -0.02080  -0.01858  -0.01328  -0.01172  -0.00807
  Beta virt. eigenvalues --   -0.00367   0.00144   0.00318   0.00729   0.00801

 Mulliken charges and spin densities:
               1          2
     1  Na  -1.019329  -0.075006
     2  Na   0.130738   0.036435
     3  Na   0.800427   0.164555
     4  Na   0.151855   0.050751
     5  Na   0.266571   0.098086
     6  Na   0.194063   0.052048
     7  Na  -0.524326   0.673130
 Sum of Mulliken charges =  -0.00000   1.00000

 Dipole moment (field-independent basis, Debye):
    X=             -0.2415    Y=              0.4503    Z=              0.2878  Tot=              0.5865
 Quadrupole moment (field-independent basis, Debye-Ang):
   XX=            -52.6020   YY=            -61.2350   ZZ=            -76.9420
   XY=             -2.3409   XZ=             -0.1342   YZ=              0.7928

 Normal termination of Gaussian 16 at Thu Dec  7 03:07:49 2023.
