 Gaussian 16, Revision B.01,
 Gaussian 16:  ES64L-G16RevB.01 20-Dec-2017

 -------------------------
 #P B3LYP/6-311+g(d) force
 -------------------------

 -----
 DPGEN
 -----
 Symbolic Z-matrix:
 Charge =  0 Multiplicity = 2

                         Standard orientation:
 ---------------------------------------------------------------------
 Center     Atomic      Atomic             Coordinates (Angstroms)
 Number     Number       Type             X           Y           Z
 ---------------------------------------------------------------------
      1         11           0        0.007391   -2.045627   -0.068376
      2         11           0       -0.099020    0.226052   -1.761613
      3         11           0       -1.633931    1.833067    0.008430
      4         11           0        1.510797    1.837712   -0.042952
      5         11           0       -2.457662   -1.113827    0.038157
      6         11           0        0.009523    0.195090    1.833469
      7         11           0        2.662904   -0.932467   -0.007115
 ---------------------------------------------------------------------

 SCF Done:  E(UB3LYP) =  -1136.09639878     A.U. after   19 cycles

 The electronic state is 2-A.
 Alpha  occ. eigenvalues --  -38.44021 -38.43936 -38.43875 -38.43773 -38.43403
 Alpha  occ. eigenvalues --  -38.43317 -38.43288  -2.20230  -2.20096  -2.19934
 Alpha  occ. eigenvalues --   -2.19762  -2.19581  -2.19408  -2.19367  -1.14048
 Alpha  occ. eigenvalues --   -1.13988  -1.13926  -1.13857  -1.13825  -1.13791
 Alpha  occ. eigenvalues --   -1.13728  -1.13564  -1.13518  -1.13514  -1.13459
 Alpha  occ. eigenvalues --   -1.13377  -1.13175  -1.13161  -1.13100  -1.13055
 Alpha  occ. eigenvalues --   -1.13041  -1.13037  -1.13015  -1.12990  -1.12902
 Alpha  occ. eigenvalues --   -0.21220  -0.13832  -0.12806  -0.12011
 Alpha virt. eigenvalues --   -0.05228  -0.04552  -0.03981  -0.03596  -0.03135
 Alpha virt. eigenvalues --   -0.02817  -0.01236  -0.00577  -0.00073   0.00351
 Alpha virt. eigenvalues --    0.00660   0.00693   0.00949   0.01100   0.01109

  Beta  occ. eigenvalues --  -38.43929 -38.43867 -38.43841 -38.43769 -38.43384
  Beta  occ. eigenvalues --  -38.43303 -38.43274  -2.20064  -2.19927  -2.19922
  Beta  occ. eigenvalues --   -2.19758  -2.19556  -2.19390  -2.19350  -1.13999
  Beta  occ. eigenvalues --   -1.13900  -1.13840  -1.13750  -1.13724  -1.13677
  Beta  occ. eigenvalues --   -1.13618  -1.13547  -1.13507  -1.13465  -1.13455
  Beta  occ. eigenvalues --   -1.13341  -1.13154  -1.13088  -1.13078  -1.13035
  Beta  occ. eigenvalues --   -1.13029  -1.12986  -1.12983  -1.12947  -1.12898
  Beta  occ. eigenvalues --   -0.20395  -0.13486  -0.12449
  Beta virt. eigenvalues --   -0.07854  -0.05249  -0.04543  -0.03961  -0.02657
  Beta virt. eigenvalues --   -0.02207  -0.01730  -0.01162  -0.00540   0.00072
  Beta virt. eigenvalues --    0.00377   0.00621   0.00666   0.00991   0.01091

 Mulliken charges and spin densities:
               1          2
     1  Na   0.242759   0.152178
     2  Na  -0.247684   0.454097
     3  Na   0.274608   0.003091
     4  Na   0.180196   0.005784
     5  Na   0.025825  -0.054411
     6  Na  -0.309984   0.520352
     7  Na  -0.165720  -0.081092
 Sum of Mulliken charges =  -0.00000   1.00000

 Dipole moment (field-independent basis, Debye):
    X=              0.1193    Y=              0.1345    Z=              0.1258  Tot=              0.2194
 Quadrupole moment (field-independent basis, Debye-Ang):
   XX=            -57.8098   YY=            -69.6767   ZZ=            -69.3157
   XY=             -0.4028   XZ=             -0.2213   YZ=              0.0050

 Normal termination of Gaussian 16 at Tue Dec  5 16:22:45 2023.
