 Gaussian 16, Revision B.01,
 Gaussian 16:  ES64L-G16RevB.01 20-Dec-2017

 -------------------------
 #P B3LYP/6-311+g(d) force
 -------------------------

 -----
 DPGEN
 -----
 Symbolic Z-matrix:
 Charge =  0 Multiplicity = 2

                         Standard orientation:
 ---------------------------------------------------------------------
 Center     Atomic      Atomic             Coordinates (Angstroms)
 Number     Number       Type             X           Y           Z
 ---------------------------------------------------------------------
      1         11           0       -3.694433    1.275846    0.413038
      2         11           0        0.245319    1.904884    0.200141
      3         11           0        2.277462   -0.882410    1.700318
      4         11           0       -1.425846   -1.231944    1.468028
      5         11           0       -2.265096   -0.839065   -1.738573
      6         11           0        1.161179   -1.354256   -1.307513
      7         11           0        3.701415    1.126944   -0.735438
 ---------------------------------------------------------------------

 SCF Done:  E(UB3LYP) =  -1136.12353214     A.U. after   27 cycles

 The electronic state is 2-A.
 Alpha  occ. eigenvalues --  -38.44659 -38.44381 -38.44149 -38.44147 -38.44015
 Alpha  occ. eigenvalues --  -38.43695 -38.43175  -2.20435  -2.20250  -2.20025
 Alpha  occ. eigenvalues --   -2.19970  -2.19834  -2.19568  -2.19073  -1.14154
 Alpha  occ. eigenvalues --   -1.14139  -1.14029  -1.13927  -1.13918  -1.13861
 Alpha  occ. eigenvalues --   -1.13698  -1.13689  -1.13652  -1.13640  -1.13622
 Alpha  occ. eigenvalues --   -1.13593  -1.13505  -1.13485  -1.13461  -1.13261
 Alpha  occ. eigenvalues --   -1.13229  -1.13173  -1.12771  -1.12738  -1.12678
 Alpha  occ. eigenvalues --   -0.18332  -0.14456  -0.11238  -0.10779
 Alpha virt. eigenvalues --   -0.06898  -0.05346  -0.05091  -0.03162  -0.02647
 Alpha virt. eigenvalues --   -0.02417  -0.02137  -0.01274  -0.01018  -0.00263
 Alpha virt. eigenvalues --    0.00090   0.00266   0.00288   0.00430   0.00599

  Beta  occ. eigenvalues --  -38.44670 -38.44342 -38.44124 -38.44099 -38.43999
  Beta  occ. eigenvalues --  -38.43660 -38.43141  -2.20458  -2.20180  -2.19933
  Beta  occ. eigenvalues --   -2.19928  -2.19806  -2.19506  -2.19014  -1.14164
  Beta  occ. eigenvalues --   -1.14140  -1.14047  -1.13884  -1.13864  -1.13802
  Beta  occ. eigenvalues --   -1.13635  -1.13629  -1.13603  -1.13596  -1.13583
  Beta  occ. eigenvalues --   -1.13568  -1.13477  -1.13463  -1.13443  -1.13219
  Beta  occ. eigenvalues --   -1.13171  -1.13124  -1.12733  -1.12679  -1.12631
  Beta  occ. eigenvalues --   -0.17700  -0.14205  -0.10535
  Beta virt. eigenvalues --   -0.07400  -0.06751  -0.05130  -0.04521  -0.02847
  Beta virt. eigenvalues --   -0.02593  -0.01864  -0.01556  -0.01111  -0.00520
  Beta virt. eigenvalues --   -0.00113   0.00127   0.00282   0.00423   0.00567

 Mulliken charges and spin densities:
               1          2
     1  Na   0.515802   0.075987
     2  Na  -0.898168  -0.027629
     3  Na   0.257452   0.171237
     4  Na  -0.322114   0.312126
     5  Na   0.141430   0.129593
     6  Na  -0.518851   0.261457
     7  Na   0.824450   0.077229
 Sum of Mulliken charges =  -0.00000   1.00000

 Dipole moment (field-independent basis, Debye):
    X=              0.1940    Y=             -0.1979    Z=              0.1990  Tot=              0.3412
 Quadrupole moment (field-independent basis, Debye-Ang):
   XX=            -50.0407   YY=            -78.3150   ZZ=            -67.9299
   XY=             -0.7067   XZ=              0.8084   YZ=             -0.9667

 Normal termination of Gaussian 16 at Thu Dec  7 08:50:47 2023.
