 Gaussian 16, Revision B.01,
 Gaussian 16:  ES64L-G16RevB.01 20-Dec-2017

 -------------------------
 #P B3LYP/6-311+g(d) force
 -------------------------

 -----
 DPGEN
 -----
 Symbolic Z-matrix:
 Charge =  0 Multiplicity = 2

                         Standard orientation:
 ---------------------------------------------------------------------
 Center     Atomic      Atomic             Coordinates (Angstroms)
 Number     Number       Type             X           Y           Z
 ---------------------------------------------------------------------
      1         11           0       -3.089531   -1.262868    0.051569
      2         11           0       -0.218667   -0.294322    2.177431
      3         11           0       -0.109320   -2.076415   -1.167471
      4         11           0       -3.265694    2.018093   -0.041486
      5         11           0       -0.102988    1.407811   -1.105596
      6         11           0        3.973118    1.688018    0.015362
      7         11           0        2.813082   -1.480318    0.070191
 ---------------------------------------------------------------------

 SCF Done:  E(UB3LYP) =  -1136.11537374     A.U. after   28 cycles

 The electronic state is 2-A.
 Alpha  occ. eigenvalues --  -38.45329 -38.44731 -38.44680 -38.44603 -38.44264
 Alpha  occ. eigenvalues --  -38.44029 -38.42446  -2.21163  -2.20555  -2.20432
 Alpha  occ. eigenvalues --   -2.20425  -2.20093  -2.19843  -2.18349  -1.14837
 Alpha  occ. eigenvalues --   -1.14818  -1.14810  -1.14257  -1.14224  -1.14154
 Alpha  occ. eigenvalues --   -1.14132  -1.14117  -1.14100  -1.14095  -1.14079
 Alpha  occ. eigenvalues --   -1.14033  -1.13765  -1.13713  -1.13703  -1.13520
 Alpha  occ. eigenvalues --   -1.13498  -1.13487  -1.12024  -1.12021  -1.11970
 Alpha  occ. eigenvalues --   -0.18064  -0.13818  -0.11438  -0.10570
 Alpha virt. eigenvalues --   -0.07422  -0.06265  -0.03575  -0.03522  -0.02873
 Alpha virt. eigenvalues --   -0.02535  -0.02392  -0.01903  -0.00921  -0.00391
 Alpha virt. eigenvalues --   -0.00027   0.00092   0.00353   0.00454   0.00584

  Beta  occ. eigenvalues --  -38.45315 -38.44705 -38.44683 -38.44601 -38.44163
  Beta  occ. eigenvalues --  -38.44031 -38.42412  -2.21141  -2.20473  -2.20468
  Beta  occ. eigenvalues --   -2.20430  -2.19905  -2.19848  -2.18288  -1.14813
  Beta  occ. eigenvalues --   -1.14800  -1.14785  -1.14192  -1.14159  -1.14152
  Beta  occ. eigenvalues --   -1.14127  -1.14112  -1.14105  -1.14092  -1.14086
  Beta  occ. eigenvalues --   -1.14049  -1.13635  -1.13583  -1.13572  -1.13525
  Beta  occ. eigenvalues --   -1.13495  -1.13483  -1.11982  -1.11978  -1.11916
  Beta  occ. eigenvalues --   -0.17323  -0.13817  -0.11233
  Beta virt. eigenvalues --   -0.07255  -0.06568  -0.06242  -0.03412  -0.02962
  Beta virt. eigenvalues --   -0.02712  -0.02158  -0.01597  -0.01328  -0.01001
  Beta virt. eigenvalues --   -0.00156   0.00027   0.00132   0.00487   0.00584

 Mulliken charges and spin densities:
               1          2
     1  Na   0.203404   0.243060
     2  Na  -0.287819   0.552278
     3  Na   0.199090   0.000088
     4  Na   0.333825  -0.118768
     5  Na  -0.676883   0.383741
     6  Na   0.140563  -0.187641
     7  Na   0.087820   0.127243
 Sum of Mulliken charges =  -0.00000   1.00000

 Dipole moment (field-independent basis, Debye):
    X=             -0.2350    Y=             -0.0378    Z=              0.1787  Tot=              0.2976
 Quadrupole moment (field-independent basis, Debye-Ang):
   XX=            -49.3241   YY=            -69.9322   ZZ=            -76.4390
   XY=              1.4317   XZ=              0.0595   YZ=              0.4411

 Normal termination of Gaussian 16 at Thu Dec  7 15:50:36 2023.
