 Gaussian 16, Revision B.01,
 Gaussian 16:  ES64L-G16RevB.01 20-Dec-2017

 -------------------------
 #P B3LYP/6-311+g(d) force
 -------------------------

 -----
 DPGEN
 -----
 Symbolic Z-matrix:
 Charge =  0 Multiplicity = 2

                         Standard orientation:
 ---------------------------------------------------------------------
 Center     Atomic      Atomic             Coordinates (Angstroms)
 Number     Number       Type             X           Y           Z
 ---------------------------------------------------------------------
      1         11           0        2.537433   -0.443761    0.838261
      2         11           0        3.704083    2.929400   -0.330764
      3         11           0       -3.478248    0.222021    0.499348
      4         11           0        4.571380   -2.656739   -0.468366
      5         11           0       -6.260641   -0.382449   -0.475614
      6         11           0       -0.232340    1.767754   -0.089405
      7         11           0       -0.841667   -1.436227    0.026540
 ---------------------------------------------------------------------

 SCF Done:  E(UB3LYP) =  -1136.10925752     A.U. after   24 cycles

 The electronic state is 2-A.
 Alpha  occ. eigenvalues --  -38.45843 -38.45775 -38.44190 -38.44049 -38.43637
 Alpha  occ. eigenvalues --  -38.43383 -38.43352  -2.21642  -2.21619  -2.20018
 Alpha  occ. eigenvalues --   -2.19875  -2.19541  -2.19233  -2.19119  -1.15302
 Alpha  occ. eigenvalues --   -1.15285  -1.15267  -1.15264  -1.15243  -1.15223
 Alpha  occ. eigenvalues --   -1.13714  -1.13700  -1.13643  -1.13588  -1.13504
 Alpha  occ. eigenvalues --   -1.13502  -1.13238  -1.13200  -1.13151  -1.12931
 Alpha  occ. eigenvalues --   -1.12924  -1.12873  -1.12783  -1.12779  -1.12742
 Alpha  occ. eigenvalues --   -0.17143  -0.14299  -0.12030  -0.11298
 Alpha virt. eigenvalues --   -0.06298  -0.05951  -0.04783  -0.03569  -0.02755
 Alpha virt. eigenvalues --   -0.02687  -0.02297  -0.01469  -0.00956  -0.00834
 Alpha virt. eigenvalues --   -0.00677  -0.00211  -0.00140   0.00323   0.00729

  Beta  occ. eigenvalues --  -38.45728 -38.45724 -38.44201 -38.43989 -38.43634
  Beta  occ. eigenvalues --  -38.43376 -38.43359  -2.21549  -2.21404  -2.20041
  Beta  occ. eigenvalues --   -2.19765  -2.19542  -2.19224  -2.19131  -1.15241
  Beta  occ. eigenvalues --   -1.15221  -1.15202  -1.15117  -1.15096  -1.15079
  Beta  occ. eigenvalues --   -1.13732  -1.13720  -1.13635  -1.13516  -1.13430
  Beta  occ. eigenvalues --   -1.13428  -1.13239  -1.13206  -1.13114  -1.12924
  Beta  occ. eigenvalues --   -1.12900  -1.12869  -1.12792  -1.12786  -1.12748
  Beta  occ. eigenvalues --   -0.16659  -0.13550  -0.10930
  Beta virt. eigenvalues --   -0.08595  -0.06013  -0.05407  -0.04599  -0.03192
  Beta virt. eigenvalues --   -0.02497  -0.02322  -0.01896  -0.01159  -0.00773
  Beta virt. eigenvalues --   -0.00579  -0.00416  -0.00075  -0.00037   0.00413

 Mulliken charges and spin densities:
               1          2
     1  Na  -0.447353   0.007498
     2  Na   0.577383   0.436730
     3  Na  -0.096652   0.206224
     4  Na   0.188669  -0.038200
     5  Na  -0.087657   0.152606
     6  Na  -0.171926   0.077235
     7  Na   0.037535   0.157907
 Sum of Mulliken charges =  -0.00000   1.00000

 Dipole moment (field-independent basis, Debye):
    X=              0.0328    Y=              0.9129    Z=             -0.6405  Tot=              1.1157
 Quadrupole moment (field-independent basis, Debye-Ang):
   XX=            -67.9971   YY=            -64.5937   ZZ=            -71.5203
   XY=              7.3155   XZ=             -1.1491   YZ=              1.2561

 Normal termination of Gaussian 16 at Tue Nov 28 23:35:56 2023.
