 Gaussian 16, Revision B.01,
 Gaussian 16:  ES64L-G16RevB.01 20-Dec-2017

 -------------------------
 #P B3LYP/6-311+g(d) force
 -------------------------

 -----
 DPGEN
 -----
 Symbolic Z-matrix:
 Charge =  0 Multiplicity = 2

                         Standard orientation:
 ---------------------------------------------------------------------
 Center     Atomic      Atomic             Coordinates (Angstroms)
 Number     Number       Type             X           Y           Z
 ---------------------------------------------------------------------
      1         11           0       -3.582731   -1.679655    0.367344
      2         11           0        2.729061   -2.256970   -0.628788
      3         11           0        2.734087    1.633573   -1.314084
      4         11           0       -0.345594    3.234461    0.428693
      5         11           0        1.438461    0.217144    2.620281
      6         11           0       -2.694429    1.589476   -1.073459
      7         11           0       -0.278856   -2.738028   -0.399987
 ---------------------------------------------------------------------

 SCF Done:  E(UB3LYP) =  -1136.11091995     A.U. after   22 cycles

 The electronic state is 2-A.
 Alpha  occ. eigenvalues --  -38.45408 -38.44702 -38.44593 -38.44328 -38.44295
 Alpha  occ. eigenvalues --  -38.44257 -38.44247  -2.21139  -2.20478  -2.20348
 Alpha  occ. eigenvalues --   -2.20110  -2.20072  -2.20064  -2.20045  -1.14816
 Alpha  occ. eigenvalues --   -1.14786  -1.14768  -1.14167  -1.14147  -1.14107
 Alpha  occ. eigenvalues --   -1.14021  -1.14011  -1.13993  -1.13853  -1.13755
 Alpha  occ. eigenvalues --   -1.13752  -1.13735  -1.13730  -1.13728  -1.13724
 Alpha  occ. eigenvalues --   -1.13713  -1.13713  -1.13702  -1.13682  -1.13620
 Alpha  occ. eigenvalues --   -0.16316  -0.13111  -0.12741  -0.10611
 Alpha virt. eigenvalues --   -0.07312  -0.06071  -0.04334  -0.03438  -0.03139
 Alpha virt. eigenvalues --   -0.02685  -0.01846  -0.01638  -0.01377  -0.00904
 Alpha virt. eigenvalues --   -0.00270   0.00022   0.00223   0.00361   0.00542

  Beta  occ. eigenvalues --  -38.45372 -38.44692 -38.44602 -38.44298 -38.44248
  Beta  occ. eigenvalues --  -38.44246 -38.44200  -2.21073  -2.20458  -2.20364
  Beta  occ. eigenvalues --   -2.20080  -2.20052  -2.20041  -2.19871  -1.14768
  Beta  occ. eigenvalues --   -1.14741  -1.14719  -1.14155  -1.14133  -1.14094
  Beta  occ. eigenvalues --   -1.14031  -1.14021  -1.14003  -1.13850  -1.13758
  Beta  occ. eigenvalues --   -1.13728  -1.13717  -1.13713  -1.13709  -1.13684
  Beta  occ. eigenvalues --   -1.13674  -1.13619  -1.13591  -1.13566  -1.13560
  Beta  occ. eigenvalues --   -0.15859  -0.12956  -0.12581
  Beta virt. eigenvalues --   -0.07121  -0.06671  -0.05843  -0.04237  -0.02973
  Beta virt. eigenvalues --   -0.02668  -0.02019  -0.01570  -0.01509  -0.01344
  Beta virt. eigenvalues --   -0.00870   0.00090   0.00180   0.00392   0.00469

 Mulliken charges and spin densities:
               1          2
     1  Na   0.271927  -0.055113
     2  Na   0.355452   0.091268
     3  Na   0.079533   0.194353
     4  Na  -0.045801   0.154576
     5  Na  -0.160012   0.661851
     6  Na  -0.020281  -0.054617
     7  Na  -0.480818   0.007682
 Sum of Mulliken charges =  -0.00000   1.00000

 Dipole moment (field-independent basis, Debye):
    X=             -0.2474    Y=              0.1463    Z=             -0.4763  Tot=              0.5564
 Quadrupole moment (field-independent basis, Debye-Ang):
   XX=            -59.6646   YY=            -65.8804   ZZ=            -74.7702
   XY=              0.8320   XZ=             -2.4356   YZ=             -1.5892

 Normal termination of Gaussian 16 at Sun Dec  3 13:09:02 2023.
