 Gaussian 16, Revision B.01,
 Gaussian 16:  ES64L-G16RevB.01 20-Dec-2017

 -------------------------
 #P B3LYP/6-311+g(d) force
 -------------------------

 -----
 DPGEN
 -----
 Symbolic Z-matrix:
 Charge =  0 Multiplicity = 2

                         Standard orientation:
 ---------------------------------------------------------------------
 Center     Atomic      Atomic             Coordinates (Angstroms)
 Number     Number       Type             X           Y           Z
 ---------------------------------------------------------------------
      1         11           0        4.869616    0.475065   -0.511545
      2         11           0       -1.474203    2.963760    0.689621
      3         11           0        1.698880    2.877585   -0.088436
      4         11           0       -3.660566   -2.290458   -0.292637
      5         11           0        0.020689   -2.745411    0.556363
      6         11           0        3.185594   -2.185411    0.119551
      7         11           0       -4.640010    0.904871   -0.472918
 ---------------------------------------------------------------------

 SCF Done:  E(UB3LYP) =  -1136.10890727     A.U. after   21 cycles

 The electronic state is 2-A.
 Alpha  occ. eigenvalues --  -38.45086 -38.45033 -38.44635 -38.44489 -38.44432
 Alpha  occ. eigenvalues --  -38.44099 -38.44071  -2.20865  -2.20791  -2.20400
 Alpha  occ. eigenvalues --   -2.20304  -2.20249  -2.19902  -2.19850  -1.14533
 Alpha  occ. eigenvalues --   -1.14526  -1.14502  -1.14471  -1.14452  -1.14417
 Alpha  occ. eigenvalues --   -1.14077  -1.14076  -1.14033  -1.14024  -1.13978
 Alpha  occ. eigenvalues --   -1.13974  -1.13889  -1.13871  -1.13856  -1.13553
 Alpha  occ. eigenvalues --   -1.13547  -1.13524  -1.13518  -1.13514  -1.13482
 Alpha  occ. eigenvalues --   -0.15646  -0.14191  -0.13029  -0.11187
 Alpha virt. eigenvalues --   -0.07551  -0.04973  -0.04390  -0.03690  -0.03539
 Alpha virt. eigenvalues --   -0.02550  -0.01946  -0.01687  -0.01251  -0.00895
 Alpha virt. eigenvalues --   -0.00810  -0.00349   0.00038   0.00481   0.00664

  Beta  occ. eigenvalues --  -38.45040 -38.45038 -38.44616 -38.44481 -38.44356
  Beta  occ. eigenvalues --  -38.44050 -38.44031  -2.20804  -2.20781  -2.20370
  Beta  occ. eigenvalues --   -2.20298  -2.20108  -2.19814  -2.19776  -1.14494
  Beta  occ. eigenvalues --   -1.14485  -1.14468  -1.14455  -1.14446  -1.14388
  Beta  occ. eigenvalues --   -1.14059  -1.14054  -1.13992  -1.13978  -1.13977
  Beta  occ. eigenvalues --   -1.13952  -1.13793  -1.13776  -1.13773  -1.13495
  Beta  occ. eigenvalues --   -1.13489  -1.13468  -1.13463  -1.13446  -1.13440
  Beta  occ. eigenvalues --   -0.15038  -0.13479  -0.12323
  Beta virt. eigenvalues --   -0.08060  -0.07681  -0.04381  -0.03906  -0.03500
  Beta virt. eigenvalues --   -0.03243  -0.02344  -0.01876  -0.01529  -0.00861
  Beta virt. eigenvalues --   -0.00728  -0.00537   0.00007   0.00202   0.00470

 Mulliken charges and spin densities:
               1          2
     1  Na   0.187449   0.360858
     2  Na  -0.190484  -0.031972
     3  Na  -0.176635   0.166515
     4  Na   0.478521   0.067048
     5  Na  -0.283139   0.291167
     6  Na  -0.052372  -0.026708
     7  Na   0.036660   0.173092
 Sum of Mulliken charges =  -0.00000   1.00000

 Dipole moment (field-independent basis, Debye):
    X=             -0.5996    Y=              0.0725    Z=             -0.2375  Tot=              0.6490
 Quadrupole moment (field-independent basis, Debye-Ang):
   XX=            -56.0109   YY=            -68.3660   ZZ=            -73.6179
   XY=              0.6938   XZ=             -0.6059   YZ=             -0.5857

 Normal termination of Gaussian 16 at Sun Dec  3 16:58:05 2023.
