 Gaussian 16, Revision B.01,
 Gaussian 16:  ES64L-G16RevB.01 20-Dec-2017

 -------------------------
 #P B3LYP/6-311+g(d) force
 -------------------------

 -----
 DPGEN
 -----
 Symbolic Z-matrix:
 Charge =  0 Multiplicity = 2

                         Standard orientation:
 ---------------------------------------------------------------------
 Center     Atomic      Atomic             Coordinates (Angstroms)
 Number     Number       Type             X           Y           Z
 ---------------------------------------------------------------------
      1         11           0       -1.323330   -1.523872   -1.093238
      2         11           0        1.472468    0.951082   -1.426165
      3         11           0        3.724261    0.985166    0.894290
      4         11           0       -1.922187    2.244851   -0.483024
      5         11           0        2.155932   -2.078022   -0.214220
      6         11           0       -3.920519   -0.428766    0.725920
      7         11           0       -0.186626   -0.150439    1.596437
 ---------------------------------------------------------------------

 SCF Done:  E(UB3LYP) =  -1136.12268547     A.U. after   26 cycles

 The electronic state is 2-A.
 Alpha  occ. eigenvalues --  -38.45497 -38.44864 -38.44097 -38.43441 -38.43427
 Alpha  occ. eigenvalues --  -38.43343 -38.43042  -2.21352  -2.20688  -2.19925
 Alpha  occ. eigenvalues --   -2.19341  -2.19303  -2.19165  -2.18945  -1.15076
 Alpha  occ. eigenvalues --   -1.14996  -1.14970  -1.14363  -1.14328  -1.14307
 Alpha  occ. eigenvalues --   -1.13598  -1.13571  -1.13558  -1.13043  -1.13015
 Alpha  occ. eigenvalues --   -1.12987  -1.12980  -1.12938  -1.12914  -1.12846
 Alpha  occ. eigenvalues --   -1.12830  -1.12792  -1.12651  -1.12604  -1.12554
 Alpha  occ. eigenvalues --   -0.18449  -0.14389  -0.10913  -0.10732
 Alpha virt. eigenvalues --   -0.07144  -0.05355  -0.04660  -0.03036  -0.02947
 Alpha virt. eigenvalues --   -0.02215  -0.02016  -0.01158  -0.01084  -0.00391
 Alpha virt. eigenvalues --    0.00012   0.00167   0.00286   0.00599   0.00711

  Beta  occ. eigenvalues --  -38.45486 -38.44823 -38.44061 -38.43435 -38.43386
  Beta  occ. eigenvalues --  -38.43323 -38.43018  -2.21332  -2.20612  -2.19857
  Beta  occ. eigenvalues --   -2.19295  -2.19271  -2.19132  -2.18904  -1.15046
  Beta  occ. eigenvalues --   -1.14988  -1.14954  -1.14309  -1.14274  -1.14258
  Beta  occ. eigenvalues --   -1.13557  -1.13523  -1.13508  -1.13018  -1.12981
  Beta  occ. eigenvalues --   -1.12966  -1.12911  -1.12900  -1.12893  -1.12826
  Beta  occ. eigenvalues --   -1.12803  -1.12753  -1.12629  -1.12544  -1.12527
  Beta  occ. eigenvalues --   -0.17809  -0.14024  -0.10639
  Beta virt. eigenvalues --   -0.07153  -0.06856  -0.05317  -0.04025  -0.02859
  Beta virt. eigenvalues --   -0.02681  -0.01711  -0.01352  -0.01107  -0.00684
  Beta virt. eigenvalues --   -0.00292   0.00091   0.00197   0.00421   0.00672

 Mulliken charges and spin densities:
               1          2
     1  Na  -0.250846   0.147322
     2  Na  -0.004017   0.015863
     3  Na   0.111530   0.305694
     4  Na  -0.342642   0.121606
     5  Na   0.231139   0.117718
     6  Na   0.640894   0.263336
     7  Na  -0.386057   0.028461
 Sum of Mulliken charges =  -0.00000   1.00000

 Dipole moment (field-independent basis, Debye):
    X=             -0.4857    Y=             -0.3633    Z=              0.3440  Tot=              0.6973
 Quadrupole moment (field-independent basis, Debye-Ang):
   XX=            -51.5705   YY=            -76.8549   ZZ=            -67.4906
   XY=             -1.0033   XZ=              0.1511   YZ=              0.8592

 Normal termination of Gaussian 16 at Tue Dec  5 09:54:37 2023.
