 Gaussian 16, Revision B.01,
 Gaussian 16:  ES64L-G16RevB.01 20-Dec-2017

 -------------------------
 #P B3LYP/6-311+g(d) force
 -------------------------

 -----
 DPGEN
 -----
 Symbolic Z-matrix:
 Charge =  0 Multiplicity = 2

                         Standard orientation:
 ---------------------------------------------------------------------
 Center     Atomic      Atomic             Coordinates (Angstroms)
 Number     Number       Type             X           Y           Z
 ---------------------------------------------------------------------
      1         11           0        4.377097    0.390621   -0.319564
      2         11           0        1.681038    2.875849    0.368190
      3         11           0       -0.692510   -2.479082    0.048745
      4         11           0       -1.725913    0.075437    2.059718
      5         11           0       -4.390842   -0.462725   -0.774811
      6         11           0        2.529052   -2.524716   -0.346226
      7         11           0       -1.777923    2.124616   -1.036052
 ---------------------------------------------------------------------

 SCF Done:  E(UB3LYP) =  -1136.11341989     A.U. after   22 cycles

 The electronic state is 2-A.
 Alpha  occ. eigenvalues --  -38.45366 -38.45165 -38.44504 -38.44431 -38.43974
 Alpha  occ. eigenvalues --  -38.43897 -38.43815  -2.21158  -2.20927  -2.20307
 Alpha  occ. eigenvalues --   -2.20203  -2.19718  -2.19687  -2.19624  -1.14829
 Alpha  occ. eigenvalues --   -1.14798  -1.14792  -1.14624  -1.14593  -1.14547
 Alpha  occ. eigenvalues --   -1.13964  -1.13944  -1.13913  -1.13873  -1.13858
 Alpha  occ. eigenvalues --   -1.13836  -1.13403  -1.13395  -1.13386  -1.13362
 Alpha  occ. eigenvalues --   -1.13349  -1.13337  -1.13297  -1.13291  -1.13228
 Alpha  occ. eigenvalues --   -0.16605  -0.13723  -0.12150  -0.10700
 Alpha virt. eigenvalues --   -0.07189  -0.06132  -0.04467  -0.03294  -0.02994
 Alpha virt. eigenvalues --   -0.02373  -0.02118  -0.01930  -0.01188  -0.00740
 Alpha virt. eigenvalues --   -0.00609  -0.00055   0.00239   0.00355   0.00608

  Beta  occ. eigenvalues --  -38.45322 -38.45150 -38.44412 -38.44401 -38.43968
  Beta  occ. eigenvalues --  -38.43902 -38.43806  -2.21077  -2.20903  -2.20147
  Beta  occ. eigenvalues --   -2.20135  -2.19709  -2.19698  -2.19609  -1.14769
  Beta  occ. eigenvalues --   -1.14737  -1.14734  -1.14612  -1.14579  -1.14498
  Beta  occ. eigenvalues --   -1.13846  -1.13835  -1.13820  -1.13820  -1.13801
  Beta  occ. eigenvalues --   -1.13798  -1.13399  -1.13397  -1.13381  -1.13369
  Beta  occ. eigenvalues --   -1.13340  -1.13336  -1.13282  -1.13270  -1.13229
  Beta  occ. eigenvalues --   -0.16026  -0.13189  -0.12037
  Beta virt. eigenvalues --   -0.07252  -0.06927  -0.05856  -0.04032  -0.02970
  Beta virt. eigenvalues --   -0.02654  -0.02150  -0.01793  -0.01487  -0.00969
  Beta virt. eigenvalues --   -0.00578  -0.00407   0.00089   0.00401   0.00511

 Mulliken charges and spin densities:
               1          2
     1  Na   0.042832   0.110474
     2  Na  -0.273073   0.056831
     3  Na  -0.147973  -0.066270
     4  Na   0.088609   0.255579
     5  Na   0.325763   0.504243
     6  Na  -0.069989   0.036481
     7  Na   0.033831   0.102662
 Sum of Mulliken charges =  -0.00000   1.00000

 Dipole moment (field-independent basis, Debye):
    X=             -0.6283    Y=              0.2370    Z=              0.5046  Tot=              0.8400
 Quadrupole moment (field-independent basis, Debye-Ang):
   XX=            -63.6516   YY=            -71.1416   ZZ=            -68.0027
   XY=              2.2630   XZ=             -2.5851   YZ=              1.0882

 Normal termination of Gaussian 16 at Sun Dec  3 15:54:16 2023.
