 Gaussian 16, Revision B.01,
 Gaussian 16:  ES64L-G16RevB.01 20-Dec-2017

 -------------------------
 #P B3LYP/6-311+g(d) force
 -------------------------

 -----
 DPGEN
 -----
 Symbolic Z-matrix:
 Charge =  0 Multiplicity = 2

                         Standard orientation:
 ---------------------------------------------------------------------
 Center     Atomic      Atomic             Coordinates (Angstroms)
 Number     Number       Type             X           Y           Z
 ---------------------------------------------------------------------
      1         11           0        2.462321   -1.501795   -1.516386
      2         11           0        2.359333    1.591475   -0.680754
      3         11           0       -0.736774    3.682334   -0.421645
      4         11           0       -3.429367    1.797367    0.442590
      5         11           0       -3.426718   -2.022450    1.063512
      6         11           0        4.210564   -0.569160    2.087286
      7         11           0       -1.439359   -2.977772   -0.974602
 ---------------------------------------------------------------------

 SCF Done:  E(UB3LYP) =  -1136.10750425     A.U. after   22 cycles

 The electronic state is 2-A.
 Alpha  occ. eigenvalues --  -38.44905 -38.44890 -38.44840 -38.44660 -38.44526
 Alpha  occ. eigenvalues --  -38.44285 -38.43850  -2.20691  -2.20671  -2.20589
 Alpha  occ. eigenvalues --   -2.20448  -2.20317  -2.20094  -2.19622  -1.14435
 Alpha  occ. eigenvalues --   -1.14371  -1.14338  -1.14330  -1.14316  -1.14274
 Alpha  occ. eigenvalues --   -1.14260  -1.14257  -1.14217  -1.14093  -1.14089
 Alpha  occ. eigenvalues --   -1.14058  -1.14037  -1.13979  -1.13960  -1.13748
 Alpha  occ. eigenvalues --   -1.13733  -1.13718  -1.13295  -1.13285  -1.13266
 Alpha  occ. eigenvalues --   -0.15774  -0.13902  -0.12604  -0.10809
 Alpha virt. eigenvalues --   -0.07136  -0.06588  -0.03889  -0.03673  -0.03011
 Alpha virt. eigenvalues --   -0.02616  -0.01778  -0.01713  -0.01459  -0.01199
 Alpha virt. eigenvalues --   -0.00653  -0.00456  -0.00132   0.00340   0.00499

  Beta  occ. eigenvalues --  -38.44899 -38.44871 -38.44834 -38.44535 -38.44520
  Beta  occ. eigenvalues --  -38.44283 -38.43846  -2.20681  -2.20638  -2.20578
  Beta  occ. eigenvalues --   -2.20304  -2.20214  -2.20090  -2.19615  -1.14424
  Beta  occ. eigenvalues --   -1.14364  -1.14311  -1.14308  -1.14284  -1.14266
  Beta  occ. eigenvalues --   -1.14251  -1.14241  -1.14209  -1.14052  -1.13970
  Beta  occ. eigenvalues --   -1.13949  -1.13932  -1.13929  -1.13882  -1.13745
  Beta  occ. eigenvalues --   -1.13729  -1.13712  -1.13291  -1.13280  -1.13259
  Beta  occ. eigenvalues --   -0.15353  -0.13591  -0.12531
  Beta virt. eigenvalues --   -0.07283  -0.06745  -0.05788  -0.03774  -0.03554
  Beta virt. eigenvalues --   -0.02648  -0.02195  -0.01594  -0.01535  -0.01239
  Beta virt. eigenvalues --   -0.00998  -0.00313   0.00061   0.00107   0.00465

 Mulliken charges and spin densities:
               1          2
     1  Na   0.495826   0.162043
     2  Na  -0.595871   0.042819
     3  Na   0.323744   0.027783
     4  Na  -0.252053   0.052575
     5  Na   0.130350   0.043801
     6  Na   0.156819   0.662828
     7  Na  -0.258817   0.008150
 Sum of Mulliken charges =  -0.00000   1.00000

 Dipole moment (field-independent basis, Debye):
    X=             -0.1531    Y=             -0.3351    Z=             -0.0889  Tot=              0.3790
 Quadrupole moment (field-independent basis, Debye-Ang):
   XX=            -66.1904   YY=            -66.4901   ZZ=            -70.4134
   XY=              0.2950   XZ=             -5.1834   YZ=              0.2739

 Normal termination of Gaussian 16 at Sun Dec  3 20:46:16 2023.
