 Gaussian 16, Revision B.01,
 Gaussian 16:  ES64L-G16RevB.01 20-Dec-2017

 -------------------------
 #P B3LYP/6-311+g(d) force
 -------------------------

 -----
 DPGEN
 -----
 Symbolic Z-matrix:
 Charge =  0 Multiplicity = 2

                         Standard orientation:
 ---------------------------------------------------------------------
 Center     Atomic      Atomic             Coordinates (Angstroms)
 Number     Number       Type             X           Y           Z
 ---------------------------------------------------------------------
      1         11           0       -0.516710    1.088343    0.250572
      2         11           0        1.788286    3.820453    0.262951
      3         11           0        2.814340    0.779097   -0.544906
      4         11           0        4.414759   -2.623771   -0.179995
      5         11           0        0.952361   -1.755830    0.148302
      6         11           0       -3.519542   -1.230178    0.919839
      7         11           0       -5.933494   -0.078114   -0.856764
 ---------------------------------------------------------------------

 SCF Done:  E(UB3LYP) =  -1136.12278043     A.U. after   19 cycles

 The electronic state is 2-A.
 Alpha  occ. eigenvalues --  -38.44361 -38.44135 -38.44066 -38.44015 -38.44014
 Alpha  occ. eigenvalues --  -38.43942 -38.43728  -2.20165  -2.20024  -2.19943
 Alpha  occ. eigenvalues --   -2.19893  -2.19798  -2.19726  -2.19547  -1.13810
 Alpha  occ. eigenvalues --   -1.13803  -1.13798  -1.13791  -1.13722  -1.13685
 Alpha  occ. eigenvalues --   -1.13629  -1.13618  -1.13567  -1.13556  -1.13515
 Alpha  occ. eigenvalues --   -1.13470  -1.13462  -1.13453  -1.13410  -1.13401
 Alpha  occ. eigenvalues --   -1.13397  -1.13367  -1.13212  -1.13201  -1.13163
 Alpha  occ. eigenvalues --   -0.17074  -0.13763  -0.12458  -0.11065
 Alpha virt. eigenvalues --   -0.06033  -0.05056  -0.04673  -0.03992  -0.02699
 Alpha virt. eigenvalues --   -0.02382  -0.01876  -0.01675  -0.01192  -0.00925
 Alpha virt. eigenvalues --   -0.00195   0.00035   0.00204   0.00309   0.00652

  Beta  occ. eigenvalues --  -38.44286 -38.44120 -38.44026 -38.43984 -38.43978
  Beta  occ. eigenvalues --  -38.43952 -38.43703  -2.20023  -2.19997  -2.19874
  Beta  occ. eigenvalues --   -2.19830  -2.19751  -2.19741  -2.19501  -1.13757
  Beta  occ. eigenvalues --   -1.13719  -1.13706  -1.13706  -1.13704  -1.13627
  Beta  occ. eigenvalues --   -1.13596  -1.13584  -1.13530  -1.13520  -1.13461
  Beta  occ. eigenvalues --   -1.13434  -1.13423  -1.13422  -1.13418  -1.13392
  Beta  occ. eigenvalues --   -1.13354  -1.13337  -1.13175  -1.13170  -1.13138
  Beta  occ. eigenvalues --   -0.16450  -0.13098  -0.12180
  Beta virt. eigenvalues --   -0.07697  -0.05663  -0.04764  -0.04286  -0.03795
  Beta virt. eigenvalues --   -0.02337  -0.02261  -0.01602  -0.01365  -0.01007
  Beta virt. eigenvalues --   -0.00547   0.00004   0.00231   0.00353   0.00402

 Mulliken charges and spin densities:
               1          2
     1  Na  -1.495943  -0.078217
     2  Na   0.936903   0.246009
     3  Na  -0.307613   0.303417
     4  Na   1.333050   0.171788
     5  Na  -0.621168   0.138189
     6  Na  -0.116128  -0.159989
     7  Na   0.270900   0.378803
 Sum of Mulliken charges =  -0.00000   1.00000

 Dipole moment (field-independent basis, Debye):
    X=              0.4937    Y=              0.2553    Z=             -0.0178  Tot=              0.5561
 Quadrupole moment (field-independent basis, Debye-Ang):
   XX=            -62.4709   YY=            -61.8668   ZZ=            -70.4655
   XY=             -3.8954   XZ=              2.3267   YZ=             -1.2024

 Normal termination of Gaussian 16 at Tue Nov 28 19:14:18 2023.
