 Gaussian 16, Revision B.01,
 Gaussian 16:  ES64L-G16RevB.01 20-Dec-2017

 -------------------------
 #P B3LYP/6-311+g(d) force
 -------------------------

 -----
 DPGEN
 -----
 Symbolic Z-matrix:
 Charge =  0 Multiplicity = 2

                         Standard orientation:
 ---------------------------------------------------------------------
 Center     Atomic      Atomic             Coordinates (Angstroms)
 Number     Number       Type             X           Y           Z
 ---------------------------------------------------------------------
      1         11           0       -0.077891   -0.224877   -1.688902
      2         11           0       -0.133808    0.172509    1.967448
      3         11           0       -3.250257    0.278958   -0.584917
      4         11           0        2.264889   -2.034589   -0.300978
      5         11           0       -0.475999    2.953246    0.089052
      6         11           0       -1.430271   -2.311670    0.585361
      7         11           0        3.103336    1.166423   -0.067065
 ---------------------------------------------------------------------

 SCF Done:  E(UB3LYP) =  -1136.13506392     A.U. after   20 cycles

 The electronic state is 2-A.
 Alpha  occ. eigenvalues --  -38.44378 -38.44356 -38.43573 -38.43557 -38.43496
 Alpha  occ. eigenvalues --  -38.43189 -38.43165  -2.20184  -2.20173  -2.19504
 Alpha  occ. eigenvalues --   -2.19495  -2.19347  -2.19070  -2.19000  -1.13862
 Alpha  occ. eigenvalues --   -1.13853  -1.13838  -1.13838  -1.13814  -1.13807
 Alpha  occ. eigenvalues --   -1.13217  -1.13179  -1.13158  -1.13136  -1.13129
 Alpha  occ. eigenvalues --   -1.13110  -1.13015  -1.13002  -1.12976  -1.12758
 Alpha  occ. eigenvalues --   -1.12718  -1.12686  -1.12684  -1.12669  -1.12625
 Alpha  occ. eigenvalues --   -0.18555  -0.13217  -0.12075  -0.10935
 Alpha virt. eigenvalues --   -0.06032  -0.04991  -0.04411  -0.03326  -0.02850
 Alpha virt. eigenvalues --   -0.02624  -0.01846  -0.01032  -0.00421  -0.00242
 Alpha virt. eigenvalues --   -0.00003   0.00330   0.00775   0.00841   0.00891

  Beta  occ. eigenvalues --  -38.44379 -38.44337 -38.43499 -38.43491 -38.43479
  Beta  occ. eigenvalues --  -38.43186 -38.43144  -2.20176  -2.20150  -2.19397
  Beta  occ. eigenvalues --   -2.19342  -2.19324  -2.19037  -2.18999  -1.13853
  Beta  occ. eigenvalues --   -1.13835  -1.13828  -1.13810  -1.13808  -1.13793
  Beta  occ. eigenvalues --   -1.13142  -1.13092  -1.13067  -1.13059  -1.13007
  Beta  occ. eigenvalues --   -1.13001  -1.12992  -1.12983  -1.12964  -1.12727
  Beta  occ. eigenvalues --   -1.12676  -1.12672  -1.12662  -1.12659  -1.12623
  Beta  occ. eigenvalues --   -0.17837  -0.12955  -0.11830
  Beta virt. eigenvalues --   -0.07024  -0.05959  -0.04976  -0.04353  -0.02616
  Beta virt. eigenvalues --   -0.02103  -0.01741  -0.01561  -0.00969  -0.00445
  Beta virt. eigenvalues --   -0.00229   0.00105   0.00369   0.00827   0.00865

 Mulliken charges and spin densities:
               1          2
     1  Na  -0.129040   0.514752
     2  Na  -0.141891   0.570219
     3  Na   0.070514   0.038240
     4  Na   0.169472  -0.024250
     5  Na  -0.140518  -0.102675
     6  Na   0.257922   0.094678
     7  Na  -0.086459  -0.090964
 Sum of Mulliken charges =  -0.00000   1.00000

 Dipole moment (field-independent basis, Debye):
    X=              0.0502    Y=              0.1422    Z=             -0.0709  Tot=              0.1667
 Quadrupole moment (field-independent basis, Debye-Ang):
   XX=            -54.1481   YY=            -65.6952   ZZ=            -73.6150
   XY=              0.3328   XZ=              0.7842   YZ=             -0.9799

 Normal termination of Gaussian 16 at Fri Dec  8 05:13:01 2023.
