 Gaussian 16, Revision B.01,
 Gaussian 16:  ES64L-G16RevB.01 20-Dec-2017

 -------------------------
 #P B3LYP/6-311+g(d) force
 -------------------------

 -----
 DPGEN
 -----
 Symbolic Z-matrix:
 Charge =  0 Multiplicity = 2

                         Standard orientation:
 ---------------------------------------------------------------------
 Center     Atomic      Atomic             Coordinates (Angstroms)
 Number     Number       Type             X           Y           Z
 ---------------------------------------------------------------------
      1         11           0        3.246078   -1.630389    0.393604
      2         11           0        0.311733    3.469657    0.518739
      3         11           0       -3.295876   -1.619042    0.504198
      4         11           0       -0.030259   -0.238208    2.156131
      5         11           0        1.603093    0.824765   -1.154586
      6         11           0       -1.843301    1.321878   -1.165968
      7         11           0        0.008532   -2.128662   -1.252118
 ---------------------------------------------------------------------

 SCF Done:  E(UB3LYP) =  -1136.13472121     A.U. after   18 cycles

 The electronic state is 2-A.
 Alpha  occ. eigenvalues --  -38.44343 -38.43956 -38.43943 -38.43833 -38.43697
 Alpha  occ. eigenvalues --  -38.43496 -38.43239  -2.20154  -2.19795  -2.19745
 Alpha  occ. eigenvalues --   -2.19671  -2.19472  -2.19308  -2.19163  -1.13819
 Alpha  occ. eigenvalues --   -1.13787  -1.13769  -1.13508  -1.13464  -1.13426
 Alpha  occ. eigenvalues --   -1.13402  -1.13397  -1.13374  -1.13364  -1.13345
 Alpha  occ. eigenvalues --   -1.13272  -1.13144  -1.13136  -1.13106  -1.12987
 Alpha  occ. eigenvalues --   -1.12962  -1.12952  -1.12874  -1.12832  -1.12750
 Alpha  occ. eigenvalues --   -0.17954  -0.12626  -0.12316  -0.11000
 Alpha virt. eigenvalues --   -0.05722  -0.05127  -0.04764  -0.03238  -0.03138
 Alpha virt. eigenvalues --   -0.02828  -0.01607  -0.01311  -0.00602  -0.00180
 Alpha virt. eigenvalues --    0.00195   0.00325   0.00657   0.00718   0.00809

  Beta  occ. eigenvalues --  -38.44249 -38.43943 -38.43923 -38.43809 -38.43697
  Beta  occ. eigenvalues --  -38.43494 -38.43212  -2.19979  -2.19747  -2.19736
  Beta  occ. eigenvalues --   -2.19630  -2.19474  -2.19306  -2.19116  -1.13702
  Beta  occ. eigenvalues --   -1.13664  -1.13643  -1.13464  -1.13430  -1.13411
  Beta  occ. eigenvalues --   -1.13388  -1.13387  -1.13342  -1.13335  -1.13306
  Beta  occ. eigenvalues --   -1.13248  -1.13147  -1.13126  -1.13109  -1.12986
  Beta  occ. eigenvalues --   -1.12954  -1.12945  -1.12839  -1.12778  -1.12721
  Beta  occ. eigenvalues --   -0.17180  -0.12493  -0.12187
  Beta virt. eigenvalues --   -0.07075  -0.05507  -0.04981  -0.04705  -0.02647
  Beta virt. eigenvalues --   -0.02555  -0.01859  -0.01499  -0.01220  -0.00294
  Beta virt. eigenvalues --   -0.00220   0.00275   0.00363   0.00717   0.00790

 Mulliken charges and spin densities:
               1          2
     1  Na   0.300466  -0.156995
     2  Na   0.309742  -0.181133
     3  Na   0.267678  -0.082657
     4  Na  -0.561874   0.825337
     5  Na   0.002210   0.400678
     6  Na  -0.164497   0.103494
     7  Na  -0.153725   0.091277
 Sum of Mulliken charges =  -0.00000   1.00000

 Dipole moment (field-independent basis, Debye):
    X=              0.1381    Y=             -0.1750    Z=              0.2309  Tot=              0.3210
 Quadrupole moment (field-independent basis, Debye-Ang):
   XX=            -59.5675   YY=            -62.9589   ZZ=            -71.0646
   XY=             -0.8943   XZ=              1.3141   YZ=              0.9607

 Normal termination of Gaussian 16 at Tue Dec  5 21:33:44 2023.
