 Gaussian 16, Revision B.01,
 Gaussian 16:  ES64L-G16RevB.01 20-Dec-2017

 -------------------------
 #P B3LYP/6-311+g(d) force
 -------------------------

 -----
 DPGEN
 -----
 Symbolic Z-matrix:
 Charge =  0 Multiplicity = 2

                         Standard orientation:
 ---------------------------------------------------------------------
 Center     Atomic      Atomic             Coordinates (Angstroms)
 Number     Number       Type             X           Y           Z
 ---------------------------------------------------------------------
      1         11           0        1.841326    1.459627   -0.896028
      2         11           0       -1.201205    2.618574    0.264864
      3         11           0       -3.896249    0.557801   -0.011007
      4         11           0        4.657166   -0.698658   -1.291651
      5         11           0       -3.919413   -2.350199   -0.933815
      6         11           0       -0.228351   -0.347199    1.208722
      7         11           0        2.746726   -1.239946    1.658916
 ---------------------------------------------------------------------

 SCF Done:  E(UB3LYP) =  -1136.11906398     A.U. after   22 cycles

 The electronic state is 2-A.
 Alpha  occ. eigenvalues --  -38.44628 -38.44272 -38.44244 -38.44233 -38.43955
 Alpha  occ. eigenvalues --  -38.43718 -38.43286  -2.20467  -2.20188  -2.20102
 Alpha  occ. eigenvalues --   -2.20039  -2.19807  -2.19514  -2.19153  -1.14173
 Alpha  occ. eigenvalues --   -1.14150  -1.14062  -1.13915  -1.13859  -1.13817
 Alpha  occ. eigenvalues --   -1.13758  -1.13728  -1.13714  -1.13694  -1.13688
 Alpha  occ. eigenvalues --   -1.13646  -1.13513  -1.13473  -1.13448  -1.13169
 Alpha  occ. eigenvalues --   -1.13164  -1.13149  -1.12818  -1.12810  -1.12797
 Alpha  occ. eigenvalues --   -0.17391  -0.14358  -0.11591  -0.11443
 Alpha virt. eigenvalues --   -0.06856  -0.05104  -0.04098  -0.04032  -0.03022
 Alpha virt. eigenvalues --   -0.02397  -0.02110  -0.01653  -0.00890  -0.00535
 Alpha virt. eigenvalues --   -0.00070   0.00183   0.00237   0.00349   0.00559

  Beta  occ. eigenvalues --  -38.44598 -38.44204 -38.44189 -38.44180 -38.43947
  Beta  occ. eigenvalues --  -38.43726 -38.43278  -2.20413  -2.20069  -2.20007
  Beta  occ. eigenvalues --   -2.19940  -2.19792  -2.19528  -2.19139  -1.14138
  Beta  occ. eigenvalues --   -1.14105  -1.14014  -1.13820  -1.13771  -1.13736
  Beta  occ. eigenvalues --   -1.13699  -1.13660  -1.13629  -1.13622  -1.13608
  Beta  occ. eigenvalues --   -1.13578  -1.13507  -1.13461  -1.13440  -1.13178
  Beta  occ. eigenvalues --   -1.13173  -1.13157  -1.12807  -1.12798  -1.12786
  Beta  occ. eigenvalues --   -0.16757  -0.14031  -0.11465
  Beta virt. eigenvalues --   -0.07433  -0.06687  -0.04710  -0.03932  -0.03750
  Beta virt. eigenvalues --   -0.02401  -0.02176  -0.01670  -0.01476  -0.00595
  Beta virt. eigenvalues --   -0.00400   0.00055   0.00289   0.00374   0.00513

 Mulliken charges and spin densities:
               1          2
     1  Na  -0.420005   0.309291
     2  Na   0.871802   0.055988
     3  Na   0.337174   0.115368
     4  Na   0.221623   0.165475
     5  Na   0.166999  -0.085678
     6  Na  -1.306868   0.549456
     7  Na   0.129275  -0.109901
 Sum of Mulliken charges =  -0.00000   1.00000

 Dipole moment (field-independent basis, Debye):
    X=              0.8322    Y=              0.1424    Z=             -0.0802  Tot=              0.8481
 Quadrupole moment (field-independent basis, Debye-Ang):
   XX=            -65.8712   YY=            -65.0613   ZZ=            -69.5022
   XY=             -5.9615   XZ=             -0.8052   YZ=              1.6403

 Normal termination of Gaussian 16 at Wed Nov 29 03:13:51 2023.
