 Gaussian 16, Revision B.01,
 Gaussian 16:  ES64L-G16RevB.01 20-Dec-2017

 -------------------------
 #P B3LYP/6-311+g(d) force
 -------------------------

 -----
 DPGEN
 -----
 Symbolic Z-matrix:
 Charge =  0 Multiplicity = 2

                         Standard orientation:
 ---------------------------------------------------------------------
 Center     Atomic      Atomic             Coordinates (Angstroms)
 Number     Number       Type             X           Y           Z
 ---------------------------------------------------------------------
      1         11           0       -2.466376   -2.161922   -0.612117
      2         11           0        1.521512    2.903736    0.105155
      3         11           0       -0.538136    0.475435   -2.018927
      4         11           0        3.120974   -0.494159   -0.760529
      5         11           0        1.367688   -2.322739    0.695339
      6         11           0       -2.924505    1.633804    0.395060
      7         11           0       -0.081158   -0.034155    2.196019
 ---------------------------------------------------------------------

 SCF Done:  E(UB3LYP) =  -1136.12255831     A.U. after   21 cycles

 The electronic state is 2-A.
 Alpha  occ. eigenvalues --  -38.44832 -38.44350 -38.44312 -38.44282 -38.44226
 Alpha  occ. eigenvalues --  -38.43778 -38.43131  -2.20595  -2.20210  -2.20148
 Alpha  occ. eigenvalues --   -2.20108  -2.19997  -2.19531  -2.19028  -1.14277
 Alpha  occ. eigenvalues --   -1.14253  -1.14227  -1.13894  -1.13882  -1.13835
 Alpha  occ. eigenvalues --   -1.13823  -1.13800  -1.13783  -1.13760  -1.13756
 Alpha  occ. eigenvalues --   -1.13730  -1.13672  -1.13642  -1.13631  -1.13213
 Alpha  occ. eigenvalues --   -1.13188  -1.13178  -1.12718  -1.12701  -1.12632
 Alpha  occ. eigenvalues --   -0.17736  -0.12990  -0.11728  -0.11324
 Alpha virt. eigenvalues --   -0.06235  -0.05431  -0.04216  -0.03627  -0.03138
 Alpha virt. eigenvalues --   -0.03011  -0.01673  -0.01367  -0.00462  -0.00250
 Alpha virt. eigenvalues --   -0.00031   0.00381   0.00466   0.00666   0.00747

  Beta  occ. eigenvalues --  -38.44826 -38.44300 -38.44254 -38.44223 -38.44211
  Beta  occ. eigenvalues --  -38.43784 -38.43122  -2.20586  -2.20126  -2.20033
  Beta  occ. eigenvalues --   -2.19999  -2.19970  -2.19543  -2.19015  -1.14257
  Beta  occ. eigenvalues --   -1.14249  -1.14220  -1.13872  -1.13774  -1.13771
  Beta  occ. eigenvalues --   -1.13747  -1.13715  -1.13708  -1.13702  -1.13679
  Beta  occ. eigenvalues --   -1.13661  -1.13632  -1.13623  -1.13610  -1.13213
  Beta  occ. eigenvalues --   -1.13197  -1.13183  -1.12699  -1.12682  -1.12620
  Beta  occ. eigenvalues --   -0.16988  -0.12784  -0.11533
  Beta virt. eigenvalues --   -0.07505  -0.06152  -0.05205  -0.04053  -0.02989
  Beta virt. eigenvalues --   -0.02444  -0.02163  -0.01557  -0.01255  -0.00444
  Beta virt. eigenvalues --   -0.00198   0.00047   0.00423   0.00603   0.00747

 Mulliken charges and spin densities:
               1          2
     1  Na  -0.135956  -0.020701
     2  Na  -0.141315  -0.042506
     3  Na   0.078649   0.491403
     4  Na  -0.167414  -0.043297
     5  Na   0.225683   0.147203
     6  Na   0.062066  -0.063347
     7  Na   0.078287   0.531245
 Sum of Mulliken charges =  -0.00000   1.00000

 Dipole moment (field-independent basis, Debye):
    X=             -0.7098    Y=              0.3423    Z=             -0.1593  Tot=              0.8040
 Quadrupole moment (field-independent basis, Debye-Ang):
   XX=            -58.2767   YY=            -67.1002   ZZ=            -70.7364
   XY=             -0.2130   XZ=             -1.9437   YZ=              2.2575

 Normal termination of Gaussian 16 at Sun Dec  3 12:05:56 2023.
