 Gaussian 16, Revision B.01,
 Gaussian 16:  ES64L-G16RevB.01 20-Dec-2017

 -------------------------
 #P B3LYP/6-311+g(d) force
 -------------------------

 -----
 DPGEN
 -----
 Symbolic Z-matrix:
 Charge =  0 Multiplicity = 2

                         Standard orientation:
 ---------------------------------------------------------------------
 Center     Atomic      Atomic             Coordinates (Angstroms)
 Number     Number       Type             X           Y           Z
 ---------------------------------------------------------------------
      1         11           0        2.148526   -0.127314    0.117354
      2         11           0       -0.320838    1.389938    1.942026
      3         11           0       -0.854172    0.459846   -1.789293
      4         11           0        1.716395    2.959634   -0.392450
      5         11           0        2.327902   -2.794232   -0.467745
      6         11           0       -3.766572   -0.069528   -0.534086
      7         11           0       -1.251241   -1.818344    1.124194
 ---------------------------------------------------------------------

 SCF Done:  E(UB3LYP) =  -1136.12557777     A.U. after   19 cycles

 The electronic state is 2-A.
 Alpha  occ. eigenvalues --  -38.44326 -38.44261 -38.44098 -38.44082 -38.43602
 Alpha  occ. eigenvalues --  -38.43334 -38.43067  -2.20190  -2.20080  -2.19958
 Alpha  occ. eigenvalues --   -2.19939  -2.19449  -2.19202  -2.19073  -1.13874
 Alpha  occ. eigenvalues --   -1.13865  -1.13822  -1.13738  -1.13726  -1.13701
 Alpha  occ. eigenvalues --   -1.13674  -1.13621  -1.13603  -1.13594  -1.13552
 Alpha  occ. eigenvalues --   -1.13531  -1.13202  -1.13117  -1.13095  -1.13077
 Alpha  occ. eigenvalues --   -1.12827  -1.12811  -1.12719  -1.12715  -1.12570
 Alpha  occ. eigenvalues --   -0.18309  -0.13325  -0.12163  -0.11255
 Alpha virt. eigenvalues --   -0.05893  -0.05188  -0.04374  -0.03547  -0.02882
 Alpha virt. eigenvalues --   -0.02685  -0.01782  -0.01217  -0.00518  -0.00136
 Alpha virt. eigenvalues --    0.00182   0.00284   0.00675   0.00726   0.00821

  Beta  occ. eigenvalues --  -38.44265 -38.44251 -38.44062 -38.44004 -38.43599
  Beta  occ. eigenvalues --  -38.43334 -38.43058  -2.20079  -2.20064  -2.19877
  Beta  occ. eigenvalues --   -2.19816  -2.19445  -2.19200  -2.19060  -1.13812
  Beta  occ. eigenvalues --   -1.13786  -1.13750  -1.13728  -1.13701  -1.13665
  Beta  occ. eigenvalues --   -1.13603  -1.13549  -1.13531  -1.13503  -1.13495
  Beta  occ. eigenvalues --   -1.13445  -1.13201  -1.13114  -1.13081  -1.13074
  Beta  occ. eigenvalues --   -1.12822  -1.12806  -1.12715  -1.12675  -1.12568
  Beta  occ. eigenvalues --   -0.17569  -0.13080  -0.12037
  Beta virt. eigenvalues --   -0.07330  -0.05704  -0.04898  -0.04287  -0.02925
  Beta virt. eigenvalues --   -0.02316  -0.01873  -0.01671  -0.01169  -0.00282
  Beta virt. eigenvalues --   -0.00054   0.00273   0.00371   0.00775   0.00825

 Mulliken charges and spin densities:
               1          2
     1  Na  -0.761718   0.381993
     2  Na  -0.129218   0.180318
     3  Na  -0.318272   0.412548
     4  Na   0.580613   0.000486
     5  Na   0.477960  -0.186393
     6  Na   0.105515  -0.066172
     7  Na   0.045122   0.277220
 Sum of Mulliken charges =  -0.00000   1.00000

 Dipole moment (field-independent basis, Debye):
    X=             -1.1514    Y=              0.5358    Z=             -0.0001  Tot=              1.2700
 Quadrupole moment (field-independent basis, Debye-Ang):
   XX=            -60.5895   YY=            -63.5431   ZZ=            -70.6507
   XY=              2.5981   XZ=             -1.9835   YZ=             -0.5442

 Normal termination of Gaussian 16 at Tue Dec  5 10:35:35 2023.
