 Gaussian 16, Revision B.01,
 Gaussian 16:  ES64L-G16RevB.01 20-Dec-2017

 -------------------------
 #P B3LYP/6-311+g(d) force
 -------------------------

 -----
 DPGEN
 -----
 Symbolic Z-matrix:
 Charge =  0 Multiplicity = 2

                         Standard orientation:
 ---------------------------------------------------------------------
 Center     Atomic      Atomic             Coordinates (Angstroms)
 Number     Number       Type             X           Y           Z
 ---------------------------------------------------------------------
      1         11           0        1.369499    1.314024    1.433009
      2         11           0        1.173516   -1.749711    0.767941
      3         11           0       -0.651945    0.487962   -1.381262
      4         11           0       -2.244305   -2.669957   -1.112297
      5         11           0       -2.235620   -0.398749    1.812243
      6         11           0        3.919022   -0.438050   -0.805918
      7         11           0       -1.330168    3.454480   -0.713716
 ---------------------------------------------------------------------

 SCF Done:  E(UB3LYP) =  -1136.12751371     A.U. after   19 cycles

 The electronic state is 2-A.
 Alpha  occ. eigenvalues --  -38.44610 -38.44415 -38.44188 -38.43745 -38.43637
 Alpha  occ. eigenvalues --  -38.43198 -38.43135  -2.20412  -2.20194  -2.20040
 Alpha  occ. eigenvalues --   -2.19627  -2.19436  -2.19119  -2.18942  -1.14076
 Alpha  occ. eigenvalues --   -1.14068  -1.14027  -1.13863  -1.13855  -1.13816
 Alpha  occ. eigenvalues --   -1.13782  -1.13695  -1.13630  -1.13345  -1.13312
 Alpha  occ. eigenvalues --   -1.13202  -1.13106  -1.13095  -1.13057  -1.12819
 Alpha  occ. eigenvalues --   -1.12805  -1.12753  -1.12596  -1.12591  -1.12555
 Alpha  occ. eigenvalues --   -0.17833  -0.12880  -0.11951  -0.10887
 Alpha virt. eigenvalues --   -0.06036  -0.05093  -0.04823  -0.03160  -0.02797
 Alpha virt. eigenvalues --   -0.02423  -0.01903  -0.01304  -0.00951  -0.00148
 Alpha virt. eigenvalues --    0.00188   0.00261   0.00317   0.00662   0.00746

  Beta  occ. eigenvalues --  -38.44559 -38.44398 -38.44156 -38.43732 -38.43612
  Beta  occ. eigenvalues --  -38.43160 -38.43125  -2.20320  -2.20162  -2.19985
  Beta  occ. eigenvalues --   -2.19609  -2.19389  -2.19051  -2.18926  -1.14010
  Beta  occ. eigenvalues --   -1.13999  -1.13959  -1.13840  -1.13831  -1.13797
  Beta  occ. eigenvalues --   -1.13743  -1.13640  -1.13592  -1.13334  -1.13264
  Beta  occ. eigenvalues --   -1.13192  -1.13067  -1.13060  -1.13030  -1.12774
  Beta  occ. eigenvalues --   -1.12750  -1.12708  -1.12581  -1.12571  -1.12542
  Beta  occ. eigenvalues --   -0.17131  -0.12657  -0.11739
  Beta virt. eigenvalues --   -0.07190  -0.05677  -0.04810  -0.04681  -0.02866
  Beta virt. eigenvalues --   -0.02360  -0.01743  -0.01619  -0.01177  -0.00557
  Beta virt. eigenvalues --   -0.00088   0.00278   0.00340   0.00463   0.00690

 Mulliken charges and spin densities:
               1          2
     1  Na   0.136252   0.220994
     2  Na   0.010277   0.253813
     3  Na  -0.511896   0.399328
     4  Na   0.248442  -0.019195
     5  Na  -0.015181   0.243991
     6  Na   0.048533  -0.051123
     7  Na   0.083573  -0.047807
 Sum of Mulliken charges =  -0.00000   1.00000

 Dipole moment (field-independent basis, Debye):
    X=              0.3484    Y=             -0.2001    Z=              0.3959  Tot=              0.5641
 Quadrupole moment (field-independent basis, Debye-Ang):
   XX=            -57.5237   YY=            -65.6000   ZZ=            -69.1826
   XY=              1.4880   XZ=             -4.0999   YZ=              2.9508

 Normal termination of Gaussian 16 at Sun Dec  3 17:35:14 2023.
