 Gaussian 16, Revision B.01,
 Gaussian 16:  ES64L-G16RevB.01 20-Dec-2017

 -------------------------
 #P B3LYP/6-311+g(d) force
 -------------------------

 -----
 DPGEN
 -----
 Symbolic Z-matrix:
 Charge =  0 Multiplicity = 2

                         Standard orientation:
 ---------------------------------------------------------------------
 Center     Atomic      Atomic             Coordinates (Angstroms)
 Number     Number       Type             X           Y           Z
 ---------------------------------------------------------------------
      1         11           0       -0.443760    0.109079   -1.764524
      2         11           0       -0.024815   -0.458517    1.872514
      3         11           0       -0.326647   -2.768969    0.052586
      4         11           0        2.166368    2.370589   -0.094978
      5         11           0       -1.027527    2.304632    0.435736
      6         11           0       -3.464537   -0.185826   -0.227582
      7         11           0        3.120918   -1.370989   -0.273752
 ---------------------------------------------------------------------

 SCF Done:  E(UB3LYP) =  -1136.13091396     A.U. after   20 cycles

 The electronic state is 2-A.
 Alpha  occ. eigenvalues --  -38.44520 -38.44464 -38.43610 -38.43586 -38.43529
 Alpha  occ. eigenvalues --  -38.43464 -38.43061  -2.20281  -2.20267  -2.19545
 Alpha  occ. eigenvalues --   -2.19421  -2.19399  -2.19396  -2.18995  -1.13962
 Alpha  occ. eigenvalues --   -1.13941  -1.13933  -1.13926  -1.13918  -1.13905
 Alpha  occ. eigenvalues --   -1.13280  -1.13248  -1.13208  -1.13144  -1.13086
 Alpha  occ. eigenvalues --   -1.13074  -1.13063  -1.13052  -1.13041  -1.13013
 Alpha  occ. eigenvalues --   -1.12977  -1.12972  -1.12687  -1.12660  -1.12595
 Alpha  occ. eigenvalues --   -0.18549  -0.12827  -0.12486  -0.10675
 Alpha virt. eigenvalues --   -0.06170  -0.05160  -0.04412  -0.03117  -0.02910
 Alpha virt. eigenvalues --   -0.02444  -0.02020  -0.01109  -0.00419  -0.00195
 Alpha virt. eigenvalues --   -0.00043   0.00284   0.00730   0.00814   0.00874

  Beta  occ. eigenvalues --  -38.44516 -38.44459 -38.43587 -38.43545 -38.43519
  Beta  occ. eigenvalues --  -38.43375 -38.43044  -2.20275  -2.20260  -2.19425
  Beta  occ. eigenvalues --   -2.19402  -2.19394  -2.19248  -2.18969  -1.13948
  Beta  occ. eigenvalues --   -1.13929  -1.13924  -1.13917  -1.13915  -1.13899
  Beta  occ. eigenvalues --   -1.13222  -1.13168  -1.13128  -1.13082  -1.13055
  Beta  occ. eigenvalues --   -1.13054  -1.13041  -1.13031  -1.12991  -1.12960
  Beta  occ. eigenvalues --   -1.12887  -1.12882  -1.12671  -1.12604  -1.12583
  Beta  occ. eigenvalues --   -0.17822  -0.12601  -0.12244
  Beta virt. eigenvalues --   -0.06818  -0.06057  -0.05133  -0.04371  -0.02426
  Beta virt. eigenvalues --   -0.02158  -0.01883  -0.01422  -0.01073  -0.00452
  Beta virt. eigenvalues --   -0.00187   0.00091   0.00322   0.00765   0.00845

 Mulliken charges and spin densities:
               1          2
     1  Na  -0.352145   0.818280
     2  Na  -0.009669   0.549667
     3  Na   0.104615  -0.164465
     4  Na  -0.149321  -0.119614
     5  Na   0.212876   0.028532
     6  Na   0.298319  -0.064161
     7  Na  -0.104676  -0.048239
 Sum of Mulliken charges =  -0.00000   1.00000

 Dipole moment (field-independent basis, Debye):
    X=             -0.0634    Y=             -0.3184    Z=             -0.1098  Tot=              0.3427
 Quadrupole moment (field-independent basis, Debye-Ang):
   XX=            -52.1982   YY=            -65.8542   ZZ=            -74.6381
   XY=              0.4579   XZ=             -0.9653   YZ=              1.1553

 Normal termination of Gaussian 16 at Thu Dec  7 03:02:49 2023.
