 Gaussian 16, Revision B.01,
 Gaussian 16:  ES64L-G16RevB.01 20-Dec-2017

 -------------------------
 #P B3LYP/6-311+g(d) force
 -------------------------

 -----
 DPGEN
 -----
 Symbolic Z-matrix:
 Charge =  0 Multiplicity = 2

                         Standard orientation:
 ---------------------------------------------------------------------
 Center     Atomic      Atomic             Coordinates (Angstroms)
 Number     Number       Type             X           Y           Z
 ---------------------------------------------------------------------
      1         11           0       -3.012429   -2.359406    0.216156
      2         11           0       -0.047183   -0.028699    2.040322
      3         11           0        1.963291    1.357560   -0.232413
      4         11           0        0.407647   -1.886690   -0.885203
      5         11           0       -1.989057    0.787196   -0.969050
      6         11           0       -0.764678    3.511165   -0.052682
      7         11           0        3.442410   -1.381124   -0.117130
 ---------------------------------------------------------------------

 SCF Done:  E(UB3LYP) =  -1136.13129828     A.U. after   19 cycles

 The electronic state is 2-A.
 Alpha  occ. eigenvalues --  -38.44274 -38.43991 -38.43878 -38.43729 -38.43529
 Alpha  occ. eigenvalues --  -38.43515 -38.43509  -2.20057  -2.19856  -2.19782
 Alpha  occ. eigenvalues --   -2.19624  -2.19407  -2.19392  -2.19366  -1.13734
 Alpha  occ. eigenvalues --   -1.13718  -1.13687  -1.13581  -1.13547  -1.13495
 Alpha  occ. eigenvalues --   -1.13476  -1.13458  -1.13356  -1.13334  -1.13310
 Alpha  occ. eigenvalues --   -1.13202  -1.13139  -1.13101  -1.13075  -1.13055
 Alpha  occ. eigenvalues --   -1.13019  -1.13005  -1.12999  -1.12994  -1.12943
 Alpha  occ. eigenvalues --   -0.18318  -0.13355  -0.12708  -0.10218
 Alpha virt. eigenvalues --   -0.05972  -0.05492  -0.04953  -0.03027  -0.02752
 Alpha virt. eigenvalues --   -0.02158  -0.01966  -0.01632  -0.00681  -0.00224
 Alpha virt. eigenvalues --   -0.00050   0.00212   0.00654   0.00757   0.00800

  Beta  occ. eigenvalues --  -38.44277 -38.43984 -38.43870 -38.43708 -38.43524
  Beta  occ. eigenvalues --  -38.43488 -38.43396  -2.20063  -2.19844  -2.19770
  Beta  occ. eigenvalues --   -2.19589  -2.19363  -2.19354  -2.19183  -1.13741
  Beta  occ. eigenvalues --   -1.13711  -1.13692  -1.13578  -1.13538  -1.13474
  Beta  occ. eigenvalues --   -1.13464  -1.13418  -1.13355  -1.13313  -1.13264
  Beta  occ. eigenvalues --   -1.13178  -1.13119  -1.13070  -1.13025  -1.13014
  Beta  occ. eigenvalues --   -1.12980  -1.12921  -1.12920  -1.12864  -1.12847
  Beta  occ. eigenvalues --   -0.17651  -0.13097  -0.12521
  Beta virt. eigenvalues --   -0.06419  -0.05900  -0.05285  -0.04877  -0.02405
  Beta virt. eigenvalues --   -0.02161  -0.01844  -0.01575  -0.01211  -0.00695
  Beta virt. eigenvalues --   -0.00131   0.00145   0.00318   0.00720   0.00802

 Mulliken charges and spin densities:
               1          2
     1  Na   0.307421  -0.051174
     2  Na  -0.366264   0.519558
     3  Na  -0.362383   0.074721
     4  Na  -0.373063   0.146489
     5  Na  -0.378915   0.117305
     6  Na   0.506036   0.112662
     7  Na   0.667167   0.080439
 Sum of Mulliken charges =  -0.00000   1.00000

 Dipole moment (field-independent basis, Debye):
    X=              0.0088    Y=             -0.4171    Z=              0.3861  Tot=              0.5684
 Quadrupole moment (field-independent basis, Debye-Ang):
   XX=            -56.3367   YY=            -60.3596   ZZ=            -76.0826
   XY=              1.8129   XZ=             -0.7499   YZ=             -0.3825

 Normal termination of Gaussian 16 at Thu Dec  7 02:50:44 2023.
