 Gaussian 16, Revision B.01,
 Gaussian 16:  ES64L-G16RevB.01 20-Dec-2017

 -------------------------
 #P B3LYP/6-311+g(d) force
 -------------------------

 -----
 DPGEN
 -----
 Symbolic Z-matrix:
 Charge =  0 Multiplicity = 2

                         Standard orientation:
 ---------------------------------------------------------------------
 Center     Atomic      Atomic             Coordinates (Angstroms)
 Number     Number       Type             X           Y           Z
 ---------------------------------------------------------------------
      1         11           0        1.352772    1.232848    1.532307
      2         11           0        0.147304    0.759658   -1.568829
      3         11           0        0.830797   -2.203454    0.443769
      4         11           0       -1.451041    2.821034   -0.603132
      5         11           0       -2.512770   -2.127321   -0.939094
      6         11           0       -2.339199   -0.113532    1.577104
      7         11           0        3.972137   -0.369234   -0.442126
 ---------------------------------------------------------------------

 SCF Done:  E(UB3LYP) =  -1136.12707929     A.U. after   21 cycles

 The electronic state is 2-A.
 Alpha  occ. eigenvalues --  -38.44791 -38.44040 -38.44013 -38.43937 -38.43593
 Alpha  occ. eigenvalues --  -38.43466 -38.43277  -2.20555  -2.19881  -2.19828
 Alpha  occ. eigenvalues --   -2.19791  -2.19427  -2.19413  -2.19153  -1.14228
 Alpha  occ. eigenvalues --   -1.14223  -1.14178  -1.13559  -1.13551  -1.13535
 Alpha  occ. eigenvalues --   -1.13525  -1.13505  -1.13490  -1.13453  -1.13414
 Alpha  occ. eigenvalues --   -1.13379  -1.13293  -1.13085  -1.13081  -1.13064
 Alpha  occ. eigenvalues --   -1.13046  -1.13026  -1.12771  -1.12768  -1.12741
 Alpha  occ. eigenvalues --   -0.18087  -0.13119  -0.12091  -0.10712
 Alpha virt. eigenvalues --   -0.06334  -0.05071  -0.04437  -0.03342  -0.02941
 Alpha virt. eigenvalues --   -0.02463  -0.02155  -0.01084  -0.00679  -0.00080
 Alpha virt. eigenvalues --    0.00095   0.00229   0.00490   0.00697   0.00788

  Beta  occ. eigenvalues --  -38.44792 -38.44005 -38.43996 -38.43891 -38.43581
  Beta  occ. eigenvalues --  -38.43408 -38.43266  -2.20557  -2.19817  -2.19801
  Beta  occ. eigenvalues --   -2.19707  -2.19394  -2.19323  -2.19136  -1.14227
  Beta  occ. eigenvalues --   -1.14221  -1.14180  -1.13538  -1.13493  -1.13491
  Beta  occ. eigenvalues --   -1.13482  -1.13453  -1.13439  -1.13410  -1.13380
  Beta  occ. eigenvalues --   -1.13320  -1.13233  -1.13068  -1.13041  -1.13033
  Beta  occ. eigenvalues --   -1.13001  -1.12952  -1.12761  -1.12730  -1.12718
  Beta  occ. eigenvalues --   -0.17388  -0.12983  -0.11864
  Beta virt. eigenvalues --   -0.06889  -0.06205  -0.04936  -0.04165  -0.02973
  Beta virt. eigenvalues --   -0.02316  -0.02056  -0.01521  -0.01007  -0.00322
  Beta virt. eigenvalues --   -0.00066   0.00161   0.00273   0.00626   0.00744

 Mulliken charges and spin densities:
               1          2
     1  Na  -0.203302   0.333528
     2  Na  -0.211859   0.532218
     3  Na  -0.240357   0.045197
     4  Na   0.163186  -0.119373
     5  Na   0.119473  -0.067658
     6  Na   0.010836   0.318384
     7  Na   0.362024  -0.042296
 Sum of Mulliken charges =  -0.00000   1.00000

 Dipole moment (field-independent basis, Debye):
    X=              0.7826    Y=             -0.1843    Z=              0.1190  Tot=              0.8127
 Quadrupole moment (field-independent basis, Debye-Ang):
   XX=            -52.2162   YY=            -69.2341   ZZ=            -71.4360
   XY=             -1.1074   XZ=             -1.0462   YZ=              2.5103

 Normal termination of Gaussian 16 at Tue Dec  5 13:44:09 2023.
