 Gaussian 16, Revision B.01,
 Gaussian 16:  ES64L-G16RevB.01 20-Dec-2017

 -------------------------
 #P B3LYP/6-311+g(d) force
 -------------------------

 -----
 DPGEN
 -----
 Symbolic Z-matrix:
 Charge =  0 Multiplicity = 2

                         Standard orientation:
 ---------------------------------------------------------------------
 Center     Atomic      Atomic             Coordinates (Angstroms)
 Number     Number       Type             X           Y           Z
 ---------------------------------------------------------------------
      1         11           0       -3.093681    1.023011   -0.242134
      2         11           0       -0.113786   -0.085660    2.156039
      3         11           0        3.205821    0.550614   -0.217836
      4         11           0        1.845504   -2.345437   -0.220854
      5         11           0        0.302017    3.113057   -0.017406
      6         11           0       -1.924497   -2.512411   -0.167167
      7         11           0       -0.221377    0.256826   -1.290642
 ---------------------------------------------------------------------

 SCF Done:  E(UB3LYP) =  -1136.13477842     A.U. after   19 cycles

 The electronic state is 2-A.
 Alpha  occ. eigenvalues --  -38.44420 -38.44055 -38.43815 -38.43744 -38.43514
 Alpha  occ. eigenvalues --  -38.43411 -38.42898  -2.20238  -2.19878  -2.19626
 Alpha  occ. eigenvalues --   -2.19560  -2.19362  -2.19277  -2.18920  -1.13941
 Alpha  occ. eigenvalues --   -1.13892  -1.13855  -1.13563  -1.13543  -1.13514
 Alpha  occ. eigenvalues --   -1.13307  -1.13287  -1.13268  -1.13262  -1.13218
 Alpha  occ. eigenvalues --   -1.13183  -1.13041  -1.13024  -1.12996  -1.12946
 Alpha  occ. eigenvalues --   -1.12895  -1.12885  -1.12617  -1.12562  -1.12550
 Alpha  occ. eigenvalues --   -0.18369  -0.13049  -0.12386  -0.10353
 Alpha virt. eigenvalues --   -0.05913  -0.05306  -0.04882  -0.02925  -0.02672
 Alpha virt. eigenvalues --   -0.02347  -0.01727  -0.01351  -0.00704  -0.00545
 Alpha virt. eigenvalues --   -0.00010   0.00312   0.00752   0.00793   0.00852

  Beta  occ. eigenvalues --  -38.44412 -38.44050 -38.43812 -38.43742 -38.43508
  Beta  occ. eigenvalues --  -38.43299 -38.42859  -2.20225  -2.19872  -2.19622
  Beta  occ. eigenvalues --   -2.19558  -2.19355  -2.19070  -2.18852  -1.13926
  Beta  occ. eigenvalues --   -1.13871  -1.13849  -1.13560  -1.13526  -1.13508
  Beta  occ. eigenvalues --   -1.13300  -1.13273  -1.13265  -1.13260  -1.13200
  Beta  occ. eigenvalues --   -1.13186  -1.13035  -1.13008  -1.12985  -1.12808
  Beta  occ. eigenvalues --   -1.12753  -1.12737  -1.12553  -1.12513  -1.12500
  Beta  occ. eigenvalues --   -0.17684  -0.12803  -0.12196
  Beta virt. eigenvalues --   -0.06431  -0.05860  -0.05286  -0.04839  -0.02215
  Beta virt. eigenvalues --   -0.01945  -0.01636  -0.01291  -0.01249  -0.00738
  Beta virt. eigenvalues --   -0.00580   0.00162   0.00372   0.00780   0.00842

 Mulliken charges and spin densities:
               1          2
     1  Na   0.357320   0.022028
     2  Na  -0.501312   0.782703
     3  Na   0.190777   0.029740
     4  Na   0.199942   0.036319
     5  Na   0.238383   0.007024
     6  Na   0.237804   0.020164
     7  Na  -0.722913   0.102022
 Sum of Mulliken charges =  -0.00000   1.00000

 Dipole moment (field-independent basis, Debye):
    X=             -0.2808    Y=              0.1805    Z=              0.1544  Tot=              0.3678
 Quadrupole moment (field-independent basis, Debye-Ang):
   XX=            -55.0905   YY=            -59.9557   ZZ=            -76.9074
   XY=              0.6849   XZ=             -0.1634   YZ=              0.7491

 Normal termination of Gaussian 16 at Thu Dec  7 03:28:29 2023.
