 Gaussian 16, Revision B.01,
 Gaussian 16:  ES64L-G16RevB.01 20-Dec-2017

 -------------------------
 #P B3LYP/6-311+g(d) force
 -------------------------

 -----
 DPGEN
 -----
 Symbolic Z-matrix:
 Charge =  0 Multiplicity = 2

                         Standard orientation:
 ---------------------------------------------------------------------
 Center     Atomic      Atomic             Coordinates (Angstroms)
 Number     Number       Type             X           Y           Z
 ---------------------------------------------------------------------
      1         11           0        0.308973   -3.577570   -0.536407
      2         11           0       -4.122914    0.928768    0.474821
      3         11           0        2.395533   -2.315002    1.238422
      4         11           0        1.983265    3.592634   -0.128931
      5         11           0       -1.233906    3.198378    0.017384
      6         11           0       -3.424676   -1.966070   -0.504743
      7         11           0        4.093726    0.138863   -0.560547
 ---------------------------------------------------------------------

 SCF Done:  E(UB3LYP) =  -1136.10660433     A.U. after   22 cycles

 The electronic state is 2-A.
 Alpha  occ. eigenvalues --  -38.45179 -38.44761 -38.44416 -38.44403 -38.44310
 Alpha  occ. eigenvalues --  -38.44272 -38.44079  -2.20953  -2.20574  -2.20196
 Alpha  occ. eigenvalues --   -2.20185  -2.20122  -2.20063  -2.19906  -1.14632
 Alpha  occ. eigenvalues --   -1.14621  -1.14598  -1.14294  -1.14235  -1.14223
 Alpha  occ. eigenvalues --   -1.13879  -1.13859  -1.13844  -1.13834  -1.13826
 Alpha  occ. eigenvalues --   -1.13814  -1.13779  -1.13775  -1.13767  -1.13728
 Alpha  occ. eigenvalues --   -1.13717  -1.13672  -1.13562  -1.13538  -1.13528
 Alpha  occ. eigenvalues --   -0.15572  -0.14019  -0.13364  -0.10689
 Alpha virt. eigenvalues --   -0.07595  -0.04995  -0.04239  -0.03645  -0.03308
 Alpha virt. eigenvalues --   -0.02516  -0.02354  -0.01684  -0.01485  -0.00749
 Alpha virt. eigenvalues --   -0.00506  -0.00119   0.00275   0.00313   0.00636

  Beta  occ. eigenvalues --  -38.45167 -38.44763 -38.44411 -38.44311 -38.44286
  Beta  occ. eigenvalues --  -38.44235 -38.44020  -2.20936  -2.20586  -2.20181
  Beta  occ. eigenvalues --   -2.20079  -2.20024  -2.19998  -2.19797  -1.14617
  Beta  occ. eigenvalues --   -1.14612  -1.14567  -1.14288  -1.14249  -1.14202
  Beta  occ. eigenvalues --   -1.13865  -1.13860  -1.13811  -1.13749  -1.13746
  Beta  occ. eigenvalues --   -1.13732  -1.13725  -1.13713  -1.13702  -1.13686
  Beta  occ. eigenvalues --   -1.13676  -1.13620  -1.13493  -1.13463  -1.13455
  Beta  occ. eigenvalues --   -0.15056  -0.13378  -0.12621
  Beta virt. eigenvalues --   -0.07716  -0.07484  -0.04582  -0.03868  -0.03395
  Beta virt. eigenvalues --   -0.02935  -0.02247  -0.02079  -0.01586  -0.01332
  Beta virt. eigenvalues --   -0.00429  -0.00248   0.00041   0.00294   0.00417

 Mulliken charges and spin densities:
               1          2
     1  Na   0.044139   0.250920
     2  Na   0.316070   0.122088
     3  Na  -0.185860   0.024210
     4  Na   0.154963  -0.059579
     5  Na  -0.189629   0.144459
     6  Na  -0.084292   0.074598
     7  Na  -0.055390   0.443304
 Sum of Mulliken charges =  -0.00000   1.00000

 Dipole moment (field-independent basis, Debye):
    X=             -0.3906    Y=             -0.3534    Z=             -0.0019  Tot=              0.5268
 Quadrupole moment (field-independent basis, Debye-Ang):
   XX=            -64.8919   YY=            -68.3716   ZZ=            -69.0403
   XY=              1.8778   XZ=              0.0515   YZ=              1.7168

 Normal termination of Gaussian 16 at Sun Dec  3 23:12:16 2023.
