 Gaussian 16, Revision B.01,
 Gaussian 16:  ES64L-G16RevB.01 20-Dec-2017

 -------------------------
 #P B3LYP/6-311+g(d) force
 -------------------------

 -----
 DPGEN
 -----
 Symbolic Z-matrix:
 Charge =  0 Multiplicity = 2

                         Standard orientation:
 ---------------------------------------------------------------------
 Center     Atomic      Atomic             Coordinates (Angstroms)
 Number     Number       Type             X           Y           Z
 ---------------------------------------------------------------------
      1         11           0        0.989492   -2.230010   -0.088045
      2         11           0       -2.181480    1.629006   -0.150104
      3         11           0       -2.962143   -1.157644   -0.125715
      4         11           0       -0.460399   -0.417426    1.933077
      5         11           0        1.344251    2.190175    0.494920
      6         11           0       -0.097908    0.218608   -1.893879
      7         11           0        3.368188   -0.232709   -0.170255
 ---------------------------------------------------------------------

 SCF Done:  E(UB3LYP) =  -1136.12474810     A.U. after   21 cycles

 The electronic state is 2-A.
 Alpha  occ. eigenvalues --  -38.44908 -38.44487 -38.43916 -38.43727 -38.43556
 Alpha  occ. eigenvalues --  -38.42820 -38.42753  -2.20758  -2.20383  -2.19887
 Alpha  occ. eigenvalues --   -2.19695  -2.19527  -2.18753  -2.18642  -1.14433
 Alpha  occ. eigenvalues --   -1.14418  -1.14404  -1.14140  -1.14030  -1.14002
 Alpha  occ. eigenvalues --   -1.13595  -1.13553  -1.13487  -1.13385  -1.13341
 Alpha  occ. eigenvalues --   -1.13303  -1.13192  -1.13164  -1.13143  -1.12447
 Alpha  occ. eigenvalues --   -1.12424  -1.12368  -1.12323  -1.12304  -1.12279
 Alpha  occ. eigenvalues --   -0.19386  -0.14008  -0.11682  -0.11341
 Alpha virt. eigenvalues --   -0.06521  -0.04886  -0.03866  -0.03452  -0.02919
 Alpha virt. eigenvalues --   -0.02577  -0.02121  -0.00849  -0.00133   0.00014
 Alpha virt. eigenvalues --    0.00189   0.00331   0.00657   0.00836   0.00946

  Beta  occ. eigenvalues --  -38.44910 -38.44481 -38.43837 -38.43640 -38.43544
  Beta  occ. eigenvalues --  -38.42810 -38.42740  -2.20764  -2.20376  -2.19743
  Beta  occ. eigenvalues --   -2.19537  -2.19511  -2.18739  -2.18622  -1.14440
  Beta  occ. eigenvalues --   -1.14421  -1.14397  -1.14140  -1.14001  -1.13992
  Beta  occ. eigenvalues --   -1.13504  -1.13449  -1.13383  -1.13281  -1.13239
  Beta  occ. eigenvalues --   -1.13185  -1.13172  -1.13143  -1.13102  -1.12441
  Beta  occ. eigenvalues --   -1.12378  -1.12363  -1.12311  -1.12273  -1.12262
  Beta  occ. eigenvalues --   -0.18603  -0.13765  -0.11419
  Beta virt. eigenvalues --   -0.07354  -0.06437  -0.04885  -0.03487  -0.02984
  Beta virt. eigenvalues --   -0.02082  -0.01974  -0.01616  -0.00803  -0.00043
  Beta virt. eigenvalues --    0.00071   0.00154   0.00346   0.00848   0.00900

 Mulliken charges and spin densities:
               1          2
     1  Na   0.506248  -0.051355
     2  Na   0.377897   0.123246
     3  Na   0.381555  -0.075988
     4  Na  -0.643672   0.569021
     5  Na   0.227165   0.024530
     6  Na  -0.684962   0.496890
     7  Na  -0.164230  -0.086344
 Sum of Mulliken charges =  -0.00000   1.00000

 Dipole moment (field-independent basis, Debye):
    X=              0.1028    Y=             -0.1580    Z=             -0.0863  Tot=              0.2073
 Quadrupole moment (field-independent basis, Debye-Ang):
   XX=            -50.2168   YY=            -73.1604   ZZ=            -71.1834
   XY=              1.0519   XZ=              0.1766   YZ=              1.4533

 Normal termination of Gaussian 16 at Fri Dec  8 05:44:51 2023.
