 Gaussian 16, Revision B.01,
 Gaussian 16:  ES64L-G16RevB.01 20-Dec-2017

 -------------------------
 #P B3LYP/6-311+g(d) force
 -------------------------

 -----
 DPGEN
 -----
 Symbolic Z-matrix:
 Charge =  0 Multiplicity = 2

                         Standard orientation:
 ---------------------------------------------------------------------
 Center     Atomic      Atomic             Coordinates (Angstroms)
 Number     Number       Type             X           Y           Z
 ---------------------------------------------------------------------
      1         11           0        1.968489    0.975505   -1.091431
      2         11           0       -0.065273   -0.167552    1.864056
      3         11           0       -3.535034   -1.388469    0.529491
      4         11           0       -1.712489    0.953749   -1.122701
      5         11           0       -0.277831   -2.098606   -1.170628
      6         11           0       -0.038807    3.272047    0.468874
      7         11           0        3.660945   -1.546674    0.522339
 ---------------------------------------------------------------------

 SCF Done:  E(UB3LYP) =  -1136.13197352     A.U. after   20 cycles

 The electronic state is 2-A.
 Alpha  occ. eigenvalues --  -38.44436 -38.44129 -38.44127 -38.44091 -38.43561
 Alpha  occ. eigenvalues --  -38.43284 -38.42971  -2.20228  -2.19963  -2.19939
 Alpha  occ. eigenvalues --   -2.19890  -2.19427  -2.19216  -2.18817  -1.13911
 Alpha  occ. eigenvalues --   -1.13884  -1.13855  -1.13677  -1.13645  -1.13619
 Alpha  occ. eigenvalues --   -1.13572  -1.13570  -1.13555  -1.13549  -1.13543
 Alpha  occ. eigenvalues --   -1.13519  -1.13122  -1.13106  -1.13033  -1.12918
 Alpha  occ. eigenvalues --   -1.12890  -1.12825  -1.12485  -1.12467  -1.12460
 Alpha  occ. eigenvalues --   -0.18154  -0.12989  -0.12088  -0.10602
 Alpha virt. eigenvalues --   -0.06403  -0.04998  -0.04605  -0.03244  -0.02796
 Alpha virt. eigenvalues --   -0.02411  -0.02089  -0.01323  -0.00632  -0.00240
 Alpha virt. eigenvalues --    0.00137   0.00255   0.00495   0.00684   0.00800

  Beta  occ. eigenvalues --  -38.44431 -38.44127 -38.44091 -38.44015 -38.43541
  Beta  occ. eigenvalues --  -38.43253 -38.42969  -2.20221  -2.19895  -2.19890
  Beta  occ. eigenvalues --   -2.19799  -2.19392  -2.19164  -2.18814  -1.13907
  Beta  occ. eigenvalues --   -1.13865  -1.13852  -1.13630  -1.13571  -1.13567
  Beta  occ. eigenvalues --   -1.13547  -1.13529  -1.13521  -1.13501  -1.13472
  Beta  occ. eigenvalues --   -1.13444  -1.13098  -1.13061  -1.13012  -1.12884
  Beta  occ. eigenvalues --   -1.12823  -1.12794  -1.12485  -1.12461  -1.12447
  Beta  occ. eigenvalues --   -0.17387  -0.12851  -0.11930
  Beta virt. eigenvalues --   -0.06754  -0.06198  -0.04898  -0.04488  -0.02719
  Beta virt. eigenvalues --   -0.02238  -0.01963  -0.01486  -0.01196  -0.00344
  Beta virt. eigenvalues --   -0.00226   0.00190   0.00302   0.00612   0.00742

 Mulliken charges and spin densities:
               1          2
     1  Na  -0.090152   0.174892
     2  Na  -0.453554   0.842362
     3  Na   0.213361  -0.108686
     4  Na   0.126498   0.395896
     5  Na  -0.207569   0.019437
     6  Na   0.307091  -0.214163
     7  Na   0.104325  -0.109738
 Sum of Mulliken charges =  -0.00000   1.00000

 Dipole moment (field-independent basis, Debye):
    X=             -0.3644    Y=             -0.4820    Z=              0.1825  Tot=              0.6312
 Quadrupole moment (field-independent basis, Debye-Ang):
   XX=            -54.4791   YY=            -64.6886   ZZ=            -72.8208
   XY=              0.8095   XZ=             -0.3947   YZ=             -0.0624

 Normal termination of Gaussian 16 at Tue Dec  5 20:08:20 2023.
