 Gaussian 16, Revision B.01,
 Gaussian 16:  ES64L-G16RevB.01 20-Dec-2017

 -------------------------
 #P B3LYP/6-311+g(d) force
 -------------------------

 -----
 DPGEN
 -----
 Symbolic Z-matrix:
 Charge =  0 Multiplicity = 2

                         Standard orientation:
 ---------------------------------------------------------------------
 Center     Atomic      Atomic             Coordinates (Angstroms)
 Number     Number       Type             X           Y           Z
 ---------------------------------------------------------------------
      1         11           0       -0.925298   -0.078380    1.970312
      2         11           0        0.575602   -2.388647    0.408747
      3         11           0        2.985280   -0.331163   -0.188447
      4         11           0        1.202826    2.235496    0.500680
      5         11           0        0.366207    0.051608   -1.681378
      6         11           0       -1.888764    1.795381   -0.409506
      7         11           0       -2.315852   -1.284296   -0.600409
 ---------------------------------------------------------------------

 SCF Done:  E(UB3LYP) =  -1136.12883645     A.U. after   19 cycles

 The electronic state is 2-A.
 Alpha  occ. eigenvalues --  -38.43808 -38.43746 -38.43495 -38.43415 -38.43215
 Alpha  occ. eigenvalues --  -38.43112 -38.42926  -2.19805  -2.19664  -2.19520
 Alpha  occ. eigenvalues --   -2.19480  -2.19204  -2.19051  -2.18887  -1.13497
 Alpha  occ. eigenvalues --   -1.13459  -1.13432  -1.13426  -1.13319  -1.13308
 Alpha  occ. eigenvalues --   -1.13265  -1.13185  -1.13154  -1.13132  -1.13110
 Alpha  occ. eigenvalues --   -1.13082  -1.12876  -1.12853  -1.12829  -1.12723
 Alpha  occ. eigenvalues --   -1.12702  -1.12664  -1.12576  -1.12547  -1.12502
 Alpha  occ. eigenvalues --   -0.19970  -0.13472  -0.12561  -0.11674
 Alpha virt. eigenvalues --   -0.05257  -0.04667  -0.04165  -0.03576  -0.03154
 Alpha virt. eigenvalues --   -0.02915  -0.01171  -0.00683  -0.00146   0.00306
 Alpha virt. eigenvalues --    0.00403   0.00462   0.00932   0.00987   0.01023

  Beta  occ. eigenvalues --  -38.43744 -38.43722 -38.43476 -38.43345 -38.43201
  Beta  occ. eigenvalues --  -38.43101 -38.42913  -2.19664  -2.19647  -2.19450
  Beta  occ. eigenvalues --   -2.19392  -2.19183  -2.19033  -2.18869  -1.13410
  Beta  occ. eigenvalues --   -1.13406  -1.13346  -1.13313  -1.13311  -1.13300
  Beta  occ. eigenvalues --   -1.13208  -1.13126  -1.13112  -1.13069  -1.13059
  Beta  occ. eigenvalues --   -1.13007  -1.12861  -1.12822  -1.12791  -1.12712
  Beta  occ. eigenvalues --   -1.12667  -1.12650  -1.12566  -1.12504  -1.12491
  Beta  occ. eigenvalues --   -0.19185  -0.13223  -0.12281
  Beta virt. eigenvalues --   -0.07570  -0.05186  -0.04663  -0.04150  -0.02826
  Beta virt. eigenvalues --   -0.02316  -0.01779  -0.01090  -0.00638   0.00040
  Beta virt. eigenvalues --    0.00304   0.00417   0.00430   0.00985   0.01015

 Mulliken charges and spin densities:
               1          2
     1  Na  -0.695802   0.507533
     2  Na   0.251602   0.070018
     3  Na   0.219432  -0.009629
     4  Na   0.099828   0.067666
     5  Na  -0.671441   0.318124
     6  Na   0.364356   0.028445
     7  Na   0.432025   0.017842
 Sum of Mulliken charges =  -0.00000   1.00000

 Dipole moment (field-independent basis, Debye):
    X=              0.0650    Y=             -0.0011    Z=              0.2123  Tot=              0.2221
 Quadrupole moment (field-independent basis, Debye-Ang):
   XX=            -58.9071   YY=            -67.6467   ZZ=            -69.2566
   XY=              0.0263   XZ=              1.7339   YZ=              0.4952

 Normal termination of Gaussian 16 at Thu Dec  7 12:42:14 2023.
