 Gaussian 16, Revision B.01,
 Gaussian 16:  ES64L-G16RevB.01 20-Dec-2017

 -------------------------
 #P B3LYP/6-311+g(d) force
 -------------------------

 -----
 DPGEN
 -----
 Symbolic Z-matrix:
 Charge =  0 Multiplicity = 2

                         Standard orientation:
 ---------------------------------------------------------------------
 Center     Atomic      Atomic             Coordinates (Angstroms)
 Number     Number       Type             X           Y           Z
 ---------------------------------------------------------------------
      1         11           0       -2.906535   -0.757924    0.897112
      2         11           0       -1.883333    2.323291   -0.331362
      3         11           0        0.647693   -0.038546    1.848030
      4         11           0        3.135710   -1.212109   -0.058066
      5         11           0       -0.431128    0.107287   -1.771987
      6         11           0        1.861353    2.566969   -0.018716
      7         11           0       -0.423760   -2.988969   -0.565011
 ---------------------------------------------------------------------

 SCF Done:  E(UB3LYP) =  -1136.13432781     A.U. after   19 cycles

 The electronic state is 2-A.
 Alpha  occ. eigenvalues --  -38.44367 -38.43996 -38.43757 -38.43628 -38.43589
 Alpha  occ. eigenvalues --  -38.43569 -38.43400  -2.20146  -2.19793  -2.19588
 Alpha  occ. eigenvalues --   -2.19514  -2.19434  -2.19405  -2.19342  -1.13837
 Alpha  occ. eigenvalues --   -1.13804  -1.13778  -1.13486  -1.13461  -1.13418
 Alpha  occ. eigenvalues --   -1.13261  -1.13249  -1.13232  -1.13223  -1.13189
 Alpha  occ. eigenvalues --   -1.13152  -1.13131  -1.13112  -1.13078  -1.13057
 Alpha  occ. eigenvalues --   -1.13047  -1.13031  -1.12991  -1.12948  -1.12935
 Alpha  occ. eigenvalues --   -0.18218  -0.12838  -0.12398  -0.10741
 Alpha virt. eigenvalues --   -0.05822  -0.05207  -0.04668  -0.03348  -0.02996
 Alpha virt. eigenvalues --   -0.02482  -0.01525  -0.01267  -0.00498  -0.00381
 Alpha virt. eigenvalues --    0.00004   0.00358   0.00774   0.00801   0.00853

  Beta  occ. eigenvalues --  -38.44369 -38.43995 -38.43726 -38.43574 -38.43564
  Beta  occ. eigenvalues --  -38.43561 -38.43328  -2.20152  -2.19795  -2.19533
  Beta  occ. eigenvalues --   -2.19423  -2.19395  -2.19380  -2.19212  -1.13832
  Beta  occ. eigenvalues --   -1.13807  -1.13780  -1.13478  -1.13459  -1.13416
  Beta  occ. eigenvalues --   -1.13225  -1.13205  -1.13192  -1.13183  -1.13111
  Beta  occ. eigenvalues --   -1.13081  -1.13072  -1.13057  -1.13040  -1.13036
  Beta  occ. eigenvalues --   -1.13030  -1.13016  -1.12908  -1.12868  -1.12846
  Beta  occ. eigenvalues --   -0.17527  -0.12615  -0.12127
  Beta virt. eigenvalues --   -0.06936  -0.05817  -0.05036  -0.04598  -0.02662
  Beta virt. eigenvalues --   -0.02280  -0.01574  -0.01377  -0.01189  -0.00464
  Beta virt. eigenvalues --   -0.00387   0.00117   0.00397   0.00786   0.00867

 Mulliken charges and spin densities:
               1          2
     1  Na  -0.064731   0.191591
     2  Na   0.207336   0.013468
     3  Na  -0.026153   0.551488
     4  Na  -0.068718  -0.121540
     5  Na   0.059608   0.490229
     6  Na  -0.085265  -0.133247
     7  Na  -0.022077   0.008012
 Sum of Mulliken charges =  -0.00000   1.00000

 Dipole moment (field-independent basis, Debye):
    X=              0.4836    Y=              0.0290    Z=              0.0698  Tot=              0.4894
 Quadrupole moment (field-independent basis, Debye-Ang):
   XX=            -57.6637   YY=            -61.6901   ZZ=            -74.0467
   XY=             -0.1031   XZ=             -2.6418   YZ=              0.2721

 Normal termination of Gaussian 16 at Fri Dec  8 03:08:59 2023.
