 Gaussian 16, Revision B.01,
 Gaussian 16:  ES64L-G16RevB.01 20-Dec-2017

 -------------------------
 #P B3LYP/6-311+g(d) force
 -------------------------

 -----
 DPGEN
 -----
 Symbolic Z-matrix:
 Charge =  0 Multiplicity = 2

                         Standard orientation:
 ---------------------------------------------------------------------
 Center     Atomic      Atomic             Coordinates (Angstroms)
 Number     Number       Type             X           Y           Z
 ---------------------------------------------------------------------
      1         11           0       -0.152893   -0.734699   -1.731601
      2         11           0        0.322827   -0.920129    1.985012
      3         11           0       -2.949276    0.842713   -1.343490
      4         11           0        3.335448   -1.375262   -0.854692
      5         11           0       -0.562709    2.099618    0.663042
      6         11           0       -2.720471   -1.505149    0.943430
      7         11           0        2.727075    1.592908    0.338299
 ---------------------------------------------------------------------

 SCF Done:  E(UB3LYP) =  -1136.12377904     A.U. after   31 cycles

 The electronic state is 2-A.
 Alpha  occ. eigenvalues --  -38.44880 -38.44782 -38.44607 -38.44104 -38.44010
 Alpha  occ. eigenvalues --  -38.43474 -38.42040  -2.20756  -2.20641  -2.20501
 Alpha  occ. eigenvalues --   -2.19957  -2.19850  -2.19284  -2.17932  -1.14465
 Alpha  occ. eigenvalues --   -1.14388  -1.14373  -1.14306  -1.14285  -1.14270
 Alpha  occ. eigenvalues --   -1.14184  -1.14129  -1.14111  -1.13649  -1.13633
 Alpha  occ. eigenvalues --   -1.13562  -1.13534  -1.13510  -1.13489  -1.12960
 Alpha  occ. eigenvalues --   -1.12944  -1.12921  -1.11623  -1.11604  -1.11563
 Alpha  occ. eigenvalues --   -0.18580  -0.13966  -0.12240  -0.10828
 Alpha virt. eigenvalues --   -0.06551  -0.05210  -0.04620  -0.03581  -0.02750
 Alpha virt. eigenvalues --   -0.02532  -0.02262  -0.01156  -0.00589  -0.00070
 Alpha virt. eigenvalues --    0.00165   0.00293   0.00373   0.00499   0.00707

  Beta  occ. eigenvalues --  -38.44790 -38.44736 -38.44560 -38.44075 -38.44010
  Beta  occ. eigenvalues --  -38.43478 -38.42031  -2.20594  -2.20561  -2.20415
  Beta  occ. eigenvalues --   -2.19905  -2.19849  -2.19291  -2.17918  -1.14355
  Beta  occ. eigenvalues --   -1.14272  -1.14264  -1.14246  -1.14219  -1.14189
  Beta  occ. eigenvalues --   -1.14112  -1.14073  -1.14052  -1.13613  -1.13582
  Beta  occ. eigenvalues --   -1.13531  -1.13526  -1.13510  -1.13490  -1.12963
  Beta  occ. eigenvalues --   -1.12947  -1.12926  -1.11618  -1.11575  -1.11550
  Beta  occ. eigenvalues --   -0.17793  -0.13795  -0.10699
  Beta virt. eigenvalues --   -0.08025  -0.06410  -0.05002  -0.04097  -0.02997
  Beta virt. eigenvalues --   -0.02244  -0.02141  -0.01910  -0.00854  -0.00415
  Beta virt. eigenvalues --    0.00008   0.00203   0.00342   0.00492   0.00661

 Mulliken charges and spin densities:
               1          2
     1  Na  -1.129390   0.315075
     2  Na   0.058729   0.427698
     3  Na   1.469090   0.127648
     4  Na   0.216157  -0.012865
     5  Na  -0.800951   0.206805
     6  Na  -0.038622   0.044124
     7  Na   0.224988  -0.108486
 Sum of Mulliken charges =  -0.00000   1.00000

 Dipole moment (field-independent basis, Debye):
    X=             -0.6659    Y=             -0.1934    Z=              0.2167  Tot=              0.7265
 Quadrupole moment (field-independent basis, Debye-Ang):
   XX=            -51.3514   YY=            -74.6929   ZZ=            -70.4545
   XY=              0.7813   XZ=              1.5370   YZ=             -6.9703

 Normal termination of Gaussian 16 at Tue Dec  5 18:07:53 2023.
