 Gaussian 16, Revision B.01,
 Gaussian 16:  ES64L-G16RevB.01 20-Dec-2017

 -------------------------
 #P B3LYP/6-311+g(d) force
 -------------------------

 -----
 DPGEN
 -----
 Symbolic Z-matrix:
 Charge =  0 Multiplicity = 2

                         Standard orientation:
 ---------------------------------------------------------------------
 Center     Atomic      Atomic             Coordinates (Angstroms)
 Number     Number       Type             X           Y           Z
 ---------------------------------------------------------------------
      1         11           0        1.512367    2.143904   -0.657587
      2         11           0        0.927539   -2.113875   -1.089498
      3         11           0       -1.892959    2.098260   -0.008512
      4         11           0        1.009844    0.251848    2.065262
      5         11           0       -1.811238   -2.058537    0.735931
      6         11           0        4.321055   -0.310026   -0.359543
      7         11           0       -4.066608   -0.011574   -0.686053
 ---------------------------------------------------------------------

 SCF Done:  E(UB3LYP) =  -1136.12112648     A.U. after   22 cycles

 The electronic state is 2-A.
 Alpha  occ. eigenvalues --  -38.44929 -38.44705 -38.44403 -38.44014 -38.43967
 Alpha  occ. eigenvalues --  -38.43366 -38.43311  -2.20754  -2.20493  -2.20181
 Alpha  occ. eigenvalues --   -2.19866  -2.19786  -2.19204  -2.19146  -1.14415
 Alpha  occ. eigenvalues --   -1.14403  -1.14369  -1.14155  -1.14133  -1.14105
 Alpha  occ. eigenvalues --   -1.13875  -1.13850  -1.13810  -1.13544  -1.13508
 Alpha  occ. eigenvalues --   -1.13494  -1.13479  -1.13464  -1.13404  -1.12885
 Alpha  occ. eigenvalues --   -1.12869  -1.12840  -1.12834  -1.12805  -1.12791
 Alpha  occ. eigenvalues --   -0.17428  -0.13986  -0.11770  -0.10835
 Alpha virt. eigenvalues --   -0.06988  -0.05433  -0.04386  -0.03415  -0.02847
 Alpha virt. eigenvalues --   -0.02680  -0.02114  -0.01584  -0.00841  -0.00432
 Alpha virt. eigenvalues --   -0.00111  -0.00073   0.00349   0.00624   0.00752

  Beta  occ. eigenvalues --  -38.44859 -38.44633 -38.44407 -38.43967 -38.43964
  Beta  occ. eigenvalues --  -38.43355 -38.43308  -2.20626  -2.20358  -2.20191
  Beta  occ. eigenvalues --   -2.19789  -2.19772  -2.19187  -2.19145  -1.14328
  Beta  occ. eigenvalues --   -1.14312  -1.14275  -1.14058  -1.14040  -1.14019
  Beta  occ. eigenvalues --   -1.13884  -1.13846  -1.13814  -1.13485  -1.13482
  Beta  occ. eigenvalues --   -1.13459  -1.13445  -1.13432  -1.13395  -1.12878
  Beta  occ. eigenvalues --   -1.12849  -1.12838  -1.12814  -1.12809  -1.12757
  Beta  occ. eigenvalues --   -0.16875  -0.13319  -0.11609
  Beta virt. eigenvalues --   -0.07371  -0.06690  -0.05275  -0.03808  -0.03297
  Beta virt. eigenvalues --   -0.02546  -0.02228  -0.01597  -0.01298  -0.00445
  Beta virt. eigenvalues --   -0.00353  -0.00076   0.00066   0.00470   0.00761

 Mulliken charges and spin densities:
               1          2
     1  Na   0.012552   0.016851
     2  Na  -0.209184  -0.107148
     3  Na  -0.436935   0.010173
     4  Na  -0.036483   0.287726
     5  Na  -0.002727   0.135876
     6  Na   0.236105   0.419720
     7  Na   0.436672   0.236800
 Sum of Mulliken charges =  -0.00000   1.00000

 Dipole moment (field-independent basis, Debye):
    X=              0.7831    Y=             -0.1853    Z=              0.3883  Tot=              0.8935
 Quadrupole moment (field-independent basis, Debye-Ang):
   XX=            -60.6775   YY=            -75.5077   ZZ=            -64.9067
   XY=              2.2186   XZ=              2.0751   YZ=             -0.6102

 Normal termination of Gaussian 16 at Sun Dec  3 20:32:54 2023.
