 Gaussian 16, Revision B.01,
 Gaussian 16:  ES64L-G16RevB.01 20-Dec-2017

 -------------------------
 #P B3LYP/6-311+g(d) force
 -------------------------

 -----
 DPGEN
 -----
 Symbolic Z-matrix:
 Charge =  0 Multiplicity = 2

                         Standard orientation:
 ---------------------------------------------------------------------
 Center     Atomic      Atomic             Coordinates (Angstroms)
 Number     Number       Type             X           Y           Z
 ---------------------------------------------------------------------
      1         11           0        1.895018   -2.261963    0.044282
      2         11           0        0.045925   -0.131267   -1.838008
      3         11           0       -0.832812    2.791158   -0.559485
      4         11           0        3.067071    1.307498    0.126119
      5         11           0       -2.769810    0.455662    0.757627
      6         11           0       -1.738047   -2.215578   -0.365766
      7         11           0        0.332655    0.054490    1.835231
 ---------------------------------------------------------------------

 SCF Done:  E(UB3LYP) =  -1136.13453002     A.U. after   19 cycles

 The electronic state is 2-A.
 Alpha  occ. eigenvalues --  -38.44302 -38.43715 -38.43591 -38.43552 -38.43458
 Alpha  occ. eigenvalues --  -38.43403 -38.43288  -2.20086  -2.19567  -2.19530
 Alpha  occ. eigenvalues --   -2.19468  -2.19426  -2.19246  -2.19197  -1.13772
 Alpha  occ. eigenvalues --   -1.13738  -1.13725  -1.13287  -1.13257  -1.13231
 Alpha  occ. eigenvalues --   -1.13183  -1.13177  -1.13166  -1.13148  -1.13128
 Alpha  occ. eigenvalues --   -1.13105  -1.13099  -1.13082  -1.13047  -1.12916
 Alpha  occ. eigenvalues --   -1.12891  -1.12872  -1.12856  -1.12835  -1.12810
 Alpha  occ. eigenvalues --   -0.18858  -0.13103  -0.12281  -0.11137
 Alpha virt. eigenvalues --   -0.05737  -0.05033  -0.04288  -0.03404  -0.03009
 Alpha virt. eigenvalues --   -0.02728  -0.01543  -0.01087  -0.00264  -0.00037
 Alpha virt. eigenvalues --    0.00069   0.00369   0.00807   0.00861   0.00909

  Beta  occ. eigenvalues --  -38.44302 -38.43711 -38.43532 -38.43518 -38.43389
  Beta  occ. eigenvalues --  -38.43374 -38.43280  -2.20090  -2.19563  -2.19434
  Beta  occ. eigenvalues --   -2.19396  -2.19275  -2.19224  -2.19185  -1.13762
  Beta  occ. eigenvalues --   -1.13741  -1.13726  -1.13270  -1.13232  -1.13179
  Beta  occ. eigenvalues --   -1.13175  -1.13140  -1.13097  -1.13077  -1.13060
  Beta  occ. eigenvalues --   -1.13032  -1.13024  -1.12986  -1.12947  -1.12878
  Beta  occ. eigenvalues --   -1.12864  -1.12861  -1.12833  -1.12807  -1.12794
  Beta  occ. eigenvalues --   -0.18114  -0.12856  -0.12006
  Beta virt. eigenvalues --   -0.07207  -0.05720  -0.04970  -0.04229  -0.02650
  Beta virt. eigenvalues --   -0.02246  -0.01710  -0.01429  -0.01019  -0.00206
  Beta virt. eigenvalues --   -0.00066   0.00133   0.00394   0.00821   0.00916

 Mulliken charges and spin densities:
               1          2
     1  Na   0.020968  -0.092280
     2  Na  -0.070372   0.550423
     3  Na  -0.113971  -0.009644
     4  Na  -0.133258  -0.119881
     5  Na   0.237002   0.136359
     6  Na   0.128299   0.028691
     7  Na  -0.068668   0.506331
 Sum of Mulliken charges =  -0.00000   1.00000

 Dipole moment (field-independent basis, Debye):
    X=              0.6238    Y=              0.0773    Z=              0.0601  Tot=              0.6314
 Quadrupole moment (field-independent basis, Debye-Ang):
   XX=            -57.6399   YY=            -63.7955   ZZ=            -72.5379
   XY=              0.4897   XZ=             -0.9042   YZ=             -0.4878

 Normal termination of Gaussian 16 at Fri Dec  8 01:21:11 2023.
