 Gaussian 16, Revision B.01,
 Gaussian 16:  ES64L-G16RevB.01 20-Dec-2017

 -------------------------
 #P B3LYP/6-311+g(d) force
 -------------------------

 -----
 DPGEN
 -----
 Symbolic Z-matrix:
 Charge =  0 Multiplicity = 2

                         Standard orientation:
 ---------------------------------------------------------------------
 Center     Atomic      Atomic             Coordinates (Angstroms)
 Number     Number       Type             X           Y           Z
 ---------------------------------------------------------------------
      1         11           0        1.187335   -1.549180   -1.552199
      2         11           0        0.694263    0.032702    1.836597
      3         11           0       -1.636202   -1.813321    0.283757
      4         11           0        4.228214   -0.292143    0.430562
      5         11           0        1.830414    1.948724   -0.338123
      6         11           0       -4.966447    0.342791    0.290176
      7         11           0       -1.337576    1.330427   -0.950769
 ---------------------------------------------------------------------

 SCF Done:  E(UB3LYP) =  -1136.11027332     A.U. after   31 cycles

 The electronic state is 2-A.
 Alpha  occ. eigenvalues --  -38.46856 -38.44540 -38.44309 -38.44265 -38.43281
 Alpha  occ. eigenvalues --  -38.43098 -38.42753  -2.22714  -2.20319  -2.20138
 Alpha  occ. eigenvalues --   -2.20099  -2.19156  -2.18972  -2.18684  -1.16409
 Alpha  occ. eigenvalues --   -1.16371  -1.16335  -1.13968  -1.13960  -1.13921
 Alpha  occ. eigenvalues --   -1.13802  -1.13782  -1.13769  -1.13763  -1.13740
 Alpha  occ. eigenvalues --   -1.13734  -1.12844  -1.12837  -1.12799  -1.12690
 Alpha  occ. eigenvalues --   -1.12651  -1.12561  -1.12391  -1.12357  -1.12291
 Alpha  occ. eigenvalues --   -0.18469  -0.14026  -0.11134  -0.10916
 Alpha virt. eigenvalues --   -0.08119  -0.04877  -0.04417  -0.03404  -0.03023
 Alpha virt. eigenvalues --   -0.02293  -0.01880  -0.01645  -0.01502  -0.00945
 Alpha virt. eigenvalues --   -0.00124   0.00187   0.00204   0.00595   0.00806

  Beta  occ. eigenvalues --  -38.46858 -38.44441 -38.44250 -38.44242 -38.43262
  Beta  occ. eigenvalues --  -38.43102 -38.42738  -2.22718  -2.20134  -2.20073
  Beta  occ. eigenvalues --   -2.20012  -2.19128  -2.18982  -2.18664  -1.16412
  Beta  occ. eigenvalues --   -1.16367  -1.16339  -1.13842  -1.13833  -1.13801
  Beta  occ. eigenvalues --   -1.13754  -1.13730  -1.13720  -1.13711  -1.13682
  Beta  occ. eigenvalues --   -1.13674  -1.12830  -1.12810  -1.12754  -1.12700
  Beta  occ. eigenvalues --   -1.12649  -1.12559  -1.12381  -1.12341  -1.12245
  Beta  occ. eigenvalues --   -0.18018  -0.13256  -0.10643
  Beta virt. eigenvalues --   -0.07990  -0.07587  -0.04333  -0.04047  -0.03151
  Beta virt. eigenvalues --   -0.02929  -0.02200  -0.01725  -0.01053  -0.01011
  Beta virt. eigenvalues --   -0.00499   0.00013   0.00278   0.00322   0.00685

 Mulliken charges and spin densities:
               1          2
     1  Na  -0.149184   0.105610
     2  Na   0.170016  -0.015709
     3  Na   0.163806   0.032798
     4  Na   0.114610   0.388540
     5  Na  -0.006635  -0.027610
     6  Na   0.021871   0.511605
     7  Na  -0.314484   0.004766
 Sum of Mulliken charges =  -0.00000   1.00000

 Dipole moment (field-independent basis, Debye):
    X=              0.7917    Y=             -0.3802    Z=              0.5024  Tot=              1.0118
 Quadrupole moment (field-independent basis, Debye-Ang):
   XX=            -63.3148   YY=            -82.1416   ZZ=            -58.6019
   XY=              0.0160   XZ=             -1.6214   YZ=             -0.9055

 Normal termination of Gaussian 16 at Thu Dec  7 14:10:22 2023.
