 Gaussian 16, Revision B.01,
 Gaussian 16:  ES64L-G16RevB.01 20-Dec-2017

 -------------------------
 #P B3LYP/6-311+g(d) force
 -------------------------

 -----
 DPGEN
 -----
 Symbolic Z-matrix:
 Charge =  0 Multiplicity = 2

                         Standard orientation:
 ---------------------------------------------------------------------
 Center     Atomic      Atomic             Coordinates (Angstroms)
 Number     Number       Type             X           Y           Z
 ---------------------------------------------------------------------
      1         11           0        0.695583   -0.011626   -1.700426
      2         11           0        2.435327   -2.853171   -0.046356
      3         11           0        2.677470    0.815647    0.141336
      4         11           0       -2.554862    1.057020   -0.606781
      5         11           0        0.298551    3.135486    0.336488
      6         11           0       -3.409520   -1.907432    0.142658
      7         11           0       -0.142549   -0.235924    1.733081
 ---------------------------------------------------------------------

 SCF Done:  E(UB3LYP) =  -1136.12469807     A.U. after   21 cycles

 The electronic state is 2-A.
 Alpha  occ. eigenvalues --  -38.44442 -38.44299 -38.44145 -38.43748 -38.43686
 Alpha  occ. eigenvalues --  -38.43683 -38.43280  -2.20244  -2.20223  -2.19909
 Alpha  occ. eigenvalues --   -2.19697  -2.19566  -2.19555  -2.19125  -1.14085
 Alpha  occ. eigenvalues --   -1.13906  -1.13905  -1.13882  -1.13864  -1.13814
 Alpha  occ. eigenvalues --   -1.13586  -1.13575  -1.13538  -1.13369  -1.13357
 Alpha  occ. eigenvalues --   -1.13263  -1.13256  -1.13227  -1.13223  -1.13183
 Alpha  occ. eigenvalues --   -1.13181  -1.13177  -1.12801  -1.12781  -1.12768
 Alpha  occ. eigenvalues --   -0.18373  -0.13383  -0.12002  -0.10376
 Alpha virt. eigenvalues --   -0.06253  -0.05701  -0.04402  -0.03269  -0.02550
 Alpha virt. eigenvalues --   -0.02257  -0.01844  -0.01643  -0.00770  -0.00218
 Alpha virt. eigenvalues --   -0.00028   0.00280   0.00602   0.00733   0.00780

  Beta  occ. eigenvalues --  -38.44447 -38.44284 -38.44149 -38.43677 -38.43670
  Beta  occ. eigenvalues --  -38.43606 -38.43274  -2.20234  -2.20223  -2.19918
  Beta  occ. eigenvalues --   -2.19567  -2.19526  -2.19425  -2.19117  -1.14055
  Beta  occ. eigenvalues --   -1.13914  -1.13885  -1.13869  -1.13857  -1.13805
  Beta  occ. eigenvalues --   -1.13592  -1.13571  -1.13545  -1.13285  -1.13267
  Beta  occ. eigenvalues --   -1.13214  -1.13188  -1.13166  -1.13157  -1.13146
  Beta  occ. eigenvalues --   -1.13087  -1.13073  -1.12798  -1.12769  -1.12743
  Beta  occ. eigenvalues --   -0.17619  -0.13204  -0.11832
  Beta virt. eigenvalues --   -0.06486  -0.06168  -0.05597  -0.04319  -0.02595
  Beta virt. eigenvalues --   -0.01927  -0.01793  -0.01665  -0.01154  -0.00791
  Beta virt. eigenvalues --   -0.00181   0.00127   0.00313   0.00662   0.00821

 Mulliken charges and spin densities:
               1          2
     1  Na   0.043147   0.415747
     2  Na  -0.187918  -0.130093
     3  Na   0.383588   0.113887
     4  Na   0.108718   0.093619
     5  Na  -0.021855   0.034573
     6  Na  -0.098065  -0.088264
     7  Na  -0.227616   0.560532
 Sum of Mulliken charges =  -0.00000   1.00000

 Dipole moment (field-independent basis, Debye):
    X=             -0.0515    Y=             -0.5417    Z=              0.1525  Tot=              0.5651
 Quadrupole moment (field-independent basis, Debye-Ang):
   XX=            -58.3576   YY=            -57.5883   ZZ=            -76.4845
   XY=              1.0300   XZ=              1.1292   YZ=             -0.0826

 Normal termination of Gaussian 16 at Tue Dec  5 12:50:35 2023.
