 Gaussian 16, Revision B.01,
 Gaussian 16:  ES64L-G16RevB.01 20-Dec-2017

 -------------------------
 #P B3LYP/6-311+g(d) force
 -------------------------

 -----
 DPGEN
 -----
 Symbolic Z-matrix:
 Charge =  0 Multiplicity = 2

                         Standard orientation:
 ---------------------------------------------------------------------
 Center     Atomic      Atomic             Coordinates (Angstroms)
 Number     Number       Type             X           Y           Z
 ---------------------------------------------------------------------
      1         11           0        1.158453   -2.453014   -0.083098
      2         11           0        0.287811    0.127767    1.936997
      3         11           0       -2.200160   -2.082085    0.188473
      4         11           0        3.042574    0.321307   -0.130964
      5         11           0        0.206153    2.873471   -0.040307
      6         11           0       -0.036214   -0.150579   -1.750368
      7         11           0       -2.458617    1.363132   -0.120733
 ---------------------------------------------------------------------

 SCF Done:  E(UB3LYP) =  -1136.13902411     A.U. after   19 cycles

 The electronic state is 2-A.
 Alpha  occ. eigenvalues --  -38.43652 -38.43442 -38.43434 -38.43432 -38.43416
 Alpha  occ. eigenvalues --  -38.43411 -38.43249  -2.19507  -2.19377  -2.19354
 Alpha  occ. eigenvalues --   -2.19345  -2.19324  -2.19267  -2.19255  -1.13197
 Alpha  occ. eigenvalues --   -1.13178  -1.13154  -1.13143  -1.13113  -1.13062
 Alpha  occ. eigenvalues --   -1.13050  -1.13039  -1.13008  -1.12992  -1.12982
 Alpha  occ. eigenvalues --   -1.12976  -1.12965  -1.12950  -1.12929  -1.12922
 Alpha  occ. eigenvalues --   -1.12906  -1.12899  -1.12889  -1.12860  -1.12846
 Alpha  occ. eigenvalues --   -0.19194  -0.13075  -0.12716  -0.10951
 Alpha virt. eigenvalues --   -0.05216  -0.04913  -0.04886  -0.03215  -0.03022
 Alpha virt. eigenvalues --   -0.02589  -0.01294  -0.01065  -0.00111  -0.00072
 Alpha virt. eigenvalues --    0.00002   0.00375   0.00883   0.00936   0.00945

  Beta  occ. eigenvalues --  -38.43648 -38.43436 -38.43427 -38.43408 -38.43407
  Beta  occ. eigenvalues --  -38.43347 -38.43173  -2.19502  -2.19347  -2.19332
  Beta  occ. eigenvalues --   -2.19318  -2.19263  -2.19216  -2.19117  -1.13192
  Beta  occ. eigenvalues --   -1.13155  -1.13145  -1.13138  -1.13087  -1.13033
  Beta  occ. eigenvalues --   -1.12995  -1.12987  -1.12975  -1.12969  -1.12948
  Beta  occ. eigenvalues --   -1.12925  -1.12922  -1.12903  -1.12899  -1.12889
  Beta  occ. eigenvalues --   -1.12875  -1.12865  -1.12821  -1.12771  -1.12752
  Beta  occ. eigenvalues --   -0.18435  -0.12798  -0.12478
  Beta virt. eigenvalues --   -0.07000  -0.05211  -0.04910  -0.04848  -0.02355
  Beta virt. eigenvalues --   -0.02232  -0.01523  -0.01222  -0.00992  -0.00169
  Beta virt. eigenvalues --   -0.00121   0.00124   0.00386   0.00914   0.00928

 Mulliken charges and spin densities:
               1          2
     1  Na   0.313881  -0.038140
     2  Na  -0.540022   0.754942
     3  Na   0.059538  -0.047439
     4  Na   0.183936  -0.111833
     5  Na   0.178861  -0.093956
     6  Na  -0.361290   0.571781
     7  Na   0.165095  -0.035355
 Sum of Mulliken charges =  -0.00000   1.00000

 Dipole moment (field-independent basis, Debye):
    X=              0.1534    Y=              0.0258    Z=              0.1066  Tot=              0.1886
 Quadrupole moment (field-independent basis, Debye-Ang):
   XX=            -59.0780   YY=            -61.7798   ZZ=            -73.2584
   XY=              1.0712   XZ=             -0.8031   YZ=             -0.6888

 Normal termination of Gaussian 16 at Fri Dec  8 07:23:36 2023.
