 Gaussian 16, Revision B.01,
 Gaussian 16:  ES64L-G16RevB.01 20-Dec-2017

 -------------------------
 #P B3LYP/6-311+g(d) force
 -------------------------

 -----
 DPGEN
 -----
 Symbolic Z-matrix:
 Charge =  0 Multiplicity = 2

                         Standard orientation:
 ---------------------------------------------------------------------
 Center     Atomic      Atomic             Coordinates (Angstroms)
 Number     Number       Type             X           Y           Z
 ---------------------------------------------------------------------
      1         11           0       -0.444583   -0.018118    1.667632
      2         11           0        3.612235   -0.468024    0.973769
      3         11           0        2.324171    1.869055   -0.552860
      4         11           0       -1.497000    2.144809   -1.043959
      5         11           0       -3.386432    0.375697    0.782847
      6         11           0        1.419385   -1.767731   -1.191850
      7         11           0       -2.027776   -2.135688   -0.635578
 ---------------------------------------------------------------------

 SCF Done:  E(UB3LYP) =  -1136.12064011     A.U. after   25 cycles

 The electronic state is 2-A.
 Alpha  occ. eigenvalues --  -38.44869 -38.44757 -38.44543 -38.44219 -38.43506
 Alpha  occ. eigenvalues --  -38.43409 -38.43311  -2.20748  -2.20617  -2.20470
 Alpha  occ. eigenvalues --   -2.20051  -2.19348  -2.19261  -2.19149  -1.14448
 Alpha  occ. eigenvalues --   -1.14423  -1.14377  -1.14309  -1.14263  -1.14249
 Alpha  occ. eigenvalues --   -1.14133  -1.14116  -1.14099  -1.13722  -1.13710
 Alpha  occ. eigenvalues --   -1.13691  -1.13028  -1.13015  -1.12980  -1.12927
 Alpha  occ. eigenvalues --   -1.12918  -1.12907  -1.12814  -1.12798  -1.12796
 Alpha  occ. eigenvalues --   -0.18239  -0.14703  -0.11516  -0.10447
 Alpha virt. eigenvalues --   -0.06815  -0.05781  -0.04855  -0.03434  -0.02659
 Alpha virt. eigenvalues --   -0.02582  -0.01841  -0.01151  -0.00762  -0.00409
 Alpha virt. eigenvalues --    0.00135   0.00159   0.00309   0.00463   0.00673

  Beta  occ. eigenvalues --  -38.44827 -38.44727 -38.44523 -38.44208 -38.43473
  Beta  occ. eigenvalues --  -38.43400 -38.43283  -2.20672  -2.20562  -2.20436
  Beta  occ. eigenvalues --   -2.20034  -2.19289  -2.19249  -2.19096  -1.14393
  Beta  occ. eigenvalues --   -1.14352  -1.14333  -1.14275  -1.14222  -1.14209
  Beta  occ. eigenvalues --   -1.14106  -1.14089  -1.14072  -1.13704  -1.13698
  Beta  occ. eigenvalues --   -1.13663  -1.12990  -1.12963  -1.12941  -1.12922
  Beta  occ. eigenvalues --   -1.12907  -1.12873  -1.12781  -1.12762  -1.12749
  Beta  occ. eigenvalues --   -0.17686  -0.14467  -0.11116
  Beta virt. eigenvalues --   -0.06958  -0.06594  -0.05825  -0.04066  -0.03187
  Beta virt. eigenvalues --   -0.02429  -0.02060  -0.01184  -0.01096  -0.00521
  Beta virt. eigenvalues --   -0.00194   0.00138   0.00216   0.00468   0.00613

 Mulliken charges and spin densities:
               1          2
     1  Na  -1.341016   0.107781
     2  Na   1.066273   0.239289
     3  Na  -0.224607   0.112893
     4  Na  -0.533805   0.216882
     5  Na   1.597417   0.020952
     6  Na  -0.405394   0.169238
     7  Na  -0.158869   0.132965
 Sum of Mulliken charges =  -0.00000   1.00000

 Dipole moment (field-independent basis, Debye):
    X=              0.2816    Y=             -0.0502    Z=              0.2930  Tot=              0.4094
 Quadrupole moment (field-independent basis, Debye-Ang):
   XX=            -48.5424   YY=            -76.4842   ZZ=            -71.7111
   XY=             -0.1391   XZ=              1.3101   YZ=             -0.8710

 Normal termination of Gaussian 16 at Tue Dec  5 11:56:24 2023.
