 Gaussian 16, Revision B.01,
 Gaussian 16:  ES64L-G16RevB.01 20-Dec-2017

 -------------------------
 #P B3LYP/6-311+g(d) force
 -------------------------

 -----
 DPGEN
 -----
 Symbolic Z-matrix:
 Charge =  0 Multiplicity = 2

                         Standard orientation:
 ---------------------------------------------------------------------
 Center     Atomic      Atomic             Coordinates (Angstroms)
 Number     Number       Type             X           Y           Z
 ---------------------------------------------------------------------
      1         11           0        3.120841    0.664766   -0.128104
      2         11           0       -0.351891   -0.214102    2.023003
      3         11           0       -1.728748   -2.134039   -0.386364
      4         11           0       -3.222205    0.885144   -0.204401
      5         11           0        0.246215    3.026808    0.117823
      6         11           0        1.624886   -2.313153    0.150838
      7         11           0        0.310902    0.084575   -1.572794
 ---------------------------------------------------------------------

 SCF Done:  E(UB3LYP) =  -1136.13616087     A.U. after   20 cycles

 The electronic state is 2-A.
 Alpha  occ. eigenvalues --  -38.44360 -38.44144 -38.43565 -38.43464 -38.43279
 Alpha  occ. eigenvalues --  -38.43157 -38.43137  -2.20154  -2.19989  -2.19370
 Alpha  occ. eigenvalues --   -2.19364  -2.19192  -2.19143  -2.19068  -1.13825
 Alpha  occ. eigenvalues --   -1.13818  -1.13793  -1.13685  -1.13647  -1.13617
 Alpha  occ. eigenvalues --   -1.13059  -1.13052  -1.13040  -1.12998  -1.12994
 Alpha  occ. eigenvalues --   -1.12981  -1.12928  -1.12851  -1.12840  -1.12820
 Alpha  occ. eigenvalues --   -1.12786  -1.12757  -1.12727  -1.12702  -1.12693
 Alpha  occ. eigenvalues --   -0.18767  -0.13153  -0.12352  -0.10675
 Alpha virt. eigenvalues --   -0.05989  -0.04890  -0.04702  -0.03181  -0.02803
 Alpha virt. eigenvalues --   -0.02456  -0.01720  -0.01050  -0.00495  -0.00215
 Alpha virt. eigenvalues --   -0.00005   0.00341   0.00803   0.00852   0.00914

  Beta  occ. eigenvalues --  -38.44358 -38.44141 -38.43563 -38.43368 -38.43265
  Beta  occ. eigenvalues --  -38.43149 -38.43078  -2.20152  -2.19985  -2.19366
  Beta  occ. eigenvalues --   -2.19190  -2.19172  -2.19058  -2.19037  -1.13820
  Beta  occ. eigenvalues --   -1.13806  -1.13792  -1.13677  -1.13634  -1.13616
  Beta  occ. eigenvalues --   -1.13053  -1.13024  -1.12995  -1.12953  -1.12892
  Beta  occ. eigenvalues --   -1.12875  -1.12856  -1.12817  -1.12796  -1.12788
  Beta  occ. eigenvalues --   -1.12722  -1.12699  -1.12686  -1.12682  -1.12650
  Beta  occ. eigenvalues --   -0.18034  -0.12916  -0.12122
  Beta virt. eigenvalues --   -0.06741  -0.05951  -0.04890  -0.04646  -0.02425
  Beta virt. eigenvalues --   -0.02040  -0.01640  -0.01396  -0.00977  -0.00528
  Beta virt. eigenvalues --   -0.00253   0.00140   0.00374   0.00840   0.00867

 Mulliken charges and spin densities:
               1          2
     1  Na   0.189673  -0.043944
     2  Na  -0.550320   0.752414
     3  Na   0.316654   0.048915
     4  Na  -0.023466  -0.086900
     5  Na  -0.080999  -0.115684
     6  Na   0.398960   0.060075
     7  Na  -0.250502   0.385123
 Sum of Mulliken charges =  -0.00000   1.00000

 Dipole moment (field-independent basis, Debye):
    X=             -0.0838    Y=              0.3087    Z=              0.1494  Tot=              0.3530
 Quadrupole moment (field-independent basis, Debye-Ang):
   XX=            -54.4637   YY=            -63.6012   ZZ=            -74.7495
   XY=             -0.8317   XZ=              1.2370   YZ=              0.5869

 Normal termination of Gaussian 16 at Fri Dec  8 06:51:43 2023.
