 Gaussian 16, Revision B.01,
 Gaussian 16:  ES64L-G16RevB.01 20-Dec-2017

 -------------------------
 #P B3LYP/6-311+g(d) force
 -------------------------

 -----
 DPGEN
 -----
 Symbolic Z-matrix:
 Charge =  0 Multiplicity = 2

                         Standard orientation:
 ---------------------------------------------------------------------
 Center     Atomic      Atomic             Coordinates (Angstroms)
 Number     Number       Type             X           Y           Z
 ---------------------------------------------------------------------
      1         11           0       -2.397612   -1.976410    0.160483
      2         11           0        3.238413    0.558655   -0.059766
      3         11           0        0.604914    2.868931    0.065706
      4         11           0        1.257574   -2.716033   -0.360271
      5         11           0        0.143491   -0.232200    2.095617
      6         11           0        0.155112   -0.107807   -1.589472
      7         11           0       -3.001891    1.604864   -0.312299
 ---------------------------------------------------------------------

 SCF Done:  E(UB3LYP) =  -1136.13672800     A.U. after   19 cycles

 The electronic state is 2-A.
 Alpha  occ. eigenvalues --  -38.44246 -38.43992 -38.43982 -38.43623 -38.43510
 Alpha  occ. eigenvalues --  -38.43493 -38.43229  -2.20057  -2.19790  -2.19764
 Alpha  occ. eigenvalues --   -2.19489  -2.19366  -2.19319  -2.19193  -1.13733
 Alpha  occ. eigenvalues --   -1.13714  -1.13699  -1.13469  -1.13463  -1.13441
 Alpha  occ. eigenvalues --   -1.13431  -1.13411  -1.13401  -1.13158  -1.13123
 Alpha  occ. eigenvalues --   -1.13114  -1.13103  -1.13016  -1.13011  -1.12990
 Alpha  occ. eigenvalues --   -1.12979  -1.12941  -1.12869  -1.12817  -1.12801
 Alpha  occ. eigenvalues --   -0.18287  -0.12833  -0.12383  -0.10588
 Alpha virt. eigenvalues --   -0.05750  -0.05445  -0.04752  -0.03065  -0.02811
 Alpha virt. eigenvalues --   -0.02524  -0.01682  -0.01270  -0.00580  -0.00498
 Alpha virt. eigenvalues --   -0.00028   0.00332   0.00760   0.00824   0.00853

  Beta  occ. eigenvalues --  -38.44243 -38.43990 -38.43978 -38.43523 -38.43499
  Beta  occ. eigenvalues --  -38.43490 -38.43171  -2.20056  -2.19786  -2.19761
  Beta  occ. eigenvalues --   -2.19349  -2.19315  -2.19305  -2.19087  -1.13722
  Beta  occ. eigenvalues --   -1.13709  -1.13695  -1.13462  -1.13444  -1.13433
  Beta  occ. eigenvalues --   -1.13427  -1.13410  -1.13401  -1.13095  -1.13036
  Beta  occ. eigenvalues --   -1.13007  -1.13001  -1.12980  -1.12976  -1.12968
  Beta  occ. eigenvalues --   -1.12959  -1.12940  -1.12796  -1.12745  -1.12723
  Beta  occ. eigenvalues --   -0.17574  -0.12637  -0.12142
  Beta virt. eigenvalues --   -0.06683  -0.05714  -0.05420  -0.04690  -0.02322
  Beta virt. eigenvalues --   -0.02085  -0.01603  -0.01452  -0.01197  -0.00621
  Beta virt. eigenvalues --   -0.00539   0.00125   0.00366   0.00815   0.00832

 Mulliken charges and spin densities:
               1          2
     1  Na   0.116305  -0.022319
     2  Na   0.190820  -0.059633
     3  Na  -0.012198  -0.048280
     4  Na   0.254958  -0.059806
     5  Na  -0.364005   0.755769
     6  Na  -0.117020   0.484346
     7  Na  -0.068860  -0.050077
 Sum of Mulliken charges =  -0.00000   1.00000

 Dipole moment (field-independent basis, Debye):
    X=              0.1291    Y=             -0.0694    Z=              0.1325  Tot=              0.1976
 Quadrupole moment (field-independent basis, Debye-Ang):
   XX=            -54.9573   YY=            -62.2307   ZZ=            -75.5594
   XY=              0.2682   XZ=              0.1046   YZ=              0.0913

 Normal termination of Gaussian 16 at Thu Dec  7 08:51:26 2023.
