 Gaussian 16, Revision B.01,
 Gaussian 16:  ES64L-G16RevB.01 20-Dec-2017

 -------------------------
 #P B3LYP/6-311+g(d) force
 -------------------------

 -----
 DPGEN
 -----
 Symbolic Z-matrix:
 Charge =  0 Multiplicity = 2

                         Standard orientation:
 ---------------------------------------------------------------------
 Center     Atomic      Atomic             Coordinates (Angstroms)
 Number     Number       Type             X           Y           Z
 ---------------------------------------------------------------------
      1         11           0        0.770641    2.965820    0.442977
      2         11           0       -0.105792   -0.360240    1.945083
      3         11           0        0.524418    0.273466   -1.716799
      4         11           0       -2.800241    1.541948   -0.266398
      5         11           0       -2.791682   -1.761732   -0.273161
      6         11           0        0.926596   -2.422579    0.112194
      7         11           0        3.476059   -0.236682   -0.243897
 ---------------------------------------------------------------------

 SCF Done:  E(UB3LYP) =  -1136.13096294     A.U. after   19 cycles

 The electronic state is 2-A.
 Alpha  occ. eigenvalues --  -38.44759 -38.44141 -38.43843 -38.43722 -38.43574
 Alpha  occ. eigenvalues --  -38.43336 -38.43193  -2.20571  -2.19943  -2.19655
 Alpha  occ. eigenvalues --   -2.19635  -2.19497  -2.19135  -2.19123  -1.14245
 Alpha  occ. eigenvalues --   -1.14222  -1.14211  -1.13621  -1.13618  -1.13577
 Alpha  occ. eigenvalues --   -1.13338  -1.13325  -1.13313  -1.13294  -1.13280
 Alpha  occ. eigenvalues --   -1.13256  -1.13252  -1.13120  -1.13090  -1.12806
 Alpha  occ. eigenvalues --   -1.12804  -1.12800  -1.12785  -1.12768  -1.12709
 Alpha  occ. eigenvalues --   -0.18362  -0.13255  -0.12087  -0.10655
 Alpha virt. eigenvalues --   -0.06221  -0.05193  -0.04436  -0.03244  -0.02889
 Alpha virt. eigenvalues --   -0.02391  -0.02046  -0.01119  -0.00519  -0.00263
 Alpha virt. eigenvalues --   -0.00058   0.00293   0.00729   0.00803   0.00834

  Beta  occ. eigenvalues --  -38.44751 -38.44135 -38.43837 -38.43670 -38.43480
  Beta  occ. eigenvalues --  -38.43325 -38.43179  -2.20559  -2.19934  -2.19647
  Beta  occ. eigenvalues --   -2.19540  -2.19324  -2.19116  -2.19104  -1.14224
  Beta  occ. eigenvalues --   -1.14216  -1.14200  -1.13615  -1.13602  -1.13567
  Beta  occ. eigenvalues --   -1.13319  -1.13303  -1.13282  -1.13273  -1.13212
  Beta  occ. eigenvalues --   -1.13179  -1.13149  -1.12998  -1.12970  -1.12790
  Beta  occ. eigenvalues --   -1.12786  -1.12774  -1.12758  -1.12732  -1.12694
  Beta  occ. eigenvalues --   -0.17669  -0.12967  -0.11851
  Beta virt. eigenvalues --   -0.06874  -0.06065  -0.05186  -0.04352  -0.02563
  Beta virt. eigenvalues --   -0.02144  -0.01916  -0.01425  -0.01068  -0.00528
  Beta virt. eigenvalues --   -0.00276   0.00093   0.00346   0.00797   0.00827

 Mulliken charges and spin densities:
               1          2
     1  Na  -0.156078  -0.058621
     2  Na  -0.188288   0.621099
     3  Na  -0.207638   0.562099
     4  Na   0.012382  -0.017905
     5  Na  -0.061830  -0.032637
     6  Na   0.319076  -0.036804
     7  Na   0.282375  -0.037231
 Sum of Mulliken charges =  -0.00000   1.00000

 Dipole moment (field-independent basis, Debye):
    X=              0.3700    Y=              0.0805    Z=             -0.0374  Tot=              0.3805
 Quadrupole moment (field-independent basis, Debye-Ang):
   XX=            -52.9676   YY=            -66.2334   ZZ=            -74.2543
   XY=              0.4427   XZ=              1.2048   YZ=              1.5108

 Normal termination of Gaussian 16 at Fri Dec  8 05:56:32 2023.
