 Gaussian 16, Revision B.01,
 Gaussian 16:  ES64L-G16RevB.01 20-Dec-2017

 -------------------------
 #P B3LYP/6-311+g(d) force
 -------------------------

 -----
 DPGEN
 -----
 Symbolic Z-matrix:
 Charge =  0 Multiplicity = 2

                         Standard orientation:
 ---------------------------------------------------------------------
 Center     Atomic      Atomic             Coordinates (Angstroms)
 Number     Number       Type             X           Y           Z
 ---------------------------------------------------------------------
      1         11           0        2.032799    1.585560   -0.187666
      2         11           0       -0.778270    0.323717    1.618489
      3         11           0       -2.248124   -2.304761   -0.157196
      4         11           0        2.421604   -1.357073    0.757176
      5         11           0        4.932322   -0.565057   -0.968039
      6         11           0       -4.594192   -0.712147   -0.831605
      7         11           0       -1.766139    3.029761   -0.231159
 ---------------------------------------------------------------------

 SCF Done:  E(UB3LYP) =  -1136.11827015     A.U. after   19 cycles

 The electronic state is 2-A.
 Alpha  occ. eigenvalues --  -38.44869 -38.44301 -38.44096 -38.43961 -38.43810
 Alpha  occ. eigenvalues --  -38.43675 -38.43625  -2.20699  -2.20193  -2.19930
 Alpha  occ. eigenvalues --   -2.19790  -2.19594  -2.19544  -2.19472  -1.14443
 Alpha  occ. eigenvalues --   -1.14402  -1.14267  -1.13882  -1.13862  -1.13834
 Alpha  occ. eigenvalues --   -1.13582  -1.13577  -1.13551  -1.13540  -1.13430
 Alpha  occ. eigenvalues --   -1.13412  -1.13272  -1.13254  -1.13232  -1.13215
 Alpha  occ. eigenvalues --   -1.13202  -1.13159  -1.13123  -1.13112  -1.13088
 Alpha  occ. eigenvalues --   -0.17128  -0.14292  -0.11753  -0.10881
 Alpha virt. eigenvalues --   -0.06118  -0.05333  -0.04935  -0.03661  -0.02636
 Alpha virt. eigenvalues --   -0.02364  -0.02263  -0.01463  -0.00760  -0.00577
 Alpha virt. eigenvalues --   -0.00278   0.00100   0.00212   0.00423   0.00567

  Beta  occ. eigenvalues --  -38.44869 -38.44275 -38.44059 -38.43930 -38.43769
  Beta  occ. eigenvalues --  -38.43638 -38.43622  -2.20700  -2.20151  -2.19860
  Beta  occ. eigenvalues --   -2.19731  -2.19515  -2.19480  -2.19469  -1.14431
  Beta  occ. eigenvalues --   -1.14404  -1.14267  -1.13861  -1.13838  -1.13764
  Beta  occ. eigenvalues --   -1.13533  -1.13529  -1.13518  -1.13494  -1.13389
  Beta  occ. eigenvalues --   -1.13369  -1.13219  -1.13203  -1.13188  -1.13165
  Beta  occ. eigenvalues --   -1.13153  -1.13125  -1.13114  -1.13085  -1.13057
  Beta  occ. eigenvalues --   -0.16460  -0.13960  -0.11530
  Beta virt. eigenvalues --   -0.07401  -0.05866  -0.04740  -0.04551  -0.03493
  Beta virt. eigenvalues --   -0.02371  -0.02222  -0.01635  -0.01358  -0.00549
  Beta virt. eigenvalues --   -0.00268  -0.00159   0.00278   0.00338   0.00495

 Mulliken charges and spin densities:
               1          2
     1  Na  -0.397161   0.084701
     2  Na  -0.037398   0.081242
     3  Na   0.033726   0.065094
     4  Na  -0.228932   0.088501
     5  Na   0.619382   0.192167
     6  Na   0.051287   0.178289
     7  Na  -0.040904   0.310007
 Sum of Mulliken charges =  -0.00000   1.00000

 Dipole moment (field-independent basis, Debye):
    X=              1.0407    Y=              0.1806    Z=             -0.3228  Tot=              1.1045
 Quadrupole moment (field-independent basis, Debye-Ang):
   XX=            -59.3018   YY=            -69.4052   ZZ=            -69.5639
   XY=             -5.6720   XZ=             -1.2665   YZ=             -2.3399

 Normal termination of Gaussian 16 at Tue Nov 28 22:49:53 2023.
