 Gaussian 16, Revision B.01,
 Gaussian 16:  ES64L-G16RevB.01 20-Dec-2017

 -------------------------
 #P B3LYP/6-311+g(d) force
 -------------------------

 -----
 DPGEN
 -----
 Symbolic Z-matrix:
 Charge =  0 Multiplicity = 2

                         Standard orientation:
 ---------------------------------------------------------------------
 Center     Atomic      Atomic             Coordinates (Angstroms)
 Number     Number       Type             X           Y           Z
 ---------------------------------------------------------------------
      1         11           0       -0.402800   -0.445013    1.841461
      2         11           0        1.436984    2.114047    0.766074
      3         11           0        0.733918   -2.365066   -0.683389
      4         11           0        3.203339   -0.378618    0.071095
      5         11           0        0.307693    0.563305   -1.745650
      6         11           0       -2.374992    1.971455   -0.515940
      7         11           0       -2.904143   -1.460110    0.266349
 ---------------------------------------------------------------------

 SCF Done:  E(UB3LYP) =  -1136.13106206     A.U. after   19 cycles

 The electronic state is 2-A.
 Alpha  occ. eigenvalues --  -38.44370 -38.44114 -38.43723 -38.43694 -38.43484
 Alpha  occ. eigenvalues --  -38.43230 -38.42975  -2.20249  -2.19946  -2.19638
 Alpha  occ. eigenvalues --   -2.19550  -2.19471  -2.19152  -2.18883  -1.13931
 Alpha  occ. eigenvalues --   -1.13907  -1.13899  -1.13669  -1.13592  -1.13576
 Alpha  occ. eigenvalues --   -1.13314  -1.13274  -1.13262  -1.13254  -1.13197
 Alpha  occ. eigenvalues --   -1.13185  -1.13158  -1.13140  -1.13067  -1.12827
 Alpha  occ. eigenvalues --   -1.12807  -1.12764  -1.12582  -1.12543  -1.12486
 Alpha  occ. eigenvalues --   -0.18991  -0.13520  -0.11983  -0.11238
 Alpha virt. eigenvalues --   -0.06021  -0.05137  -0.03859  -0.03542  -0.02963
 Alpha virt. eigenvalues --   -0.02643  -0.01834  -0.01029  -0.00163   0.00027
 Alpha virt. eigenvalues --    0.00069   0.00331   0.00751   0.00854   0.00908

  Beta  occ. eigenvalues --  -38.44367 -38.44109 -38.43711 -38.43623 -38.43414
  Beta  occ. eigenvalues --  -38.43205 -38.42954  -2.20247  -2.19941  -2.19530
  Beta  occ. eigenvalues --   -2.19507  -2.19342  -2.19109  -2.18849  -1.13931
  Beta  occ. eigenvalues --   -1.13906  -1.13876  -1.13650  -1.13581  -1.13577
  Beta  occ. eigenvalues --   -1.13234  -1.13224  -1.13182  -1.13173  -1.13173
  Beta  occ. eigenvalues --   -1.13163  -1.13077  -1.13051  -1.12977  -1.12797
  Beta  occ. eigenvalues --   -1.12766  -1.12722  -1.12555  -1.12507  -1.12457
  Beta  occ. eigenvalues --   -0.18264  -0.13261  -0.11698
  Beta virt. eigenvalues --   -0.07306  -0.05924  -0.05090  -0.03769  -0.02837
  Beta virt. eigenvalues --   -0.02246  -0.01768  -0.01585  -0.00954  -0.00042
  Beta virt. eigenvalues --    0.00008   0.00108   0.00362   0.00835   0.00887

 Mulliken charges and spin densities:
               1          2
     1  Na  -0.337421   0.464033
     2  Na   0.269611   0.176977
     3  Na   0.167872   0.053197
     4  Na   0.065725  -0.081899
     5  Na  -0.275318   0.470379
     6  Na  -0.005582  -0.042721
     7  Na   0.115111  -0.039966
 Sum of Mulliken charges =  -0.00000   1.00000

 Dipole moment (field-independent basis, Debye):
    X=             -0.0912    Y=             -0.0649    Z=              0.0772  Tot=              0.1360
 Quadrupole moment (field-independent basis, Debye-Ang):
   XX=            -52.6215   YY=            -69.4512   ZZ=            -72.0222
   XY=             -0.1389   XZ=              1.2664   YZ=              1.3705

 Normal termination of Gaussian 16 at Fri Dec  8 07:28:50 2023.
