 Gaussian 16, Revision B.01,
 Gaussian 16:  ES64L-G16RevB.01 20-Dec-2017

 -------------------------
 #P B3LYP/6-311+g(d) force
 -------------------------

 -----
 DPGEN
 -----
 Symbolic Z-matrix:
 Charge =  0 Multiplicity = 2

                         Standard orientation:
 ---------------------------------------------------------------------
 Center     Atomic      Atomic             Coordinates (Angstroms)
 Number     Number       Type             X           Y           Z
 ---------------------------------------------------------------------
      1         11           0       -1.668372   -2.770347   -0.843669
      2         11           0        1.465056   -1.412465   -1.503026
      3         11           0        4.181029    0.398522    0.402586
      4         11           0        0.531088   -0.716591    2.021993
      5         11           0        0.674692    1.727193   -0.335441
      6         11           0       -1.962551    3.123255   -0.720544
      7         11           0       -3.220942   -0.349567    0.978100
 ---------------------------------------------------------------------

 SCF Done:  E(UB3LYP) =  -1136.12018762     A.U. after   21 cycles

 The electronic state is 2-A.
 Alpha  occ. eigenvalues --  -38.45615 -38.45066 -38.44869 -38.43956 -38.43586
 Alpha  occ. eigenvalues --  -38.43184 -38.42912  -2.21364  -2.20875  -2.20639
 Alpha  occ. eigenvalues --   -2.19808  -2.19390  -2.19083  -2.18730  -1.15039
 Alpha  occ. eigenvalues --   -1.15032  -1.14978  -1.14575  -1.14528  -1.14456
 Alpha  occ. eigenvalues --   -1.14323  -1.14293  -1.14264  -1.13501  -1.13468
 Alpha  occ. eigenvalues --   -1.13404  -1.13064  -1.13050  -1.13031  -1.12787
 Alpha  occ. eigenvalues --   -1.12769  -1.12747  -1.12384  -1.12375  -1.12353
 Alpha  occ. eigenvalues --   -0.17557  -0.13204  -0.12030  -0.10726
 Alpha virt. eigenvalues --   -0.07095  -0.05068  -0.04873  -0.03258  -0.02825
 Alpha virt. eigenvalues --   -0.02725  -0.02190  -0.01193  -0.00869  -0.00284
 Alpha virt. eigenvalues --   -0.00058   0.00079   0.00183   0.00571   0.00755

  Beta  occ. eigenvalues --  -38.45608 -38.44996 -38.44854 -38.43894 -38.43574
  Beta  occ. eigenvalues --  -38.43169 -38.42904  -2.21352  -2.20746  -2.20610
  Beta  occ. eigenvalues --   -2.19696  -2.19371  -2.19060  -2.18716  -1.15032
  Beta  occ. eigenvalues --   -1.15015  -1.14971  -1.14489  -1.14436  -1.14360
  Beta  occ. eigenvalues --   -1.14299  -1.14270  -1.14248  -1.13425  -1.13390
  Beta  occ. eigenvalues --   -1.13315  -1.13055  -1.13030  -1.13003  -1.12766
  Beta  occ. eigenvalues --   -1.12738  -1.12729  -1.12371  -1.12365  -1.12344
  Beta  occ. eigenvalues --   -0.16914  -0.13082  -0.11650
  Beta virt. eigenvalues --   -0.07210  -0.06789  -0.04791  -0.04590  -0.02873
  Beta virt. eigenvalues --   -0.02515  -0.02236  -0.01515  -0.01134  -0.00585
  Beta virt. eigenvalues --   -0.00262   0.00074   0.00125   0.00357   0.00683

 Mulliken charges and spin densities:
               1          2
     1  Na  -0.021671  -0.019215
     2  Na  -0.007009   0.225578
     3  Na   0.967214   0.123587
     4  Na  -0.092902   0.325426
     5  Na  -1.633559   0.386073
     6  Na   0.766280  -0.223248
     7  Na   0.021647   0.181799
 Sum of Mulliken charges =  -0.00000   1.00000

 Dipole moment (field-independent basis, Debye):
    X=              1.1733    Y=             -0.5652    Z=              0.5582  Tot=              1.4169
 Quadrupole moment (field-independent basis, Debye-Ang):
   XX=            -45.9586   YY=            -74.2687   ZZ=            -72.6964
   XY=              1.7453   XZ=              0.3483   YZ=              0.5343

 Normal termination of Gaussian 16 at Sun Dec  3 21:39:22 2023.
