 Gaussian 16, Revision B.01,
 Gaussian 16:  ES64L-G16RevB.01 20-Dec-2017

 -------------------------
 #P B3LYP/6-311+g(d) force
 -------------------------

 -----
 DPGEN
 -----
 Symbolic Z-matrix:
 Charge =  0 Multiplicity = 2

                         Standard orientation:
 ---------------------------------------------------------------------
 Center     Atomic      Atomic             Coordinates (Angstroms)
 Number     Number       Type             X           Y           Z
 ---------------------------------------------------------------------
      1         11           0        0.101057   -0.951195    2.038520
      2         11           0       -0.028366   -1.492837   -1.654424
      3         11           0       -4.003456   -1.226859    0.062316
      4         11           0       -2.876581    1.772568    0.151359
      5         11           0        0.451642    2.603741   -0.741239
      6         11           0        3.579633    1.273538    0.458514
      7         11           0        2.776072   -1.978955   -0.315047
 ---------------------------------------------------------------------

 SCF Done:  E(UB3LYP) =  -1136.11163586     A.U. after   26 cycles

 The electronic state is 2-A.
 Alpha  occ. eigenvalues --  -38.45853 -38.45294 -38.44646 -38.44354 -38.44286
 Alpha  occ. eigenvalues --  -38.43638 -38.42902  -2.21600  -2.21065  -2.20427
 Alpha  occ. eigenvalues --   -2.20156  -2.20130  -2.19488  -2.18689  -1.15282
 Alpha  occ. eigenvalues --   -1.15254  -1.15214  -1.14746  -1.14725  -1.14697
 Alpha  occ. eigenvalues --   -1.14108  -1.14074  -1.14067  -1.13835  -1.13829
 Alpha  occ. eigenvalues --   -1.13817  -1.13801  -1.13785  -1.13770  -1.13145
 Alpha  occ. eigenvalues --   -1.13121  -1.13109  -1.12369  -1.12357  -1.12323
 Alpha  occ. eigenvalues --   -0.17220  -0.13861  -0.11628  -0.10371
 Alpha virt. eigenvalues --   -0.07675  -0.06030  -0.03824  -0.03515  -0.03197
 Alpha virt. eigenvalues --   -0.02664  -0.02364  -0.01775  -0.00956  -0.00475
 Alpha virt. eigenvalues --   -0.00074  -0.00030   0.00249   0.00370   0.00607

  Beta  occ. eigenvalues --  -38.45810 -38.45286 -38.44626 -38.44350 -38.44278
  Beta  occ. eigenvalues --  -38.43557 -38.42885  -2.21520  -2.21051  -2.20390
  Beta  occ. eigenvalues --   -2.20152  -2.20122  -2.19338  -2.18659  -1.15225
  Beta  occ. eigenvalues --   -1.15198  -1.15155  -1.14739  -1.14708  -1.14688
  Beta  occ. eigenvalues --   -1.14084  -1.14045  -1.14039  -1.13835  -1.13816
  Beta  occ. eigenvalues --   -1.13805  -1.13786  -1.13781  -1.13742  -1.13048
  Beta  occ. eigenvalues --   -1.13011  -1.13004  -1.12350  -1.12332  -1.12298
  Beta  occ. eigenvalues --   -0.16635  -0.13623  -0.11342
  Beta virt. eigenvalues --   -0.07389  -0.06773  -0.05993  -0.03552  -0.03042
  Beta virt. eigenvalues --   -0.02871  -0.02194  -0.01833  -0.01547  -0.00921
  Beta virt. eigenvalues --   -0.00201  -0.00040   0.00045   0.00453   0.00521

 Mulliken charges and spin densities:
               1          2
     1  Na  -0.127824   0.287779
     2  Na  -0.465488   0.454235
     3  Na   0.243882   0.068060
     4  Na  -0.129624   0.030057
     5  Na  -0.009507  -0.006953
     6  Na  -0.073286   0.158311
     7  Na   0.561846   0.008509
 Sum of Mulliken charges =  -0.00000   1.00000

 Dipole moment (field-independent basis, Debye):
    X=             -0.5056    Y=             -0.9579    Z=              0.4705  Tot=              1.1809
 Quadrupole moment (field-independent basis, Debye-Ang):
   XX=            -49.9570   YY=            -74.3846   ZZ=            -73.3470
   XY=              0.2807   XZ=              0.3014   YZ=              0.8052

 Normal termination of Gaussian 16 at Fri Dec  8 18:42:18 2023.
