 Gaussian 16, Revision B.01,
 Gaussian 16:  ES64L-G16RevB.01 20-Dec-2017

 -------------------------
 #P B3LYP/6-311+g(d) force
 -------------------------

 -----
 DPGEN
 -----
 Symbolic Z-matrix:
 Charge =  0 Multiplicity = 2

                         Standard orientation:
 ---------------------------------------------------------------------
 Center     Atomic      Atomic             Coordinates (Angstroms)
 Number     Number       Type             X           Y           Z
 ---------------------------------------------------------------------
      1         11           0       -0.094130    1.027305    0.941357
      2         11           0        6.433515   -0.023237    1.056875
      3         11           0        4.007336    0.054584   -0.998161
      4         11           0        0.801590   -2.296641   -0.658148
      5         11           0       -3.124137   -0.892381   -0.201773
      6         11           0       -1.710389    2.722164   -0.803434
      7         11           0       -6.313786   -0.591794    0.663283
 ---------------------------------------------------------------------

 SCF Done:  E(UB3LYP) =  -1136.10547134     A.U. after   22 cycles

 The electronic state is 2-A.
 Alpha  occ. eigenvalues --  -38.45736 -38.45363 -38.44677 -38.44576 -38.44341
 Alpha  occ. eigenvalues --  -38.43241 -38.42961  -2.21525  -2.21208  -2.20527
 Alpha  occ. eigenvalues --   -2.20366  -2.20120  -2.19050  -2.18722  -1.15174
 Alpha  occ. eigenvalues --   -1.15141  -1.15138  -1.14930  -1.14834  -1.14813
 Alpha  occ. eigenvalues --   -1.14209  -1.14173  -1.14158  -1.14031  -1.14014
 Alpha  occ. eigenvalues --   -1.14012  -1.13797  -1.13785  -1.13750  -1.12749
 Alpha  occ. eigenvalues --   -1.12728  -1.12664  -1.12391  -1.12389  -1.12361
 Alpha  occ. eigenvalues --   -0.16667  -0.13810  -0.12075  -0.11269
 Alpha virt. eigenvalues --   -0.06522  -0.05925  -0.04717  -0.03524  -0.03093
 Alpha virt. eigenvalues --   -0.02623  -0.01961  -0.01865  -0.01252  -0.00925
 Alpha virt. eigenvalues --   -0.00569  -0.00485  -0.00005   0.00248   0.00499

  Beta  occ. eigenvalues --  -38.45622 -38.45294 -38.44673 -38.44534 -38.44349
  Beta  occ. eigenvalues --  -38.43231 -38.42976  -2.21313  -2.21080  -2.20527
  Beta  occ. eigenvalues --   -2.20287  -2.20139  -2.19031  -2.18751  -1.15030
  Beta  occ. eigenvalues --   -1.14998  -1.14995  -1.14844  -1.14747  -1.14723
  Beta  occ. eigenvalues --   -1.14192  -1.14180  -1.14132  -1.13984  -1.13960
  Beta  occ. eigenvalues --   -1.13958  -1.13812  -1.13799  -1.13737  -1.12736
  Beta  occ. eigenvalues --   -1.12703  -1.12661  -1.12410  -1.12409  -1.12378
  Beta  occ. eigenvalues --   -0.15920  -0.13325  -0.11125
  Beta virt. eigenvalues --   -0.08441  -0.06185  -0.05566  -0.04219  -0.03320
  Beta virt. eigenvalues --   -0.02601  -0.02426  -0.01683  -0.01435  -0.01164
  Beta virt. eigenvalues --   -0.00762  -0.00375  -0.00146   0.00110   0.00340

 Mulliken charges and spin densities:
               1          2
     1  Na  -0.468912   0.033836
     2  Na   0.154956   0.190539
     3  Na  -0.268864  -0.050300
     4  Na   0.444482   0.486445
     5  Na  -0.569532   0.083568
     6  Na   0.545558   0.264866
     7  Na   0.162312  -0.008953
 Sum of Mulliken charges =  -0.00000   1.00000

 Dipole moment (field-independent basis, Debye):
    X=              1.9557    Y=              0.8752    Z=             -0.1857  Tot=              2.1507
 Quadrupole moment (field-independent basis, Debye-Ang):
   XX=            -74.4917   YY=            -67.2387   ZZ=            -65.7648
   XY=             -7.7610   XZ=              5.3481   YZ=             -1.6985

 Normal termination of Gaussian 16 at Wed Nov 29 02:13:06 2023.
