 Gaussian 16, Revision B.01,
 Gaussian 16:  ES64L-G16RevB.01 20-Dec-2017

 -------------------------
 #P B3LYP/6-311+g(d) force
 -------------------------

 -----
 DPGEN
 -----
 Symbolic Z-matrix:
 Charge =  0 Multiplicity = 2

                         Standard orientation:
 ---------------------------------------------------------------------
 Center     Atomic      Atomic             Coordinates (Angstroms)
 Number     Number       Type             X           Y           Z
 ---------------------------------------------------------------------
      1         11           0       -0.246940    0.257984    2.093618
      2         11           0       -2.673710   -1.714919   -0.280679
      3         11           0       -2.221779    2.279280   -0.276562
      4         11           0        0.408761   -2.852648    0.119816
      5         11           0        0.042077    0.261647   -1.393659
      6         11           0        3.051387   -0.852722   -0.288864
      7         11           0        1.640204    2.621378    0.026330
 ---------------------------------------------------------------------

 SCF Done:  E(UB3LYP) =  -1136.13679428     A.U. after   19 cycles

 The electronic state is 2-A.
 Alpha  occ. eigenvalues --  -38.44103 -38.44099 -38.43855 -38.43642 -38.43417
 Alpha  occ. eigenvalues --  -38.43402 -38.42854  -2.19933  -2.19917  -2.19674
 Alpha  occ. eigenvalues --   -2.19473  -2.19295  -2.19271  -2.18875  -1.13637
 Alpha  occ. eigenvalues --   -1.13611  -1.13598  -1.13575  -1.13553  -1.13535
 Alpha  occ. eigenvalues --   -1.13354  -1.13337  -1.13313  -1.13159  -1.13137
 Alpha  occ. eigenvalues --   -1.13112  -1.12970  -1.12946  -1.12935  -1.12915
 Alpha  occ. eigenvalues --   -1.12906  -1.12902  -1.12568  -1.12515  -1.12501
 Alpha  occ. eigenvalues --   -0.18521  -0.12861  -0.12634  -0.10449
 Alpha virt. eigenvalues --   -0.05814  -0.05119  -0.04951  -0.02975  -0.02784
 Alpha virt. eigenvalues --   -0.02362  -0.01483  -0.01459  -0.00554  -0.00428
 Alpha virt. eigenvalues --    0.00001   0.00336   0.00774   0.00858   0.00870

  Beta  occ. eigenvalues --  -38.44098 -38.44091 -38.43851 -38.43638 -38.43398
  Beta  occ. eigenvalues --  -38.43313 -38.42805  -2.19928  -2.19905  -2.19669
  Beta  occ. eigenvalues --   -2.19468  -2.19267  -2.19104  -2.18788  -1.13630
  Beta  occ. eigenvalues --   -1.13596  -1.13573  -1.13554  -1.13551  -1.13530
  Beta  occ. eigenvalues --   -1.13351  -1.13317  -1.13312  -1.13155  -1.13122
  Beta  occ. eigenvalues --   -1.13108  -1.12946  -1.12912  -1.12902  -1.12837
  Beta  occ. eigenvalues --   -1.12782  -1.12769  -1.12497  -1.12453  -1.12435
  Beta  occ. eigenvalues --   -0.17822  -0.12645  -0.12402
  Beta virt. eigenvalues --   -0.06528  -0.05813  -0.05039  -0.04934  -0.02198
  Beta virt. eigenvalues --   -0.02084  -0.01412  -0.01384  -0.01280  -0.00603
  Beta virt. eigenvalues --   -0.00455   0.00157   0.00379   0.00783   0.00877

 Mulliken charges and spin densities:
               1          2
     1  Na  -0.471126   0.750174
     2  Na   0.136070  -0.010655
     3  Na   0.211733  -0.039845
     4  Na   0.207396   0.047897
     5  Na  -0.541162   0.239066
     6  Na   0.180448   0.016230
     7  Na   0.276641  -0.002867
 Sum of Mulliken charges =  -0.00000   1.00000

 Dipole moment (field-independent basis, Debye):
    X=             -0.1386    Y=              0.4009    Z=              0.1348  Tot=              0.4451
 Quadrupole moment (field-independent basis, Debye-Ang):
   XX=            -57.1842   YY=            -58.6704   ZZ=            -76.2885
   XY=              0.2089   XZ=              0.6332   YZ=             -0.0199

 Normal termination of Gaussian 16 at Thu Dec  7 22:57:50 2023.
