 Gaussian 16, Revision B.01,
 Gaussian 16:  ES64L-G16RevB.01 20-Dec-2017

 -------------------------
 #P B3LYP/6-311+g(d) force
 -------------------------

 -----
 DPGEN
 -----
 Symbolic Z-matrix:
 Charge =  0 Multiplicity = 2

                         Standard orientation:
 ---------------------------------------------------------------------
 Center     Atomic      Atomic             Coordinates (Angstroms)
 Number     Number       Type             X           Y           Z
 ---------------------------------------------------------------------
      1         11           0        0.100376    2.917389    0.575888
      2         11           0        5.994841   -0.499343   -0.425179
      3         11           0        2.615874    1.472535   -0.419427
      4         11           0        2.419902   -2.143914    0.685122
      5         11           0       -0.265792   -0.955838    0.086753
      6         11           0       -3.830394   -0.555684   -0.495015
      7         11           0       -7.034806   -0.235145   -0.008141
 ---------------------------------------------------------------------

 SCF Done:  E(UB3LYP) =  -1136.10876073     A.U. after   24 cycles

 The electronic state is 2-A.
 Alpha  occ. eigenvalues --  -38.44940 -38.44669 -38.44617 -38.44486 -38.44405
 Alpha  occ. eigenvalues --  -38.44090 -38.44013  -2.20774  -2.20494  -2.20440
 Alpha  occ. eigenvalues --   -2.20344  -2.20155  -2.19916  -2.19792  -1.14534
 Alpha  occ. eigenvalues --   -1.14432  -1.14372  -1.14153  -1.14141  -1.14095
 Alpha  occ. eigenvalues --   -1.14095  -1.14083  -1.14082  -1.14045  -1.14007
 Alpha  occ. eigenvalues --   -1.13979  -1.13823  -1.13818  -1.13767  -1.13579
 Alpha  occ. eigenvalues --   -1.13562  -1.13524  -1.13466  -1.13464  -1.13430
 Alpha  occ. eigenvalues --   -0.16929  -0.13509  -0.12342  -0.11775
 Alpha virt. eigenvalues --   -0.07152  -0.05275  -0.03856  -0.03822  -0.03589
 Alpha virt. eigenvalues --   -0.02387  -0.02127  -0.01681  -0.01442  -0.00989
 Alpha virt. eigenvalues --   -0.00698  -0.00093   0.00048   0.00283   0.00525

  Beta  occ. eigenvalues --  -38.44893 -38.44647 -38.44550 -38.44444 -38.44369
  Beta  occ. eigenvalues --  -38.44054 -38.44020  -2.20693  -2.20401  -2.20375
  Beta  occ. eigenvalues --   -2.20270  -2.20089  -2.19851  -2.19807  -1.14456
  Beta  occ. eigenvalues --   -1.14383  -1.14304  -1.14074  -1.14068  -1.14068
  Beta  occ. eigenvalues --   -1.14064  -1.14056  -1.13994  -1.13989  -1.13954
  Beta  occ. eigenvalues --   -1.13917  -1.13778  -1.13768  -1.13726  -1.13524
  Beta  occ. eigenvalues --   -1.13517  -1.13486  -1.13477  -1.13473  -1.13430
  Beta  occ. eigenvalues --   -0.16149  -0.13276  -0.11527
  Beta virt. eigenvalues --   -0.08526  -0.06698  -0.05005  -0.03609  -0.03578
  Beta virt. eigenvalues --   -0.02967  -0.02286  -0.01854  -0.01471  -0.01184
  Beta virt. eigenvalues --   -0.00631  -0.00441   0.00045   0.00214   0.00349

 Mulliken charges and spin densities:
               1          2
     1  Na   0.379178  -0.032234
     2  Na   0.144257   0.158901
     3  Na  -0.365983   0.463211
     4  Na   0.261553  -0.023669
     5  Na  -1.625544   0.666231
     6  Na   0.150382  -0.244704
     7  Na   1.056157   0.012263
 Sum of Mulliken charges =  -0.00000   1.00000

 Dipole moment (field-independent basis, Debye):
    X=             -0.1211    Y=              0.3203    Z=              0.3670  Tot=              0.5019
 Quadrupole moment (field-independent basis, Debye-Ang):
   XX=            -52.5946   YY=            -68.7876   ZZ=            -72.4064
   XY=             -3.3873   XZ=             -2.7306   YZ=             -0.1081

 Normal termination of Gaussian 16 at Wed Nov 29 01:35:44 2023.
