 Gaussian 16, Revision B.01,
 Gaussian 16:  ES64L-G16RevB.01 20-Dec-2017

 -------------------------
 #P B3LYP/6-311+g(d) force
 -------------------------

 -----
 DPGEN
 -----
 Symbolic Z-matrix:
 Charge =  0 Multiplicity = 2

                         Standard orientation:
 ---------------------------------------------------------------------
 Center     Atomic      Atomic             Coordinates (Angstroms)
 Number     Number       Type             X           Y           Z
 ---------------------------------------------------------------------
      1         11           0       -1.559770    2.064648    0.349149
      2         11           0        1.870249    2.847076   -0.982695
      3         11           0       -4.175224   -0.619088   -0.703098
      4         11           0       -1.119416   -1.091823   -0.189447
      5         11           0        1.023540    1.049152    2.093098
      6         11           0        2.786230   -1.237174   -1.390751
      7         11           0        1.174391   -3.012791    0.823743
 ---------------------------------------------------------------------

 SCF Done:  E(UB3LYP) =  -1136.12536431     A.U. after   19 cycles

 The electronic state is 2-A.
 Alpha  occ. eigenvalues --  -38.44438 -38.44187 -38.44123 -38.44085 -38.43768
 Alpha  occ. eigenvalues --  -38.43726 -38.43222  -2.20234  -2.20038  -2.19930
 Alpha  occ. eigenvalues --   -2.19901  -2.19616  -2.19539  -2.19158  -1.13908
 Alpha  occ. eigenvalues --   -1.13881  -1.13863  -1.13781  -1.13733  -1.13636
 Alpha  occ. eigenvalues --   -1.13587  -1.13581  -1.13571  -1.13552  -1.13530
 Alpha  occ. eigenvalues --   -1.13510  -1.13323  -1.13254  -1.13251  -1.13228
 Alpha  occ. eigenvalues --   -1.13190  -1.13163  -1.12858  -1.12837  -1.12757
 Alpha  occ. eigenvalues --   -0.17519  -0.13130  -0.12632  -0.10605
 Alpha virt. eigenvalues --   -0.05712  -0.05642  -0.04999  -0.03336  -0.03168
 Alpha virt. eigenvalues --   -0.02027  -0.01799  -0.01292  -0.00796  -0.00414
 Alpha virt. eigenvalues --   -0.00263   0.00228   0.00371   0.00579   0.00766

  Beta  occ. eigenvalues --  -38.44394 -38.44183 -38.44088 -38.44023 -38.43759
  Beta  occ. eigenvalues --  -38.43706 -38.43215  -2.20152  -2.20032  -2.19837
  Beta  occ. eigenvalues --   -2.19817  -2.19602  -2.19502  -2.19149  -1.13852
  Beta  occ. eigenvalues --   -1.13829  -1.13800  -1.13770  -1.13710  -1.13625
  Beta  occ. eigenvalues --   -1.13536  -1.13514  -1.13511  -1.13491  -1.13474
  Beta  occ. eigenvalues --   -1.13443  -1.13312  -1.13246  -1.13229  -1.13205
  Beta  occ. eigenvalues --   -1.13164  -1.13139  -1.12856  -1.12806  -1.12749
  Beta  occ. eigenvalues --   -0.16947  -0.12906  -0.12325
  Beta virt. eigenvalues --   -0.07106  -0.05407  -0.05170  -0.04844  -0.02933
  Beta virt. eigenvalues --   -0.02695  -0.01708  -0.01418  -0.01219  -0.00545
  Beta virt. eigenvalues --   -0.00237  -0.00022   0.00310   0.00565   0.00654

 Mulliken charges and spin densities:
               1          2
     1  Na  -0.051505   0.027173
     2  Na  -0.159953   0.291653
     3  Na  -0.451868   0.137845
     4  Na  -1.944775   0.201959
     5  Na   0.565457   0.158333
     6  Na   0.128996   0.178190
     7  Na   1.913647   0.004847
 Sum of Mulliken charges =  -0.00000   1.00000

 Dipole moment (field-independent basis, Debye):
    X=              0.0775    Y=              0.1369    Z=              0.4163  Tot=              0.4451
 Quadrupole moment (field-independent basis, Debye-Ang):
   XX=            -61.1160   YY=            -63.6388   ZZ=            -70.0771
   XY=             -1.6984   XZ=              1.3691   YZ=             -2.1083

 Normal termination of Gaussian 16 at Wed Nov 29 16:29:30 2023.
