 Gaussian 16, Revision B.01,
 Gaussian 16:  ES64L-G16RevB.01 20-Dec-2017

 -------------------------
 #P B3LYP/6-311+g(d) force
 -------------------------

 -----
 DPGEN
 -----
 Symbolic Z-matrix:
 Charge =  0 Multiplicity = 2

                         Standard orientation:
 ---------------------------------------------------------------------
 Center     Atomic      Atomic             Coordinates (Angstroms)
 Number     Number       Type             X           Y           Z
 ---------------------------------------------------------------------
      1         11           0       -0.172017   -2.016144   -0.357389
      2         11           0       -0.083479    0.505777   -1.801038
      3         11           0        1.492704    1.656998    0.223607
      4         11           0       -1.277232    1.814039    0.234977
      5         11           0        2.497827   -0.873262   -0.132049
      6         11           0       -2.507325   -0.693847    0.002491
      7         11           0        0.049522   -0.393561    1.829401
 ---------------------------------------------------------------------

 SCF Done:  E(UB3LYP) =  -1136.07732604     A.U. after   19 cycles

 The electronic state is 2-A.
 Alpha  occ. eigenvalues --  -38.44360 -38.44223 -38.43981 -38.43866 -38.43643
 Alpha  occ. eigenvalues --  -38.43585 -38.43490  -2.20590  -2.20432  -2.20083
 Alpha  occ. eigenvalues --   -2.19934  -2.19833  -2.19764  -2.19687  -1.14487
 Alpha  occ. eigenvalues --   -1.14303  -1.14242  -1.14239  -1.14136  -1.14073
 Alpha  occ. eigenvalues --   -1.13944  -1.13895  -1.13819  -1.13668  -1.13660
 Alpha  occ. eigenvalues --   -1.13621  -1.13528  -1.13414  -1.13361  -1.13334
 Alpha  occ. eigenvalues --   -1.13325  -1.13284  -1.13277  -1.13203  -1.13157
 Alpha  occ. eigenvalues --   -0.21794  -0.13951  -0.12866  -0.12481
 Alpha virt. eigenvalues --   -0.05241  -0.04221  -0.04013  -0.03803  -0.03232
 Alpha virt. eigenvalues --   -0.02981  -0.01091  -0.00396  -0.00135   0.00337
 Alpha virt. eigenvalues --    0.00793   0.00843   0.01073   0.01169   0.01253

  Beta  occ. eigenvalues --  -38.44269 -38.44130 -38.43971 -38.43858 -38.43625
  Beta  occ. eigenvalues --  -38.43567 -38.43468  -2.20427  -2.20265  -2.20071
  Beta  occ. eigenvalues --   -2.19923  -2.19810  -2.19739  -2.19654  -1.14400
  Beta  occ. eigenvalues --   -1.14207  -1.14134  -1.14125  -1.14020  -1.13982
  Beta  occ. eigenvalues --   -1.13919  -1.13884  -1.13791  -1.13649  -1.13607
  Beta  occ. eigenvalues --   -1.13602  -1.13480  -1.13341  -1.13327  -1.13315
  Beta  occ. eigenvalues --   -1.13272  -1.13261  -1.13193  -1.13193  -1.13146
  Beta  occ. eigenvalues --   -0.20916  -0.13579  -0.12494
  Beta virt. eigenvalues --   -0.08247  -0.05255  -0.04207  -0.03953  -0.02835
  Beta virt. eigenvalues --   -0.02382  -0.01864  -0.01017  -0.00349   0.00022
  Beta virt. eigenvalues --    0.00366   0.00797   0.00829   0.01092   0.01187

 Mulliken charges and spin densities:
               1          2
     1  Na   0.156936   0.116325
     2  Na  -0.146153   0.444691
     3  Na   0.113815   0.047708
     4  Na   0.160262   0.057833
     5  Na  -0.120091  -0.064753
     6  Na  -0.000622  -0.051416
     7  Na  -0.164146   0.449613
 Sum of Mulliken charges =  -0.00000   1.00000

 Dipole moment (field-independent basis, Debye):
    X=              0.0732    Y=             -0.1571    Z=              0.0325  Tot=              0.1763
 Quadrupole moment (field-independent basis, Debye-Ang):
   XX=            -60.0197   YY=            -71.3808   ZZ=            -67.1188
   XY=             -0.3411   XZ=             -0.3537   YZ=              1.2794

 Normal termination of Gaussian 16 at Fri Dec  8 20:05:02 2023.
