 Gaussian 16, Revision B.01,
 Gaussian 16:  ES64L-G16RevB.01 20-Dec-2017

 -------------------------
 #P B3LYP/6-311+g(d) force
 -------------------------

 -----
 DPGEN
 -----
 Symbolic Z-matrix:
 Charge =  0 Multiplicity = 2

                         Standard orientation:
 ---------------------------------------------------------------------
 Center     Atomic      Atomic             Coordinates (Angstroms)
 Number     Number       Type             X           Y           Z
 ---------------------------------------------------------------------
      1         11           0        1.947785   -2.392506    0.006502
      2         11           0       -1.842563   -2.199025    0.182020
      3         11           0       -2.966805    0.778258   -1.052505
      4         11           0        0.228141   -0.083267   -1.093560
      5         11           0        0.437537    3.013276    0.287326
      6         11           0       -0.685221    0.259939    2.099683
      7         11           0        2.881125    0.623325   -0.429465
 ---------------------------------------------------------------------

 SCF Done:  E(UB3LYP) =  -1136.12951847     A.U. after   20 cycles

 The electronic state is 2-A.
 Alpha  occ. eigenvalues --  -38.44075 -38.43841 -38.43665 -38.43583 -38.43444
 Alpha  occ. eigenvalues --  -38.43305 -38.42894  -2.19917  -2.19769  -2.19567
 Alpha  occ. eigenvalues --   -2.19469  -2.19320  -2.19145  -2.19045  -1.13607
 Alpha  occ. eigenvalues --   -1.13584  -1.13551  -1.13542  -1.13412  -1.13365
 Alpha  occ. eigenvalues --   -1.13261  -1.13210  -1.13182  -1.13162  -1.13116
 Alpha  occ. eigenvalues --   -1.13085  -1.13041  -1.12974  -1.12938  -1.12821
 Alpha  occ. eigenvalues --   -1.12810  -1.12784  -1.12716  -1.12690  -1.12630
 Alpha  occ. eigenvalues --   -0.18850  -0.13366  -0.12395  -0.10806
 Alpha virt. eigenvalues --   -0.05385  -0.05077  -0.04780  -0.03221  -0.02793
 Alpha virt. eigenvalues --   -0.02393  -0.01490  -0.01169  -0.00310  -0.00178
 Alpha virt. eigenvalues --    0.00020   0.00328   0.00818   0.00853   0.00903

  Beta  occ. eigenvalues --  -38.44028 -38.43834 -38.43574 -38.43572 -38.43445
  Beta  occ. eigenvalues --  -38.43301 -38.42860  -2.19831  -2.19757  -2.19458
  Beta  occ. eigenvalues --   -2.19394  -2.19325  -2.19139  -2.18988  -1.13581
  Beta  occ. eigenvalues --   -1.13528  -1.13496  -1.13481  -1.13401  -1.13354
  Beta  occ. eigenvalues --   -1.13189  -1.13133  -1.13114  -1.13071  -1.13062
  Beta  occ. eigenvalues --   -1.13040  -1.13035  -1.12977  -1.12930  -1.12818
  Beta  occ. eigenvalues --   -1.12785  -1.12783  -1.12655  -1.12646  -1.12597
  Beta  occ. eigenvalues --   -0.18192  -0.13033  -0.12183
  Beta virt. eigenvalues --   -0.06932  -0.05199  -0.05008  -0.04720  -0.02581
  Beta virt. eigenvalues --   -0.02090  -0.01557  -0.01201  -0.01097  -0.00270
  Beta virt. eigenvalues --   -0.00149   0.00156   0.00396   0.00877   0.00885

 Mulliken charges and spin densities:
               1          2
     1  Na   0.038108   0.040232
     2  Na   0.402130   0.120695
     3  Na   0.129984   0.172176
     4  Na  -0.654093   0.046310
     5  Na   0.089143   0.021057
     6  Na  -0.398918   0.536700
     7  Na   0.393647   0.062830
 Sum of Mulliken charges =  -0.00000   1.00000

 Dipole moment (field-independent basis, Debye):
    X=             -0.2059    Y=              0.0460    Z=              0.3506  Tot=              0.4092
 Quadrupole moment (field-independent basis, Debye-Ang):
   XX=            -58.1993   YY=            -60.9778   ZZ=            -73.6148
   XY=             -0.1736   XZ=              1.3988   YZ=             -1.2705

 Normal termination of Gaussian 16 at Wed Nov 29 03:18:54 2023.
