 Gaussian 16, Revision B.01,
 Gaussian 16:  ES64L-G16RevB.01 20-Dec-2017

 -------------------------
 #P B3LYP/6-311+g(d) force
 -------------------------

 -----
 DPGEN
 -----
 Symbolic Z-matrix:
 Charge =  0 Multiplicity = 2

                         Standard orientation:
 ---------------------------------------------------------------------
 Center     Atomic      Atomic             Coordinates (Angstroms)
 Number     Number       Type             X           Y           Z
 ---------------------------------------------------------------------
      1         11           0       -1.030881    3.148936    0.562746
      2         11           0       -0.501580    0.512791   -1.654149
      3         11           0        0.133573   -0.252187    1.951951
      4         11           0       -3.399084   -0.943434   -0.287016
      5         11           0        2.879059   -1.629387   -0.093172
      6         11           0       -0.485742   -2.433362    0.021636
      7         11           0        2.404655    1.596643   -0.501996
 ---------------------------------------------------------------------

 SCF Done:  E(UB3LYP) =  -1136.13162469     A.U. after   19 cycles

 The electronic state is 2-A.
 Alpha  occ. eigenvalues --  -38.44356 -38.43878 -38.43807 -38.43741 -38.43687
 Alpha  occ. eigenvalues --  -38.43441 -38.43242  -2.20161  -2.19729  -2.19656
 Alpha  occ. eigenvalues --   -2.19592  -2.19522  -2.19361  -2.19185  -1.13823
 Alpha  occ. eigenvalues --   -1.13822  -1.13803  -1.13431  -1.13404  -1.13398
 Alpha  occ. eigenvalues --   -1.13356  -1.13285  -1.13261  -1.13258  -1.13243
 Alpha  occ. eigenvalues --   -1.13228  -1.13193  -1.13171  -1.13164  -1.13058
 Alpha  occ. eigenvalues --   -1.12999  -1.12983  -1.12880  -1.12846  -1.12771
 Alpha  occ. eigenvalues --   -0.18444  -0.13002  -0.12406  -0.10686
 Alpha virt. eigenvalues --   -0.05908  -0.05368  -0.04450  -0.03067  -0.03041
 Alpha virt. eigenvalues --   -0.02397  -0.01849  -0.01357  -0.00383  -0.00151
 Alpha virt. eigenvalues --   -0.00041   0.00300   0.00734   0.00797   0.00889

  Beta  occ. eigenvalues --  -38.44350 -38.43861 -38.43792 -38.43686 -38.43651
  Beta  occ. eigenvalues --  -38.43392 -38.43231  -2.20152  -2.19700  -2.19567
  Beta  occ. eigenvalues --   -2.19523  -2.19490  -2.19271  -2.19169  -1.13820
  Beta  occ. eigenvalues --   -1.13804  -1.13797  -1.13406  -1.13375  -1.13330
  Beta  occ. eigenvalues --   -1.13296  -1.13241  -1.13225  -1.13215  -1.13196
  Beta  occ. eigenvalues --   -1.13178  -1.13163  -1.13153  -1.13122  -1.13000
  Beta  occ. eigenvalues --   -1.12930  -1.12917  -1.12857  -1.12809  -1.12756
  Beta  occ. eigenvalues --   -0.17751  -0.12720  -0.12172
  Beta virt. eigenvalues --   -0.06912  -0.05770  -0.05252  -0.04396  -0.02409
  Beta virt. eigenvalues --   -0.02354  -0.01749  -0.01428  -0.01227  -0.00392
  Beta virt. eigenvalues --   -0.00152   0.00101   0.00345   0.00785   0.00820

 Mulliken charges and spin densities:
               1          2
     1  Na  -0.159886   0.017763
     2  Na  -0.070888   0.322231
     3  Na  -0.258261   0.561563
     4  Na   0.196132  -0.040431
     5  Na  -0.107331  -0.043224
     6  Na   0.204408   0.093692
     7  Na   0.195826   0.088407
 Sum of Mulliken charges =  -0.00000   1.00000

 Dipole moment (field-independent basis, Debye):
    X=             -0.3835    Y=              0.1829    Z=              0.0861  Tot=              0.4336
 Quadrupole moment (field-independent basis, Debye-Ang):
   XX=            -54.9739   YY=            -64.0343   ZZ=            -74.1621
   XY=             -1.1229   XZ=             -1.0698   YZ=              1.6446

 Normal termination of Gaussian 16 at Thu Dec  7 10:13:51 2023.
