 Gaussian 16, Revision B.01,
 Gaussian 16:  ES64L-G16RevB.01 20-Dec-2017

 -------------------------
 #P B3LYP/6-311+g(d) force
 -------------------------

 -----
 DPGEN
 -----
 Symbolic Z-matrix:
 Charge =  0 Multiplicity = 2

                         Standard orientation:
 ---------------------------------------------------------------------
 Center     Atomic      Atomic             Coordinates (Angstroms)
 Number     Number       Type             X           Y           Z
 ---------------------------------------------------------------------
      1         11           0       -3.512109   -0.898746   -1.515220
      2         11           0       -1.624051    2.383474   -0.122509
      3         11           0       -5.353539    0.396626    0.394761
      4         11           0        0.660645   -0.101327    1.818698
      5         11           0        3.640076    0.342272   -0.589817
      6         11           0        6.628131    0.102837   -0.347455
      7         11           0       -0.439152   -2.225136    0.361543
 ---------------------------------------------------------------------

 SCF Done:  E(UB3LYP) =  -1136.10414214     A.U. after   19 cycles

 The electronic state is 2-A.
 Alpha  occ. eigenvalues --  -38.45291 -38.45199 -38.44735 -38.44482 -38.44390
 Alpha  occ. eigenvalues --  -38.43311 -38.43170  -2.21076  -2.20999  -2.20577
 Alpha  occ. eigenvalues --   -2.20343  -2.20250  -2.19125  -2.18972  -1.14743
 Alpha  occ. eigenvalues --   -1.14739  -1.14699  -1.14675  -1.14651  -1.14631
 Alpha  occ. eigenvalues --   -1.14263  -1.14238  -1.14209  -1.14201  -1.13982
 Alpha  occ. eigenvalues --   -1.13968  -1.13874  -1.13856  -1.13782  -1.12859
 Alpha  occ. eigenvalues --   -1.12794  -1.12781  -1.12619  -1.12618  -1.12572
 Alpha  occ. eigenvalues --   -0.16784  -0.13751  -0.11790  -0.11462
 Alpha virt. eigenvalues --   -0.06917  -0.05554  -0.04533  -0.03675  -0.03323
 Alpha virt. eigenvalues --   -0.02331  -0.01907  -0.01733  -0.01560  -0.00812
 Alpha virt. eigenvalues --   -0.00356  -0.00179   0.00198   0.00433   0.00480

  Beta  occ. eigenvalues --  -38.45202 -38.45171 -38.44709 -38.44486 -38.44345
  Beta  occ. eigenvalues --  -38.43310 -38.43172  -2.21008  -2.20854  -2.20529
  Beta  occ. eigenvalues --   -2.20350  -2.20168  -2.19124  -2.18975  -1.14742
  Beta  occ. eigenvalues --   -1.14658  -1.14629  -1.14587  -1.14550  -1.14518
  Beta  occ. eigenvalues --   -1.14242  -1.14205  -1.14178  -1.14159  -1.13988
  Beta  occ. eigenvalues --   -1.13956  -1.13820  -1.13800  -1.13744  -1.12859
  Beta  occ. eigenvalues --   -1.12793  -1.12781  -1.12621  -1.12621  -1.12573
  Beta  occ. eigenvalues --   -0.16077  -0.13695  -0.11715
  Beta virt. eigenvalues --   -0.07449  -0.06573  -0.05345  -0.04123  -0.03407
  Beta virt. eigenvalues --   -0.02503  -0.02137  -0.01799  -0.01563  -0.01191
  Beta virt. eigenvalues --   -0.00572  -0.00343   0.00158   0.00330   0.00537

 Mulliken charges and spin densities:
               1          2
     1  Na  -0.115256   0.229586
     2  Na   0.016000   0.607489
     3  Na   0.203575  -0.080168
     4  Na  -0.499984   0.206344
     5  Na  -0.469950  -0.100292
     6  Na   0.388959   0.028257
     7  Na   0.476656   0.108783
 Sum of Mulliken charges =  -0.00000   1.00000

 Dipole moment (field-independent basis, Debye):
    X=             -2.7937    Y=             -0.0797    Z=              0.5167  Tot=              2.8422
 Quadrupole moment (field-independent basis, Debye-Ang):
   XX=            -65.2692   YY=            -72.3703   ZZ=            -66.1483
   XY=             -2.9516   XZ=             -1.3158   YZ=              2.0067

 Normal termination of Gaussian 16 at Mon Dec  4 03:07:41 2023.
