 Gaussian 16, Revision B.01,
 Gaussian 16:  ES64L-G16RevB.01 20-Dec-2017

 -------------------------
 #P B3LYP/6-311+g(d) force
 -------------------------

 -----
 DPGEN
 -----
 Symbolic Z-matrix:
 Charge =  0 Multiplicity = 2

                         Standard orientation:
 ---------------------------------------------------------------------
 Center     Atomic      Atomic             Coordinates (Angstroms)
 Number     Number       Type             X           Y           Z
 ---------------------------------------------------------------------
      1         11           0       -2.143949   -1.676631   -1.497380
      2         11           0       -1.289621    1.733154   -1.521389
      3         11           0        1.961283   -2.115290    0.301020
      4         11           0       -0.635158    0.293734    2.142171
      5         11           0        1.655672    2.130032    0.076954
      6         11           0       -4.001351   -0.127092    0.798386
      7         11           0        4.453125   -0.237906   -0.299762
 ---------------------------------------------------------------------

 SCF Done:  E(UB3LYP) =  -1136.11395781     A.U. after   26 cycles

 The electronic state is 2-A.
 Alpha  occ. eigenvalues --  -38.45460 -38.45074 -38.44377 -38.44255 -38.44247
 Alpha  occ. eigenvalues --  -38.43559 -38.42756  -2.21244  -2.20862  -2.20161
 Alpha  occ. eigenvalues --   -2.20080  -2.20063  -2.19395  -2.18581  -1.14914
 Alpha  occ. eigenvalues --   -1.14904  -1.14891  -1.14529  -1.14524  -1.14511
 Alpha  occ. eigenvalues --   -1.13834  -1.13821  -1.13801  -1.13752  -1.13728
 Alpha  occ. eigenvalues --   -1.13718  -1.13711  -1.13697  -1.13686  -1.13085
 Alpha  occ. eigenvalues --   -1.13040  -1.13009  -1.12263  -1.12255  -1.12213
 Alpha  occ. eigenvalues --   -0.17309  -0.14022  -0.11102  -0.11045
 Alpha virt. eigenvalues --   -0.07636  -0.05422  -0.04110  -0.03761  -0.03142
 Alpha virt. eigenvalues --   -0.02536  -0.02449  -0.01276  -0.00850  -0.00592
 Alpha virt. eigenvalues --   -0.00369   0.00042   0.00128   0.00641   0.00691

  Beta  occ. eigenvalues --  -38.45456 -38.45079 -38.44371 -38.44204 -38.44167
  Beta  occ. eigenvalues --  -38.43511 -38.42757  -2.21240  -2.20871  -2.20149
  Beta  occ. eigenvalues --   -2.19985  -2.19917  -2.19307  -2.18584  -1.14914
  Beta  occ. eigenvalues --   -1.14893  -1.14871  -1.14536  -1.14530  -1.14518
  Beta  occ. eigenvalues --   -1.13818  -1.13813  -1.13794  -1.13675  -1.13651
  Beta  occ. eigenvalues --   -1.13641  -1.13638  -1.13609  -1.13570  -1.13023
  Beta  occ. eigenvalues --   -1.12982  -1.12941  -1.12262  -1.12249  -1.12217
  Beta  occ. eigenvalues --   -0.16638  -0.13893  -0.10929
  Beta virt. eigenvalues --   -0.07419  -0.07182  -0.05243  -0.03789  -0.03283
  Beta virt. eigenvalues --   -0.02884  -0.02009  -0.01833  -0.01243  -0.00587
  Beta virt. eigenvalues --   -0.00448  -0.00226   0.00061   0.00309   0.00718

 Mulliken charges and spin densities:
               1          2
     1  Na  -0.202706   0.335787
     2  Na  -0.055524   0.220717
     3  Na  -0.292981   0.020734
     4  Na  -0.186506   0.554549
     5  Na  -0.119503   0.070149
     6  Na   0.402817  -0.106452
     7  Na   0.454403  -0.095485
 Sum of Mulliken charges =  -0.00000   1.00000

 Dipole moment (field-independent basis, Debye):
    X=             -0.1945    Y=              0.0478    Z=              0.0726  Tot=              0.2131
 Quadrupole moment (field-independent basis, Debye-Ang):
   XX=            -48.8267   YY=            -75.6700   ZZ=            -72.4926
   XY=              1.7962   XZ=             -2.7758   YZ=              0.1652

 Normal termination of Gaussian 16 at Sun Dec  3 13:09:26 2023.
