 Gaussian 16, Revision B.01,
 Gaussian 16:  ES64L-G16RevB.01 20-Dec-2017

 -------------------------
 #P B3LYP/6-311+g(d) force
 -------------------------

 -----
 DPGEN
 -----
 Symbolic Z-matrix:
 Charge =  0 Multiplicity = 2

                         Standard orientation:
 ---------------------------------------------------------------------
 Center     Atomic      Atomic             Coordinates (Angstroms)
 Number     Number       Type             X           Y           Z
 ---------------------------------------------------------------------
      1         11           0       -0.062604   -0.132437   -1.671945
      2         11           0        0.676360   -2.315704    0.373862
      3         11           0       -2.761583   -1.576986   -0.046456
      4         11           0       -2.329611    1.427257   -0.066029
      5         11           0        0.340066    0.325798    1.808568
      6         11           0        0.746280    2.755456   -0.035910
      7         11           0        3.391091   -0.483384   -0.362090
 ---------------------------------------------------------------------

 SCF Done:  E(UB3LYP) =  -1136.13057813     A.U. after   20 cycles

 The electronic state is 2-A.
 Alpha  occ. eigenvalues --  -38.44627 -38.43680 -38.43584 -38.43354 -38.43262
 Alpha  occ. eigenvalues --  -38.43160 -38.43055  -2.20429  -2.19557  -2.19530
 Alpha  occ. eigenvalues --   -2.19370  -2.19268  -2.19116  -2.18949  -1.14095
 Alpha  occ. eigenvalues --   -1.14087  -1.14065  -1.13356  -1.13247  -1.13206
 Alpha  occ. eigenvalues --   -1.13197  -1.13173  -1.13111  -1.13100  -1.13021
 Alpha  occ. eigenvalues --   -1.13014  -1.12962  -1.12943  -1.12865  -1.12777
 Alpha  occ. eigenvalues --   -1.12756  -1.12691  -1.12614  -1.12606  -1.12565
 Alpha  occ. eigenvalues --   -0.19285  -0.13336  -0.12439  -0.10805
 Alpha virt. eigenvalues --   -0.06072  -0.04800  -0.04249  -0.03274  -0.02788
 Alpha virt. eigenvalues --   -0.02358  -0.01979  -0.00978  -0.00097  -0.00019
 Alpha virt. eigenvalues --    0.00081   0.00317   0.00799   0.00893   0.00961

  Beta  occ. eigenvalues --  -38.44620 -38.43679 -38.43575 -38.43286 -38.43175
  Beta  occ. eigenvalues --  -38.43142 -38.43050  -2.20417  -2.19557  -2.19520
  Beta  occ. eigenvalues --   -2.19246  -2.19112  -2.19086  -2.18943  -1.14082
  Beta  occ. eigenvalues --   -1.14070  -1.14060  -1.13357  -1.13234  -1.13192
  Beta  occ. eigenvalues --   -1.13180  -1.13144  -1.13099  -1.13037  -1.12937
  Beta  occ. eigenvalues --   -1.12924  -1.12870  -1.12846  -1.12761  -1.12739
  Beta  occ. eigenvalues --   -1.12685  -1.12676  -1.12600  -1.12573  -1.12559
  Beta  occ. eigenvalues --   -0.18544  -0.13080  -0.12172
  Beta virt. eigenvalues --   -0.06866  -0.05999  -0.04791  -0.04243  -0.02514
  Beta virt. eigenvalues --   -0.02005  -0.01848  -0.01316  -0.00940  -0.00116
  Beta virt. eigenvalues --    0.00038   0.00124   0.00342   0.00835   0.00886

 Mulliken charges and spin densities:
               1          2
     1  Na  -0.673478   0.629645
     2  Na   0.434385   0.046184
     3  Na   0.101316  -0.030383
     4  Na   0.390535   0.017486
     5  Na  -0.415719   0.489092
     6  Na   0.177216  -0.107449
     7  Na  -0.014255  -0.044575
 Sum of Mulliken charges =  -0.00000   1.00000

 Dipole moment (field-independent basis, Debye):
    X=              0.5032    Y=              0.0093    Z=             -0.0727  Tot=              0.5085
 Quadrupole moment (field-independent basis, Debye-Ang):
   XX=            -52.4770   YY=            -65.9823   ZZ=            -74.1415
   XY=              1.3051   XZ=             -1.2848   YZ=             -0.8166

 Normal termination of Gaussian 16 at Thu Dec  7 07:11:10 2023.
