 Gaussian 16, Revision B.01,
 Gaussian 16:  ES64L-G16RevB.01 20-Dec-2017

 -------------------------
 #P B3LYP/6-311+g(d) force
 -------------------------

 -----
 DPGEN
 -----
 Symbolic Z-matrix:
 Charge =  0 Multiplicity = 2

                         Standard orientation:
 ---------------------------------------------------------------------
 Center     Atomic      Atomic             Coordinates (Angstroms)
 Number     Number       Type             X           Y           Z
 ---------------------------------------------------------------------
      1         11           0        0.325073   -2.315019    0.663822
      2         11           0        3.979226   -2.389224   -0.352825
      3         11           0       -1.618293    3.270423    0.039052
      4         11           0       -3.630799   -2.593482    0.135140
      5         11           0       -4.758020    0.173908   -0.540595
      6         11           0        1.368244    3.283338    0.360809
      7         11           0        4.334569    0.570057   -0.305403
 ---------------------------------------------------------------------

 SCF Done:  E(UB3LYP) =  -1136.10446415     A.U. after   20 cycles

 The electronic state is 2-A.
 Alpha  occ. eigenvalues --  -38.44795 -38.44722 -38.44700 -38.44561 -38.44560
 Alpha  occ. eigenvalues --  -38.44292 -38.44072  -2.20607  -2.20523  -2.20496
 Alpha  occ. eigenvalues --   -2.20354  -2.20347  -2.20105  -2.19875  -1.14401
 Alpha  occ. eigenvalues --   -1.14268  -1.14246  -1.14164  -1.14151  -1.14146
 Alpha  occ. eigenvalues --   -1.14141  -1.14104  -1.14090  -1.14071  -1.14064
 Alpha  occ. eigenvalues --   -1.14017  -1.14009  -1.13995  -1.13994  -1.13746
 Alpha  occ. eigenvalues --   -1.13735  -1.13727  -1.13531  -1.13529  -1.13514
 Alpha  occ. eigenvalues --   -0.15561  -0.14040  -0.13101  -0.10911
 Alpha virt. eigenvalues --   -0.07471  -0.05082  -0.04623  -0.03682  -0.03188
 Alpha virt. eigenvalues --   -0.02484  -0.02266  -0.01819  -0.01276  -0.01071
 Alpha virt. eigenvalues --   -0.00503  -0.00170   0.00012   0.00339   0.00655

  Beta  occ. eigenvalues --  -38.44800 -38.44649 -38.44613 -38.44570 -38.44554
  Beta  occ. eigenvalues --  -38.44240 -38.44068  -2.20620  -2.20429  -2.20368
  Beta  occ. eigenvalues --   -2.20343  -2.20293  -2.20008  -2.19870  -1.14379
  Beta  occ. eigenvalues --   -1.14280  -1.14238  -1.14101  -1.14081  -1.14067
  Beta  occ. eigenvalues --   -1.14057  -1.14051  -1.14037  -1.14013  -1.14003
  Beta  occ. eigenvalues --   -1.14000  -1.13992  -1.13987  -1.13955  -1.13680
  Beta  occ. eigenvalues --   -1.13672  -1.13668  -1.13527  -1.13525  -1.13505
  Beta  occ. eigenvalues --   -0.14981  -0.13568  -0.12717
  Beta virt. eigenvalues --   -0.07468  -0.07331  -0.04765  -0.04032  -0.03511
  Beta virt. eigenvalues --   -0.02692  -0.02369  -0.02269  -0.01747  -0.01130
  Beta virt. eigenvalues --   -0.00707  -0.00183   0.00177   0.00270   0.00358

 Mulliken charges and spin densities:
               1          2
     1  Na  -0.700409   0.571016
     2  Na   0.781811   0.007071
     3  Na  -0.081190   0.008289
     4  Na   0.141536  -0.072693
     5  Na  -0.092674   0.260989
     6  Na   0.311526  -0.016515
     7  Na  -0.360600   0.241844
 Sum of Mulliken charges =  -0.00000   1.00000

 Dipole moment (field-independent basis, Debye):
    X=              0.3893    Y=             -0.2398    Z=             -0.1309  Tot=              0.4756
 Quadrupole moment (field-independent basis, Debye-Ang):
   XX=            -62.0530   YY=            -64.1462   ZZ=            -74.7153
   XY=             -3.2210   XZ=              0.3999   YZ=             -0.1117

 Normal termination of Gaussian 16 at Sun Dec  3 11:57:34 2023.
