 Gaussian 16, Revision B.01,
 Gaussian 16:  ES64L-G16RevB.01 20-Dec-2017

 -------------------------
 #P B3LYP/6-311+g(d) force
 -------------------------

 -----
 DPGEN
 -----
 Symbolic Z-matrix:
 Charge =  0 Multiplicity = 2

                         Standard orientation:
 ---------------------------------------------------------------------
 Center     Atomic      Atomic             Coordinates (Angstroms)
 Number     Number       Type             X           Y           Z
 ---------------------------------------------------------------------
      1         11           0       -0.202042    0.166658    1.932090
      2         11           0       -0.055942   -0.179047   -1.888960
      3         11           0       -1.926130    1.633860   -0.047713
      4         11           0       -2.214909   -1.430181   -0.004996
      5         11           0        0.982501    2.112199   -0.185927
      6         11           0        0.711007   -2.085653    0.082501
      7         11           0        2.705516   -0.217837    0.113005
 ---------------------------------------------------------------------

 SCF Done:  E(UB3LYP) =  -1136.10762828     A.U. after   21 cycles

 The electronic state is 2-A.
 Alpha  occ. eigenvalues --  -38.44040 -38.44010 -38.43856 -38.43318 -38.43287
 Alpha  occ. eigenvalues --  -38.43257 -38.43071  -2.20173  -2.20111  -2.19883
 Alpha  occ. eigenvalues --   -2.19388  -2.19339  -2.19325  -2.19143  -1.13942
 Alpha  occ. eigenvalues --   -1.13848  -1.13812  -1.13801  -1.13780  -1.13736
 Alpha  occ. eigenvalues --   -1.13711  -1.13577  -1.13475  -1.13134  -1.13091
 Alpha  occ. eigenvalues --   -1.13083  -1.13013  -1.12990  -1.12978  -1.12965
 Alpha  occ. eigenvalues --   -1.12899  -1.12859  -1.12801  -1.12777  -1.12715
 Alpha  occ. eigenvalues --   -0.20999  -0.13607  -0.12819  -0.12187
 Alpha virt. eigenvalues --   -0.05057  -0.04443  -0.04049  -0.03662  -0.03281
 Alpha virt. eigenvalues --   -0.03119  -0.01043  -0.00548  -0.00130   0.00337
 Alpha virt. eigenvalues --    0.00682   0.00724   0.00995   0.01065   0.01115

  Beta  occ. eigenvalues --  -38.43946 -38.43917 -38.43850 -38.43310 -38.43276
  Beta  occ. eigenvalues --  -38.43242 -38.43058  -2.20003  -2.19941  -2.19876
  Beta  occ. eigenvalues --   -2.19367  -2.19328  -2.19313  -2.19126  -1.13848
  Beta  occ. eigenvalues --   -1.13744  -1.13730  -1.13701  -1.13659  -1.13651
  Beta  occ. eigenvalues --   -1.13612  -1.13561  -1.13431  -1.13127  -1.13088
  Beta  occ. eigenvalues --   -1.13077  -1.12983  -1.12944  -1.12918  -1.12911
  Beta  occ. eigenvalues --   -1.12895  -1.12856  -1.12793  -1.12717  -1.12709
  Beta  occ. eigenvalues --   -0.20151  -0.13271  -0.12472
  Beta virt. eigenvalues --   -0.08048  -0.05066  -0.04444  -0.04040  -0.02726
  Beta virt. eigenvalues --   -0.02370  -0.02007  -0.00977  -0.00504   0.00029
  Beta virt. eigenvalues --    0.00346   0.00640   0.00691   0.01055   0.01093

 Mulliken charges and spin densities:
               1          2
     1  Na  -1.505444   0.430126
     2  Na  -1.567365   0.387100
     3  Na   0.672059   0.028063
     4  Na   0.558551  -0.007532
     5  Na   0.849328   0.085426
     6  Na   1.088412   0.146634
     7  Na  -0.095541  -0.069817
 Sum of Mulliken charges =  -0.00000   1.00000

 Dipole moment (field-independent basis, Debye):
    X=             -0.1143    Y=              0.0634    Z=              0.0841  Tot=              0.1554
 Quadrupole moment (field-independent basis, Debye-Ang):
   XX=            -60.5534   YY=            -69.3366   ZZ=            -67.6487
   XY=              0.4195   XZ=              0.3272   YZ=             -0.5754

 Normal termination of Gaussian 16 at Thu Dec  7 22:20:23 2023.
