 Gaussian 16, Revision B.01,
 Gaussian 16:  ES64L-G16RevB.01 20-Dec-2017

 -------------------------
 #P B3LYP/6-311+g(d) force
 -------------------------

 -----
 DPGEN
 -----
 Symbolic Z-matrix:
 Charge =  0 Multiplicity = 2

                         Standard orientation:
 ---------------------------------------------------------------------
 Center     Atomic      Atomic             Coordinates (Angstroms)
 Number     Number       Type             X           Y           Z
 ---------------------------------------------------------------------
      1         11           0       -2.571388   -1.833173   -0.374937
      2         11           0       -0.272848   -0.420415   -1.449134
      3         11           0        0.909821    2.817706   -0.462807
      4         11           0       -2.891848    1.518519    0.212778
      5         11           0        1.707846   -2.666195    0.162151
      6         11           0        3.174421    0.490753   -0.152600
      7         11           0       -0.056004    0.092806    2.064549
 ---------------------------------------------------------------------

 SCF Done:  E(UB3LYP) =  -1136.13223479     A.U. after   19 cycles

 The electronic state is 2-A.
 Alpha  occ. eigenvalues --  -38.44354 -38.44208 -38.44168 -38.43695 -38.43543
 Alpha  occ. eigenvalues --  -38.43287 -38.43143  -2.20163  -2.20041  -2.20037
 Alpha  occ. eigenvalues --   -2.19558  -2.19359  -2.19275  -2.18975  -1.13835
 Alpha  occ. eigenvalues --   -1.13834  -1.13811  -1.13800  -1.13712  -1.13707
 Alpha  occ. eigenvalues --   -1.13683  -1.13668  -1.13638  -1.13234  -1.13186
 Alpha  occ. eigenvalues --   -1.13167  -1.13044  -1.13019  -1.13003  -1.12953
 Alpha  occ. eigenvalues --   -1.12925  -1.12873  -1.12649  -1.12637  -1.12611
 Alpha  occ. eigenvalues --   -0.18375  -0.13414  -0.12083  -0.10539
 Alpha virt. eigenvalues --   -0.05896  -0.05623  -0.04470  -0.03286  -0.02711
 Alpha virt. eigenvalues --   -0.02346  -0.01796  -0.01329  -0.00570  -0.00424
 Alpha virt. eigenvalues --   -0.00020   0.00316   0.00708   0.00793   0.00874

  Beta  occ. eigenvalues --  -38.44348 -38.44204 -38.44154 -38.43597 -38.43541
  Beta  occ. eigenvalues --  -38.43237 -38.43133  -2.20156  -2.20036  -2.20014
  Beta  occ. eigenvalues --   -2.19378  -2.19357  -2.19186  -2.18960  -1.13830
  Beta  occ. eigenvalues --   -1.13815  -1.13800  -1.13777  -1.13708  -1.13697
  Beta  occ. eigenvalues --   -1.13675  -1.13636  -1.13626  -1.13114  -1.13063
  Beta  occ. eigenvalues --   -1.13042  -1.13031  -1.13006  -1.12997  -1.12888
  Beta  occ. eigenvalues --   -1.12853  -1.12815  -1.12637  -1.12624  -1.12592
  Beta  occ. eigenvalues --   -0.17697  -0.13169  -0.11839
  Beta virt. eigenvalues --   -0.06701  -0.05823  -0.05548  -0.04434  -0.02540
  Beta virt. eigenvalues --   -0.02002  -0.01675  -0.01352  -0.01237  -0.00606
  Beta virt. eigenvalues --   -0.00443   0.00134   0.00364   0.00778   0.00804

 Mulliken charges and spin densities:
               1          2
     1  Na   0.362696   0.019758
     2  Na  -0.224418   0.200154
     3  Na  -0.000017   0.036361
     4  Na   0.102380   0.055616
     5  Na   0.099908  -0.006011
     6  Na   0.089366  -0.010952
     7  Na  -0.429914   0.705074
 Sum of Mulliken charges =  -0.00000   1.00000

 Dipole moment (field-independent basis, Debye):
    X=             -0.3022    Y=             -0.0953    Z=              0.2333  Tot=              0.3935
 Quadrupole moment (field-independent basis, Debye-Ang):
   XX=            -53.6057   YY=            -63.8600   ZZ=            -75.7377
   XY=             -1.4882   XZ=             -0.3143   YZ=             -0.9049

 Normal termination of Gaussian 16 at Thu Dec  7 10:46:56 2023.
