 Gaussian 16, Revision B.01,
 Gaussian 16:  ES64L-G16RevB.01 20-Dec-2017

 -------------------------
 #P B3LYP/6-311+g(d) force
 -------------------------

 -----
 DPGEN
 -----
 Symbolic Z-matrix:
 Charge =  0 Multiplicity = 2

                         Standard orientation:
 ---------------------------------------------------------------------
 Center     Atomic      Atomic             Coordinates (Angstroms)
 Number     Number       Type             X           Y           Z
 ---------------------------------------------------------------------
      1         11           0        2.152170    3.456987    0.197988
      2         11           0       -1.288008    2.581586   -0.014725
      3         11           0        4.775379    0.376676   -0.165306
      4         11           0        3.071366   -2.626504   -0.090637
      5         11           0       -3.213599   -1.658346   -0.163439
      6         11           0       -4.749865    1.191365   -0.068450
      7         11           0       -0.747442   -3.321764    0.304570
 ---------------------------------------------------------------------

 SCF Done:  E(UB3LYP) =  -1136.10877053     A.U. after   22 cycles

 The electronic state is 2-A.
 Alpha  occ. eigenvalues --  -38.45195 -38.45023 -38.45017 -38.44622 -38.44326
 Alpha  occ. eigenvalues --  -38.44280 -38.43744  -2.20939  -2.20778  -2.20769
 Alpha  occ. eigenvalues --   -2.20472  -2.20107  -2.20090  -2.19573  -1.14635
 Alpha  occ. eigenvalues --   -1.14629  -1.14544  -1.14459  -1.14456  -1.14446
 Alpha  occ. eigenvalues --   -1.14430  -1.14415  -1.14373  -1.14201  -1.14134
 Alpha  occ. eigenvalues --   -1.14112  -1.13759  -1.13757  -1.13748  -1.13743
 Alpha  occ. eigenvalues --   -1.13722  -1.13718  -1.13244  -1.13212  -1.13193
 Alpha  occ. eigenvalues --   -0.15768  -0.14048  -0.13244  -0.11233
 Alpha virt. eigenvalues --   -0.07422  -0.05087  -0.04184  -0.03689  -0.03480
 Alpha virt. eigenvalues --   -0.02557  -0.02251  -0.01922  -0.01318  -0.00891
 Alpha virt. eigenvalues --   -0.00453  -0.00281   0.00075   0.00519   0.00577

  Beta  occ. eigenvalues --  -38.45174 -38.45013 -38.44983 -38.44598 -38.44286
  Beta  occ. eigenvalues --  -38.44216 -38.43694  -2.20905  -2.20756  -2.20716
  Beta  occ. eigenvalues --   -2.20436  -2.20019  -2.19987  -2.19482  -1.14617
  Beta  occ. eigenvalues --   -1.14610  -1.14487  -1.14447  -1.14440  -1.14408
  Beta  occ. eigenvalues --   -1.14401  -1.14376  -1.14332  -1.14135  -1.14118
  Beta  occ. eigenvalues --   -1.14077  -1.13711  -1.13696  -1.13677  -1.13667
  Beta  occ. eigenvalues --   -1.13662  -1.13645  -1.13177  -1.13151  -1.13133
  Beta  occ. eigenvalues --   -0.15143  -0.13342  -0.12385
  Beta virt. eigenvalues --   -0.08098  -0.07637  -0.04614  -0.03764  -0.03471
  Beta virt. eigenvalues --   -0.03107  -0.02365  -0.02074  -0.01710  -0.01097
  Beta virt. eigenvalues --   -0.00541  -0.00115  -0.00020   0.00237   0.00499

 Mulliken charges and spin densities:
               1          2
     1  Na   0.467725  -0.209002
     2  Na  -0.950486   0.339465
     3  Na   0.000184   0.135143
     4  Na   0.098978   0.019779
     5  Na  -0.541382   0.171169
     6  Na   0.864760   0.434162
     7  Na   0.060222   0.109285
 Sum of Mulliken charges =  -0.00000   1.00000

 Dipole moment (field-independent basis, Debye):
    X=              0.1573    Y=              0.4128    Z=             -0.0336  Tot=              0.4430
 Quadrupole moment (field-independent basis, Debye-Ang):
   XX=            -54.8596   YY=            -67.9501   ZZ=            -74.6009
   XY=              0.6824   XZ=              0.1148   YZ=              0.1170

 Normal termination of Gaussian 16 at Sun Dec  3 14:35:41 2023.
