 Gaussian 16, Revision B.01,
 Gaussian 16:  ES64L-G16RevB.01 20-Dec-2017

 -------------------------
 #P B3LYP/6-311+g(d) force
 -------------------------

 -----
 DPGEN
 -----
 Symbolic Z-matrix:
 Charge =  0 Multiplicity = 2

                         Standard orientation:
 ---------------------------------------------------------------------
 Center     Atomic      Atomic             Coordinates (Angstroms)
 Number     Number       Type             X           Y           Z
 ---------------------------------------------------------------------
      1         11           0       -2.585820   -2.005921   -0.776743
      2         11           0       -4.815060    0.042664    1.120626
      3         11           0        1.363427    3.024316   -0.505760
      4         11           0       -2.033820    1.578329   -0.638188
      5         11           0        3.496165    1.338298    0.760536
      6         11           0        0.661641   -1.535357    0.010664
      7         11           0        3.913466   -2.442329    0.028864
 ---------------------------------------------------------------------

 SCF Done:  E(UB3LYP) =  -1136.11911655     A.U. after   23 cycles

 The electronic state is 2-A.
 Alpha  occ. eigenvalues --  -38.45143 -38.44742 -38.44739 -38.44345 -38.43955
 Alpha  occ. eigenvalues --  -38.43610 -38.43144  -2.20923  -2.20570  -2.20551
 Alpha  occ. eigenvalues --   -2.20168  -2.19732  -2.19440  -2.18970  -1.14627
 Alpha  occ. eigenvalues --   -1.14604  -1.14533  -1.14255  -1.14247  -1.14240
 Alpha  occ. eigenvalues --   -1.14226  -1.14191  -1.14161  -1.13816  -1.13808
 Alpha  occ. eigenvalues --   -1.13768  -1.13403  -1.13397  -1.13371  -1.13134
 Alpha  occ. eigenvalues --   -1.13103  -1.13059  -1.12663  -1.12623  -1.12607
 Alpha  occ. eigenvalues --   -0.16782  -0.14319  -0.12093  -0.10836
 Alpha virt. eigenvalues --   -0.07112  -0.05161  -0.04740  -0.03593  -0.02853
 Alpha virt. eigenvalues --   -0.02597  -0.01902  -0.01564  -0.01322  -0.00411
 Alpha virt. eigenvalues --   -0.00317  -0.00234   0.00153   0.00334   0.00505

  Beta  occ. eigenvalues --  -38.45128 -38.44730 -38.44710 -38.44245 -38.43953
  Beta  occ. eigenvalues --  -38.43575 -38.43147  -2.20898  -2.20532  -2.20518
  Beta  occ. eigenvalues --   -2.19981  -2.19728  -2.19380  -2.18974  -1.14612
  Beta  occ. eigenvalues --   -1.14571  -1.14503  -1.14244  -1.14216  -1.14211
  Beta  occ. eigenvalues --   -1.14188  -1.14151  -1.14132  -1.13686  -1.13680
  Beta  occ. eigenvalues --   -1.13649  -1.13401  -1.13397  -1.13362  -1.13098
  Beta  occ. eigenvalues --   -1.13064  -1.12990  -1.12669  -1.12626  -1.12602
  Beta  occ. eigenvalues --   -0.16118  -0.13903  -0.11898
  Beta virt. eigenvalues --   -0.07235  -0.06879  -0.04784  -0.04428  -0.03317
  Beta virt. eigenvalues --   -0.02498  -0.02262  -0.01577  -0.01432  -0.00919
  Beta virt. eigenvalues --   -0.00362  -0.00022   0.00085   0.00266   0.00500

 Mulliken charges and spin densities:
               1          2
     1  Na   0.912809   0.006792
     2  Na   0.712696   0.509820
     3  Na   0.088840   0.021555
     4  Na  -0.411933   0.093157
     5  Na  -0.300837   0.059991
     6  Na  -1.797452   0.100578
     7  Na   0.795876   0.208107
 Sum of Mulliken charges =  -0.00000   1.00000

 Dipole moment (field-independent basis, Debye):
    X=             -0.3572    Y=             -0.5193    Z=             -0.1322  Tot=              0.6441
 Quadrupole moment (field-independent basis, Debye-Ang):
   XX=            -60.0160   YY=            -67.9248   ZZ=            -70.3325
   XY=              1.7323   XZ=              2.1137   YZ=              0.9171

 Normal termination of Gaussian 16 at Sun Dec  3 14:31:00 2023.
