 Gaussian 16, Revision B.01,
 Gaussian 16:  ES64L-G16RevB.01 20-Dec-2017

 -------------------------
 #P B3LYP/6-311+g(d) force
 -------------------------

 -----
 DPGEN
 -----
 Symbolic Z-matrix:
 Charge =  0 Multiplicity = 2

                         Standard orientation:
 ---------------------------------------------------------------------
 Center     Atomic      Atomic             Coordinates (Angstroms)
 Number     Number       Type             X           Y           Z
 ---------------------------------------------------------------------
      1         11           0        1.968770    2.095401    0.428147
      2         11           0        4.359723   -0.627457   -0.567903
      3         11           0        1.560033   -1.933847    0.186527
      4         11           0       -1.702468   -0.093004    1.607575
      5         11           0       -2.550079    0.084774   -1.588129
      6         11           0       -1.374924    3.111193   -0.136256
      7         11           0       -2.261056   -2.637060    0.070040
 ---------------------------------------------------------------------

 SCF Done:  E(UB3LYP) =  -1136.12385740     A.U. after   20 cycles

 The electronic state is 2-A.
 Alpha  occ. eigenvalues --  -38.44795 -38.44452 -38.44217 -38.44019 -38.43989
 Alpha  occ. eigenvalues --  -38.43569 -38.43408  -2.20555  -2.20250  -2.20121
 Alpha  occ. eigenvalues --   -2.19903  -2.19808  -2.19466  -2.19217  -1.14252
 Alpha  occ. eigenvalues --   -1.14234  -1.14162  -1.13944  -1.13931  -1.13889
 Alpha  occ. eigenvalues --   -1.13856  -1.13779  -1.13767  -1.13574  -1.13550
 Alpha  occ. eigenvalues --   -1.13521  -1.13466  -1.13458  -1.13430  -1.13117
 Alpha  occ. eigenvalues --   -1.13108  -1.13082  -1.12894  -1.12876  -1.12862
 Alpha  occ. eigenvalues --   -0.17529  -0.13977  -0.12571  -0.10091
 Alpha virt. eigenvalues --   -0.06245  -0.06043  -0.04856  -0.03302  -0.02862
 Alpha virt. eigenvalues --   -0.02117  -0.01878  -0.01307  -0.01266  -0.00824
 Alpha virt. eigenvalues --   -0.00116   0.00301   0.00420   0.00621   0.00658

  Beta  occ. eigenvalues --  -38.44788 -38.44446 -38.44175 -38.44011 -38.43960
  Beta  occ. eigenvalues --  -38.43485 -38.43406  -2.20543  -2.20242  -2.20048
  Beta  occ. eigenvalues --   -2.19894  -2.19755  -2.19310  -2.19217  -1.14243
  Beta  occ. eigenvalues --   -1.14224  -1.14149  -1.13940  -1.13922  -1.13864
  Beta  occ. eigenvalues --   -1.13815  -1.13727  -1.13695  -1.13554  -1.13543
  Beta  occ. eigenvalues --   -1.13484  -1.13430  -1.13421  -1.13397  -1.13015
  Beta  occ. eigenvalues --   -1.13001  -1.12974  -1.12896  -1.12876  -1.12838
  Beta  occ. eigenvalues --   -0.16926  -0.13639  -0.12301
  Beta virt. eigenvalues --   -0.06576  -0.06079  -0.05770  -0.04669  -0.02911
  Beta virt. eigenvalues --   -0.02227  -0.01944  -0.01297  -0.01249  -0.01151
  Beta virt. eigenvalues --   -0.00668   0.00224   0.00408   0.00584   0.00703

 Mulliken charges and spin densities:
               1          2
     1  Na  -0.219046  -0.033816
     2  Na   0.750050   0.275559
     3  Na  -0.612874  -0.122264
     4  Na  -0.460155   0.540791
     5  Na  -0.071316   0.445088
     6  Na   0.155135  -0.072002
     7  Na   0.458207  -0.033357
 Sum of Mulliken charges =  -0.00000   1.00000

 Dipole moment (field-independent basis, Debye):
    X=              0.6889    Y=             -0.2050    Z=              0.2340  Tot=              0.7559
 Quadrupole moment (field-independent basis, Debye-Ang):
   XX=            -61.6637   YY=            -62.8916   ZZ=            -73.5627
   XY=              3.5868   XZ=             -3.7392   YZ=              1.0099

 Normal termination of Gaussian 16 at Sun Dec  3 22:54:15 2023.
