 Gaussian 16, Revision B.01,
 Gaussian 16:  ES64L-G16RevB.01 20-Dec-2017

 -------------------------
 #P B3LYP/6-311+g(d) force
 -------------------------

 -----
 DPGEN
 -----
 Symbolic Z-matrix:
 Charge =  0 Multiplicity = 2

                         Standard orientation:
 ---------------------------------------------------------------------
 Center     Atomic      Atomic             Coordinates (Angstroms)
 Number     Number       Type             X           Y           Z
 ---------------------------------------------------------------------
      1         11           0        3.382419   -1.130420   -0.752772
      2         11           0       -0.704535    0.990154    1.742436
      3         11           0       -3.211930    1.082139   -0.991255
      4         11           0       -2.381922   -1.731944    0.241899
      5         11           0        0.693536   -1.801112    0.909039
      6         11           0        2.108725    2.419052    0.334021
      7         11           0        0.113708    0.172130   -1.483367
 ---------------------------------------------------------------------

 SCF Done:  E(UB3LYP) =  -1136.12606436     A.U. after   21 cycles

 The electronic state is 2-A.
 Alpha  occ. eigenvalues --  -38.44423 -38.44381 -38.44064 -38.43737 -38.43500
 Alpha  occ. eigenvalues --  -38.43391 -38.42652  -2.20245  -2.20235  -2.20015
 Alpha  occ. eigenvalues --   -2.19653  -2.19438  -2.19195  -2.18633  -1.13919
 Alpha  occ. eigenvalues --   -1.13903  -1.13898  -1.13893  -1.13868  -1.13861
 Alpha  occ. eigenvalues --   -1.13758  -1.13650  -1.13624  -1.13344  -1.13308
 Alpha  occ. eigenvalues --   -1.13294  -1.13147  -1.13070  -1.13038  -1.12870
 Alpha  occ. eigenvalues --   -1.12851  -1.12835  -1.12341  -1.12275  -1.12257
 Alpha  occ. eigenvalues --   -0.18898  -0.13880  -0.11477  -0.11218
 Alpha virt. eigenvalues --   -0.06351  -0.05379  -0.04134  -0.03129  -0.02705
 Alpha virt. eigenvalues --   -0.02381  -0.02304  -0.01163  -0.00525  -0.00093
 Alpha virt. eigenvalues --    0.00205   0.00267   0.00561   0.00671   0.00806

  Beta  occ. eigenvalues --  -38.44399 -38.44339 -38.44033 -38.43727 -38.43425
  Beta  occ. eigenvalues --  -38.43389 -38.42624  -2.20200  -2.20159  -2.19960
  Beta  occ. eigenvalues --   -2.19640  -2.19304  -2.19195  -2.18588  -1.13890
  Beta  occ. eigenvalues --   -1.13863  -1.13855  -1.13839  -1.13831  -1.13809
  Beta  occ. eigenvalues --   -1.13712  -1.13615  -1.13578  -1.13331  -1.13296
  Beta  occ. eigenvalues --   -1.13260  -1.13054  -1.12973  -1.12940  -1.12865
  Beta  occ. eigenvalues --   -1.12846  -1.12827  -1.12316  -1.12239  -1.12193
  Beta  occ. eigenvalues --   -0.18188  -0.13497  -0.11185
  Beta virt. eigenvalues --   -0.07464  -0.06093  -0.05342  -0.03601  -0.02945
  Beta virt. eigenvalues --   -0.02216  -0.01921  -0.01514  -0.01119  -0.00281
  Beta virt. eigenvalues --   -0.00005   0.00255   0.00276   0.00634   0.00756

 Mulliken charges and spin densities:
               1          2
     1  Na   0.683892   0.082356
     2  Na   0.114001   0.327354
     3  Na   0.324064   0.189123
     4  Na   0.258429   0.117349
     5  Na  -0.356955   0.016652
     6  Na  -0.364707  -0.014791
     7  Na  -0.658724   0.281958
 Sum of Mulliken charges =  -0.00000   1.00000

 Dipole moment (field-independent basis, Debye):
    X=             -0.0946    Y=              0.2037    Z=             -0.1870  Tot=              0.2922
 Quadrupole moment (field-independent basis, Debye-Ang):
   XX=            -50.2275   YY=            -72.9926   ZZ=            -70.1324
   XY=              0.0279   XZ=             -0.8230   YZ=             -0.4343

 Normal termination of Gaussian 16 at Mon Dec  4 00:24:06 2023.
