 Gaussian 16, Revision B.01,
 Gaussian 16:  ES64L-G16RevB.01 20-Dec-2017

 -------------------------
 #P B3LYP/6-311+g(d) force
 -------------------------

 -----
 DPGEN
 -----
 Symbolic Z-matrix:
 Charge =  0 Multiplicity = 2

                         Standard orientation:
 ---------------------------------------------------------------------
 Center     Atomic      Atomic             Coordinates (Angstroms)
 Number     Number       Type             X           Y           Z
 ---------------------------------------------------------------------
      1         11           0        0.215676    1.497475    2.242666
      2         11           0        4.190971   -0.445548   -1.612712
      3         11           0       -3.924670   -1.297995   -0.489822
      4         11           0        1.149620    1.446661   -0.869124
      5         11           0       -2.448315    2.255291   -0.817313
      6         11           0       -1.077061   -2.306871   -0.142220
      7         11           0        1.893779   -1.149015    1.688525
 ---------------------------------------------------------------------

 SCF Done:  E(UB3LYP) =  -1136.11636428     A.U. after   22 cycles

 The electronic state is 2-A.
 Alpha  occ. eigenvalues --  -38.45199 -38.44562 -38.44183 -38.44174 -38.43984
 Alpha  occ. eigenvalues --  -38.43767 -38.43547  -2.20979  -2.20416  -2.20031
 Alpha  occ. eigenvalues --   -2.20018  -2.19746  -2.19574  -2.19356  -1.14628
 Alpha  occ. eigenvalues --   -1.14623  -1.14584  -1.14117  -1.14073  -1.14031
 Alpha  occ. eigenvalues --   -1.13717  -1.13714  -1.13701  -1.13683  -1.13651
 Alpha  occ. eigenvalues --   -1.13607  -1.13434  -1.13399  -1.13367  -1.13309
 Alpha  occ. eigenvalues --   -1.13233  -1.13205  -1.13025  -1.13014  -1.12970
 Alpha  occ. eigenvalues --   -0.17312  -0.13416  -0.12027  -0.11469
 Alpha virt. eigenvalues --   -0.06366  -0.05665  -0.04557  -0.03302  -0.02971
 Alpha virt. eigenvalues --   -0.02626  -0.02179  -0.01453  -0.01065  -0.00350
 Alpha virt. eigenvalues --    0.00013   0.00041   0.00212   0.00414   0.00612

  Beta  occ. eigenvalues --  -38.45108 -38.44514 -38.44156 -38.44144 -38.43969
  Beta  occ. eigenvalues --  -38.43769 -38.43542  -2.20811  -2.20330  -2.19986
  Beta  occ. eigenvalues --   -2.19963  -2.19717  -2.19578  -2.19348  -1.14512
  Beta  occ. eigenvalues --   -1.14502  -1.14476  -1.14058  -1.14011  -1.13960
  Beta  occ. eigenvalues --   -1.13698  -1.13678  -1.13652  -1.13632  -1.13594
  Beta  occ. eigenvalues --   -1.13577  -1.13413  -1.13381  -1.13349  -1.13311
  Beta  occ. eigenvalues --   -1.13235  -1.13206  -1.13017  -1.13008  -1.12966
  Beta  occ. eigenvalues --   -0.16673  -0.12931  -0.11369
  Beta virt. eigenvalues --   -0.08230  -0.05915  -0.05417  -0.04203  -0.03178
  Beta virt. eigenvalues --   -0.02337  -0.02189  -0.01884  -0.01235  -0.00745
  Beta virt. eigenvalues --   -0.00195   0.00103   0.00170   0.00310   0.00515

 Mulliken charges and spin densities:
               1          2
     1  Na   0.400338   0.223497
     2  Na   0.407642   0.369391
     3  Na   0.309057  -0.001514
     4  Na  -0.629558   0.248339
     5  Na  -0.062680   0.072551
     6  Na  -0.309058   0.059460
     7  Na  -0.115741   0.028277
 Sum of Mulliken charges =  -0.00000   1.00000

 Dipole moment (field-independent basis, Debye):
    X=              0.7220    Y=              0.4422    Z=              0.3613  Tot=              0.9206
 Quadrupole moment (field-independent basis, Debye-Ang):
   XX=            -55.8345   YY=            -75.7179   ZZ=            -65.5022
   XY=             -5.2125   XZ=             -1.0239   YZ=              0.3957

 Normal termination of Gaussian 16 at Sun Dec  3 15:19:16 2023.
