 Gaussian 16, Revision B.01,
 Gaussian 16:  ES64L-G16RevB.01 20-Dec-2017

 -------------------------
 #P B3LYP/6-311+g(d) force
 -------------------------

 -----
 DPGEN
 -----
 Symbolic Z-matrix:
 Charge =  0 Multiplicity = 2

                         Standard orientation:
 ---------------------------------------------------------------------
 Center     Atomic      Atomic             Coordinates (Angstroms)
 Number     Number       Type             X           Y           Z
 ---------------------------------------------------------------------
      1         11           0       -3.206920   -1.429432    0.047059
      2         11           0        0.904625   -2.726574   -0.140124
      3         11           0       -0.108533   -0.164101   -1.667143
      4         11           0       -2.201440    1.913211   -0.200225
      5         11           0       -0.052414    0.286454    2.186018
      6         11           0        3.177771   -0.627745    0.062663
      7         11           0        1.486910    2.748186   -0.288247
 ---------------------------------------------------------------------

 SCF Done:  E(UB3LYP) =  -1136.13352058     A.U. after   19 cycles

 The electronic state is 2-A.
 Alpha  occ. eigenvalues --  -38.44335 -38.44295 -38.43888 -38.43878 -38.43421
 Alpha  occ. eigenvalues --  -38.43379 -38.43347  -2.20128  -2.20108  -2.19730
 Alpha  occ. eigenvalues --   -2.19725  -2.19365  -2.19252  -2.19150  -1.13818
 Alpha  occ. eigenvalues --   -1.13789  -1.13778  -1.13769  -1.13765  -1.13752
 Alpha  occ. eigenvalues --   -1.13433  -1.13411  -1.13382  -1.13352  -1.13344
 Alpha  occ. eigenvalues --   -1.13333  -1.13094  -1.13033  -1.12971  -1.12906
 Alpha  occ. eigenvalues --   -1.12898  -1.12876  -1.12823  -1.12808  -1.12793
 Alpha  occ. eigenvalues --   -0.18259  -0.13159  -0.12076  -0.10714
 Alpha virt. eigenvalues --   -0.05944  -0.05416  -0.04510  -0.03298  -0.02827
 Alpha virt. eigenvalues --   -0.02608  -0.01783  -0.01262  -0.00460  -0.00384
 Alpha virt. eigenvalues --   -0.00057   0.00331   0.00707   0.00829   0.00862

  Beta  occ. eigenvalues --  -38.44337 -38.44294 -38.43871 -38.43787 -38.43373
  Beta  occ. eigenvalues --  -38.43358 -38.43343  -2.20128  -2.20113  -2.19716
  Beta  occ. eigenvalues --   -2.19543  -2.19253  -2.19244  -2.19145  -1.13822
  Beta  occ. eigenvalues --   -1.13776  -1.13771  -1.13767  -1.13766  -1.13757
  Beta  occ. eigenvalues --   -1.13420  -1.13372  -1.13332  -1.13263  -1.13225
  Beta  occ. eigenvalues --   -1.13212  -1.13034  -1.12957  -1.12900  -1.12887
  Beta  occ. eigenvalues --   -1.12868  -1.12857  -1.12809  -1.12796  -1.12792
  Beta  occ. eigenvalues --   -0.17530  -0.12975  -0.11873
  Beta virt. eigenvalues --   -0.06784  -0.05866  -0.05415  -0.04465  -0.02525
  Beta virt. eigenvalues --   -0.02059  -0.01685  -0.01576  -0.01199  -0.00506
  Beta virt. eigenvalues --   -0.00427   0.00106   0.00355   0.00782   0.00822

 Mulliken charges and spin densities:
               1          2
     1  Na   0.041485  -0.066501
     2  Na   0.188780  -0.063034
     3  Na  -0.045770   0.439638
     4  Na   0.219217  -0.036507
     5  Na  -0.529894   0.771965
     6  Na   0.095024   0.001261
     7  Na   0.031159  -0.046822
 Sum of Mulliken charges =  -0.00000   1.00000

 Dipole moment (field-independent basis, Debye):
    X=             -0.1469    Y=             -0.0738    Z=              0.1553  Tot=              0.2262
 Quadrupole moment (field-independent basis, Debye-Ang):
   XX=            -54.4051   YY=            -64.4671   ZZ=            -74.8439
   XY=              1.3272   XZ=             -0.0848   YZ=             -1.0672

 Normal termination of Gaussian 16 at Thu Dec  7 17:09:53 2023.
