 Gaussian 16, Revision B.01,
 Gaussian 16:  ES64L-G16RevB.01 20-Dec-2017

 -------------------------
 #P B3LYP/6-311+g(d) force
 -------------------------

 -----
 DPGEN
 -----
 Symbolic Z-matrix:
 Charge =  0 Multiplicity = 2

                         Standard orientation:
 ---------------------------------------------------------------------
 Center     Atomic      Atomic             Coordinates (Angstroms)
 Number     Number       Type             X           Y           Z
 ---------------------------------------------------------------------
      1         11           0       -1.457019    2.939739    0.415325
      2         11           0       -3.131931   -0.008255   -0.869508
      3         11           0       -0.557435   -2.809003   -0.809054
      4         11           0        4.107161    1.076039   -0.528717
      5         11           0        2.342843   -1.156528    1.219374
      6         11           0        0.302485    0.479004   -1.223287
      7         11           0       -1.606104   -0.520996    1.795867
 ---------------------------------------------------------------------

 SCF Done:  E(UB3LYP) =  -1136.12608075     A.U. after   23 cycles

 The electronic state is 2-A.
 Alpha  occ. eigenvalues --  -38.44852 -38.44604 -38.43998 -38.43666 -38.43653
 Alpha  occ. eigenvalues --  -38.43549 -38.43044  -2.20718  -2.20373  -2.19817
 Alpha  occ. eigenvalues --   -2.19565  -2.19558  -2.19354  -2.18873  -1.14438
 Alpha  occ. eigenvalues --   -1.14382  -1.14305  -1.14045  -1.14035  -1.14009
 Alpha  occ. eigenvalues --   -1.13502  -1.13483  -1.13430  -1.13273  -1.13249
 Alpha  occ. eigenvalues --   -1.13226  -1.13220  -1.13174  -1.13146  -1.13029
 Alpha  occ. eigenvalues --   -1.13015  -1.12983  -1.12559  -1.12518  -1.12513
 Alpha  occ. eigenvalues --   -0.18073  -0.13502  -0.11641  -0.10472
 Alpha virt. eigenvalues --   -0.06822  -0.05070  -0.04613  -0.03245  -0.02655
 Alpha virt. eigenvalues --   -0.02336  -0.02122  -0.01135  -0.00916  -0.00323
 Alpha virt. eigenvalues --   -0.00102   0.00203   0.00270   0.00697   0.00807

  Beta  occ. eigenvalues --  -38.44832 -38.44604 -38.43976 -38.43612 -38.43598
  Beta  occ. eigenvalues --  -38.43546 -38.43030  -2.20684  -2.20372  -2.19776
  Beta  occ. eigenvalues --   -2.19488  -2.19437  -2.19351  -2.18851  -1.14406
  Beta  occ. eigenvalues --   -1.14348  -1.14277  -1.14043  -1.14036  -1.14008
  Beta  occ. eigenvalues --   -1.13475  -1.13451  -1.13396  -1.13212  -1.13176
  Beta  occ. eigenvalues --   -1.13154  -1.13140  -1.13116  -1.13055  -1.13027
  Beta  occ. eigenvalues --   -1.12997  -1.12981  -1.12540  -1.12507  -1.12479
  Beta  occ. eigenvalues --   -0.17373  -0.13356  -0.11439
  Beta virt. eigenvalues --   -0.06754  -0.06624  -0.04783  -0.04434  -0.02892
  Beta virt. eigenvalues --   -0.02285  -0.02003  -0.01275  -0.00985  -0.00781
  Beta virt. eigenvalues --   -0.00122  -0.00013   0.00239   0.00396   0.00737

 Mulliken charges and spin densities:
               1          2
     1  Na  -0.190478  -0.089030
     2  Na   0.824865   0.074652
     3  Na   0.044799   0.073696
     4  Na   0.233200   0.020947
     5  Na  -0.221969   0.002692
     6  Na  -0.504999   0.330016
     7  Na  -0.185419   0.587028
 Sum of Mulliken charges =  -0.00000   1.00000

 Dipole moment (field-independent basis, Debye):
    X=              0.1317    Y=              0.2125    Z=             -0.1711  Tot=              0.3030
 Quadrupole moment (field-independent basis, Debye-Ang):
   XX=            -52.0134   YY=            -66.7750   ZZ=            -73.1086
   XY=              1.9596   XZ=              0.9688   YZ=              0.2547

 Normal termination of Gaussian 16 at Tue Dec  5 19:25:39 2023.
