 Gaussian 16, Revision B.01,
 Gaussian 16:  ES64L-G16RevB.01 20-Dec-2017

 -------------------------
 #P B3LYP/6-311+g(d) force
 -------------------------

 -----
 DPGEN
 -----
 Symbolic Z-matrix:
 Charge =  0 Multiplicity = 2

                         Standard orientation:
 ---------------------------------------------------------------------
 Center     Atomic      Atomic             Coordinates (Angstroms)
 Number     Number       Type             X           Y           Z
 ---------------------------------------------------------------------
      1         11           0       -3.959388   -0.521976   -0.026193
      2         11           0       -0.888382   -0.372590    2.187887
      3         11           0        1.240112    1.488576   -0.656160
      4         11           0       -0.610060   -1.889507   -1.457760
      5         11           0       -2.101132    2.533796   -0.349119
      6         11           0        4.420965    0.902692    0.181879
      7         11           0        1.897885   -2.140991    0.119467
 ---------------------------------------------------------------------

 SCF Done:  E(UB3LYP) =  -1136.11356378     A.U. after   28 cycles

 The electronic state is 2-A.
 Alpha  occ. eigenvalues --  -38.46064 -38.44908 -38.44829 -38.43882 -38.43664
 Alpha  occ. eigenvalues --  -38.43550 -38.42969  -2.21814  -2.20701  -2.20593
 Alpha  occ. eigenvalues --   -2.19680  -2.19518  -2.19387  -2.18844  -1.15489
 Alpha  occ. eigenvalues --   -1.15472  -1.15452  -1.14374  -1.14335  -1.14315
 Alpha  occ. eigenvalues --   -1.14262  -1.14258  -1.14234  -1.13358  -1.13342
 Alpha  occ. eigenvalues --   -1.13308  -1.13259  -1.13181  -1.13139  -1.13086
 Alpha  occ. eigenvalues --   -1.13046  -1.13013  -1.12514  -1.12476  -1.12466
 Alpha  occ. eigenvalues --   -0.17542  -0.13580  -0.11721  -0.10321
 Alpha virt. eigenvalues --   -0.07944  -0.05515  -0.03936  -0.03468  -0.03289
 Alpha virt. eigenvalues --   -0.02422  -0.02298  -0.01606  -0.00777  -0.00695
 Alpha virt. eigenvalues --   -0.00457   0.00068   0.00265   0.00513   0.00659

  Beta  occ. eigenvalues --  -38.46064 -38.44833 -38.44829 -38.43853 -38.43666
  Beta  occ. eigenvalues --  -38.43523 -38.42923  -2.21817  -2.20600  -2.20555
  Beta  occ. eigenvalues --   -2.19630  -2.19523  -2.19341  -2.18759  -1.15482
  Beta  occ. eigenvalues --   -1.15470  -1.15453  -1.14268  -1.14267  -1.14263
  Beta  occ. eigenvalues --   -1.14238  -1.14235  -1.14215  -1.13322  -1.13300
  Beta  occ. eigenvalues --   -1.13269  -1.13249  -1.13176  -1.13147  -1.13057
  Beta  occ. eigenvalues --   -1.13011  -1.12961  -1.12461  -1.12416  -1.12402
  Beta  occ. eigenvalues --   -0.16907  -0.13522  -0.11356
  Beta virt. eigenvalues --   -0.07667  -0.06655  -0.05446  -0.03772  -0.03108
  Beta virt. eigenvalues --   -0.02880  -0.01860  -0.01528  -0.01486  -0.00735
  Beta virt. eigenvalues --   -0.00565  -0.00271   0.00110   0.00456   0.00601

 Mulliken charges and spin densities:
               1          2
     1  Na   0.183220   0.116645
     2  Na  -0.151468   0.491199
     3  Na  -0.695753   0.150839
     4  Na  -0.138954   0.208516
     5  Na   0.095197  -0.084238
     6  Na   0.395822   0.107133
     7  Na   0.311934   0.009906
 Sum of Mulliken charges =  -0.00000   1.00000

 Dipole moment (field-independent basis, Debye):
    X=             -0.6636    Y=             -0.3806    Z=              0.1426  Tot=              0.7781
 Quadrupole moment (field-independent basis, Debye-Ang):
   XX=            -45.0061   YY=            -74.4997   ZZ=            -74.5560
   XY=              0.0338   XZ=              4.2717   YZ=              0.5443

 Normal termination of Gaussian 16 at Sun Dec  3 16:00:31 2023.
