 Gaussian 16, Revision B.01,
 Gaussian 16:  ES64L-G16RevB.01 20-Dec-2017

 -------------------------
 #P B3LYP/6-311+g(d) force
 -------------------------

 -----
 DPGEN
 -----
 Symbolic Z-matrix:
 Charge =  0 Multiplicity = 2

                         Standard orientation:
 ---------------------------------------------------------------------
 Center     Atomic      Atomic             Coordinates (Angstroms)
 Number     Number       Type             X           Y           Z
 ---------------------------------------------------------------------
      1         11           0        0.889042   -2.460612   -0.205302
      2         11           0       -2.077849   -1.778584    0.082577
      3         11           0        2.904478    0.075212    0.267228
      4         11           0       -0.378857    0.115909    2.098629
      5         11           0        0.672177    2.664154   -0.054212
      6         11           0       -2.344836    1.469085   -0.426982
      7         11           0        0.335845   -0.085164   -1.761938
 ---------------------------------------------------------------------

 SCF Done:  E(UB3LYP) =  -1136.13466301     A.U. after   18 cycles

 The electronic state is 2-A.
 Alpha  occ. eigenvalues --  -38.43884 -38.43490 -38.43478 -38.43378 -38.43251
 Alpha  occ. eigenvalues --  -38.43246 -38.43214  -2.19815  -2.19535  -2.19377
 Alpha  occ. eigenvalues --   -2.19288  -2.19222  -2.19158  -2.19156  -1.13487
 Alpha  occ. eigenvalues --   -1.13449  -1.13434  -1.13331  -1.13204  -1.13169
 Alpha  occ. eigenvalues --   -1.13048  -1.13027  -1.13025  -1.12971  -1.12966
 Alpha  occ. eigenvalues --   -1.12948  -1.12940  -1.12864  -1.12840  -1.12825
 Alpha  occ. eigenvalues --   -1.12815  -1.12809  -1.12794  -1.12769  -1.12731
 Alpha  occ. eigenvalues --   -0.19571  -0.12973  -0.12878  -0.11469
 Alpha virt. eigenvalues --   -0.05009  -0.04742  -0.04611  -0.03394  -0.03260
 Alpha virt. eigenvalues --   -0.02944  -0.01073  -0.00873  -0.00083   0.00175
 Alpha virt. eigenvalues --    0.00244   0.00379   0.00943   0.00988   0.01011

  Beta  occ. eigenvalues --  -38.43790 -38.43485 -38.43405 -38.43367 -38.43245
  Beta  occ. eigenvalues --  -38.43237 -38.43206  -2.19643  -2.19402  -2.19370
  Beta  occ. eigenvalues --   -2.19272  -2.19210  -2.19151  -2.19148  -1.13376
  Beta  occ. eigenvalues --   -1.13324  -1.13312  -1.13254  -1.13125  -1.13097
  Beta  occ. eigenvalues --   -1.13038  -1.13011  -1.12991  -1.12961  -1.12956
  Beta  occ. eigenvalues --   -1.12937  -1.12901  -1.12835  -1.12821  -1.12806
  Beta  occ. eigenvalues --   -1.12794  -1.12784  -1.12767  -1.12760  -1.12729
  Beta  occ. eigenvalues --   -0.18789  -0.12726  -0.12591
  Beta virt. eigenvalues --   -0.07460  -0.04987  -0.04726  -0.04593  -0.02567
  Beta virt. eigenvalues --   -0.02400  -0.01849  -0.00999  -0.00809   0.00060
  Beta virt. eigenvalues --    0.00122   0.00204   0.00395   0.00980   0.00989

 Mulliken charges and spin densities:
               1          2
     1  Na   0.473340   0.034853
     2  Na   0.367192   0.033940
     3  Na   0.130308   0.003716
     4  Na  -0.830140   0.631710
     5  Na   0.187114  -0.036922
     6  Na   0.259570  -0.016395
     7  Na  -0.587385   0.349098
 Sum of Mulliken charges =  -0.00000   1.00000

 Dipole moment (field-independent basis, Debye):
    X=              0.0489    Y=              0.2069    Z=              0.2823  Tot=              0.3534
 Quadrupole moment (field-independent basis, Debye-Ang):
   XX=            -61.1278   YY=            -64.3372   ZZ=            -70.2433
   XY=              0.1730   XZ=              1.6024   YZ=             -0.3773

 Normal termination of Gaussian 16 at Thu Dec  7 14:24:15 2023.
