 Gaussian 16, Revision B.01,
 Gaussian 16:  ES64L-G16RevB.01 20-Dec-2017

 -------------------------
 #P B3LYP/6-311+g(d) force
 -------------------------

 -----
 DPGEN
 -----
 Symbolic Z-matrix:
 Charge =  0 Multiplicity = 2

                         Standard orientation:
 ---------------------------------------------------------------------
 Center     Atomic      Atomic             Coordinates (Angstroms)
 Number     Number       Type             X           Y           Z
 ---------------------------------------------------------------------
      1         11           0        0.217328    3.062181   -0.216875
      2         11           0       -5.546481   -0.748177    0.586232
      3         11           0       -2.714079    1.258468    0.259338
      4         11           0       -3.320545   -1.651146   -0.904713
      5         11           0        0.299227   -0.531449   -0.250480
      6         11           0        4.178532   -1.051662    0.942624
      7         11           0        6.886017   -0.338214   -0.416127
 ---------------------------------------------------------------------

 SCF Done:  E(UB3LYP) =  -1136.11352926     A.U. after   21 cycles

 The electronic state is 2-A.
 Alpha  occ. eigenvalues --  -38.44635 -38.44485 -38.44295 -38.44128 -38.44053
 Alpha  occ. eigenvalues --  -38.43852 -38.43640  -2.20558  -2.20362  -2.20184
 Alpha  occ. eigenvalues --   -2.19915  -2.19855  -2.19638  -2.19467  -1.14389
 Alpha  occ. eigenvalues --   -1.14240  -1.14192  -1.13994  -1.13987  -1.13924
 Alpha  occ. eigenvalues --   -1.13890  -1.13878  -1.13763  -1.13597  -1.13567
 Alpha  occ. eigenvalues --   -1.13566  -1.13515  -1.13507  -1.13472  -1.13303
 Alpha  occ. eigenvalues --   -1.13297  -1.13268  -1.13149  -1.13119  -1.13083
 Alpha  occ. eigenvalues --   -0.17107  -0.13768  -0.12511  -0.10596
 Alpha virt. eigenvalues --   -0.06618  -0.05770  -0.04271  -0.03815  -0.02852
 Alpha virt. eigenvalues --   -0.02264  -0.01989  -0.01872  -0.01398  -0.00801
 Alpha virt. eigenvalues --   -0.00346  -0.00054   0.00332   0.00398   0.00580

  Beta  occ. eigenvalues --  -38.44607 -38.44472 -38.44269 -38.44114 -38.44012
  Beta  occ. eigenvalues --  -38.43855 -38.43583  -2.20510  -2.20337  -2.20139
  Beta  occ. eigenvalues --   -2.19888  -2.19778  -2.19645  -2.19364  -1.14353
  Beta  occ. eigenvalues --   -1.14211  -1.14154  -1.13973  -1.13965  -1.13895
  Beta  occ. eigenvalues --   -1.13861  -1.13825  -1.13729  -1.13582  -1.13549
  Beta  occ. eigenvalues --   -1.13548  -1.13463  -1.13445  -1.13426  -1.13308
  Beta  occ. eigenvalues --   -1.13303  -1.13260  -1.13081  -1.13046  -1.13000
  Beta  occ. eigenvalues --   -0.16504  -0.13588  -0.12227
  Beta virt. eigenvalues --   -0.07093  -0.06159  -0.05365  -0.04105  -0.03500
  Beta virt. eigenvalues --   -0.02504  -0.02188  -0.01762  -0.01477  -0.01170
  Beta virt. eigenvalues --   -0.00459  -0.00068   0.00103   0.00485   0.00500

 Mulliken charges and spin densities:
               1          2
     1  Na   0.560607   0.164937
     2  Na   1.004401   0.027890
     3  Na  -0.993446   0.273501
     4  Na  -0.061457  -0.017219
     5  Na  -0.442764   0.532030
     6  Na  -0.316543  -0.039510
     7  Na   0.249203   0.058372
 Sum of Mulliken charges =  -0.00000   1.00000

 Dipole moment (field-independent basis, Debye):
    X=             -1.2970    Y=              0.1629    Z=             -0.1683  Tot=              1.3180
 Quadrupole moment (field-independent basis, Debye-Ang):
   XX=            -53.3372   YY=            -69.7545   ZZ=            -69.7414
   XY=              8.3191   XZ=             -5.9830   YZ=             -0.8934

 Normal termination of Gaussian 16 at Wed Nov 29 03:39:25 2023.
