 Gaussian 16, Revision B.01,
 Gaussian 16:  ES64L-G16RevB.01 20-Dec-2017

 -------------------------
 #P B3LYP/6-311+g(d) force
 -------------------------

 -----
 DPGEN
 -----
 Symbolic Z-matrix:
 Charge =  0 Multiplicity = 2

                         Standard orientation:
 ---------------------------------------------------------------------
 Center     Atomic      Atomic             Coordinates (Angstroms)
 Number     Number       Type             X           Y           Z
 ---------------------------------------------------------------------
      1         11           0       -0.872496    0.987839    0.625257
      2         11           0       -2.968540    2.793548   -0.312263
      3         11           0       -3.124880   -0.885417   -0.877368
      4         11           0        0.888343   -1.758148   -1.227805
      5         11           0        2.371439    0.542366    0.903733
      6         11           0       -1.573022   -2.266936    1.293864
      7         11           0        5.279157    0.586748   -0.405417
 ---------------------------------------------------------------------

 SCF Done:  E(UB3LYP) =  -1136.11315241     A.U. after   23 cycles

 The electronic state is 2-A.
 Alpha  occ. eigenvalues --  -38.45782 -38.44599 -38.44118 -38.43791 -38.43353
 Alpha  occ. eigenvalues --  -38.43225 -38.42963  -2.21570  -2.20474  -2.20025
 Alpha  occ. eigenvalues --   -2.19616  -2.19195  -2.19107  -2.18984  -1.15271
 Alpha  occ. eigenvalues --   -1.15229  -1.15172  -1.14207  -1.14141  -1.14085
 Alpha  occ. eigenvalues --   -1.13706  -1.13691  -1.13595  -1.13270  -1.13245
 Alpha  occ. eigenvalues --   -1.13236  -1.12989  -1.12842  -1.12820  -1.12801
 Alpha  occ. eigenvalues --   -1.12770  -1.12758  -1.12656  -1.12632  -1.12554
 Alpha  occ. eigenvalues --   -0.18096  -0.13968  -0.12006  -0.10577
 Alpha virt. eigenvalues --   -0.07202  -0.05214  -0.04193  -0.03496  -0.02929
 Alpha virt. eigenvalues --   -0.02377  -0.01679  -0.01382  -0.01199  -0.00588
 Alpha virt. eigenvalues --   -0.00260   0.00057   0.00243   0.00521   0.00649

  Beta  occ. eigenvalues --  -38.45778 -38.44594 -38.44067 -38.43692 -38.43355
  Beta  occ. eigenvalues --  -38.43209 -38.42922  -2.21565  -2.20469  -2.19931
  Beta  occ. eigenvalues --   -2.19431  -2.19199  -2.19088  -2.18912  -1.15269
  Beta  occ. eigenvalues --   -1.15210  -1.15180  -1.14199  -1.14123  -1.14074
  Beta  occ. eigenvalues --   -1.13649  -1.13625  -1.13526  -1.13149  -1.13119
  Beta  occ. eigenvalues --   -1.13112  -1.12978  -1.12846  -1.12813  -1.12773
  Beta  occ. eigenvalues --   -1.12760  -1.12702  -1.12615  -1.12582  -1.12488
  Beta  occ. eigenvalues --   -0.17546  -0.13246  -0.11777
  Beta virt. eigenvalues --   -0.07069  -0.06992  -0.05041  -0.03629  -0.03247
  Beta virt. eigenvalues --   -0.02631  -0.02259  -0.01407  -0.01086  -0.00725
  Beta virt. eigenvalues --   -0.00407  -0.00019   0.00260   0.00356   0.00598

 Mulliken charges and spin densities:
               1          2
     1  Na  -1.800548  -0.116894
     2  Na   0.336211  -0.011041
     3  Na   0.049261   0.376869
     4  Na  -0.035542  -0.114617
     5  Na   0.148185   0.181925
     6  Na   0.695890   0.157491
     7  Na   0.606543   0.526268
 Sum of Mulliken charges =  -0.00000   1.00000

 Dipole moment (field-independent basis, Debye):
    X=             -0.8168    Y=             -1.4506    Z=             -0.5982  Tot=              1.7690
 Quadrupole moment (field-independent basis, Debye-Ang):
   XX=            -73.2161   YY=            -70.2874   ZZ=            -60.8667
   XY=             -3.2966   XZ=             -1.5789   YZ=             -0.1991

 Normal termination of Gaussian 16 at Wed Nov 29 01:14:29 2023.
