 Gaussian 16, Revision B.01,
 Gaussian 16:  ES64L-G16RevB.01 20-Dec-2017

 -------------------------
 #P B3LYP/6-311+g(d) force
 -------------------------

 -----
 DPGEN
 -----
 Symbolic Z-matrix:
 Charge =  0 Multiplicity = 2

                         Standard orientation:
 ---------------------------------------------------------------------
 Center     Atomic      Atomic             Coordinates (Angstroms)
 Number     Number       Type             X           Y           Z
 ---------------------------------------------------------------------
      1         11           0        0.035478   -0.222673   -0.070088
      2         11           0       -0.617153    3.322572    0.090578
      3         11           0        2.845581    2.233057    0.018647
      4         11           0        3.386778   -1.358167   -0.160593
      5         11           0        0.657322   -3.004710    0.249675
      6         11           0       -2.894309   -1.988091   -0.101267
      7         11           0       -3.413699    1.018012   -0.026951
 ---------------------------------------------------------------------

 SCF Done:  E(UB3LYP) =  -1136.12409105     A.U. after   31 cycles

 The electronic state is 2-A.
 Alpha  occ. eigenvalues --  -38.44359 -38.44325 -38.44000 -38.43817 -38.43762
 Alpha  occ. eigenvalues --  -38.43605 -38.43293  -2.20202  -2.20185  -2.19804
 Alpha  occ. eigenvalues --   -2.19791  -2.19645  -2.19531  -2.19120  -1.13892
 Alpha  occ. eigenvalues --   -1.13878  -1.13871  -1.13851  -1.13844  -1.13814
 Alpha  occ. eigenvalues --   -1.13596  -1.13500  -1.13483  -1.13466  -1.13425
 Alpha  occ. eigenvalues --   -1.13413  -1.13305  -1.13299  -1.13264  -1.13154
 Alpha  occ. eigenvalues --   -1.13142  -1.13130  -1.12780  -1.12765  -1.12755
 Alpha  occ. eigenvalues --   -0.17638  -0.14127  -0.13376  -0.09612
 Alpha virt. eigenvalues --   -0.06827  -0.05500  -0.04481  -0.02898  -0.02744
 Alpha virt. eigenvalues --   -0.02168  -0.01980  -0.01853  -0.01586  -0.00029
 Alpha virt. eigenvalues --    0.00351   0.00405   0.00474   0.00691   0.00718

  Beta  occ. eigenvalues --  -38.44337 -38.44292 -38.43965 -38.43817 -38.43725
  Beta  occ. eigenvalues --  -38.43570 -38.43249  -2.20166  -2.20131  -2.19790
  Beta  occ. eigenvalues --   -2.19742  -2.19581  -2.19464  -2.19038  -1.13858
  Beta  occ. eigenvalues --   -1.13851  -1.13847  -1.13820  -1.13783  -1.13738
  Beta  occ. eigenvalues --   -1.13576  -1.13496  -1.13445  -1.13442  -1.13416
  Beta  occ. eigenvalues --   -1.13355  -1.13266  -1.13260  -1.13189  -1.13110
  Beta  occ. eigenvalues --   -1.13105  -1.13094  -1.12724  -1.12709  -1.12704
  Beta  occ. eigenvalues --   -0.17357  -0.13377  -0.12868
  Beta virt. eigenvalues --   -0.06871  -0.06214  -0.05293  -0.04356  -0.02344
  Beta virt. eigenvalues --   -0.02104  -0.01971  -0.01724  -0.01649  -0.01387
  Beta virt. eigenvalues --    0.00102   0.00429   0.00556   0.00648   0.00760

 Mulliken charges and spin densities:
               1          2
     1  Na  -6.771918  -0.383923
     2  Na   0.594111   0.191693
     3  Na   1.018070   0.316987
     4  Na   1.140170   0.217460
     5  Na   1.778919   0.111681
     6  Na   1.272071   0.326077
     7  Na   0.968577   0.220024
 Sum of Mulliken charges =  -0.00000   1.00000

 Dipole moment (field-independent basis, Debye):
    X=              0.0370    Y=             -0.4673    Z=              0.0964  Tot=              0.4786
 Quadrupole moment (field-independent basis, Debye-Ang):
   XX=            -68.1777   YY=            -57.6903   ZZ=            -72.3458
   XY=             -4.6080   XZ=             -0.2070   YZ=              0.0967

 Normal termination of Gaussian 16 at Thu Dec  7 10:03:46 2023.
