 Gaussian 16, Revision B.01,
 Gaussian 16:  ES64L-G16RevB.01 20-Dec-2017

 -------------------------
 #P B3LYP/6-311+g(d) force
 -------------------------

 -----
 DPGEN
 -----
 Symbolic Z-matrix:
 Charge =  0 Multiplicity = 2

                         Standard orientation:
 ---------------------------------------------------------------------
 Center     Atomic      Atomic             Coordinates (Angstroms)
 Number     Number       Type             X           Y           Z
 ---------------------------------------------------------------------
      1         11           0        0.287675    0.358259   -1.426201
      2         11           0       -0.700608   -2.427859    1.169114
      3         11           0       -1.766433    1.184355    1.312421
      4         11           0        1.275551    3.626090   -0.590144
      5         11           0        2.734514   -2.527388   -1.148354
      6         11           0        2.030358    0.297006    1.710686
      7         11           0       -3.861056   -0.510464   -1.027523
 ---------------------------------------------------------------------

 SCF Done:  E(UB3LYP) =  -1136.12435607     A.U. after   20 cycles

 The electronic state is 2-A.
 Alpha  occ. eigenvalues --  -38.44642 -38.44508 -38.44170 -38.44139 -38.43878
 Alpha  occ. eigenvalues --  -38.43767 -38.43698  -2.20404  -2.20302  -2.19985
 Alpha  occ. eigenvalues --   -2.19902  -2.19642  -2.19623  -2.19460  -1.14089
 Alpha  occ. eigenvalues --   -1.14081  -1.14013  -1.13984  -1.13962  -1.13907
 Alpha  occ. eigenvalues --   -1.13688  -1.13655  -1.13597  -1.13568  -1.13562
 Alpha  occ. eigenvalues --   -1.13518  -1.13332  -1.13310  -1.13303  -1.13267
 Alpha  occ. eigenvalues --   -1.13260  -1.13242  -1.13133  -1.13125  -1.13085
 Alpha  occ. eigenvalues --   -0.17333  -0.12453  -0.11896  -0.10723
 Alpha virt. eigenvalues --   -0.05903  -0.05558  -0.05235  -0.03113  -0.02806
 Alpha virt. eigenvalues --   -0.02378  -0.01711  -0.01571  -0.01237  -0.00261
 Alpha virt. eigenvalues --    0.00031   0.00166   0.00257   0.00357   0.00672

  Beta  occ. eigenvalues --  -38.44623 -38.44466 -38.44152 -38.44119 -38.43844
  Beta  occ. eigenvalues --  -38.43729 -38.43695  -2.20372  -2.20226  -2.19954
  Beta  occ. eigenvalues --   -2.19863  -2.19580  -2.19554  -2.19455  -1.14066
  Beta  occ. eigenvalues --   -1.14037  -1.13997  -1.13934  -1.13889  -1.13859
  Beta  occ. eigenvalues --   -1.13672  -1.13609  -1.13577  -1.13539  -1.13533
  Beta  occ. eigenvalues --   -1.13493  -1.13275  -1.13263  -1.13257  -1.13224
  Beta  occ. eigenvalues --   -1.13216  -1.13194  -1.13123  -1.13120  -1.13082
  Beta  occ. eigenvalues --   -0.16650  -0.12200  -0.11705
  Beta virt. eigenvalues --   -0.07139  -0.05631  -0.05370  -0.04902  -0.02805
  Beta virt. eigenvalues --   -0.02407  -0.01703  -0.01583  -0.01393  -0.00772
  Beta virt. eigenvalues --   -0.00226   0.00162   0.00249   0.00312   0.00473

 Mulliken charges and spin densities:
               1          2
     1  Na  -0.420012   0.602136
     2  Na  -0.060154   0.067198
     3  Na   0.214158   0.173085
     4  Na   0.074933  -0.095504
     5  Na   0.014014   0.014262
     6  Na   0.142316   0.261426
     7  Na   0.034744  -0.022603
 Sum of Mulliken charges =  -0.00000   1.00000

 Dipole moment (field-independent basis, Debye):
    X=             -0.1196    Y=             -0.1480    Z=              0.4561  Tot=              0.4942
 Quadrupole moment (field-independent basis, Debye-Ang):
   XX=            -60.7951   YY=            -62.7891   ZZ=            -69.4656
   XY=              1.4680   XZ=              1.9597   YZ=              1.1307

 Normal termination of Gaussian 16 at Tue Dec  5 21:34:25 2023.
