 Gaussian 16, Revision B.01,
 Gaussian 16:  ES64L-G16RevB.01 20-Dec-2017

 -------------------------
 #P B3LYP/6-311+g(d) force
 -------------------------

 -----
 DPGEN
 -----
 Symbolic Z-matrix:
 Charge =  0 Multiplicity = 2

                         Standard orientation:
 ---------------------------------------------------------------------
 Center     Atomic      Atomic             Coordinates (Angstroms)
 Number     Number       Type             X           Y           Z
 ---------------------------------------------------------------------
      1         11           0       -0.317266   -0.230008   -1.619930
      2         11           0        0.632456   -2.687102    0.334753
      3         11           0       -2.949900   -1.272175   -0.264179
      4         11           0        3.006791   -0.628056   -0.469942
      5         11           0       -2.145882    2.154563    0.047791
      6         11           0        1.674937    2.615570   -0.116941
      7         11           0        0.098864    0.047207    2.088448
 ---------------------------------------------------------------------

 SCF Done:  E(UB3LYP) =  -1136.13753637     A.U. after   20 cycles

 The electronic state is 2-A.
 Alpha  occ. eigenvalues --  -38.43986 -38.43858 -38.43851 -38.43671 -38.43489
 Alpha  occ. eigenvalues --  -38.43310 -38.43157  -2.19824  -2.19704  -2.19681
 Alpha  occ. eigenvalues --   -2.19561  -2.19294  -2.19286  -2.19057  -1.13536
 Alpha  occ. eigenvalues --   -1.13475  -1.13455  -1.13380  -1.13366  -1.13365
 Alpha  occ. eigenvalues --   -1.13353  -1.13348  -1.13302  -1.13233  -1.13186
 Alpha  occ. eigenvalues --   -1.13179  -1.12979  -1.12969  -1.12958  -1.12934
 Alpha  occ. eigenvalues --   -1.12923  -1.12910  -1.12735  -1.12714  -1.12678
 Alpha  occ. eigenvalues --   -0.18614  -0.13122  -0.12299  -0.10861
 Alpha virt. eigenvalues --   -0.05471  -0.05425  -0.04555  -0.03252  -0.02904
 Alpha virt. eigenvalues --   -0.02625  -0.01544  -0.01132  -0.00388  -0.00299
 Alpha virt. eigenvalues --   -0.00008   0.00347   0.00778   0.00861   0.00905

  Beta  occ. eigenvalues --  -38.43980 -38.43855 -38.43840 -38.43570 -38.43488
  Beta  occ. eigenvalues --  -38.43254 -38.43145  -2.19816  -2.19686  -2.19678
  Beta  occ. eigenvalues --   -2.19376  -2.19293  -2.19185  -2.19040  -1.13521
  Beta  occ. eigenvalues --   -1.13464  -1.13447  -1.13368  -1.13358  -1.13340
  Beta  occ. eigenvalues --   -1.13339  -1.13334  -1.13300  -1.13112  -1.13053
  Beta  occ. eigenvalues --   -1.13049  -1.12958  -1.12956  -1.12929  -1.12911
  Beta  occ. eigenvalues --   -1.12855  -1.12834  -1.12720  -1.12673  -1.12665
  Beta  occ. eigenvalues --   -0.17890  -0.12868  -0.12073
  Beta virt. eigenvalues --   -0.06938  -0.05456  -0.05368  -0.04507  -0.02489
  Beta virt. eigenvalues --   -0.02138  -0.01585  -0.01431  -0.01078  -0.00426
  Beta virt. eigenvalues --   -0.00311   0.00123   0.00383   0.00851   0.00860

 Mulliken charges and spin densities:
               1          2
     1  Na  -0.221988   0.439036
     2  Na   0.315032   0.061548
     3  Na   0.288685  -0.041538
     4  Na   0.075024   0.002726
     5  Na  -0.003889  -0.083519
     6  Na  -0.060164  -0.067884
     7  Na  -0.392699   0.689631
 Sum of Mulliken charges =  -0.00000   1.00000

 Dipole moment (field-independent basis, Debye):
    X=             -0.2631    Y=              0.0723    Z=              0.0894  Tot=              0.2871
 Quadrupole moment (field-independent basis, Debye-Ang):
   XX=            -56.5074   YY=            -63.3906   ZZ=            -73.8529
   XY=              0.1072   XZ=             -1.1383   YZ=             -0.3572

 Normal termination of Gaussian 16 at Fri Dec  8 04:17:58 2023.
