 Gaussian 16, Revision B.01,
 Gaussian 16:  ES64L-G16RevB.01 20-Dec-2017

 -------------------------
 #P B3LYP/6-311+g(d) force
 -------------------------

 -----
 DPGEN
 -----
 Symbolic Z-matrix:
 Charge =  0 Multiplicity = 2

                         Standard orientation:
 ---------------------------------------------------------------------
 Center     Atomic      Atomic             Coordinates (Angstroms)
 Number     Number       Type             X           Y           Z
 ---------------------------------------------------------------------
      1         11           0       -3.559391    0.304947   -0.499624
      2         11           0        2.027628   -2.246838   -0.689630
      3         11           0       -0.427967    3.044537    0.435269
      4         11           0        2.846356    1.210089   -0.573725
      5         11           0       -1.816240   -2.216500    0.474362
      6         11           0        1.164565   -0.391929    1.787269
      7         11           0       -0.234951    0.295694   -0.933922
 ---------------------------------------------------------------------

 SCF Done:  E(UB3LYP) =  -1136.12853393     A.U. after   21 cycles

 The electronic state is 2-A.
 Alpha  occ. eigenvalues --  -38.44216 -38.44195 -38.43669 -38.43644 -38.43639
 Alpha  occ. eigenvalues --  -38.43141 -38.42847  -2.20070  -2.20042  -2.19539
 Alpha  occ. eigenvalues --   -2.19495  -2.19461  -2.19106  -2.18939  -1.13761
 Alpha  occ. eigenvalues --   -1.13748  -1.13713  -1.13708  -1.13674  -1.13670
 Alpha  occ. eigenvalues --   -1.13224  -1.13217  -1.13192  -1.13184  -1.13160
 Alpha  occ. eigenvalues --   -1.13156  -1.13116  -1.13115  -1.13076  -1.12841
 Alpha  occ. eigenvalues --   -1.12739  -1.12695  -1.12626  -1.12578  -1.12562
 Alpha  occ. eigenvalues --   -0.18660  -0.13545  -0.12252  -0.10101
 Alpha virt. eigenvalues --   -0.06058  -0.05311  -0.04739  -0.02985  -0.02594
 Alpha virt. eigenvalues --   -0.01954  -0.01682  -0.01260  -0.00789  -0.00250
 Alpha virt. eigenvalues --   -0.00015   0.00316   0.00689   0.00779   0.00825

  Beta  occ. eigenvalues --  -38.44204 -38.44171 -38.43649 -38.43638 -38.43631
  Beta  occ. eigenvalues --  -38.43065 -38.42823  -2.20028  -2.20020  -2.19506
  Beta  occ. eigenvalues --   -2.19483  -2.19451  -2.18967  -2.18901  -1.13735
  Beta  occ. eigenvalues --   -1.13709  -1.13701  -1.13687  -1.13659  -1.13627
  Beta  occ. eigenvalues --   -1.13207  -1.13189  -1.13182  -1.13178  -1.13143
  Beta  occ. eigenvalues --   -1.13115  -1.13097  -1.13093  -1.13068  -1.12758
  Beta  occ. eigenvalues --   -1.12636  -1.12593  -1.12562  -1.12551  -1.12532
  Beta  occ. eigenvalues --   -0.17992  -0.13256  -0.12048
  Beta virt. eigenvalues --   -0.06351  -0.05867  -0.05199  -0.04640  -0.02435
  Beta virt. eigenvalues --   -0.01957  -0.01792  -0.01221  -0.00867  -0.00652
  Beta virt. eigenvalues --   -0.00258   0.00174   0.00400   0.00758   0.00833

 Mulliken charges and spin densities:
               1          2
     1  Na   0.344194   0.054943
     2  Na   0.153181   0.157901
     3  Na  -0.465889  -0.089080
     4  Na   0.578903   0.152670
     5  Na  -0.286238  -0.058822
     6  Na  -0.311316   0.566142
     7  Na  -0.012835   0.216247
 Sum of Mulliken charges =  -0.00000   1.00000

 Dipole moment (field-independent basis, Debye):
    X=             -0.1076    Y=              0.1213    Z=              0.2651  Tot=              0.3108
 Quadrupole moment (field-independent basis, Debye-Ang):
   XX=            -54.0789   YY=            -61.6157   ZZ=            -75.1973
   XY=             -0.3978   XZ=             -0.7975   YZ=              1.1264

 Normal termination of Gaussian 16 at Thu Nov 30 08:51:57 2023.
