 Gaussian 16, Revision B.01,
 Gaussian 16:  ES64L-G16RevB.01 20-Dec-2017

 -------------------------
 #P B3LYP/6-311+g(d) force
 -------------------------

 -----
 DPGEN
 -----
 Symbolic Z-matrix:
 Charge =  0 Multiplicity = 2

                         Standard orientation:
 ---------------------------------------------------------------------
 Center     Atomic      Atomic             Coordinates (Angstroms)
 Number     Number       Type             X           Y           Z
 ---------------------------------------------------------------------
      1         11           0        4.074821    0.015900    0.297855
      2         11           0       -2.448806   -1.562006    0.944248
      3         11           0        0.950682   -2.239939   -0.699570
      4         11           0        0.039864    0.144024    1.952400
      5         11           0       -2.128123   -0.442679   -1.600531
      6         11           0       -1.741006    2.613781    0.200435
      7         11           0        1.252568    1.470919   -1.094837
 ---------------------------------------------------------------------

 SCF Done:  E(UB3LYP) =  -1136.12604533     A.U. after   21 cycles

 The electronic state is 2-A.
 Alpha  occ. eigenvalues --  -38.45084 -38.43995 -38.43983 -38.43983 -38.43943
 Alpha  occ. eigenvalues --  -38.43442 -38.42823  -2.20840  -2.19935  -2.19887
 Alpha  occ. eigenvalues --   -2.19851  -2.19785  -2.19304  -2.18657  -1.14517
 Alpha  occ. eigenvalues --   -1.14506  -1.14465  -1.13885  -1.13630  -1.13562
 Alpha  occ. eigenvalues --   -1.13520  -1.13510  -1.13485  -1.13481  -1.13466
 Alpha  occ. eigenvalues --   -1.13453  -1.13446  -1.13406  -1.13374  -1.13006
 Alpha  occ. eigenvalues --   -1.12982  -1.12904  -1.12324  -1.12313  -1.12309
 Alpha  occ. eigenvalues --   -0.18437  -0.13359  -0.11670  -0.11173
 Alpha virt. eigenvalues --   -0.06665  -0.04828  -0.04123  -0.03423  -0.02827
 Alpha virt. eigenvalues --   -0.02754  -0.02311  -0.00975  -0.00558  -0.00081
 Alpha virt. eigenvalues --    0.00093   0.00228   0.00399   0.00768   0.00828

  Beta  occ. eigenvalues --  -38.45089 -38.43968 -38.43963 -38.43944 -38.43853
  Beta  occ. eigenvalues --  -38.43423 -38.42821  -2.20849  -2.19879  -2.19817
  Beta  occ. eigenvalues --   -2.19761  -2.19688  -2.19271  -2.18657  -1.14521
  Beta  occ. eigenvalues --   -1.14510  -1.14472  -1.13838  -1.13567  -1.13498
  Beta  occ. eigenvalues --   -1.13471  -1.13467  -1.13437  -1.13424  -1.13400
  Beta  occ. eigenvalues --   -1.13362  -1.13357  -1.13345  -1.13340  -1.12987
  Beta  occ. eigenvalues --   -1.12942  -1.12883  -1.12317  -1.12315  -1.12297
  Beta  occ. eigenvalues --   -0.17664  -0.13229  -0.11460
  Beta virt. eigenvalues --   -0.07167  -0.06550  -0.04808  -0.03745  -0.03112
  Beta virt. eigenvalues --   -0.02219  -0.02081  -0.01737  -0.00940  -0.00257
  Beta virt. eigenvalues --   -0.00051   0.00102   0.00273   0.00531   0.00793

 Mulliken charges and spin densities:
               1          2
     1  Na   0.284624  -0.037245
     2  Na   0.295652  -0.175124
     3  Na  -0.253794  -0.009462
     4  Na  -0.146344   0.716499
     5  Na   0.182971   0.538020
     6  Na   0.002277  -0.126711
     7  Na  -0.365386   0.094022
 Sum of Mulliken charges =  -0.00000   1.00000

 Dipole moment (field-independent basis, Debye):
    X=              1.0855    Y=             -0.2101    Z=              0.1494  Tot=              1.1156
 Quadrupole moment (field-independent basis, Debye-Ang):
   XX=            -50.9536   YY=            -72.3076   ZZ=            -70.2168
   XY=             -0.8025   XZ=              0.9567   YZ=             -0.0449

 Normal termination of Gaussian 16 at Tue Dec  5 15:55:11 2023.
