 Gaussian 16, Revision B.01,
 Gaussian 16:  ES64L-G16RevB.01 20-Dec-2017

 -------------------------
 #P B3LYP/6-311+g(d) force
 -------------------------

 -----
 DPGEN
 -----
 Symbolic Z-matrix:
 Charge =  0 Multiplicity = 2

                         Standard orientation:
 ---------------------------------------------------------------------
 Center     Atomic      Atomic             Coordinates (Angstroms)
 Number     Number       Type             X           Y           Z
 ---------------------------------------------------------------------
      1         11           0        0.618554    1.180265   -1.636009
      2         11           0        1.029864    0.429752    1.940987
      3         11           0       -2.324901   -1.550462    1.169798
      4         11           0        3.957380    0.007139   -0.080793
      5         11           0        0.630821   -2.454066   -0.597010
      6         11           0       -1.449640    2.588209    0.461060
      7         11           0       -2.462078   -0.200838   -1.258033
 ---------------------------------------------------------------------

 SCF Done:  E(UB3LYP) =  -1136.12638429     A.U. after   20 cycles

 The electronic state is 2-A.
 Alpha  occ. eigenvalues --  -38.44961 -38.44084 -38.44068 -38.43934 -38.43802
 Alpha  occ. eigenvalues --  -38.43484 -38.42928  -2.20716  -2.20025  -2.19913
 Alpha  occ. eigenvalues --   -2.19727  -2.19687  -2.19376  -2.18783  -1.14394
 Alpha  occ. eigenvalues --   -1.14380  -1.14345  -1.13902  -1.13680  -1.13614
 Alpha  occ. eigenvalues --   -1.13588  -1.13553  -1.13530  -1.13422  -1.13413
 Alpha  occ. eigenvalues --   -1.13336  -1.13316  -1.13302  -1.13269  -1.13068
 Alpha  occ. eigenvalues --   -1.13036  -1.12983  -1.12450  -1.12435  -1.12433
 Alpha  occ. eigenvalues --   -0.18309  -0.13222  -0.11734  -0.11236
 Alpha virt. eigenvalues --   -0.06547  -0.04619  -0.04394  -0.03506  -0.03018
 Alpha virt. eigenvalues --   -0.02771  -0.02173  -0.00747  -0.00554  -0.00078
 Alpha virt. eigenvalues --    0.00079   0.00296   0.00353   0.00761   0.00867

  Beta  occ. eigenvalues --  -38.44965 -38.44062 -38.43998 -38.43920 -38.43783
  Beta  occ. eigenvalues --  -38.43433 -38.42922  -2.20724  -2.19985  -2.19783
  Beta  occ. eigenvalues --   -2.19705  -2.19653  -2.19285  -2.18774  -1.14390
  Beta  occ. eigenvalues --   -1.14386  -1.14350  -1.13868  -1.13643  -1.13591
  Beta  occ. eigenvalues --   -1.13504  -1.13462  -1.13431  -1.13406  -1.13378
  Beta  occ. eigenvalues --   -1.13322  -1.13288  -1.13275  -1.13241  -1.13009
  Beta  occ. eigenvalues --   -1.12958  -1.12916  -1.12447  -1.12432  -1.12403
  Beta  occ. eigenvalues --   -0.17535  -0.13108  -0.11549
  Beta virt. eigenvalues --   -0.07301  -0.06436  -0.04514  -0.03884  -0.03242
  Beta virt. eigenvalues --   -0.02358  -0.02144  -0.01751  -0.00700  -0.00232
  Beta virt. eigenvalues --   -0.00055   0.00109   0.00320   0.00495   0.00833

 Mulliken charges and spin densities:
               1          2
     1  Na  -0.258194   0.343256
     2  Na  -0.378665   0.446993
     3  Na   0.030540   0.158754
     4  Na   0.338409  -0.056324
     5  Na  -0.242656  -0.000232
     6  Na   0.086526   0.044667
     7  Na   0.424040   0.062886
 Sum of Mulliken charges =  -0.00000   1.00000

 Dipole moment (field-independent basis, Debye):
    X=              1.0265    Y=             -0.0961    Z=              0.0289  Tot=              1.0314
 Quadrupole moment (field-independent basis, Debye-Ang):
   XX=            -53.1794   YY=            -72.4847   ZZ=            -68.7199
   XY=             -1.2381   XZ=             -1.5255   YZ=              1.0644

 Normal termination of Gaussian 16 at Tue Dec  5 17:51:10 2023.
