 Gaussian 16, Revision B.01,
 Gaussian 16:  ES64L-G16RevB.01 20-Dec-2017

 -------------------------
 #P B3LYP/6-311+g(d) force
 -------------------------

 -----
 DPGEN
 -----
 Symbolic Z-matrix:
 Charge =  0 Multiplicity = 2

                         Standard orientation:
 ---------------------------------------------------------------------
 Center     Atomic      Atomic             Coordinates (Angstroms)
 Number     Number       Type             X           Y           Z
 ---------------------------------------------------------------------
      1         11           0        2.418730    2.095796    0.646548
      2         11           0       -0.520918   -0.455595    2.493761
      3         11           0       -2.879802   -0.366395   -0.286054
      4         11           0       -1.316010    2.878558   -0.481696
      5         11           0       -0.392714    0.141619   -1.494532
      6         11           0       -0.389843   -3.086112   -0.113940
      7         11           0        3.080558   -1.207870   -0.764088
 ---------------------------------------------------------------------

 SCF Done:  E(UB3LYP) =  -1136.12602830     A.U. after   19 cycles

 The electronic state is 2-A.
 Alpha  occ. eigenvalues --  -38.44479 -38.44065 -38.44061 -38.43984 -38.43753
 Alpha  occ. eigenvalues --  -38.43684 -38.43528  -2.20296  -2.19971  -2.19819
 Alpha  occ. eigenvalues --   -2.19751  -2.19557  -2.19539  -2.19515  -1.13936
 Alpha  occ. eigenvalues --   -1.13931  -1.13907  -1.13832  -1.13617  -1.13547
 Alpha  occ. eigenvalues --   -1.13496  -1.13476  -1.13464  -1.13432  -1.13401
 Alpha  occ. eigenvalues --   -1.13383  -1.13311  -1.13240  -1.13228  -1.13192
 Alpha  occ. eigenvalues --   -1.13188  -1.13163  -1.13153  -1.13129  -1.13079
 Alpha  occ. eigenvalues --   -0.18003  -0.12596  -0.12373  -0.11153
 Alpha virt. eigenvalues --   -0.05486  -0.05425  -0.04871  -0.03240  -0.03194
 Alpha virt. eigenvalues --   -0.02878  -0.01279  -0.01222  -0.00620  -0.00385
 Alpha virt. eigenvalues --   -0.00090   0.00341   0.00753   0.00800   0.00825

  Beta  occ. eigenvalues --  -38.44366 -38.44055 -38.44053 -38.43973 -38.43752
  Beta  occ. eigenvalues --  -38.43682 -38.43484  -2.20085  -2.19957  -2.19807
  Beta  occ. eigenvalues --   -2.19731  -2.19557  -2.19517  -2.19457  -1.13812
  Beta  occ. eigenvalues --   -1.13791  -1.13787  -1.13757  -1.13589  -1.13539
  Beta  occ. eigenvalues --   -1.13480  -1.13468  -1.13457  -1.13412  -1.13389
  Beta  occ. eigenvalues --   -1.13369  -1.13288  -1.13232  -1.13220  -1.13186
  Beta  occ. eigenvalues --   -1.13169  -1.13134  -1.13131  -1.13088  -1.13036
  Beta  occ. eigenvalues --   -0.17328  -0.12410  -0.12149
  Beta virt. eigenvalues --   -0.07233  -0.05474  -0.05182  -0.04724  -0.02595
  Beta virt. eigenvalues --   -0.02423  -0.01979  -0.01223  -0.01172  -0.00546
  Beta virt. eigenvalues --   -0.00387   0.00098   0.00393   0.00812   0.00869

 Mulliken charges and spin densities:
               1          2
     1  Na  -0.157441   0.111050
     2  Na  -0.567341   0.717938
     3  Na   0.194593   0.057054
     4  Na   0.016500   0.065795
     5  Na   0.479405  -0.031247
     6  Na   0.036996   0.033888
     7  Na  -0.002712   0.045521
 Sum of Mulliken charges =  -0.00000   1.00000

 Dipole moment (field-independent basis, Debye):
    X=             -0.1781    Y=             -0.0669    Z=              0.3194  Tot=              0.3718
 Quadrupole moment (field-independent basis, Debye-Ang):
   XX=            -61.7369   YY=            -61.1229   ZZ=            -72.4510
   XY=             -0.3111   XZ=             -0.0344   YZ=              1.7651

 Normal termination of Gaussian 16 at Wed Dec  6 01:15:06 2023.
