 Gaussian 16, Revision B.01,
 Gaussian 16:  ES64L-G16RevB.01 20-Dec-2017

 -------------------------
 #P B3LYP/6-311+g(d) force
 -------------------------

 -----
 DPGEN
 -----
 Symbolic Z-matrix:
 Charge =  0 Multiplicity = 2

                         Standard orientation:
 ---------------------------------------------------------------------
 Center     Atomic      Atomic             Coordinates (Angstroms)
 Number     Number       Type             X           Y           Z
 ---------------------------------------------------------------------
      1         11           0        0.236805    2.249220   -0.384183
      2         11           0       -5.830247   -0.258406   -0.325895
      3         11           0       -2.437062    1.229856    0.877635
      4         11           0       -2.937052   -1.704011    0.044008
      5         11           0        0.587770   -0.920070    0.107552
      6         11           0        3.809823   -0.149855   -0.902996
      7         11           0        6.569963   -0.446734    0.583880
 ---------------------------------------------------------------------

 SCF Done:  E(UB3LYP) =  -1136.11619736     A.U. after   21 cycles

 The electronic state is 2-A.
 Alpha  occ. eigenvalues --  -38.44611 -38.44546 -38.44256 -38.44086 -38.44028
 Alpha  occ. eigenvalues --  -38.43733 -38.43711  -2.20509  -2.20338  -2.20031
 Alpha  occ. eigenvalues --   -2.19979  -2.19899  -2.19618  -2.19531  -1.14230
 Alpha  occ. eigenvalues --   -1.14197  -1.14118  -1.14011  -1.13999  -1.13968
 Alpha  occ. eigenvalues --   -1.13702  -1.13688  -1.13687  -1.13674  -1.13639
 Alpha  occ. eigenvalues --   -1.13566  -1.13559  -1.13545  -1.13543  -1.13289
 Alpha  occ. eigenvalues --   -1.13271  -1.13244  -1.13201  -1.13195  -1.13149
 Alpha  occ. eigenvalues --   -0.17395  -0.14116  -0.12156  -0.10859
 Alpha virt. eigenvalues --   -0.07283  -0.05016  -0.04120  -0.04020  -0.02976
 Alpha virt. eigenvalues --   -0.02319  -0.02006  -0.01902  -0.00979  -0.00671
 Alpha virt. eigenvalues --   -0.00201   0.00030   0.00191   0.00357   0.00630

  Beta  occ. eigenvalues --  -38.44570 -38.44536 -38.44257 -38.44044 -38.43983
  Beta  occ. eigenvalues --  -38.43708 -38.43680  -2.20440  -2.20318  -2.20034
  Beta  occ. eigenvalues --   -2.19904  -2.19819  -2.19527  -2.19521  -1.14163
  Beta  occ. eigenvalues --   -1.14141  -1.14068  -1.13996  -1.13986  -1.13954
  Beta  occ. eigenvalues --   -1.13704  -1.13690  -1.13689  -1.13628  -1.13592
  Beta  occ. eigenvalues --   -1.13511  -1.13492  -1.13483  -1.13468  -1.13229
  Beta  occ. eigenvalues --   -1.13215  -1.13192  -1.13183  -1.13173  -1.13137
  Beta  occ. eigenvalues --   -0.16683  -0.14054  -0.11886
  Beta virt. eigenvalues --   -0.07182  -0.06875  -0.04567  -0.03998  -0.03725
  Beta virt. eigenvalues --   -0.02358  -0.02225  -0.01886  -0.01493  -0.00664
  Beta virt. eigenvalues --   -0.00497  -0.00090   0.00249   0.00383   0.00523

 Mulliken charges and spin densities:
               1          2
     1  Na   0.075761   0.245979
     2  Na   0.367098   0.066843
     3  Na  -0.048744   0.232111
     4  Na  -0.351204   0.023936
     5  Na  -0.419945   0.437737
     6  Na   0.182569   0.024261
     7  Na   0.194465  -0.030866
 Sum of Mulliken charges =  -0.00000   1.00000

 Dipole moment (field-independent basis, Debye):
    X=             -1.1517    Y=              0.2626    Z=              0.0173  Tot=              1.1814
 Quadrupole moment (field-independent basis, Debye-Ang):
   XX=            -52.3894   YY=            -71.9962   ZZ=            -68.9538
   XY=              0.6709   XZ=              4.9639   YZ=             -1.1126

 Normal termination of Gaussian 16 at Wed Nov 29 02:54:08 2023.
