 Gaussian 16, Revision B.01,
 Gaussian 16:  ES64L-G16RevB.01 20-Dec-2017

 -------------------------
 #P B3LYP/6-311+g(d) force
 -------------------------

 -----
 DPGEN
 -----
 Symbolic Z-matrix:
 Charge =  0 Multiplicity = 2

                         Standard orientation:
 ---------------------------------------------------------------------
 Center     Atomic      Atomic             Coordinates (Angstroms)
 Number     Number       Type             X           Y           Z
 ---------------------------------------------------------------------
      1         11           0        0.735950   -1.927615   -1.268837
      2         11           0        0.181753    1.275095   -0.877882
      3         11           0        1.459266   -0.662891    1.910045
      4         11           0        3.465768    0.826852   -0.663789
      5         11           0       -2.821285   -0.337618   -1.456732
      6         11           0       -1.621692    2.286898    0.917902
      7         11           0       -1.399761   -1.460722    1.439294
 ---------------------------------------------------------------------

 SCF Done:  E(UB3LYP) =  -1136.12445698     A.U. after   22 cycles

 The electronic state is 2-A.
 Alpha  occ. eigenvalues --  -38.44597 -38.44098 -38.43945 -38.43876 -38.43664
 Alpha  occ. eigenvalues --  -38.42999 -38.42751  -2.20434  -2.19905  -2.19822
 Alpha  occ. eigenvalues --   -2.19790  -2.19557  -2.18926  -2.18784  -1.14114
 Alpha  occ. eigenvalues --   -1.14086  -1.14042  -1.13581  -1.13566  -1.13548
 Alpha  occ. eigenvalues --   -1.13539  -1.13517  -1.13467  -1.13421  -1.13413
 Alpha  occ. eigenvalues --   -1.13405  -1.13396  -1.13171  -1.13139  -1.12635
 Alpha  occ. eigenvalues --   -1.12564  -1.12537  -1.12486  -1.12431  -1.12360
 Alpha  occ. eigenvalues --   -0.18906  -0.13243  -0.11916  -0.11498
 Alpha virt. eigenvalues --   -0.05970  -0.04645  -0.04308  -0.03339  -0.03084
 Alpha virt. eigenvalues --   -0.02740  -0.01848  -0.00779  -0.00568   0.00245
 Alpha virt. eigenvalues --    0.00291   0.00328   0.00498   0.00734   0.00888

  Beta  occ. eigenvalues --  -38.44562 -38.44097 -38.43905 -38.43822 -38.43635
  Beta  occ. eigenvalues --  -38.42970 -38.42731  -2.20369  -2.19904  -2.19748
  Beta  occ. eigenvalues --   -2.19693  -2.19505  -2.18878  -2.18756  -1.14062
  Beta  occ. eigenvalues --   -1.14046  -1.13993  -1.13575  -1.13564  -1.13542
  Beta  occ. eigenvalues --   -1.13493  -1.13447  -1.13402  -1.13379  -1.13366
  Beta  occ. eigenvalues --   -1.13340  -1.13324  -1.13125  -1.13103  -1.12588
  Beta  occ. eigenvalues --   -1.12520  -1.12499  -1.12421  -1.12419  -1.12344
  Beta  occ. eigenvalues --   -0.18098  -0.13077  -0.11263
  Beta virt. eigenvalues --   -0.07889  -0.05801  -0.04220  -0.04067  -0.03061
  Beta virt. eigenvalues --   -0.02473  -0.01949  -0.01673  -0.00556  -0.00355
  Beta virt. eigenvalues --    0.00307   0.00352   0.00424   0.00511   0.00843

 Mulliken charges and spin densities:
               1          2
     1  Na  -0.384542   0.369295
     2  Na  -0.179631   0.054424
     3  Na  -0.176699   0.247881
     4  Na   0.298981  -0.033525
     5  Na   0.260994   0.148317
     6  Na  -0.227538   0.141987
     7  Na   0.408435   0.071621
 Sum of Mulliken charges =  -0.00000   1.00000

 Dipole moment (field-independent basis, Debye):
    X=              0.0937    Y=             -0.4162    Z=             -0.2380  Tot=              0.4885
 Quadrupole moment (field-independent basis, Debye-Ang):
   XX=            -53.2484   YY=            -75.2852   ZZ=            -64.8625
   XY=              0.7217   XZ=              0.8850   YZ=              4.6773

 Normal termination of Gaussian 16 at Tue Dec  5 21:59:50 2023.
