 Gaussian 16, Revision B.01,
 Gaussian 16:  ES64L-G16RevB.01 20-Dec-2017

 -------------------------
 #P B3LYP/6-311+g(d) force
 -------------------------

 -----
 DPGEN
 -----
 Symbolic Z-matrix:
 Charge =  0 Multiplicity = 2

                         Standard orientation:
 ---------------------------------------------------------------------
 Center     Atomic      Atomic             Coordinates (Angstroms)
 Number     Number       Type             X           Y           Z
 ---------------------------------------------------------------------
      1         11           0        0.346022   -0.136930    0.031651
      2         11           0       -1.562372    3.370425    0.452513
      3         11           0        2.804367    2.099978   -0.234174
      4         11           0        3.961754   -0.725660    0.210789
      5         11           0        0.224909   -3.141856   -0.566042
      6         11           0       -2.412071   -2.023899    1.050901
      7         11           0       -3.362610    0.557942   -0.945638
 ---------------------------------------------------------------------

 SCF Done:  E(UB3LYP) =  -1136.12009815     A.U. after   22 cycles

 The electronic state is 2-A.
 Alpha  occ. eigenvalues --  -38.44405 -38.44230 -38.44136 -38.43795 -38.43610
 Alpha  occ. eigenvalues --  -38.43550 -38.43524  -2.20247  -2.20068  -2.19995
 Alpha  occ. eigenvalues --   -2.19614  -2.19462  -2.19423  -2.19383  -1.13955
 Alpha  occ. eigenvalues --   -1.13914  -1.13901  -1.13723  -1.13695  -1.13681
 Alpha  occ. eigenvalues --   -1.13679  -1.13660  -1.13627  -1.13289  -1.13270
 Alpha  occ. eigenvalues --   -1.13233  -1.13230  -1.13175  -1.13084  -1.13062
 Alpha  occ. eigenvalues --   -1.13055  -1.13039  -1.13028  -1.13014  -1.12998
 Alpha  occ. eigenvalues --   -0.17191  -0.14035  -0.12584  -0.09559
 Alpha virt. eigenvalues --   -0.06296  -0.05591  -0.05081  -0.02817  -0.02715
 Alpha virt. eigenvalues --   -0.02160  -0.01948  -0.01809  -0.01246  -0.00365
 Alpha virt. eigenvalues --   -0.00007   0.00307   0.00412   0.00443   0.00658

  Beta  occ. eigenvalues --  -38.44393 -38.44191 -38.44110 -38.43753 -38.43577
  Beta  occ. eigenvalues --  -38.43515 -38.43514  -2.20228  -2.19999  -2.19950
  Beta  occ. eigenvalues --   -2.19540  -2.19441  -2.19359  -2.19322  -1.13943
  Beta  occ. eigenvalues --   -1.13904  -1.13855  -1.13678  -1.13653  -1.13643
  Beta  occ. eigenvalues --   -1.13632  -1.13627  -1.13562  -1.13241  -1.13220
  Beta  occ. eigenvalues --   -1.13197  -1.13165  -1.13158  -1.13083  -1.13019
  Beta  occ. eigenvalues --   -1.13014  -1.13001  -1.12983  -1.12973  -1.12963
  Beta  occ. eigenvalues --   -0.16847  -0.13367  -0.12184
  Beta virt. eigenvalues --   -0.06219  -0.06197  -0.05281  -0.04934  -0.02513
  Beta virt. eigenvalues --   -0.02336  -0.01885  -0.01598  -0.01532  -0.01030
  Beta virt. eigenvalues --   -0.00214   0.00287   0.00426   0.00511   0.00577

 Mulliken charges and spin densities:
               1          2
     1  Na  -3.992194  -0.204423
     2  Na   0.246301   0.114587
     3  Na  -0.020127   0.153474
     4  Na   0.127640   0.217027
     5  Na   1.573925   0.076652
     6  Na   1.302605   0.295904
     7  Na   0.761849   0.346779
 Sum of Mulliken charges =  -0.00000   1.00000

 Dipole moment (field-independent basis, Debye):
    X=              0.7351    Y=             -0.6392    Z=              0.0092  Tot=              0.9742
 Quadrupole moment (field-independent basis, Debye-Ang):
   XX=            -70.8355   YY=            -61.0092   ZZ=            -67.3297
   XY=             -2.6104   XZ=             -0.4563   YZ=             -0.7048

 Normal termination of Gaussian 16 at Fri Dec  8 19:03:35 2023.
