 Gaussian 16, Revision B.01,
 Gaussian 16:  ES64L-G16RevB.01 20-Dec-2017

 -------------------------
 #P B3LYP/6-311+g(d) force
 -------------------------

 -----
 DPGEN
 -----
 Symbolic Z-matrix:
 Charge =  0 Multiplicity = 2

                         Standard orientation:
 ---------------------------------------------------------------------
 Center     Atomic      Atomic             Coordinates (Angstroms)
 Number     Number       Type             X           Y           Z
 ---------------------------------------------------------------------
      1         11           0        2.648256    1.383738   -0.117746
      2         11           0       -1.300317    0.583294    1.361852
      3         11           0       -2.152655   -2.116407   -0.269199
      4         11           0        1.359235   -1.605629   -0.071162
      5         11           0        4.435668   -0.965267   -0.059131
      6         11           0       -4.276380   -0.264937   -0.353476
      7         11           0       -0.713806    2.985207   -0.491139
 ---------------------------------------------------------------------

 SCF Done:  E(UB3LYP) =  -1136.11858150     A.U. after   20 cycles

 The electronic state is 2-A.
 Alpha  occ. eigenvalues --  -38.44380 -38.44240 -38.43989 -38.43978 -38.43606
 Alpha  occ. eigenvalues --  -38.43554 -38.43184  -2.20272  -2.20146  -2.19894
 Alpha  occ. eigenvalues --   -2.19880  -2.19536  -2.19472  -2.19003  -1.13988
 Alpha  occ. eigenvalues --   -1.13956  -1.13931  -1.13850  -1.13824  -1.13779
 Alpha  occ. eigenvalues --   -1.13690  -1.13547  -1.13522  -1.13515  -1.13496
 Alpha  occ. eigenvalues --   -1.13477  -1.13184  -1.13178  -1.13148  -1.13146
 Alpha  occ. eigenvalues --   -1.13141  -1.13071  -1.12688  -1.12661  -1.12628
 Alpha  occ. eigenvalues --   -0.17797  -0.14938  -0.11989  -0.10740
 Alpha virt. eigenvalues --   -0.06048  -0.05472  -0.04364  -0.03757  -0.02953
 Alpha virt. eigenvalues --   -0.02125  -0.01748  -0.01278  -0.00743  -0.00397
 Alpha virt. eigenvalues --   -0.00263   0.00051   0.00592   0.00636   0.00706

  Beta  occ. eigenvalues --  -38.44365 -38.44222 -38.43955 -38.43903 -38.43586
  Beta  occ. eigenvalues --  -38.43503 -38.43188  -2.20247  -2.20119  -2.19832
  Beta  occ. eigenvalues --   -2.19740  -2.19510  -2.19384  -2.19010  -1.13978
  Beta  occ. eigenvalues --   -1.13939  -1.13885  -1.13833  -1.13783  -1.13753
  Beta  occ. eigenvalues --   -1.13609  -1.13507  -1.13478  -1.13471  -1.13401
  Beta  occ. eigenvalues --   -1.13380  -1.13172  -1.13161  -1.13092  -1.13087
  Beta  occ. eigenvalues --   -1.13055  -1.12977  -1.12692  -1.12666  -1.12632
  Beta  occ. eigenvalues --   -0.17113  -0.14441  -0.11775
  Beta virt. eigenvalues --   -0.06991  -0.05896  -0.05280  -0.03906  -0.03363
  Beta virt. eigenvalues --   -0.02749  -0.01824  -0.01381  -0.00929  -0.00543
  Beta virt. eigenvalues --   -0.00236  -0.00029   0.00297   0.00700   0.00756

 Mulliken charges and spin densities:
               1          2
     1  Na  -0.421104   0.155782
     2  Na  -0.061492   0.232275
     3  Na  -0.435973  -0.457539
     4  Na  -1.377287   0.114340
     5  Na   2.304767   0.607339
     6  Na   0.097971   0.401226
     7  Na  -0.106881  -0.053423
 Sum of Mulliken charges =  -0.00000   1.00000

 Dipole moment (field-independent basis, Debye):
    X=              0.6832    Y=             -0.0398    Z=             -0.1098  Tot=              0.6931
 Quadrupole moment (field-independent basis, Debye-Ang):
   XX=            -62.7692   YY=            -69.7604   ZZ=            -67.5233
   XY=             -3.7037   XZ=              0.6634   YZ=             -1.1047

 Normal termination of Gaussian 16 at Tue Nov 28 20:24:30 2023.
