 Gaussian 16, Revision B.01,
 Gaussian 16:  ES64L-G16RevB.01 20-Dec-2017

 -------------------------
 #P B3LYP/6-311+g(d) force
 -------------------------

 -----
 DPGEN
 -----
 Symbolic Z-matrix:
 Charge =  0 Multiplicity = 2

                         Standard orientation:
 ---------------------------------------------------------------------
 Center     Atomic      Atomic             Coordinates (Angstroms)
 Number     Number       Type             X           Y           Z
 ---------------------------------------------------------------------
      1         11           0        2.375146    1.864468    0.161308
      2         11           0       -3.396665   -0.600999   -0.043079
      3         11           0       -1.439879    2.761940   -0.304895
      4         11           0        0.021602    0.187443   -1.451909
      5         11           0       -0.462572   -2.902425   -0.045587
      6         11           0        2.820247   -1.362952   -0.400455
      7         11           0        0.082122    0.052525    2.084618
 ---------------------------------------------------------------------

 SCF Done:  E(UB3LYP) =  -1136.13586778     A.U. after   19 cycles

 The electronic state is 2-A.
 Alpha  occ. eigenvalues --  -38.44657 -38.43786 -38.43771 -38.43659 -38.43508
 Alpha  occ. eigenvalues --  -38.43353 -38.43002  -2.20420  -2.19650  -2.19624
 Alpha  occ. eigenvalues --   -2.19478  -2.19386  -2.19179  -2.19002  -1.14101
 Alpha  occ. eigenvalues --   -1.14067  -1.14063  -1.13365  -1.13319  -1.13304
 Alpha  occ. eigenvalues --   -1.13296  -1.13266  -1.13234  -1.13191  -1.13133
 Alpha  occ. eigenvalues --   -1.13097  -1.13057  -1.13005  -1.13001  -1.12871
 Alpha  occ. eigenvalues --   -1.12849  -1.12804  -1.12694  -1.12637  -1.12622
 Alpha  occ. eigenvalues --   -0.18447  -0.12986  -0.12331  -0.10502
 Alpha virt. eigenvalues --   -0.06021  -0.05213  -0.04697  -0.03046  -0.02712
 Alpha virt. eigenvalues --   -0.02408  -0.01802  -0.01238  -0.00563  -0.00478
 Alpha virt. eigenvalues --   -0.00013   0.00319   0.00740   0.00818   0.00873

  Beta  occ. eigenvalues --  -38.44659 -38.43778 -38.43761 -38.43653 -38.43405
  Beta  occ. eigenvalues --  -38.43350 -38.42951  -2.20425  -2.19640  -2.19607
  Beta  occ. eigenvalues --   -2.19468  -2.19196  -2.19175  -2.18911  -1.14094
  Beta  occ. eigenvalues --   -1.14071  -1.14068  -1.13360  -1.13301  -1.13280
  Beta  occ. eigenvalues --   -1.13272  -1.13246  -1.13227  -1.13178  -1.13116
  Beta  occ. eigenvalues --   -1.13093  -1.12932  -1.12877  -1.12869  -1.12858
  Beta  occ. eigenvalues --   -1.12828  -1.12802  -1.12624  -1.12572  -1.12554
  Beta  occ. eigenvalues --   -0.17736  -0.12775  -0.12089
  Beta virt. eigenvalues --   -0.06581  -0.05997  -0.05179  -0.04656  -0.02321
  Beta virt. eigenvalues --   -0.01973  -0.01724  -0.01328  -0.01158  -0.00609
  Beta virt. eigenvalues --   -0.00507   0.00141   0.00360   0.00782   0.00835

 Mulliken charges and spin densities:
               1          2
     1  Na   0.369501   0.063487
     2  Na   0.000691  -0.071824
     3  Na   0.129399  -0.056919
     4  Na  -0.334437   0.312744
     5  Na   0.060420  -0.038827
     6  Na   0.211865   0.035873
     7  Na  -0.437439   0.755467
 Sum of Mulliken charges =  -0.00000   1.00000

 Dipole moment (field-independent basis, Debye):
    X=             -0.3220    Y=              0.0515    Z=              0.1605  Tot=              0.3634
 Quadrupole moment (field-independent basis, Debye-Ang):
   XX=            -53.5341   YY=            -62.3811   ZZ=            -76.0782
   XY=              0.2265   XZ=             -0.3871   YZ=              0.4446

 Normal termination of Gaussian 16 at Tue Dec  5 21:38:02 2023.
