 Gaussian 16, Revision B.01,
 Gaussian 16:  ES64L-G16RevB.01 20-Dec-2017

 -------------------------
 #P B3LYP/6-311+g(d) force
 -------------------------

 -----
 DPGEN
 -----
 Symbolic Z-matrix:
 Charge =  0 Multiplicity = 2

                         Standard orientation:
 ---------------------------------------------------------------------
 Center     Atomic      Atomic             Coordinates (Angstroms)
 Number     Number       Type             X           Y           Z
 ---------------------------------------------------------------------
      1         11           0       -0.688303    0.119599   -1.705866
      2         11           0        2.633504    1.816609   -0.151608
      3         11           0       -0.900754    2.968441   -0.047727
      4         11           0       -3.256894   -0.324348    0.074516
      5         11           0        0.573796    0.283744    1.957490
      6         11           0        2.460302   -2.207106   -0.549241
      7         11           0       -0.821651   -2.656940    0.422435
 ---------------------------------------------------------------------

 SCF Done:  E(UB3LYP) =  -1136.13470709     A.U. after   18 cycles

 The electronic state is 2-A.
 Alpha  occ. eigenvalues --  -38.44287 -38.44023 -38.43980 -38.43816 -38.43477
 Alpha  occ. eigenvalues --  -38.43393 -38.43392  -2.20083  -2.19840  -2.19815
 Alpha  occ. eigenvalues --   -2.19601  -2.19356  -2.19320  -2.19256  -1.13775
 Alpha  occ. eigenvalues --   -1.13744  -1.13712  -1.13535  -1.13519  -1.13510
 Alpha  occ. eigenvalues --   -1.13469  -1.13460  -1.13450  -1.13268  -1.13263
 Alpha  occ. eigenvalues --   -1.13243  -1.13029  -1.12998  -1.12993  -1.12977
 Alpha  occ. eigenvalues --   -1.12965  -1.12944  -1.12923  -1.12912  -1.12882
 Alpha  occ. eigenvalues --   -0.18180  -0.12871  -0.12544  -0.10444
 Alpha virt. eigenvalues --   -0.05849  -0.05252  -0.04943  -0.03207  -0.03025
 Alpha virt. eigenvalues --   -0.02300  -0.01503  -0.01344  -0.00638  -0.00434
 Alpha virt. eigenvalues --   -0.00019   0.00356   0.00748   0.00813   0.00868

  Beta  occ. eigenvalues --  -38.44285 -38.44018 -38.43978 -38.43802 -38.43395
  Beta  occ. eigenvalues --  -38.43381 -38.43335  -2.20083  -2.19834  -2.19815
  Beta  occ. eigenvalues --   -2.19576  -2.19239  -2.19214  -2.19204  -1.13764
  Beta  occ. eigenvalues --   -1.13736  -1.13713  -1.13526  -1.13513  -1.13492
  Beta  occ. eigenvalues --   -1.13460  -1.13453  -1.13451  -1.13248  -1.13238
  Beta  occ. eigenvalues --   -1.13227  -1.12954  -1.12920  -1.12914  -1.12897
  Beta  occ. eigenvalues --   -1.12883  -1.12872  -1.12871  -1.12860  -1.12856
  Beta  occ. eigenvalues --   -0.17494  -0.12662  -0.12303
  Beta virt. eigenvalues --   -0.06685  -0.05825  -0.05105  -0.04855  -0.02472
  Beta virt. eigenvalues --   -0.02321  -0.01429  -0.01372  -0.01245  -0.00661
  Beta virt. eigenvalues --   -0.00438   0.00129   0.00394   0.00760   0.00876

 Mulliken charges and spin densities:
               1          2
     1  Na  -0.076683   0.647151
     2  Na   0.036228  -0.073851
     3  Na   0.038724  -0.179809
     4  Na   0.188891  -0.089996
     5  Na  -0.151984   0.605753
     6  Na  -0.133726   0.038566
     7  Na   0.098551   0.052186
 Sum of Mulliken charges =  -0.00000   1.00000

 Dipole moment (field-independent basis, Debye):
    X=             -0.0075    Y=              0.4660    Z=              0.0210  Tot=              0.4665
 Quadrupole moment (field-independent basis, Debye-Ang):
   XX=            -57.0653   YY=            -61.2725   ZZ=            -75.1018
   XY=              0.1798   XZ=             -2.9149   YZ=             -0.2316

 Normal termination of Gaussian 16 at Tue Dec  5 14:38:31 2023.
