 Gaussian 16, Revision B.01,
 Gaussian 16:  ES64L-G16RevB.01 20-Dec-2017

 -------------------------
 #P B3LYP/6-311+g(d) force
 -------------------------

 -----
 DPGEN
 -----
 Symbolic Z-matrix:
 Charge =  0 Multiplicity = 2

                         Standard orientation:
 ---------------------------------------------------------------------
 Center     Atomic      Atomic             Coordinates (Angstroms)
 Number     Number       Type             X           Y           Z
 ---------------------------------------------------------------------
      1         11           0       -3.635809   -0.192064   -0.675166
      2         11           0        1.396862    2.501258   -1.005737
      3         11           0        3.021978   -1.788496   -0.694633
      4         11           0        1.724164    0.153744    1.992182
      5         11           0       -1.200758   -2.309141    0.388870
      6         11           0       -1.300078    1.402802    1.483071
      7         11           0       -0.006358    0.231897   -1.488587
 ---------------------------------------------------------------------

 SCF Done:  E(UB3LYP) =  -1136.12393705     A.U. after   21 cycles

 The electronic state is 2-A.
 Alpha  occ. eigenvalues --  -38.44466 -38.44070 -38.43945 -38.43800 -38.43618
 Alpha  occ. eigenvalues --  -38.43606 -38.43580  -2.20277  -2.19931  -2.19761
 Alpha  occ. eigenvalues --   -2.19644  -2.19572  -2.19492  -2.19466  -1.13947
 Alpha  occ. eigenvalues --   -1.13931  -1.13915  -1.13639  -1.13626  -1.13564
 Alpha  occ. eigenvalues --   -1.13543  -1.13469  -1.13441  -1.13358  -1.13302
 Alpha  occ. eigenvalues --   -1.13251  -1.13235  -1.13220  -1.13201  -1.13185
 Alpha  occ. eigenvalues --   -1.13135  -1.13092  -1.13063  -1.13044  -1.13006
 Alpha  occ. eigenvalues --   -0.18375  -0.13246  -0.11582  -0.11469
 Alpha virt. eigenvalues --   -0.06084  -0.04996  -0.04350  -0.03212  -0.02961
 Alpha virt. eigenvalues --   -0.02884  -0.01922  -0.00958  -0.00751   0.00102
 Alpha virt. eigenvalues --    0.00175   0.00255   0.00527   0.00639   0.00820

  Beta  occ. eigenvalues --  -38.44462 -38.44003 -38.43942 -38.43797 -38.43560
  Beta  occ. eigenvalues --  -38.43560 -38.43549  -2.20270  -2.19808  -2.19758
  Beta  occ. eigenvalues --   -2.19566  -2.19542  -2.19412  -2.19407  -1.13936
  Beta  occ. eigenvalues --   -1.13929  -1.13911  -1.13569  -1.13532  -1.13483
  Beta  occ. eigenvalues --   -1.13464  -1.13452  -1.13422  -1.13358  -1.13238
  Beta  occ. eigenvalues --   -1.13226  -1.13223  -1.13204  -1.13153  -1.13121
  Beta  occ. eigenvalues --   -1.13058  -1.13041  -1.13021  -1.12996  -1.12956
  Beta  occ. eigenvalues --   -0.17650  -0.13044  -0.11273
  Beta virt. eigenvalues --   -0.07494  -0.06008  -0.04864  -0.03983  -0.02924
  Beta virt. eigenvalues --   -0.02288  -0.01930  -0.01857  -0.00825  -0.00397
  Beta virt. eigenvalues --    0.00149   0.00198   0.00284   0.00606   0.00769

 Mulliken charges and spin densities:
               1          2
     1  Na   0.398220  -0.042502
     2  Na   0.069283  -0.013852
     3  Na  -0.020263  -0.051994
     4  Na   0.065142   0.349893
     5  Na  -0.235894   0.005977
     6  Na  -0.066101   0.303697
     7  Na  -0.210387   0.448782
 Sum of Mulliken charges =  -0.00000   1.00000

 Dipole moment (field-independent basis, Debye):
    X=             -0.6317    Y=             -0.0034    Z=              0.1443  Tot=              0.6480
 Quadrupole moment (field-independent basis, Debye-Ang):
   XX=            -53.6432   YY=            -71.1079   ZZ=            -68.8873
   XY=              0.3953   XZ=              0.6759   YZ=              0.3033

 Normal termination of Gaussian 16 at Tue Dec  5 13:35:16 2023.
