 Gaussian 16, Revision B.01,
 Gaussian 16:  ES64L-G16RevB.01 20-Dec-2017

 -------------------------
 #P B3LYP/6-311+g(d) force
 -------------------------

 -----
 DPGEN
 -----
 Symbolic Z-matrix:
 Charge =  0 Multiplicity = 2

                         Standard orientation:
 ---------------------------------------------------------------------
 Center     Atomic      Atomic             Coordinates (Angstroms)
 Number     Number       Type             X           Y           Z
 ---------------------------------------------------------------------
      1         11           0        0.076172    0.013029   -1.848753
      2         11           0       -2.994073   -1.235620   -0.245684
      3         11           0        0.530384   -2.912391   -0.162742
      4         11           0       -1.942168    2.144807    0.125331
      5         11           0        3.043530   -0.608924    0.030166
      6         11           0        1.351034    2.847378   -0.155731
      7         11           0       -0.064879   -0.248279    2.257413
 ---------------------------------------------------------------------

 SCF Done:  E(UB3LYP) =  -1136.13917285     A.U. after   19 cycles

 The electronic state is 2-A.
 Alpha  occ. eigenvalues --  -38.44122 -38.43824 -38.43723 -38.43664 -38.43628
 Alpha  occ. eigenvalues --  -38.43544 -38.43490  -2.19959  -2.19640  -2.19538
 Alpha  occ. eigenvalues --   -2.19518  -2.19502  -2.19388  -2.19305  -1.13612
 Alpha  occ. eigenvalues --   -1.13589  -1.13579  -1.13322  -1.13309  -1.13286
 Alpha  occ. eigenvalues --   -1.13232  -1.13208  -1.13195  -1.13179  -1.13172
 Alpha  occ. eigenvalues --   -1.13166  -1.13151  -1.13145  -1.13122  -1.13068
 Alpha  occ. eigenvalues --   -1.13061  -1.13028  -1.12974  -1.12955  -1.12939
 Alpha  occ. eigenvalues --   -0.18235  -0.12752  -0.12358  -0.11023
 Alpha virt. eigenvalues --   -0.05409  -0.05104  -0.05014  -0.03268  -0.03047
 Alpha virt. eigenvalues --   -0.02920  -0.01346  -0.01164  -0.00432  -0.00371
 Alpha virt. eigenvalues --   -0.00074   0.00377   0.00793   0.00841   0.00875

  Beta  occ. eigenvalues --  -38.44020 -38.43821 -38.43722 -38.43659 -38.43560
  Beta  occ. eigenvalues --  -38.43540 -38.43489  -2.19771  -2.19639  -2.19518
  Beta  occ. eigenvalues --   -2.19496  -2.19414  -2.19383  -2.19306  -1.13487
  Beta  occ. eigenvalues --   -1.13456  -1.13445  -1.13317  -1.13292  -1.13286
  Beta  occ. eigenvalues --   -1.13195  -1.13185  -1.13170  -1.13168  -1.13146
  Beta  occ. eigenvalues --   -1.13134  -1.13122  -1.13090  -1.13067  -1.13057
  Beta  occ. eigenvalues --   -1.13031  -1.13030  -1.12959  -1.12954  -1.12942
  Beta  occ. eigenvalues --   -0.17485  -0.12553  -0.12167
  Beta virt. eigenvalues --   -0.07082  -0.05417  -0.05128  -0.04826  -0.02452
  Beta virt. eigenvalues --   -0.02283  -0.01907  -0.01262  -0.01085  -0.00499
  Beta virt. eigenvalues --   -0.00421   0.00086   0.00399   0.00843   0.00877

 Mulliken charges and spin densities:
               1          2
     1  Na  -0.078551   0.558826
     2  Na   0.087935  -0.080836
     3  Na   0.199267  -0.072492
     4  Na   0.104851  -0.013034
     5  Na   0.110470  -0.057919
     6  Na   0.062730  -0.073052
     7  Na  -0.486702   0.738506
 Sum of Mulliken charges =  -0.00000   1.00000

 Dipole moment (field-independent basis, Debye):
    X=              0.0851    Y=             -0.1627    Z=              0.1073  Tot=              0.2127
 Quadrupole moment (field-independent basis, Debye-Ang):
   XX=            -60.0218   YY=            -62.2812   ZZ=            -72.6119
   XY=              0.7357   XZ=              0.3548   YZ=              0.5751

 Normal termination of Gaussian 16 at Thu Dec  7 21:58:44 2023.
