 Gaussian 16, Revision B.01,
 Gaussian 16:  ES64L-G16RevB.01 20-Dec-2017

 -------------------------
 #P B3LYP/6-311+g(d) force
 -------------------------

 -----
 DPGEN
 -----
 Symbolic Z-matrix:
 Charge =  0 Multiplicity = 2

                         Standard orientation:
 ---------------------------------------------------------------------
 Center     Atomic      Atomic             Coordinates (Angstroms)
 Number     Number       Type             X           Y           Z
 ---------------------------------------------------------------------
      1         11           0       -1.478214    2.549268   -1.210663
      2         11           0       -1.194720   -1.760741   -2.362222
      3         11           0       -3.335984   -0.367715    0.549546
      4         11           0       -0.779244   -1.077530    2.928604
      5         11           0        2.426378    3.047688    0.392829
      6         11           0        0.992801   -0.108879    0.187407
      7         11           0        3.368984   -2.282091   -0.485502
 ---------------------------------------------------------------------

 SCF Done:  E(UB3LYP) =  -1136.10875130     A.U. after   24 cycles

 The electronic state is 2-A.
 Alpha  occ. eigenvalues --  -38.45633 -38.45204 -38.44378 -38.44345 -38.44323
 Alpha  occ. eigenvalues --  -38.44003 -38.42604  -2.21398  -2.21011  -2.20118
 Alpha  occ. eigenvalues --   -2.20113  -2.20071  -2.19744  -2.18503  -1.15056
 Alpha  occ. eigenvalues --   -1.15034  -1.14999  -1.14668  -1.14633  -1.14617
 Alpha  occ. eigenvalues --   -1.13807  -1.13795  -1.13785  -1.13778  -1.13763
 Alpha  occ. eigenvalues --   -1.13739  -1.13732  -1.13727  -1.13721  -1.13423
 Alpha  occ. eigenvalues --   -1.13412  -1.13372  -1.12238  -1.12168  -1.12118
 Alpha  occ. eigenvalues --   -0.16880  -0.12277  -0.12058  -0.11338
 Alpha virt. eigenvalues --   -0.06592  -0.05716  -0.04614  -0.03499  -0.02901
 Alpha virt. eigenvalues --   -0.02725  -0.01895  -0.01411  -0.00827  -0.00282
 Alpha virt. eigenvalues --   -0.00156  -0.00042   0.00212   0.00258   0.00554

  Beta  occ. eigenvalues --  -38.45540 -38.45101 -38.44366 -38.44349 -38.44331
  Beta  occ. eigenvalues --  -38.44009 -38.42593  -2.21225  -2.20820  -2.20126
  Beta  occ. eigenvalues --   -2.20095  -2.20087  -2.19755  -2.18487  -1.14936
  Beta  occ. eigenvalues --   -1.14920  -1.14878  -1.14536  -1.14506  -1.14485
  Beta  occ. eigenvalues --   -1.13802  -1.13788  -1.13787  -1.13771  -1.13750
  Beta  occ. eigenvalues --   -1.13750  -1.13742  -1.13729  -1.13712  -1.13429
  Beta  occ. eigenvalues --   -1.13419  -1.13380  -1.12191  -1.12163  -1.12115
  Beta  occ. eigenvalues --   -0.16108  -0.12188  -0.11197
  Beta virt. eigenvalues --   -0.08143  -0.06172  -0.05569  -0.04062  -0.02934
  Beta virt. eigenvalues --   -0.02526  -0.02296  -0.01773  -0.01295  -0.00525
  Beta virt. eigenvalues --   -0.00170  -0.00019   0.00144   0.00255   0.00358

 Mulliken charges and spin densities:
               1          2
     1  Na   0.327669   0.135085
     2  Na   0.050785   0.631566
     3  Na   0.233618  -0.103800
     4  Na   0.348212   0.559589
     5  Na   0.669174  -0.143651
     6  Na  -1.941032  -0.130385
     7  Na   0.311574   0.051594
 Sum of Mulliken charges =  -0.00000   1.00000

 Dipole moment (field-independent basis, Debye):
    X=             -0.5330    Y=             -0.6019    Z=             -0.0159  Tot=              0.8041
 Quadrupole moment (field-independent basis, Debye-Ang):
   XX=            -59.6277   YY=            -69.2775   ZZ=            -64.1120
   XY=             -0.6902   XZ=              1.7285   YZ=              1.8909

 Normal termination of Gaussian 16 at Tue Dec  5 23:54:24 2023.
