 Gaussian 16, Revision B.01,
 Gaussian 16:  ES64L-G16RevB.01 20-Dec-2017

 -------------------------
 #P B3LYP/6-311+g(d) force
 -------------------------

 -----
 DPGEN
 -----
 Symbolic Z-matrix:
 Charge =  0 Multiplicity = 2

                         Standard orientation:
 ---------------------------------------------------------------------
 Center     Atomic      Atomic             Coordinates (Angstroms)
 Number     Number       Type             X           Y           Z
 ---------------------------------------------------------------------
      1         11           0        0.070649    1.314567    1.407568
      2         11           0        1.428346    3.664802   -0.433572
      3         11           0        2.944248    0.746914   -0.462788
      4         11           0        3.872794   -2.681802   -0.313008
      5         11           0        0.440160   -2.086263    0.554403
      6         11           0       -2.872283   -0.617706   -0.523853
      7         11           0       -5.883914   -0.340512   -0.228750
 ---------------------------------------------------------------------

 SCF Done:  E(UB3LYP) =  -1136.12430995     A.U. after   19 cycles

 The electronic state is 2-A.
 Alpha  occ. eigenvalues --  -38.44622 -38.44286 -38.44048 -38.44033 -38.43957
 Alpha  occ. eigenvalues --  -38.43786 -38.43351  -2.20480  -2.20143  -2.19876
 Alpha  occ. eigenvalues --   -2.19859  -2.19795  -2.19582  -2.19170  -1.14173
 Alpha  occ. eigenvalues --   -1.14152  -1.14087  -1.13844  -1.13830  -1.13741
 Alpha  occ. eigenvalues --   -1.13551  -1.13550  -1.13538  -1.13501  -1.13501
 Alpha  occ. eigenvalues --   -1.13457  -1.13452  -1.13446  -1.13423  -1.13244
 Alpha  occ. eigenvalues --   -1.13240  -1.13203  -1.12852  -1.12843  -1.12817
 Alpha  occ. eigenvalues --   -0.17090  -0.13643  -0.12688  -0.11144
 Alpha virt. eigenvalues --   -0.05780  -0.05529  -0.04798  -0.03619  -0.02800
 Alpha virt. eigenvalues --   -0.02222  -0.01756  -0.01490  -0.01380  -0.00909
 Alpha virt. eigenvalues --   -0.00553   0.00031   0.00339   0.00498   0.00568

  Beta  occ. eigenvalues --  -38.44587 -38.44257 -38.43994 -38.43970 -38.43945
  Beta  occ. eigenvalues --  -38.43759 -38.43354  -2.20417  -2.20090  -2.19791
  Beta  occ. eigenvalues --   -2.19773  -2.19730  -2.19532  -2.19185  -1.14134
  Beta  occ. eigenvalues --   -1.14113  -1.14023  -1.13810  -1.13788  -1.13698
  Beta  occ. eigenvalues --   -1.13507  -1.13491  -1.13458  -1.13436  -1.13430
  Beta  occ. eigenvalues --   -1.13410  -1.13402  -1.13401  -1.13391  -1.13210
  Beta  occ. eigenvalues --   -1.13199  -1.13174  -1.12864  -1.12861  -1.12770
  Beta  occ. eigenvalues --   -0.16474  -0.12840  -0.12483
  Beta virt. eigenvalues --   -0.07782  -0.05411  -0.05336  -0.04349  -0.03327
  Beta virt. eigenvalues --   -0.02494  -0.02093  -0.01620  -0.01147  -0.01055
  Beta virt. eigenvalues --   -0.00521  -0.00286   0.00183   0.00464   0.00582

 Mulliken charges and spin densities:
               1          2
     1  Na   0.180880   0.186248
     2  Na   0.388217   0.041474
     3  Na  -0.865046   0.299472
     4  Na   0.857372   0.120088
     5  Na  -0.416630  -0.013587
     6  Na  -0.499475   0.104731
     7  Na   0.354682   0.261574
 Sum of Mulliken charges =  -0.00000   1.00000

 Dipole moment (field-independent basis, Debye):
    X=              0.6628    Y=              0.7399    Z=              0.2781  Tot=              1.0315
 Quadrupole moment (field-independent basis, Debye-Ang):
   XX=            -65.8982   YY=            -61.6434   ZZ=            -69.5697
   XY=             -3.1441   XZ=             -2.5279   YZ=             -0.9544

 Normal termination of Gaussian 16 at Wed Nov 29 02:42:29 2023.
