 Gaussian 16, Revision B.01,
 Gaussian 16:  ES64L-G16RevB.01 20-Dec-2017

 -------------------------
 #P B3LYP/6-311+g(d) force
 -------------------------

 -----
 DPGEN
 -----
 Symbolic Z-matrix:
 Charge =  0 Multiplicity = 2

                         Standard orientation:
 ---------------------------------------------------------------------
 Center     Atomic      Atomic             Coordinates (Angstroms)
 Number     Number       Type             X           Y           Z
 ---------------------------------------------------------------------
      1         11           0       -0.028350    0.050942   -1.660254
      2         11           0       -0.028450    0.051442    1.660526
      3         11           0       -2.495054   -0.852547    0.000046
      4         11           0       -1.464043    1.643048   -0.000354
      5         11           0        1.331958    1.731135   -0.000054
      6         11           0        0.161041   -1.945749    0.000146
      7         11           0        2.522897   -0.678270   -0.000054
 ---------------------------------------------------------------------

 SCF Done:  E(UB3LYP) =  -1136.04546740     A.U. after   19 cycles

 The electronic state is 2-A.
 Alpha  occ. eigenvalues --  -38.44604 -38.44603 -38.44368 -38.44111 -38.43956
 Alpha  occ. eigenvalues --  -38.43924 -38.43848  -2.21006  -2.20986  -2.20520
 Alpha  occ. eigenvalues --   -2.20259  -2.20223  -2.20179  -2.20099  -1.15059
 Alpha  occ. eigenvalues --   -1.14896  -1.14852  -1.14730  -1.14723  -1.14618
 Alpha  occ. eigenvalues --   -1.14412  -1.14348  -1.14189  -1.14078  -1.13982
 Alpha  occ. eigenvalues --   -1.13912  -1.13838  -1.13774  -1.13724  -1.13720
 Alpha  occ. eigenvalues --   -1.13693  -1.13659  -1.13610  -1.13594  -1.13486
 Alpha  occ. eigenvalues --   -0.22340  -0.14428  -0.12886  -0.12389
 Alpha virt. eigenvalues --   -0.05482  -0.04231  -0.03914  -0.03860  -0.03022
 Alpha virt. eigenvalues --   -0.02560  -0.01317  -0.00388  -0.00051   0.00310
 Alpha virt. eigenvalues --    0.00759   0.00854   0.01068   0.01178   0.01282

  Beta  occ. eigenvalues --  -38.44506 -38.44506 -38.44357 -38.44101 -38.43938
  Beta  occ. eigenvalues --  -38.43903 -38.43830  -2.20835  -2.20811  -2.20506
  Beta  occ. eigenvalues --   -2.20242  -2.20196  -2.20157  -2.20075  -1.14980
  Beta  occ. eigenvalues --   -1.14791  -1.14722  -1.14630  -1.14621  -1.14487
  Beta  occ. eigenvalues --   -1.14409  -1.14326  -1.14169  -1.14015  -1.13967
  Beta  occ. eigenvalues --   -1.13888  -1.13771  -1.13702  -1.13689  -1.13681
  Beta  occ. eigenvalues --   -1.13622  -1.13601  -1.13586  -1.13565  -1.13480
  Beta  occ. eigenvalues --   -0.21516  -0.14012  -0.12491
  Beta virt. eigenvalues --   -0.08116  -0.05531  -0.04207  -0.03840  -0.02834
  Beta virt. eigenvalues --   -0.02078  -0.01519  -0.01235  -0.00354   0.00087
  Beta virt. eigenvalues --    0.00342   0.00765   0.00848   0.01075   0.01199

 Mulliken charges and spin densities:
               1          2
     1  Na  -0.351462   0.470561
     2  Na  -0.351122   0.470775
     3  Na  -0.064779  -0.060696
     4  Na   0.226074   0.051604
     5  Na   0.280969   0.049847
     6  Na   0.364551   0.077843
     7  Na  -0.104231  -0.059935
 Sum of Mulliken charges =  -0.00000   1.00000

 Dipole moment (field-independent basis, Debye):
    X=             -0.0657    Y=             -0.1261    Z=              0.0005  Tot=              0.1422
 Quadrupole moment (field-independent basis, Debye-Ang):
   XX=            -57.2703   YY=            -71.4776   ZZ=            -69.4271
   XY=              0.3622   XZ=              0.0000   YZ=             -0.0007

 Normal termination of Gaussian 16 at Fri Dec  8 19:00:41 2023.
