 Gaussian 16, Revision B.01,
 Gaussian 16:  ES64L-G16RevB.01 20-Dec-2017

 -------------------------
 #P B3LYP/6-311+g(d) force
 -------------------------

 -----
 DPGEN
 -----
 Symbolic Z-matrix:
 Charge =  0 Multiplicity = 2

                         Standard orientation:
 ---------------------------------------------------------------------
 Center     Atomic      Atomic             Coordinates (Angstroms)
 Number     Number       Type             X           Y           Z
 ---------------------------------------------------------------------
      1         11           0       -0.283932    3.437221   -0.098134
      2         11           0        0.318918   -3.050796   -0.010017
      3         11           0       -3.130267   -1.851744   -0.688982
      4         11           0       -3.160497    1.170539    0.871659
      5         11           0        3.392851   -1.489386    0.652880
      6         11           0        2.816191    1.741066   -0.580482
      7         11           0        0.046735    0.043099   -0.146923
 ---------------------------------------------------------------------

 SCF Done:  E(UB3LYP) =  -1136.12679558     A.U. after   25 cycles

 The electronic state is 2-A.
 Alpha  occ. eigenvalues --  -38.44736 -38.44617 -38.44093 -38.44000 -38.43587
 Alpha  occ. eigenvalues --  -38.43154 -38.43065  -2.20531  -2.20450  -2.19904
 Alpha  occ. eigenvalues --   -2.19849  -2.19545  -2.19000  -2.18915  -1.14216
 Alpha  occ. eigenvalues --   -1.14192  -1.14167  -1.14144  -1.14124  -1.14065
 Alpha  occ. eigenvalues --   -1.13592  -1.13580  -1.13570  -1.13531  -1.13516
 Alpha  occ. eigenvalues --   -1.13447  -1.13269  -1.13185  -1.13171  -1.12655
 Alpha  occ. eigenvalues --   -1.12653  -1.12620  -1.12571  -1.12553  -1.12543
 Alpha  occ. eigenvalues --   -0.17441  -0.13811  -0.13263  -0.09507
 Alpha virt. eigenvalues --   -0.06858  -0.05482  -0.04236  -0.03607  -0.02735
 Alpha virt. eigenvalues --   -0.02332  -0.01744  -0.01345  -0.01138  -0.00504
 Alpha virt. eigenvalues --   -0.00108   0.00268   0.00460   0.00588   0.00706

  Beta  occ. eigenvalues --  -38.44727 -38.44601 -38.44082 -38.43979 -38.43589
  Beta  occ. eigenvalues --  -38.43093 -38.42994  -2.20522  -2.20426  -2.19887
  Beta  occ. eigenvalues --   -2.19813  -2.19547  -2.18885  -2.18782  -1.14215
  Beta  occ. eigenvalues --   -1.14185  -1.14132  -1.14125  -1.14111  -1.14010
  Beta  occ. eigenvalues --   -1.13578  -1.13572  -1.13559  -1.13494  -1.13491
  Beta  occ. eigenvalues --   -1.13395  -1.13261  -1.13198  -1.13175  -1.12576
  Beta  occ. eigenvalues --   -1.12574  -1.12547  -1.12479  -1.12467  -1.12454
  Beta  occ. eigenvalues --   -0.17126  -0.13150  -0.12688
  Beta virt. eigenvalues --   -0.06896  -0.06254  -0.05262  -0.04104  -0.02993
  Beta virt. eigenvalues --   -0.02182  -0.02101  -0.01643  -0.01153  -0.00915
  Beta virt. eigenvalues --   -0.00228   0.00136   0.00425   0.00555   0.00703

 Mulliken charges and spin densities:
               1          2
     1  Na   0.962400   0.036790
     2  Na   1.606648   0.085000
     3  Na   0.850634   0.029655
     4  Na   0.653045   0.396209
     5  Na   0.378159   0.368380
     6  Na   0.730876   0.143044
     7  Na  -5.181761  -0.059078
 Sum of Mulliken charges =  -0.00000   1.00000

 Dipole moment (field-independent basis, Debye):
    X=              0.0041    Y=              0.0872    Z=             -0.5502  Tot=              0.5571
 Quadrupole moment (field-independent basis, Debye-Ang):
   XX=            -64.2847   YY=            -60.0476   ZZ=            -72.0083
   XY=              6.1622   XZ=              1.1991   YZ=             -0.0914

 Normal termination of Gaussian 16 at Wed Nov 29 17:13:08 2023.
