 Gaussian 16, Revision B.01,
 Gaussian 16:  ES64L-G16RevB.01 20-Dec-2017

 -------------------------
 #P B3LYP/6-311+g(d) force
 -------------------------

 -----
 DPGEN
 -----
 Symbolic Z-matrix:
 Charge =  0 Multiplicity = 2

                         Standard orientation:
 ---------------------------------------------------------------------
 Center     Atomic      Atomic             Coordinates (Angstroms)
 Number     Number       Type             X           Y           Z
 ---------------------------------------------------------------------
      1         11           0        2.487872   -0.249888    1.613839
      2         11           0       -3.394915   -1.707701    0.198620
      3         11           0       -2.222411    1.563244   -0.366530
      4         11           0       -0.481762   -2.189920    0.684837
      5         11           0        0.270190    0.521322   -1.360263
      6         11           0        0.407923    3.543643    0.474376
      7         11           0        2.933103   -1.480700   -1.244879
 ---------------------------------------------------------------------

 SCF Done:  E(UB3LYP) =  -1136.12360362     A.U. after   18 cycles

 The electronic state is 2-A.
 Alpha  occ. eigenvalues --  -38.44117 -38.44064 -38.44020 -38.43964 -38.43921
 Alpha  occ. eigenvalues --  -38.43901 -38.43504  -2.20011  -2.19930  -2.19890
 Alpha  occ. eigenvalues --   -2.19773  -2.19762  -2.19741  -2.19476  -1.13833
 Alpha  occ. eigenvalues --   -1.13666  -1.13630  -1.13625  -1.13595  -1.13590
 Alpha  occ. eigenvalues --   -1.13576  -1.13565  -1.13556  -1.13435  -1.13434
 Alpha  occ. eigenvalues --   -1.13414  -1.13405  -1.13391  -1.13386  -1.13380
 Alpha  occ. eigenvalues --   -1.13372  -1.13338  -1.13156  -1.13117  -1.13070
 Alpha  occ. eigenvalues --   -0.18019  -0.13652  -0.12664  -0.10263
 Alpha virt. eigenvalues --   -0.05996  -0.05729  -0.04847  -0.03445  -0.02809
 Alpha virt. eigenvalues --   -0.02108  -0.01909  -0.01305  -0.00661  -0.00303
 Alpha virt. eigenvalues --   -0.00069   0.00259   0.00540   0.00685   0.00773

  Beta  occ. eigenvalues --  -38.44111 -38.44029 -38.44003 -38.43950 -38.43903
  Beta  occ. eigenvalues --  -38.43868 -38.43452  -2.20001  -2.19868  -2.19861
  Beta  occ. eigenvalues --   -2.19746  -2.19735  -2.19675  -2.19384  -1.13815
  Beta  occ. eigenvalues --   -1.13652  -1.13618  -1.13591  -1.13583  -1.13558
  Beta  occ. eigenvalues --   -1.13528  -1.13523  -1.13515  -1.13417  -1.13393
  Beta  occ. eigenvalues --   -1.13391  -1.13372  -1.13367  -1.13363  -1.13338
  Beta  occ. eigenvalues --   -1.13335  -1.13313  -1.13091  -1.13053  -1.12995
  Beta  occ. eigenvalues --   -0.17464  -0.13413  -0.12490
  Beta virt. eigenvalues --   -0.06651  -0.05883  -0.05233  -0.04640  -0.02996
  Beta virt. eigenvalues --   -0.02401  -0.01909  -0.01227  -0.01164  -0.00586
  Beta virt. eigenvalues --   -0.00071   0.00127   0.00345   0.00698   0.00814

 Mulliken charges and spin densities:
               1          2
     1  Na  -0.143690   0.494078
     2  Na   0.138655  -0.050476
     3  Na   0.207458   0.090443
     4  Na  -0.539238   0.171614
     5  Na  -0.135177   0.170144
     6  Na  -0.122883   0.115507
     7  Na   0.594876   0.008691
 Sum of Mulliken charges =  -0.00000   1.00000

 Dipole moment (field-independent basis, Debye):
    X=             -0.0781    Y=              0.1409    Z=              0.0499  Tot=              0.1686
 Quadrupole moment (field-independent basis, Debye-Ang):
   XX=            -55.3606   YY=            -63.5776   ZZ=            -75.2462
   XY=             -0.8429   XZ=             -0.3887   YZ=              2.6012

 Normal termination of Gaussian 16 at Thu Dec  7 16:08:45 2023.
