 Gaussian 16, Revision B.01,
 Gaussian 16:  ES64L-G16RevB.01 20-Dec-2017

 -------------------------
 #P B3LYP/6-311+g(d) force
 -------------------------

 -----
 DPGEN
 -----
 Symbolic Z-matrix:
 Charge =  0 Multiplicity = 2

                         Standard orientation:
 ---------------------------------------------------------------------
 Center     Atomic      Atomic             Coordinates (Angstroms)
 Number     Number       Type             X           Y           Z
 ---------------------------------------------------------------------
      1         11           0       -3.797052    1.155225    1.251845
      2         11           0       -0.263420    2.089805   -0.000541
      3         11           0        3.065227    1.318468   -1.176244
      4         11           0       -4.970919   -1.486654   -0.603164
      5         11           0        5.188901   -0.890997    0.604848
      6         11           0        2.239322   -1.368959    0.569963
      7         11           0       -1.462060   -0.816888   -0.646708
 ---------------------------------------------------------------------

 SCF Done:  E(UB3LYP) =  -1136.11539259     A.U. after   28 cycles

 The electronic state is 2-A.
 Alpha  occ. eigenvalues --  -38.45426 -38.44617 -38.44239 -38.44181 -38.43643
 Alpha  occ. eigenvalues --  -38.43554 -38.42704  -2.21235  -2.20426  -2.20128
 Alpha  occ. eigenvalues --   -2.19972  -2.19493  -2.19434  -2.18540  -1.14930
 Alpha  occ. eigenvalues --   -1.14921  -1.14828  -1.14103  -1.14077  -1.14045
 Alpha  occ. eigenvalues --   -1.13816  -1.13804  -1.13770  -1.13641  -1.13634
 Alpha  occ. eigenvalues --   -1.13600  -1.13166  -1.13139  -1.13130  -1.13121
 Alpha  occ. eigenvalues --   -1.13118  -1.13023  -1.12232  -1.12209  -1.12161
 Alpha  occ. eigenvalues --   -0.16966  -0.14866  -0.11354  -0.10224
 Alpha virt. eigenvalues --   -0.07414  -0.05156  -0.04565  -0.03753  -0.02748
 Alpha virt. eigenvalues --   -0.02139  -0.02085  -0.01756  -0.01129  -0.00567
 Alpha virt. eigenvalues --   -0.00235   0.00165   0.00378   0.00488   0.00545

  Beta  occ. eigenvalues --  -38.45414 -38.44571 -38.44211 -38.44167 -38.43646
  Beta  occ. eigenvalues --  -38.43496 -38.42692  -2.21213  -2.20342  -2.20076
  Beta  occ. eigenvalues --   -2.19948  -2.19498  -2.19330  -2.18518  -1.14910
  Beta  occ. eigenvalues --   -1.14906  -1.14814  -1.14046  -1.14022  -1.13976
  Beta  occ. eigenvalues --   -1.13780  -1.13757  -1.13736  -1.13623  -1.13609
  Beta  occ. eigenvalues --   -1.13585  -1.13171  -1.13143  -1.13116  -1.13058
  Beta  occ. eigenvalues --   -1.13038  -1.12937  -1.12213  -1.12191  -1.12141
  Beta  occ. eigenvalues --   -0.16408  -0.14553  -0.11295
  Beta virt. eigenvalues --   -0.07008  -0.06648  -0.04742  -0.04280  -0.03504
  Beta virt. eigenvalues --   -0.02528  -0.01945  -0.01776  -0.01308  -0.00733
  Beta virt. eigenvalues --   -0.00348  -0.00129   0.00296   0.00481   0.00625

 Mulliken charges and spin densities:
               1          2
     1  Na   0.214030   0.206819
     2  Na  -0.030206   0.126563
     3  Na   0.006459   0.163830
     4  Na   0.894325   0.194701
     5  Na   1.316875   0.194921
     6  Na  -0.900105   0.034412
     7  Na  -1.501378   0.078754
 Sum of Mulliken charges =  -0.00000   1.00000

 Dipole moment (field-independent basis, Debye):
    X=              0.3743    Y=              0.0413    Z=             -0.0965  Tot=              0.3887
 Quadrupole moment (field-independent basis, Debye-Ang):
   XX=            -57.3559   YY=            -71.6538   ZZ=            -66.1085
   XY=              3.2130   XZ=             -1.0231   YZ=             -0.2227

 Normal termination of Gaussian 16 at Sun Dec  3 16:55:14 2023.
