 Gaussian 16, Revision B.01,
 Gaussian 16:  ES64L-G16RevB.01 20-Dec-2017

 -------------------------
 #P B3LYP/6-311+g(d) force
 -------------------------

 -----
 DPGEN
 -----
 Symbolic Z-matrix:
 Charge =  0 Multiplicity = 2

                         Standard orientation:
 ---------------------------------------------------------------------
 Center     Atomic      Atomic             Coordinates (Angstroms)
 Number     Number       Type             X           Y           Z
 ---------------------------------------------------------------------
      1         11           0       -0.187166   -0.206195   -1.659172
      2         11           0       -2.983937    0.616978   -0.134743
      3         11           0       -1.660487   -2.743843   -0.112926
      4         11           0       -0.646479    3.040690    0.392898
      5         11           0        2.509273   -1.961631   -0.005157
      6         11           0        2.581662    1.662708   -0.556507
      7         11           0        0.387134   -0.408708    2.075607
 ---------------------------------------------------------------------

 SCF Done:  E(UB3LYP) =  -1136.13719786     A.U. after   19 cycles

 The electronic state is 2-A.
 Alpha  occ. eigenvalues --  -38.44033 -38.43916 -38.43852 -38.43793 -38.43716
 Alpha  occ. eigenvalues --  -38.43449 -38.43300  -2.19847  -2.19729  -2.19664
 Alpha  occ. eigenvalues --   -2.19633  -2.19577  -2.19261  -2.19242  -1.13537
 Alpha  occ. eigenvalues --   -1.13512  -1.13481  -1.13418  -1.13395  -1.13363
 Alpha  occ. eigenvalues --   -1.13346  -1.13334  -1.13321  -1.13296  -1.13294
 Alpha  occ. eigenvalues --   -1.13258  -1.13235  -1.13204  -1.13195  -1.12927
 Alpha  occ. eigenvalues --   -1.12926  -1.12917  -1.12908  -1.12876  -1.12864
 Alpha  occ. eigenvalues --   -0.18220  -0.12861  -0.12456  -0.10663
 Alpha virt. eigenvalues --   -0.05710  -0.05136  -0.04987  -0.03179  -0.02975
 Alpha virt. eigenvalues --   -0.02542  -0.01433  -0.01343  -0.00540  -0.00459
 Alpha virt. eigenvalues --   -0.00018   0.00355   0.00798   0.00830   0.00855

  Beta  occ. eigenvalues --  -38.44029 -38.43912 -38.43837 -38.43791 -38.43624
  Beta  occ. eigenvalues --  -38.43443 -38.43239  -2.19845  -2.19726  -2.19639
  Beta  occ. eigenvalues --   -2.19631  -2.19407  -2.19252  -2.19131  -1.13524
  Beta  occ. eigenvalues --   -1.13500  -1.13477  -1.13408  -1.13387  -1.13357
  Beta  occ. eigenvalues --   -1.13328  -1.13319  -1.13297  -1.13282  -1.13281
  Beta  occ. eigenvalues --   -1.13257  -1.13123  -1.13087  -1.13073  -1.12916
  Beta  occ. eigenvalues --   -1.12910  -1.12900  -1.12845  -1.12801  -1.12780
  Beta  occ. eigenvalues --   -0.17523  -0.12611  -0.12239
  Beta virt. eigenvalues --   -0.06825  -0.05708  -0.05035  -0.04904  -0.02418
  Beta virt. eigenvalues --   -0.02261  -0.01540  -0.01343  -0.01262  -0.00571
  Beta virt. eigenvalues --   -0.00487   0.00126   0.00392   0.00796   0.00862

 Mulliken charges and spin densities:
               1          2
     1  Na   0.054986   0.390077
     2  Na   0.071777  -0.019355
     3  Na   0.103961  -0.113963
     4  Na  -0.058454   0.018987
     5  Na   0.167936  -0.091772
     6  Na   0.037100   0.046297
     7  Na  -0.377307   0.769729
 Sum of Mulliken charges =  -0.00000   1.00000

 Dipole moment (field-independent basis, Debye):
    X=              0.0935    Y=             -0.3685    Z=              0.0642  Tot=              0.3856
 Quadrupole moment (field-independent basis, Debye-Ang):
   XX=            -58.8648   YY=            -60.0838   ZZ=            -74.7000
   XY=              0.2068   XZ=             -1.3793   YZ=              0.5039

 Normal termination of Gaussian 16 at Fri Dec  8 01:58:58 2023.
