 Gaussian 16, Revision B.01,
 Gaussian 16:  ES64L-G16RevB.01 20-Dec-2017

 -------------------------
 #P B3LYP/6-311+g(d) force
 -------------------------

 -----
 DPGEN
 -----
 Symbolic Z-matrix:
 Charge =  0 Multiplicity = 2

                         Standard orientation:
 ---------------------------------------------------------------------
 Center     Atomic      Atomic             Coordinates (Angstroms)
 Number     Number       Type             X           Y           Z
 ---------------------------------------------------------------------
      1         11           0       -4.669335   -0.004638   -0.075505
      2         11           0        4.348200    1.467363   -0.023900
      3         11           0       -2.786761   -2.548589   -0.395864
      4         11           0        0.592704    3.032834   -0.869972
      5         11           0        0.807245   -2.781053    0.105776
      6         11           0       -2.243332    2.639814    0.952129
      7         11           0        3.951279   -1.805731    0.307337
 ---------------------------------------------------------------------

 SCF Done:  E(UB3LYP) =  -1136.10780538     A.U. after   23 cycles

 The electronic state is 2-A.
 Alpha  occ. eigenvalues --  -38.44762 -38.44756 -38.44738 -38.44694 -38.44568
 Alpha  occ. eigenvalues --  -38.44371 -38.43822  -2.20555  -2.20530  -2.20527
 Alpha  occ. eigenvalues --   -2.20477  -2.20323  -2.20189  -2.19627  -1.14249
 Alpha  occ. eigenvalues --   -1.14229  -1.14228  -1.14203  -1.14194  -1.14181
 Alpha  occ. eigenvalues --   -1.14168  -1.14163  -1.14158  -1.14154  -1.14139
 Alpha  occ. eigenvalues --   -1.14134  -1.13994  -1.13985  -1.13950  -1.13837
 Alpha  occ. eigenvalues --   -1.13826  -1.13816  -1.13280  -1.13272  -1.13257
 Alpha  occ. eigenvalues --   -0.15642  -0.14224  -0.12994  -0.10856
 Alpha virt. eigenvalues --   -0.07709  -0.05085  -0.04239  -0.03582  -0.03520
 Alpha virt. eigenvalues --   -0.02625  -0.02331  -0.01631  -0.00883  -0.00747
 Alpha virt. eigenvalues --   -0.00683  -0.00366  -0.00051   0.00484   0.00593

  Beta  occ. eigenvalues --  -38.44757 -38.44746 -38.44693 -38.44669 -38.44548
  Beta  occ. eigenvalues --  -38.44316 -38.43757  -2.20562  -2.20502  -2.20483
  Beta  occ. eigenvalues --   -2.20402  -2.20289  -2.20087  -2.19506  -1.14239
  Beta  occ. eigenvalues --   -1.14237  -1.14195  -1.14188  -1.14176  -1.14164
  Beta  occ. eigenvalues --   -1.14160  -1.14134  -1.14108  -1.14095  -1.14075
  Beta  occ. eigenvalues --   -1.14057  -1.13973  -1.13964  -1.13914  -1.13768
  Beta  occ. eigenvalues --   -1.13760  -1.13746  -1.13198  -1.13189  -1.13183
  Beta  occ. eigenvalues --   -0.15090  -0.13517  -0.12307
  Beta virt. eigenvalues --   -0.07817  -0.07744  -0.04539  -0.03799  -0.03322
  Beta virt. eigenvalues --   -0.03222  -0.02402  -0.02187  -0.01446  -0.00767
  Beta virt. eigenvalues --   -0.00491  -0.00355  -0.00214   0.00157   0.00525

 Mulliken charges and spin densities:
               1          2
     1  Na  -0.027685   0.224115
     2  Na  -0.120324   0.282649
     3  Na   0.299701  -0.039284
     4  Na  -0.256249   0.085893
     5  Na  -0.126515   0.149659
     6  Na  -0.124580   0.093954
     7  Na   0.355652   0.203015
 Sum of Mulliken charges =  -0.00000   1.00000

 Dipole moment (field-independent basis, Debye):
    X=             -0.0565    Y=              0.4741    Z=              0.0352  Tot=              0.4787
 Quadrupole moment (field-independent basis, Debye-Ang):
   XX=            -60.1311   YY=            -69.1441   ZZ=            -71.0122
   XY=             -1.7408   XZ=             -1.3347   YZ=              0.2606

 Normal termination of Gaussian 16 at Mon Dec  4 04:20:02 2023.
