 Gaussian 16, Revision B.01,
 Gaussian 16:  ES64L-G16RevB.01 20-Dec-2017

 -------------------------
 #P B3LYP/6-311+g(d) force
 -------------------------

 -----
 DPGEN
 -----
 Symbolic Z-matrix:
 Charge =  0 Multiplicity = 2

                         Standard orientation:
 ---------------------------------------------------------------------
 Center     Atomic      Atomic             Coordinates (Angstroms)
 Number     Number       Type             X           Y           Z
 ---------------------------------------------------------------------
      1         11           0        2.037711   -2.200272    0.164449
      2         11           0        3.590202    0.995746   -0.228082
      3         11           0       -1.300931   -2.451035   -0.452499
      4         11           0       -1.058204    3.122468   -0.052336
      5         11           0       -0.031540    0.498645   -1.677948
      6         11           0        0.442774    0.282980    1.953442
      7         11           0       -3.680012   -0.248531    0.292974
 ---------------------------------------------------------------------

 SCF Done:  E(UB3LYP) =  -1136.12484775     A.U. after   25 cycles

 The electronic state is 2-A.
 Alpha  occ. eigenvalues --  -38.45505 -38.45413 -38.43691 -38.43680 -38.43583
 Alpha  occ. eigenvalues --  -38.43299 -38.42942  -2.21253  -2.21165  -2.19532
 Alpha  occ. eigenvalues --   -2.19531  -2.19373  -2.19194  -2.18800  -1.14927
 Alpha  occ. eigenvalues --   -1.14909  -1.14891  -1.14837  -1.14832  -1.14795
 Alpha  occ. eigenvalues --   -1.13243  -1.13199  -1.13195  -1.13171  -1.13158
 Alpha  occ. eigenvalues --   -1.13137  -1.13078  -1.13030  -1.13010  -1.12881
 Alpha  occ. eigenvalues --   -1.12829  -1.12808  -1.12482  -1.12456  -1.12446
 Alpha  occ. eigenvalues --   -0.17863  -0.13052  -0.11985  -0.10230
 Alpha virt. eigenvalues --   -0.07148  -0.05239  -0.04358  -0.03201  -0.02717
 Alpha virt. eigenvalues --   -0.02510  -0.02283  -0.01260  -0.00921  -0.00292
 Alpha virt. eigenvalues --   -0.00143   0.00211   0.00506   0.00653   0.00733

  Beta  occ. eigenvalues --  -38.45503 -38.45412 -38.43683 -38.43595 -38.43584
  Beta  occ. eigenvalues --  -38.43232 -38.42932  -2.21252  -2.21164  -2.19523
  Beta  occ. eigenvalues --   -2.19378  -2.19374  -2.19072  -2.18785  -1.14917
  Beta  occ. eigenvalues --   -1.14903  -1.14891  -1.14835  -1.14826  -1.14796
  Beta  occ. eigenvalues --   -1.13218  -1.13169  -1.13163  -1.13102  -1.13071
  Beta  occ. eigenvalues --   -1.13050  -1.13034  -1.13019  -1.13010  -1.12796
  Beta  occ. eigenvalues --   -1.12740  -1.12723  -1.12469  -1.12440  -1.12425
  Beta  occ. eigenvalues --   -0.17153  -0.12908  -0.11762
  Beta virt. eigenvalues --   -0.07076  -0.06419  -0.05161  -0.04323  -0.02550
  Beta virt. eigenvalues --   -0.02433  -0.01940  -0.01338  -0.01183  -0.00915
  Beta virt. eigenvalues --   -0.00291   0.00018   0.00236   0.00618   0.00688

 Mulliken charges and spin densities:
               1          2
     1  Na   0.168329   0.096743
     2  Na   0.086380  -0.084818
     3  Na  -0.025264  -0.001982
     4  Na  -0.092773  -0.124951
     5  Na   0.100922   0.485305
     6  Na  -0.207895   0.617000
     7  Na  -0.029698   0.012702
 Sum of Mulliken charges =  -0.00000   1.00000

 Dipole moment (field-independent basis, Debye):
    X=              0.2536    Y=              0.4848    Z=              0.1394  Tot=              0.5646
 Quadrupole moment (field-independent basis, Debye-Ang):
   XX=            -47.2804   YY=            -66.4158   ZZ=            -77.2973
   XY=              0.4656   XZ=             -1.9142   YZ=              0.5004

 Normal termination of Gaussian 16 at Thu Dec  7 14:15:23 2023.
