 Gaussian 16, Revision B.01,
 Gaussian 16:  ES64L-G16RevB.01 20-Dec-2017

 -------------------------
 #P B3LYP/6-311+g(d) force
 -------------------------

 -----
 DPGEN
 -----
 Symbolic Z-matrix:
 Charge =  0 Multiplicity = 2

                         Standard orientation:
 ---------------------------------------------------------------------
 Center     Atomic      Atomic             Coordinates (Angstroms)
 Number     Number       Type             X           Y           Z
 ---------------------------------------------------------------------
      1         11           0        0.214654    0.343322    0.809376
      2         11           0       -1.853821   -1.661355   -1.175838
      3         11           0       -2.388263    2.052123   -0.612447
      4         11           0        3.444311   -0.457290    0.872322
      5         11           0        2.338782    2.329882   -0.730323
      6         11           0       -2.965810   -0.246145    1.466844
      7         11           0        1.210147   -2.360536   -0.629935
 ---------------------------------------------------------------------

 SCF Done:  E(UB3LYP) =  -1136.12080896     A.U. after   22 cycles

 The electronic state is 2-A.
 Alpha  occ. eigenvalues --  -38.44625 -38.44352 -38.44099 -38.44026 -38.43548
 Alpha  occ. eigenvalues --  -38.43451 -38.43041  -2.20458  -2.20223  -2.19954
 Alpha  occ. eigenvalues --   -2.19909  -2.19564  -2.19364  -2.18931  -1.14144
 Alpha  occ. eigenvalues --   -1.14118  -1.14106  -1.13893  -1.13882  -1.13852
 Alpha  occ. eigenvalues --   -1.13619  -1.13606  -1.13588  -1.13569  -1.13567
 Alpha  occ. eigenvalues --   -1.13537  -1.13279  -1.13226  -1.13205  -1.13044
 Alpha  occ. eigenvalues --   -1.13021  -1.12985  -1.12617  -1.12578  -1.12567
 Alpha  occ. eigenvalues --   -0.18422  -0.14553  -0.11909  -0.09982
 Alpha virt. eigenvalues --   -0.06333  -0.06170  -0.04538  -0.03473  -0.02502
 Alpha virt. eigenvalues --   -0.02381  -0.01620  -0.01248  -0.00674  -0.00404
 Alpha virt. eigenvalues --    0.00016   0.00230   0.00380   0.00532   0.00680

  Beta  occ. eigenvalues --  -38.44619 -38.44324 -38.44083 -38.43967 -38.43531
  Beta  occ. eigenvalues --  -38.43414 -38.43032  -2.20450  -2.20171  -2.19880
  Beta  occ. eigenvalues --   -2.19844  -2.19537  -2.19298  -2.18919  -1.14137
  Beta  occ. eigenvalues --   -1.14106  -1.14085  -1.13855  -1.13849  -1.13819
  Beta  occ. eigenvalues --   -1.13571  -1.13547  -1.13542  -1.13526  -1.13509
  Beta  occ. eigenvalues --   -1.13499  -1.13238  -1.13192  -1.13187  -1.12995
  Beta  occ. eigenvalues --   -1.12961  -1.12943  -1.12614  -1.12567  -1.12532
  Beta  occ. eigenvalues --   -0.17884  -0.14286  -0.11513
  Beta virt. eigenvalues --   -0.06603  -0.06039  -0.06032  -0.03961  -0.03234
  Beta virt. eigenvalues --   -0.02252  -0.01976  -0.01191  -0.00907  -0.00527
  Beta virt. eigenvalues --   -0.00060   0.00088   0.00319   0.00514   0.00685

 Mulliken charges and spin densities:
               1          2
     1  Na  -2.438764   0.873592
     2  Na  -0.280343   0.140131
     3  Na   0.036457  -0.096155
     4  Na   1.303102   0.085168
     5  Na   0.229637  -0.026641
     6  Na   1.216450   0.118683
     7  Na  -0.066539  -0.094778
 Sum of Mulliken charges =  -0.00000   1.00000

 Dipole moment (field-independent basis, Debye):
    X=              0.1454    Y=              0.4009    Z=             -0.3993  Tot=              0.5842
 Quadrupole moment (field-independent basis, Debye-Ang):
   XX=            -50.9161   YY=            -70.4693   ZZ=            -72.7656
   XY=             -1.0580   XZ=              1.7116   YZ=             -2.8399

 Normal termination of Gaussian 16 at Wed Nov 29 02:34:22 2023.
