 Gaussian 16, Revision B.01,
 Gaussian 16:  ES64L-G16RevB.01 20-Dec-2017

 -------------------------
 #P B3LYP/6-311+g(d) force
 -------------------------

 -----
 DPGEN
 -----
 Symbolic Z-matrix:
 Charge =  0 Multiplicity = 2

                         Standard orientation:
 ---------------------------------------------------------------------
 Center     Atomic      Atomic             Coordinates (Angstroms)
 Number     Number       Type             X           Y           Z
 ---------------------------------------------------------------------
      1         11           0       -2.591955    1.500667    0.256632
      2         11           0        0.490131    2.925330   -0.447335
      3         11           0        0.693578   -0.261066    2.282595
      4         11           0        3.128652    0.322940    0.068541
      5         11           0        1.289587   -2.742097   -0.695349
      6         11           0       -2.796489   -1.854448    0.127471
      7         11           0       -0.213505    0.108674   -1.592555
 ---------------------------------------------------------------------

 SCF Done:  E(UB3LYP) =  -1136.13382394     A.U. after   20 cycles

 The electronic state is 2-A.
 Alpha  occ. eigenvalues --  -38.44247 -38.44208 -38.43958 -38.43758 -38.43727
 Alpha  occ. eigenvalues --  -38.43274 -38.43125  -2.20078  -2.20032  -2.19745
 Alpha  occ. eigenvalues --   -2.19579  -2.19569  -2.19244  -2.18982  -1.13767
 Alpha  occ. eigenvalues --   -1.13718  -1.13703  -1.13691  -1.13671  -1.13661
 Alpha  occ. eigenvalues --   -1.13422  -1.13416  -1.13388  -1.13272  -1.13262
 Alpha  occ. eigenvalues --   -1.13245  -1.13219  -1.13201  -1.13194  -1.12947
 Alpha  occ. eigenvalues --   -1.12902  -1.12870  -1.12656  -1.12631  -1.12603
 Alpha  occ. eigenvalues --   -0.18174  -0.13075  -0.12184  -0.10932
 Alpha virt. eigenvalues --   -0.05781  -0.05182  -0.04661  -0.03461  -0.02862
 Alpha virt. eigenvalues --   -0.02752  -0.01511  -0.01136  -0.00552  -0.00356
 Alpha virt. eigenvalues --   -0.00051   0.00355   0.00759   0.00811   0.00818

  Beta  occ. eigenvalues --  -38.44204 -38.44149 -38.43959 -38.43736 -38.43723
  Beta  occ. eigenvalues --  -38.43217 -38.43117  -2.20028  -2.19897  -2.19749
  Beta  occ. eigenvalues --   -2.19574  -2.19532  -2.19143  -2.18971  -1.13721
  Beta  occ. eigenvalues --   -1.13674  -1.13669  -1.13598  -1.13577  -1.13566
  Beta  occ. eigenvalues --   -1.13426  -1.13408  -1.13391  -1.13264  -1.13233
  Beta  occ. eigenvalues --   -1.13227  -1.13196  -1.13188  -1.13171  -1.12880
  Beta  occ. eigenvalues --   -1.12830  -1.12797  -1.12632  -1.12617  -1.12596
  Beta  occ. eigenvalues --   -0.17493  -0.12850  -0.11946
  Beta virt. eigenvalues --   -0.07059  -0.05662  -0.05112  -0.04598  -0.02710
  Beta virt. eigenvalues --   -0.02197  -0.01747  -0.01414  -0.01045  -0.00577
  Beta virt. eigenvalues --   -0.00364   0.00115   0.00394   0.00819   0.00857

 Mulliken charges and spin densities:
               1          2
     1  Na  -0.005570   0.073014
     2  Na   0.185014   0.010480
     3  Na  -0.536953   0.663141
     4  Na   0.261437   0.061705
     5  Na   0.037059  -0.010828
     6  Na  -0.072694  -0.035291
     7  Na   0.131708   0.237779
 Sum of Mulliken charges =  -0.00000   1.00000

 Dipole moment (field-independent basis, Debye):
    X=              0.1540    Y=             -0.2024    Z=              0.2874  Tot=              0.3838
 Quadrupole moment (field-independent basis, Debye-Ang):
   XX=            -58.1152   YY=            -63.2519   ZZ=            -73.3188
   XY=              0.7367   XZ=             -2.0718   YZ=              0.7439

 Normal termination of Gaussian 16 at Thu Dec  7 19:18:53 2023.
