 Gaussian 16, Revision B.01,
 Gaussian 16:  ES64L-G16RevB.01 20-Dec-2017

 -------------------------
 #P B3LYP/6-311+g(d) force
 -------------------------

 -----
 DPGEN
 -----
 Symbolic Z-matrix:
 Charge =  0 Multiplicity = 2

                         Standard orientation:
 ---------------------------------------------------------------------
 Center     Atomic      Atomic             Coordinates (Angstroms)
 Number     Number       Type             X           Y           Z
 ---------------------------------------------------------------------
      1         11           0       -3.199973    0.674807   -1.671381
      2         11           0        1.674220    2.656653   -0.580252
      3         11           0       -0.845383    0.434780    1.091060
      4         11           0       -4.169784   -1.203524    1.087961
      5         11           0        0.658596   -0.758378   -0.996189
      6         11           0        3.404219   -2.125588   -0.983131
      7         11           0        2.478105    0.321250    2.051931
 ---------------------------------------------------------------------

 SCF Done:  E(UB3LYP) =  -1136.10798801     A.U. after   30 cycles

 The electronic state is 2-A.
 Alpha  occ. eigenvalues --  -38.45397 -38.44915 -38.44812 -38.44549 -38.44326
 Alpha  occ. eigenvalues --  -38.43626 -38.42157  -2.21180  -2.20708  -2.20641
 Alpha  occ. eigenvalues --   -2.20474  -2.20105  -2.19587  -2.17984  -1.14854
 Alpha  occ. eigenvalues --   -1.14831  -1.14809  -1.14368  -1.14364  -1.14341
 Alpha  occ. eigenvalues --   -1.14325  -1.14319  -1.14277  -1.14237  -1.14123
 Alpha  occ. eigenvalues --   -1.14014  -1.13789  -1.13774  -1.13734  -1.13328
 Alpha  occ. eigenvalues --   -1.13200  -1.13182  -1.11665  -1.11636  -1.11616
 Alpha  occ. eigenvalues --   -0.17880  -0.14191  -0.10852  -0.10693
 Alpha virt. eigenvalues --   -0.06949  -0.06452  -0.04299  -0.03040  -0.02729
 Alpha virt. eigenvalues --   -0.02383  -0.02081  -0.01700  -0.01250  -0.00624
 Alpha virt. eigenvalues --   -0.00076   0.00146   0.00270   0.00394   0.00454

  Beta  occ. eigenvalues --  -38.45374 -38.44870 -38.44759 -38.44519 -38.44338
  Beta  occ. eigenvalues --  -38.43597 -38.42147  -2.21139  -2.20623  -2.20542
  Beta  occ. eigenvalues --   -2.20426  -2.20131  -2.19538  -2.17966  -1.14827
  Beta  occ. eigenvalues --   -1.14797  -1.14771  -1.14306  -1.14305  -1.14295
  Beta  occ. eigenvalues --   -1.14267  -1.14259  -1.14215  -1.14169  -1.14052
  Beta  occ. eigenvalues --   -1.13982  -1.13808  -1.13778  -1.13751  -1.13285
  Beta  occ. eigenvalues --   -1.13173  -1.13126  -1.11649  -1.11624  -1.11603
  Beta  occ. eigenvalues --   -0.17218  -0.13880  -0.10603
  Beta virt. eigenvalues --   -0.07358  -0.06791  -0.05602  -0.04076  -0.02906
  Beta virt. eigenvalues --   -0.02419  -0.01918  -0.01695  -0.01348  -0.00965
  Beta virt. eigenvalues --   -0.00309  -0.00017   0.00218   0.00369   0.00509

 Mulliken charges and spin densities:
               1          2
     1  Na   0.596207  -0.157299
     2  Na   0.171851   0.049593
     3  Na  -0.494905   0.347372
     4  Na   0.493486   0.132831
     5  Na  -2.703496   0.117148
     6  Na   1.570290   0.353838
     7  Na   0.366567   0.156517
 Sum of Mulliken charges =  -0.00000   1.00000

 Dipole moment (field-independent basis, Debye):
    X=             -1.5961    Y=              1.3376    Z=              0.1677  Tot=              2.0892
 Quadrupole moment (field-independent basis, Debye-Ang):
   XX=            -52.2436   YY=            -74.9705   ZZ=            -67.0734
   XY=              6.6232   XZ=              5.8158   YZ=             -6.8150

 Normal termination of Gaussian 16 at Wed Dec  6 01:11:15 2023.
