 Gaussian 16, Revision B.01,
 Gaussian 16:  ES64L-G16RevB.01 20-Dec-2017

 -------------------------
 #P B3LYP/6-311+g(d) force
 -------------------------

 -----
 DPGEN
 -----
 Symbolic Z-matrix:
 Charge =  0 Multiplicity = 2

                         Standard orientation:
 ---------------------------------------------------------------------
 Center     Atomic      Atomic             Coordinates (Angstroms)
 Number     Number       Type             X           Y           Z
 ---------------------------------------------------------------------
      1         11           0       -0.284025    0.927718    1.434886
      2         11           0       -2.005664    3.466744   -0.936028
      3         11           0       -3.782688    0.581656    0.278286
      4         11           0        0.237977   -1.844050   -0.422509
      5         11           0        2.732649   -0.463258    1.027431
      6         11           0       -2.799291   -3.088430   -0.578302
      7         11           0        5.901042    0.419619   -0.803763
 ---------------------------------------------------------------------

 SCF Done:  E(UB3LYP) =  -1136.11657859     A.U. after   21 cycles

 The electronic state is 2-A.
 Alpha  occ. eigenvalues --  -38.45083 -38.44796 -38.44624 -38.44614 -38.43862
 Alpha  occ. eigenvalues --  -38.43384 -38.42993  -2.20871  -2.20571  -2.20459
 Alpha  occ. eigenvalues --   -2.20378  -2.19733  -2.19234  -2.18791  -1.14500
 Alpha  occ. eigenvalues --   -1.14500  -1.14474  -1.14277  -1.14240  -1.14166
 Alpha  occ. eigenvalues --   -1.14155  -1.14142  -1.14054  -1.14053  -1.14041
 Alpha  occ. eigenvalues --   -1.13994  -1.13419  -1.13411  -1.13371  -1.12923
 Alpha  occ. eigenvalues --   -1.12900  -1.12876  -1.12457  -1.12452  -1.12428
 Alpha  occ. eigenvalues --   -0.16732  -0.13782  -0.12074  -0.11378
 Alpha virt. eigenvalues --   -0.06543  -0.05288  -0.04702  -0.03705  -0.02750
 Alpha virt. eigenvalues --   -0.02401  -0.02031  -0.01794  -0.01008  -0.00871
 Alpha virt. eigenvalues --   -0.00580  -0.00214   0.00270   0.00423   0.00517

  Beta  occ. eigenvalues --  -38.44944 -38.44778 -38.44622 -38.44578 -38.43856
  Beta  occ. eigenvalues --  -38.43383 -38.42982  -2.20613  -2.20537  -2.20396
  Beta  occ. eigenvalues --   -2.20373  -2.19723  -2.19241  -2.18771  -1.14324
  Beta  occ. eigenvalues --   -1.14324  -1.14301  -1.14253  -1.14219  -1.14138
  Beta  occ. eigenvalues --   -1.14112  -1.14103  -1.14051  -1.14040  -1.13999
  Beta  occ. eigenvalues --   -1.13984  -1.13413  -1.13401  -1.13361  -1.12936
  Beta  occ. eigenvalues --   -1.12911  -1.12824  -1.12445  -1.12439  -1.12412
  Beta  occ. eigenvalues --   -0.16311  -0.13022  -0.11730
  Beta virt. eigenvalues --   -0.07732  -0.06444  -0.04885  -0.04422  -0.03524
  Beta virt. eigenvalues --   -0.02496  -0.02061  -0.01644  -0.01231  -0.00875
  Beta virt. eigenvalues --   -0.00475  -0.00415   0.00031   0.00369   0.00521

 Mulliken charges and spin densities:
               1          2
     1  Na  -0.454475   0.087271
     2  Na   0.206427   0.018540
     3  Na   0.017407   0.170866
     4  Na  -0.717099  -0.081567
     5  Na   0.464006   0.037714
     6  Na   0.469731   0.075839
     7  Na   0.014003   0.691337
 Sum of Mulliken charges =  -0.00000   1.00000

 Dipole moment (field-independent basis, Debye):
    X=             -0.3761    Y=              1.2515    Z=             -0.2570  Tot=              1.3318
 Quadrupole moment (field-independent basis, Debye-Ang):
   XX=            -64.5529   YY=            -68.0172   ZZ=            -67.4082
   XY=             -1.0497   XZ=             -2.4173   YZ=             -3.0883

 Normal termination of Gaussian 16 at Wed Nov 29 01:17:50 2023.
