 Gaussian 16, Revision B.01,
 Gaussian 16:  ES64L-G16RevB.01 20-Dec-2017

 -------------------------
 #P B3LYP/6-311+g(d) force
 -------------------------

 -----
 DPGEN
 -----
 Symbolic Z-matrix:
 Charge =  0 Multiplicity = 2

                         Standard orientation:
 ---------------------------------------------------------------------
 Center     Atomic      Atomic             Coordinates (Angstroms)
 Number     Number       Type             X           Y           Z
 ---------------------------------------------------------------------
      1         11           0       -2.527973   -1.777246   -0.068460
      2         11           0       -0.194145   -0.050760    2.235928
      3         11           0       -2.419568    1.859341   -0.145820
      4         11           0        1.001859    2.523069   -0.121938
      5         11           0        0.887548   -2.428737   -0.232408
      6         11           0        0.024219   -0.009250   -1.753768
      7         11           0        3.228059   -0.116416    0.086467
 ---------------------------------------------------------------------

 SCF Done:  E(UB3LYP) =  -1136.13746462     A.U. after   18 cycles

 The electronic state is 2-A.
 Alpha  occ. eigenvalues --  -38.44075 -38.43968 -38.43671 -38.43662 -38.43492
 Alpha  occ. eigenvalues --  -38.43128 -38.43078  -2.19936  -2.19802  -2.19505
 Alpha  occ. eigenvalues --   -2.19496  -2.19493  -2.19009  -2.19001  -1.13594
 Alpha  occ. eigenvalues --   -1.13564  -1.13555  -1.13471  -1.13462  -1.13455
 Alpha  occ. eigenvalues --   -1.13230  -1.13201  -1.13178  -1.13167  -1.13162
 Alpha  occ. eigenvalues --   -1.13157  -1.13141  -1.13123  -1.13082  -1.12708
 Alpha  occ. eigenvalues --   -1.12694  -1.12670  -1.12652  -1.12623  -1.12602
 Alpha  occ. eigenvalues --   -0.18826  -0.12962  -0.12390  -0.11172
 Alpha virt. eigenvalues --   -0.05568  -0.05150  -0.04258  -0.03290  -0.03006
 Alpha virt. eigenvalues --   -0.02993  -0.01543  -0.01014  -0.00127  -0.00075
 Alpha virt. eigenvalues --   -0.00032   0.00357   0.00775   0.00918   0.00945

  Beta  occ. eigenvalues --  -38.43973 -38.43968 -38.43669 -38.43659 -38.43421
  Beta  occ. eigenvalues --  -38.43122 -38.43068  -2.19804  -2.19747  -2.19504
  Beta  occ. eigenvalues --   -2.19493  -2.19366  -2.19001  -2.18987  -1.13477
  Beta  occ. eigenvalues --   -1.13470  -1.13458  -1.13444  -1.13430  -1.13419
  Beta  occ. eigenvalues --   -1.13188  -1.13173  -1.13159  -1.13150  -1.13144
  Beta  occ. eigenvalues --   -1.13126  -1.13125  -1.13073  -1.12997  -1.12694
  Beta  occ. eigenvalues --   -1.12677  -1.12642  -1.12622  -1.12614  -1.12598
  Beta  occ. eigenvalues --   -0.18064  -0.12763  -0.12136
  Beta virt. eigenvalues --   -0.07188  -0.05498  -0.05177  -0.04234  -0.02496
  Beta virt. eigenvalues --   -0.02176  -0.01894  -0.01454  -0.00963  -0.00181
  Beta virt. eigenvalues --   -0.00093   0.00089   0.00373   0.00847   0.00900

 Mulliken charges and spin densities:
               1          2
     1  Na   0.201465  -0.056138
     2  Na  -0.749274   0.762068
     3  Na   0.153242  -0.067664
     4  Na   0.228070  -0.023294
     5  Na   0.407569   0.017410
     6  Na  -0.323277   0.384814
     7  Na   0.082205  -0.017196
 Sum of Mulliken charges =  -0.00000   1.00000

 Dipole moment (field-independent basis, Debye):
    X=             -0.0994    Y=              0.0433    Z=              0.2884  Tot=              0.3081
 Quadrupole moment (field-independent basis, Debye-Ang):
   XX=            -55.8040   YY=            -66.6149   ZZ=            -71.9371
   XY=              0.2565   XZ=              0.6148   YZ=              0.0275

 Normal termination of Gaussian 16 at Thu Dec  7 03:51:14 2023.
