 Gaussian 16, Revision B.01,
 Gaussian 16:  ES64L-G16RevB.01 20-Dec-2017

 -------------------------
 #P B3LYP/6-311+g(d) force
 -------------------------

 -----
 DPGEN
 -----
 Symbolic Z-matrix:
 Charge =  0 Multiplicity = 2

                         Standard orientation:
 ---------------------------------------------------------------------
 Center     Atomic      Atomic             Coordinates (Angstroms)
 Number     Number       Type             X           Y           Z
 ---------------------------------------------------------------------
      1         11           0       -3.729469    0.004738   -1.067438
      2         11           0        3.937085   -0.389336   -1.182565
      3         11           0        2.124754    2.548601    0.125010
      4         11           0       -1.860727    2.855890   -0.310485
      5         11           0       -1.848093   -2.816220   -0.111201
      6         11           0       -0.267578    0.069227    2.385836
      7         11           0        1.644028   -2.272900    0.160843
 ---------------------------------------------------------------------

 SCF Done:  E(UB3LYP) =  -1136.11788674     A.U. after   20 cycles

 The electronic state is 2-A.
 Alpha  occ. eigenvalues --  -38.45183 -38.44912 -38.44293 -38.44220 -38.44199
 Alpha  occ. eigenvalues --  -38.44111 -38.44014  -2.20962  -2.20642  -2.20041
 Alpha  occ. eigenvalues --   -2.20014  -2.19971  -2.19924  -2.19821  -1.14620
 Alpha  occ. eigenvalues --   -1.14601  -1.14565  -1.14335  -1.14311  -1.14274
 Alpha  occ. eigenvalues --   -1.13730  -1.13719  -1.13688  -1.13678  -1.13671
 Alpha  occ. eigenvalues --   -1.13655  -1.13636  -1.13627  -1.13614  -1.13603
 Alpha  occ. eigenvalues --   -1.13573  -1.13546  -1.13505  -1.13491  -1.13437
 Alpha  occ. eigenvalues --   -0.16562  -0.13540  -0.12276  -0.11083
 Alpha virt. eigenvalues --   -0.06757  -0.06103  -0.04262  -0.03627  -0.03344
 Alpha virt. eigenvalues --   -0.02306  -0.01753  -0.01513  -0.01435  -0.00788
 Alpha virt. eigenvalues --   -0.00480   0.00307   0.00394   0.00443   0.00480

  Beta  occ. eigenvalues --  -38.45082 -38.44915 -38.44297 -38.44201 -38.44170
  Beta  occ. eigenvalues --  -38.44059 -38.44010  -2.20774  -2.20650  -2.20050
  Beta  occ. eigenvalues --   -2.19978  -2.19919  -2.19825  -2.19817  -1.14493
  Beta  occ. eigenvalues --   -1.14475  -1.14429  -1.14339  -1.14316  -1.14269
  Beta  occ. eigenvalues --   -1.13735  -1.13723  -1.13675  -1.13664  -1.13650
  Beta  occ. eigenvalues --   -1.13616  -1.13612  -1.13587  -1.13566  -1.13556
  Beta  occ. eigenvalues --   -1.13511  -1.13497  -1.13489  -1.13474  -1.13407
  Beta  occ. eigenvalues --   -0.15925  -0.12887  -0.12222
  Beta virt. eigenvalues --   -0.07642  -0.06633  -0.05659  -0.03736  -0.03460
  Beta virt. eigenvalues --   -0.02670  -0.01768  -0.01613  -0.01454  -0.01331
  Beta virt. eigenvalues --   -0.00777  -0.00104   0.00433   0.00520   0.00547

 Mulliken charges and spin densities:
               1          2
     1  Na  -0.044173   0.239663
     2  Na   0.448803   0.222540
     3  Na  -0.187492  -0.022065
     4  Na  -0.031643   0.027344
     5  Na   0.144032   0.037963
     6  Na   0.112525   0.452503
     7  Na  -0.442053   0.042052
 Sum of Mulliken charges =  -0.00000   1.00000

 Dipole moment (field-independent basis, Debye):
    X=              0.1036    Y=              0.2343    Z=              0.1863  Tot=              0.3168
 Quadrupole moment (field-independent basis, Debye-Ang):
   XX=            -64.2909   YY=            -65.4186   ZZ=            -70.3689
   XY=              2.5852   XZ=             -1.0101   YZ=              0.2231

 Normal termination of Gaussian 16 at Sun Dec  3 14:53:40 2023.
