 Gaussian 16, Revision B.01,
 Gaussian 16:  ES64L-G16RevB.01 20-Dec-2017

 -------------------------
 #P B3LYP/6-311+g(d) force
 -------------------------

 -----
 DPGEN
 -----
 Symbolic Z-matrix:
 Charge =  0 Multiplicity = 2

                         Standard orientation:
 ---------------------------------------------------------------------
 Center     Atomic      Atomic             Coordinates (Angstroms)
 Number     Number       Type             X           Y           Z
 ---------------------------------------------------------------------
      1         11           0       -0.437759    2.169950   -1.488056
      2         11           0       -3.272679    0.024637    1.453341
      3         11           0       -3.198483   -1.154168   -1.441127
      4         11           0        0.282933    0.533459    2.085406
      5         11           0        0.355989   -1.455223   -0.291048
      6         11           0        3.676054   -1.835438   -0.152216
      7         11           0        2.593945    1.716783   -0.166302
 ---------------------------------------------------------------------

 SCF Done:  E(UB3LYP) =  -1136.11886798     A.U. after   24 cycles

 The electronic state is 2-A.
 Alpha  occ. eigenvalues --  -38.45053 -38.44490 -38.44310 -38.44195 -38.44179
 Alpha  occ. eigenvalues --  -38.43472 -38.43365  -2.20868  -2.20372  -2.20137
 Alpha  occ. eigenvalues --   -2.20064  -2.20022  -2.19285  -2.19158  -1.14547
 Alpha  occ. eigenvalues --   -1.14526  -1.14512  -1.14122  -1.13989  -1.13968
 Alpha  occ. eigenvalues --   -1.13803  -1.13790  -1.13776  -1.13771  -1.13727
 Alpha  occ. eigenvalues --   -1.13717  -1.13684  -1.13647  -1.13632  -1.12968
 Alpha  occ. eigenvalues --   -1.12929  -1.12903  -1.12828  -1.12826  -1.12796
 Alpha  occ. eigenvalues --   -0.17998  -0.13884  -0.11404  -0.11129
 Alpha virt. eigenvalues --   -0.06874  -0.05605  -0.04459  -0.03389  -0.02809
 Alpha virt. eigenvalues --   -0.02515  -0.02340  -0.01325  -0.00788  -0.00258
 Alpha virt. eigenvalues --   -0.00029   0.00099   0.00268   0.00472   0.00676

  Beta  occ. eigenvalues --  -38.45031 -38.44408 -38.44276 -38.44180 -38.44176
  Beta  occ. eigenvalues --  -38.43433 -38.43374  -2.20831  -2.20222  -2.20073
  Beta  occ. eigenvalues --   -2.20040  -2.20018  -2.19213  -2.19174  -1.14511
  Beta  occ. eigenvalues --   -1.14503  -1.14473  -1.14027  -1.13877  -1.13866
  Beta  occ. eigenvalues --   -1.13760  -1.13739  -1.13734  -1.13723  -1.13710
  Beta  occ. eigenvalues --   -1.13700  -1.13683  -1.13636  -1.13628  -1.12914
  Beta  occ. eigenvalues --   -1.12880  -1.12852  -1.12840  -1.12836  -1.12807
  Beta  occ. eigenvalues --   -0.17312  -0.13716  -0.10977
  Beta virt. eigenvalues --   -0.07516  -0.06723  -0.05238  -0.03934  -0.03047
  Beta virt. eigenvalues --   -0.02569  -0.02012  -0.01854  -0.01211  -0.00451
  Beta virt. eigenvalues --   -0.00113   0.00022   0.00208   0.00399   0.00566

 Mulliken charges and spin densities:
               1          2
     1  Na  -0.321057   0.164549
     2  Na   0.172893  -0.056683
     3  Na   0.959028   0.306038
     4  Na   0.142188   0.434301
     5  Na  -1.610546   0.243161
     6  Na   0.275091  -0.143520
     7  Na   0.382403   0.052154
 Sum of Mulliken charges =  -0.00000   1.00000

 Dipole moment (field-independent basis, Debye):
    X=             -0.6111    Y=              0.6119    Z=              0.2414  Tot=              0.8979
 Quadrupole moment (field-independent basis, Debye-Ang):
   XX=            -51.8068   YY=            -76.7649   ZZ=            -68.2507
   XY=              2.5184   XZ=              0.4453   YZ=              1.5492

 Normal termination of Gaussian 16 at Tue Dec  5 16:07:30 2023.
