 Gaussian 16, Revision B.01,
 Gaussian 16:  ES64L-G16RevB.01 20-Dec-2017

 -------------------------
 #P B3LYP/6-311+g(d) force
 -------------------------

 -----
 DPGEN
 -----
 Symbolic Z-matrix:
 Charge =  0 Multiplicity = 2

                         Standard orientation:
 ---------------------------------------------------------------------
 Center     Atomic      Atomic             Coordinates (Angstroms)
 Number     Number       Type             X           Y           Z
 ---------------------------------------------------------------------
      1         11           0       -2.375099   -1.111682    1.637719
      2         11           0       -5.037278   -1.797010   -0.708008
      3         11           0       -3.632228    1.133230   -0.572208
      4         11           0       -0.495636    2.983926   -0.015594
      5         11           0        1.034811    0.099792    0.629696
      6         11           0        3.965650   -0.914929   -1.530485
      7         11           0        6.539781   -0.393328    0.558879
 ---------------------------------------------------------------------

 SCF Done:  E(UB3LYP) =  -1136.11398904     A.U. after   20 cycles

 The electronic state is 2-A.
 Alpha  occ. eigenvalues --  -38.44906 -38.44608 -38.44593 -38.44097 -38.43993
 Alpha  occ. eigenvalues --  -38.43575 -38.43466  -2.20658  -2.20412  -2.20374
 Alpha  occ. eigenvalues --   -2.19901  -2.19848  -2.19383  -2.19274  -1.14324
 Alpha  occ. eigenvalues --   -1.14322  -1.14294  -1.14098  -1.14081  -1.14047
 Alpha  occ. eigenvalues --   -1.14037  -1.14003  -1.14001  -1.13597  -1.13565
 Alpha  occ. eigenvalues --   -1.13543  -1.13536  -1.13511  -1.13419  -1.13069
 Alpha  occ. eigenvalues --   -1.13059  -1.13014  -1.12936  -1.12921  -1.12895
 Alpha  occ. eigenvalues --   -0.16280  -0.13848  -0.11972  -0.10543
 Alpha virt. eigenvalues --   -0.06934  -0.05418  -0.04572  -0.03528  -0.02945
 Alpha virt. eigenvalues --   -0.02455  -0.02067  -0.01532  -0.01194  -0.00906
 Alpha virt. eigenvalues --   -0.00578   0.00025   0.00302   0.00447   0.00512

  Beta  occ. eigenvalues --  -38.44895 -38.44611 -38.44532 -38.44096 -38.43944
  Beta  occ. eigenvalues --  -38.43551 -38.43429  -2.20637  -2.20382  -2.20300
  Beta  occ. eigenvalues --   -2.19899  -2.19759  -2.19339  -2.19206  -1.14309
  Beta  occ. eigenvalues --   -1.14306  -1.14281  -1.14052  -1.14041  -1.14017
  Beta  occ. eigenvalues --   -1.14008  -1.14005  -1.13913  -1.13583  -1.13563
  Beta  occ. eigenvalues --   -1.13533  -1.13478  -1.13455  -1.13350  -1.13041
  Beta  occ. eigenvalues --   -1.13021  -1.12981  -1.12891  -1.12866  -1.12850
  Beta  occ. eigenvalues --   -0.15615  -0.13761  -0.11739
  Beta virt. eigenvalues --   -0.07045  -0.06432  -0.05292  -0.04050  -0.03314
  Beta virt. eigenvalues --   -0.02683  -0.02156  -0.01537  -0.01516  -0.00985
  Beta virt. eigenvalues --   -0.00728  -0.00250   0.00215   0.00409   0.00549

 Mulliken charges and spin densities:
               1          2
     1  Na   0.157387   0.301764
     2  Na   0.560327  -0.020415
     3  Na  -0.468093   0.294104
     4  Na   0.478992   0.180819
     5  Na  -0.981911   0.225600
     6  Na   0.082744  -0.034358
     7  Na   0.170554   0.052487
 Sum of Mulliken charges =  -0.00000   1.00000

 Dipole moment (field-independent basis, Debye):
    X=              0.5200    Y=             -0.7378    Z=             -0.0623  Tot=              0.9048
 Quadrupole moment (field-independent basis, Debye-Ang):
   XX=            -55.3795   YY=            -69.7643   ZZ=            -66.1876
   XY=              6.9439   XZ=              5.5729   YZ=              3.2744

 Normal termination of Gaussian 16 at Wed Nov 29 00:00:31 2023.
