 Gaussian 16, Revision B.01,
 Gaussian 16:  ES64L-G16RevB.01 20-Dec-2017

 -------------------------
 #P B3LYP/6-311+g(d) force
 -------------------------

 -----
 DPGEN
 -----
 Symbolic Z-matrix:
 Charge =  0 Multiplicity = 2

                         Standard orientation:
 ---------------------------------------------------------------------
 Center     Atomic      Atomic             Coordinates (Angstroms)
 Number     Number       Type             X           Y           Z
 ---------------------------------------------------------------------
      1         11           0       -1.544838    2.171377   -0.196089
      2         11           0        3.058929   -1.625529   -0.031155
      3         11           0        3.141113    1.461655    0.068828
      4         11           0        0.489255    0.070991   -0.122576
      5         11           0       -1.716137   -0.177702   -2.018803
      6         11           0       -1.775084   -2.079867    0.215738
      7         11           0       -1.653238    0.179073    2.084056
 ---------------------------------------------------------------------

 SCF Done:  E(UB3LYP) =  -1136.09844087     A.U. after   26 cycles

 The electronic state is 2-A.
 Alpha  occ. eigenvalues --  -38.44728 -38.44583 -38.44474 -38.44463 -38.42991
 Alpha  occ. eigenvalues --  -38.42867 -38.42759  -2.20592  -2.20511  -2.20471
 Alpha  occ. eigenvalues --   -2.20437  -2.19266  -2.18857  -2.18759  -1.14336
 Alpha  occ. eigenvalues --   -1.14250  -1.14243  -1.14234  -1.14170  -1.14136
 Alpha  occ. eigenvalues --   -1.14122  -1.14119  -1.14101  -1.14085  -1.14081
 Alpha  occ. eigenvalues --   -1.14030  -1.12999  -1.12972  -1.12903  -1.12539
 Alpha  occ. eigenvalues --   -1.12529  -1.12455  -1.12434  -1.12416  -1.12357
 Alpha  occ. eigenvalues --   -0.19529  -0.14326  -0.11802  -0.11344
 Alpha virt. eigenvalues --   -0.05869  -0.05513  -0.03393  -0.03295  -0.03013
 Alpha virt. eigenvalues --   -0.02720  -0.01764  -0.00944  -0.00466   0.00098
 Alpha virt. eigenvalues --    0.00316   0.00345   0.00671   0.00825   0.00898

  Beta  occ. eigenvalues --  -38.44733 -38.44588 -38.44376 -38.44360 -38.42971
  Beta  occ. eigenvalues --  -38.42850 -38.42742  -2.20601  -2.20447  -2.20333
  Beta  occ. eigenvalues --   -2.20284  -2.19239  -2.18832  -2.18735  -1.14339
  Beta  occ. eigenvalues --   -1.14258  -1.14237  -1.14137  -1.14123  -1.14084
  Beta  occ. eigenvalues --   -1.14049  -1.14038  -1.14009  -1.13991  -1.13967
  Beta  occ. eigenvalues --   -1.13951  -1.12985  -1.12900  -1.12882  -1.12524
  Beta  occ. eigenvalues --   -1.12463  -1.12444  -1.12423  -1.12349  -1.12345
  Beta  occ. eigenvalues --   -0.18731  -0.14194  -0.11036
  Beta virt. eigenvalues --   -0.07571  -0.05601  -0.05513  -0.03195  -0.02927
  Beta virt. eigenvalues --   -0.02155  -0.01834  -0.01601  -0.00946  -0.00073
  Beta virt. eigenvalues --    0.00108   0.00329   0.00398   0.00808   0.00930

 Mulliken charges and spin densities:
               1          2
     1  Na  -0.013523  -0.049625
     2  Na   0.712790  -0.130594
     3  Na  -0.207518  -0.274352
     4  Na  -2.211306   1.049825
     5  Na   0.820324   0.124268
     6  Na   1.020923   0.129040
     7  Na  -0.121691   0.151440
 Sum of Mulliken charges =  -0.00000   1.00000

 Dipole moment (field-independent basis, Debye):
    X=              1.2254    Y=              0.0158    Z=              0.1118  Tot=              1.2306
 Quadrupole moment (field-independent basis, Debye-Ang):
   XX=            -54.6484   YY=            -70.2635   ZZ=            -67.8290
   XY=             -0.2333   XZ=              0.5040   YZ=              0.2818

 Normal termination of Gaussian 16 at Tue Dec  5 22:15:18 2023.
