 Gaussian 16, Revision B.01,
 Gaussian 16:  ES64L-G16RevB.01 20-Dec-2017

 -------------------------
 #P B3LYP/6-311+g(d) force
 -------------------------

 -----
 DPGEN
 -----
 Symbolic Z-matrix:
 Charge =  0 Multiplicity = 2

                         Standard orientation:
 ---------------------------------------------------------------------
 Center     Atomic      Atomic             Coordinates (Angstroms)
 Number     Number       Type             X           Y           Z
 ---------------------------------------------------------------------
      1         11           0        0.081437    0.223493    1.003708
      2         11           0       -2.486170    1.158786   -0.980746
      3         11           0        0.614659    2.863419   -0.556785
      4         11           0       -3.017226   -0.630467    1.359513
      5         11           0        2.426369   -1.369849   -1.287548
      6         11           0        3.539558   -0.016464    1.188404
      7         11           0       -1.158627   -2.228917   -0.726546
 ---------------------------------------------------------------------

 SCF Done:  E(UB3LYP) =  -1136.11949661     A.U. after   23 cycles

 The electronic state is 2-A.
 Alpha  occ. eigenvalues --  -38.44463 -38.44463 -38.44139 -38.44040 -38.43574
 Alpha  occ. eigenvalues --  -38.43453 -38.42948  -2.20365  -2.20311  -2.19988
 Alpha  occ. eigenvalues --   -2.19985  -2.19595  -2.19343  -2.18773  -1.14109
 Alpha  occ. eigenvalues --   -1.14033  -1.14027  -1.13972  -1.13962  -1.13928
 Alpha  occ. eigenvalues --   -1.13655  -1.13637  -1.13632  -1.13626  -1.13622
 Alpha  occ. eigenvalues --   -1.13598  -1.13313  -1.13283  -1.13218  -1.13031
 Alpha  occ. eigenvalues --   -1.13000  -1.12949  -1.12466  -1.12430  -1.12391
 Alpha  occ. eigenvalues --   -0.18534  -0.14331  -0.11735  -0.10406
 Alpha virt. eigenvalues --   -0.06703  -0.05141  -0.04722  -0.03546  -0.02616
 Alpha virt. eigenvalues --   -0.02365  -0.01786  -0.00869  -0.00760  -0.00296
 Alpha virt. eigenvalues --    0.00180   0.00211   0.00340   0.00614   0.00821

  Beta  occ. eigenvalues --  -38.44447 -38.44427 -38.44121 -38.43994 -38.43554
  Beta  occ. eigenvalues --  -38.43420 -38.42945  -2.20338  -2.20244  -2.19954
  Beta  occ. eigenvalues --   -2.19902  -2.19563  -2.19286  -2.18769  -1.14075
  Beta  occ. eigenvalues --   -1.14001  -1.13987  -1.13960  -1.13912  -1.13882
  Beta  occ. eigenvalues --   -1.13614  -1.13612  -1.13594  -1.13579  -1.13570
  Beta  occ. eigenvalues --   -1.13541  -1.13274  -1.13244  -1.13197  -1.12997
  Beta  occ. eigenvalues --   -1.12953  -1.12890  -1.12466  -1.12421  -1.12381
  Beta  occ. eigenvalues --   -0.17949  -0.14059  -0.11396
  Beta virt. eigenvalues --   -0.06891  -0.06543  -0.04747  -0.04265  -0.03339
  Beta virt. eigenvalues --   -0.02329  -0.01966  -0.01192  -0.00687  -0.00378
  Beta virt. eigenvalues --   -0.00205   0.00257   0.00298   0.00470   0.00728

 Mulliken charges and spin densities:
               1          2
     1  Na  -1.119750   0.537599
     2  Na   0.109735   0.229049
     3  Na  -0.219987  -0.142489
     4  Na   1.585996   0.129765
     5  Na  -0.074052   0.131261
     6  Na   0.285046   0.095169
     7  Na  -0.566988   0.019648
 Sum of Mulliken charges =  -0.00000   1.00000

 Dipole moment (field-independent basis, Debye):
    X=             -0.0009    Y=             -0.0381    Z=             -0.3367  Tot=              0.3388
 Quadrupole moment (field-independent basis, Debye-Ang):
   XX=            -51.6162   YY=            -73.7470   ZZ=            -69.2103
   XY=              1.0064   XZ=              0.7300   YZ=             -0.1580

 Normal termination of Gaussian 16 at Thu Dec  7 13:18:24 2023.
