 Gaussian 16, Revision B.01,
 Gaussian 16:  ES64L-G16RevB.01 20-Dec-2017

 -------------------------
 #P B3LYP/6-311+g(d) force
 -------------------------

 -----
 DPGEN
 -----
 Symbolic Z-matrix:
 Charge =  0 Multiplicity = 2

                         Standard orientation:
 ---------------------------------------------------------------------
 Center     Atomic      Atomic             Coordinates (Angstroms)
 Number     Number       Type             X           Y           Z
 ---------------------------------------------------------------------
      1         11           0        0.007307   -2.836187    0.197883
      2         11           0       -0.184296    0.050050    2.159864
      3         11           0       -2.854640   -1.063309   -0.395848
      4         11           0        3.108442   -0.621285   -0.325020
      5         11           0        1.489590    2.226435    0.097775
      6         11           0       -1.801184    2.415357   -0.264509
      7         11           0        0.234781   -0.171062   -1.470146
 ---------------------------------------------------------------------

 SCF Done:  E(UB3LYP) =  -1136.13731941     A.U. after   19 cycles

 The electronic state is 2-A.
 Alpha  occ. eigenvalues --  -38.43815 -38.43739 -38.43720 -38.43432 -38.43384
 Alpha  occ. eigenvalues --  -38.43258 -38.43007  -2.19658  -2.19613  -2.19599
 Alpha  occ. eigenvalues --   -2.19308  -2.19234  -2.19189  -2.19070  -1.13344
 Alpha  occ. eigenvalues --   -1.13317  -1.13312  -1.13296  -1.13279  -1.13254
 Alpha  occ. eigenvalues --   -1.13239  -1.13232  -1.13227  -1.13030  -1.12972
 Alpha  occ. eigenvalues --   -1.12956  -1.12921  -1.12901  -1.12893  -1.12883
 Alpha  occ. eigenvalues --   -1.12848  -1.12784  -1.12734  -1.12685  -1.12680
 Alpha  occ. eigenvalues --   -0.18973  -0.12995  -0.12624  -0.10944
 Alpha virt. eigenvalues --   -0.05401  -0.04972  -0.04726  -0.03139  -0.02957
 Alpha virt. eigenvalues --   -0.02649  -0.01457  -0.01064  -0.00250  -0.00108
 Alpha virt. eigenvalues --    0.00001   0.00346   0.00827   0.00913   0.00933

  Beta  occ. eigenvalues --  -38.43807 -38.43733 -38.43614 -38.43425 -38.43380
  Beta  occ. eigenvalues --  -38.43250 -38.42955  -2.19645  -2.19592  -2.19418
  Beta  occ. eigenvalues --   -2.19299  -2.19229  -2.19178  -2.18976  -1.13328
  Beta  occ. eigenvalues --   -1.13300  -1.13298  -1.13286  -1.13246  -1.13220
  Beta  occ. eigenvalues --   -1.13152  -1.13102  -1.13094  -1.13018  -1.12949
  Beta  occ. eigenvalues --   -1.12935  -1.12919  -1.12890  -1.12882  -1.12870
  Beta  occ. eigenvalues --   -1.12812  -1.12780  -1.12669  -1.12626  -1.12610
  Beta  occ. eigenvalues --   -0.18244  -0.12735  -0.12389
  Beta virt. eigenvalues --   -0.06974  -0.05360  -0.04958  -0.04685  -0.02340
  Beta virt. eigenvalues --   -0.02192  -0.01563  -0.01363  -0.01009  -0.00268
  Beta virt. eigenvalues --   -0.00137   0.00134   0.00379   0.00877   0.00924

 Mulliken charges and spin densities:
               1          2
     1  Na   0.258520   0.046808
     2  Na  -0.574395   0.652231
     3  Na   0.143176  -0.016590
     4  Na   0.359116   0.019547
     5  Na   0.406664   0.091712
     6  Na   0.069877  -0.017068
     7  Na  -0.662958   0.223360
 Sum of Mulliken charges =  -0.00000   1.00000

 Dipole moment (field-independent basis, Debye):
    X=             -0.0960    Y=             -0.1742    Z=              0.2384  Tot=              0.3105
 Quadrupole moment (field-independent basis, Debye-Ang):
   XX=            -57.2711   YY=            -62.7337   ZZ=            -73.4886
   XY=             -0.7567   XZ=              0.8740   YZ=             -0.3972

 Normal termination of Gaussian 16 at Thu Dec  7 13:41:35 2023.
