 Gaussian 16, Revision B.01,
 Gaussian 16:  ES64L-G16RevB.01 20-Dec-2017

 -------------------------
 #P B3LYP/6-311+g(d) force
 -------------------------

 -----
 DPGEN
 -----
 Symbolic Z-matrix:
 Charge =  0 Multiplicity = 2

                         Standard orientation:
 ---------------------------------------------------------------------
 Center     Atomic      Atomic             Coordinates (Angstroms)
 Number     Number       Type             X           Y           Z
 ---------------------------------------------------------------------
      1         11           0       -0.422867   -0.687435    2.072356
      2         11           0        2.321932    0.225547    1.572102
      3         11           0        1.972369   -1.936129   -0.561349
      4         11           0        2.168481    1.870281   -1.184122
      5         11           0       -1.145494    2.137913   -0.540742
      6         11           0       -1.139065   -1.776993   -1.841982
      7         11           0       -3.755356    0.166816    0.483736
 ---------------------------------------------------------------------

 SCF Done:  E(UB3LYP) =  -1136.12250330     A.U. after   23 cycles

 The electronic state is 2-A.
 Alpha  occ. eigenvalues --  -38.44724 -38.44596 -38.44529 -38.44208 -38.43744
 Alpha  occ. eigenvalues --  -38.43324 -38.43056  -2.20508  -2.20413  -2.20396
 Alpha  occ. eigenvalues --   -2.20172  -2.19616  -2.19139  -2.18904  -1.14211
 Alpha  occ. eigenvalues --   -1.14177  -1.14168  -1.14143  -1.14069  -1.14041
 Alpha  occ. eigenvalues --   -1.14031  -1.14019  -1.14008  -1.13852  -1.13811
 Alpha  occ. eigenvalues --   -1.13761  -1.13288  -1.13276  -1.13244  -1.12835
 Alpha  occ. eigenvalues --   -1.12824  -1.12762  -1.12572  -1.12559  -1.12535
 Alpha  occ. eigenvalues --   -0.18214  -0.13534  -0.12013  -0.11533
 Alpha virt. eigenvalues --   -0.06248  -0.04973  -0.04726  -0.03669  -0.03178
 Alpha virt. eigenvalues --   -0.02717  -0.01916  -0.00685  -0.00585  -0.00248
 Alpha virt. eigenvalues --    0.00188   0.00236   0.00342   0.00674   0.00828

  Beta  occ. eigenvalues --  -38.44722 -38.44529 -38.44453 -38.44169 -38.43730
  Beta  occ. eigenvalues --  -38.43322 -38.43041  -2.20504  -2.20276  -2.20272
  Beta  occ. eigenvalues --   -2.20103  -2.19595  -2.19137  -2.18876  -1.14170
  Beta  occ. eigenvalues --   -1.14164  -1.14143  -1.14108  -1.13982  -1.13960
  Beta  occ. eigenvalues --   -1.13933  -1.13927  -1.13917  -1.13811  -1.13750
  Beta  occ. eigenvalues --   -1.13699  -1.13269  -1.13245  -1.13227  -1.12829
  Beta  occ. eigenvalues --   -1.12815  -1.12762  -1.12552  -1.12536  -1.12518
  Beta  occ. eigenvalues --   -0.17494  -0.13410  -0.11224
  Beta virt. eigenvalues --   -0.08037  -0.06031  -0.04872  -0.04118  -0.03296
  Beta virt. eigenvalues --   -0.02601  -0.02030  -0.01807  -0.00644  -0.00255
  Beta virt. eigenvalues --   -0.00093   0.00257   0.00318   0.00464   0.00756

 Mulliken charges and spin densities:
               1          2
     1  Na  -0.530860   0.414010
     2  Na   0.892173  -0.000779
     3  Na  -0.301027   0.151215
     4  Na  -0.129750   0.157070
     5  Na  -0.613632   0.055236
     6  Na  -0.038412   0.254066
     7  Na   0.721509  -0.030818
 Sum of Mulliken charges =  -0.00000   1.00000

 Dipole moment (field-independent basis, Debye):
    X=             -0.9413    Y=             -0.4975    Z=              0.0714  Tot=              1.0671
 Quadrupole moment (field-independent basis, Debye-Ang):
   XX=            -53.5718   YY=            -77.2210   ZZ=            -66.6935
   XY=             -0.1033   XZ=             -0.6848   YZ=              1.9845

 Normal termination of Gaussian 16 at Sun Dec  3 23:04:25 2023.
