 Gaussian 16, Revision B.01,
 Gaussian 16:  ES64L-G16RevB.01 20-Dec-2017

 -------------------------
 #P B3LYP/6-311+g(d) force
 -------------------------

 -----
 DPGEN
 -----
 Symbolic Z-matrix:
 Charge =  0 Multiplicity = 2

                         Standard orientation:
 ---------------------------------------------------------------------
 Center     Atomic      Atomic             Coordinates (Angstroms)
 Number     Number       Type             X           Y           Z
 ---------------------------------------------------------------------
      1         11           0       -2.995571    2.397812   -0.732735
      2         11           0       -2.601107   -0.770660   -1.618457
      3         11           0        4.436562   -0.429762   -0.756785
      4         11           0        2.601268    1.907214    0.454406
      5         11           0        0.901781   -1.830934   -0.596332
      6         11           0       -0.503162    1.071054    1.711491
      7         11           0       -1.839771   -2.344724    1.538412
 ---------------------------------------------------------------------

 SCF Done:  E(UB3LYP) =  -1136.12144261     A.U. after   21 cycles

 The electronic state is 2-A.
 Alpha  occ. eigenvalues --  -38.44496 -38.44469 -38.44359 -38.44330 -38.44174
 Alpha  occ. eigenvalues --  -38.43795 -38.43407  -2.20303  -2.20301  -2.20168
 Alpha  occ. eigenvalues --   -2.20116  -2.19989  -2.19634  -2.19198  -1.13993
 Alpha  occ. eigenvalues --   -1.13987  -1.13956  -1.13952  -1.13938  -1.13907
 Alpha  occ. eigenvalues --   -1.13845  -1.13836  -1.13827  -1.13813  -1.13781
 Alpha  occ. eigenvalues --   -1.13709  -1.13655  -1.13648  -1.13602  -1.13314
 Alpha  occ. eigenvalues --   -1.13267  -1.13253  -1.12869  -1.12864  -1.12835
 Alpha  occ. eigenvalues --   -0.17193  -0.13931  -0.11647  -0.11196
 Alpha virt. eigenvalues --   -0.06457  -0.05969  -0.04026  -0.03518  -0.03226
 Alpha virt. eigenvalues --   -0.02427  -0.02236  -0.01456  -0.00725  -0.00652
 Alpha virt. eigenvalues --   -0.00110   0.00131   0.00246   0.00368   0.00684

  Beta  occ. eigenvalues --  -38.44467 -38.44411 -38.44346 -38.44325 -38.44151
  Beta  occ. eigenvalues --  -38.43723 -38.43399  -2.20248  -2.20198  -2.20149
  Beta  occ. eigenvalues --   -2.20110  -2.19948  -2.19502  -2.19185  -1.13955
  Beta  occ. eigenvalues --   -1.13921  -1.13919  -1.13900  -1.13887  -1.13830
  Beta  occ. eigenvalues --   -1.13827  -1.13821  -1.13816  -1.13796  -1.13752
  Beta  occ. eigenvalues --   -1.13703  -1.13624  -1.13611  -1.13579  -1.13227
  Beta  occ. eigenvalues --   -1.13170  -1.13162  -1.12859  -1.12851  -1.12820
  Beta  occ. eigenvalues --   -0.16572  -0.13525  -0.11381
  Beta virt. eigenvalues --   -0.07672  -0.06117  -0.05615  -0.03827  -0.03080
  Beta virt. eigenvalues --   -0.02747  -0.02175  -0.01809  -0.01227  -0.00504
  Beta virt. eigenvalues --   -0.00409  -0.00078   0.00215   0.00449   0.00500

 Mulliken charges and spin densities:
               1          2
     1  Na  -0.051540  -0.041426
     2  Na   0.228238   0.323169
     3  Na   0.165159   0.118781
     4  Na   0.027196   0.044239
     5  Na  -0.743372   0.122268
     6  Na  -0.193456   0.438962
     7  Na   0.567776  -0.005993
 Sum of Mulliken charges =  -0.00000   1.00000

 Dipole moment (field-independent basis, Debye):
    X=              0.5995    Y=             -0.6880    Z=              0.0523  Tot=              0.9141
 Quadrupole moment (field-independent basis, Debye-Ang):
   XX=            -57.9981   YY=            -69.8671   ZZ=            -68.9598
   XY=              3.1482   XZ=             -3.8214   YZ=             -0.4899

 Normal termination of Gaussian 16 at Sun Dec  3 16:01:55 2023.
