 Gaussian 16, Revision B.01,
 Gaussian 16:  ES64L-G16RevB.01 20-Dec-2017

 -------------------------
 #P B3LYP/6-311+g(d) force
 -------------------------

 -----
 DPGEN
 -----
 Symbolic Z-matrix:
 Charge =  0 Multiplicity = 2

                         Standard orientation:
 ---------------------------------------------------------------------
 Center     Atomic      Atomic             Coordinates (Angstroms)
 Number     Number       Type             X           Y           Z
 ---------------------------------------------------------------------
      1         11           0       -1.797979    2.218437    0.213977
      2         11           0        3.128362   -1.825697   -0.248140
      3         11           0        2.336427    2.340692   -0.119432
      4         11           0        0.681993    0.097508   -0.580993
      5         11           0       -2.098797   -0.372031   -2.126276
      6         11           0       -1.417693   -2.284647    0.418889
      7         11           0       -0.832314   -0.174263    2.441975
 ---------------------------------------------------------------------

 SCF Done:  E(UB3LYP) =  -1136.11555104     A.U. after   22 cycles

 The electronic state is 2-A.
 Alpha  occ. eigenvalues --  -38.44764 -38.44494 -38.44338 -38.44209 -38.43370
 Alpha  occ. eigenvalues --  -38.43344 -38.42329  -2.20683  -2.20386  -2.20155
 Alpha  occ. eigenvalues --   -2.19982  -2.19255  -2.19219  -2.18475  -1.14367
 Alpha  occ. eigenvalues --   -1.14305  -1.14281  -1.14065  -1.14010  -1.13990
 Alpha  occ. eigenvalues --   -1.13936  -1.13804  -1.13734  -1.13675  -1.13642
 Alpha  occ. eigenvalues --   -1.13606  -1.12970  -1.12919  -1.12905  -1.12893
 Alpha  occ. eigenvalues --   -1.12858  -1.12839  -1.12187  -1.12154  -1.12079
 Alpha  occ. eigenvalues --   -0.18646  -0.12814  -0.12014  -0.11676
 Alpha virt. eigenvalues --   -0.05869  -0.04963  -0.04006  -0.03243  -0.03235
 Alpha virt. eigenvalues --   -0.02921  -0.01535  -0.01103  -0.00505   0.00114
 Alpha virt. eigenvalues --    0.00266   0.00348   0.00678   0.00721   0.00810

  Beta  occ. eigenvalues --  -38.44655 -38.44406 -38.44345 -38.44215 -38.43360
  Beta  occ. eigenvalues --  -38.43329 -38.42311  -2.20483  -2.20225  -2.20168
  Beta  occ. eigenvalues --   -2.19995  -2.19235  -2.19204  -2.18446  -1.14235
  Beta  occ. eigenvalues --   -1.14165  -1.14139  -1.13954  -1.13941  -1.13905
  Beta  occ. eigenvalues --   -1.13876  -1.13809  -1.13745  -1.13682  -1.13650
  Beta  occ. eigenvalues --   -1.13615  -1.12942  -1.12897  -1.12873  -1.12854
  Beta  occ. eigenvalues --   -1.12851  -1.12833  -1.12153  -1.12115  -1.12067
  Beta  occ. eigenvalues --   -0.17841  -0.12596  -0.11490
  Beta virt. eigenvalues --   -0.07908  -0.05838  -0.04726  -0.03479  -0.02805
  Beta virt. eigenvalues --   -0.02471  -0.02183  -0.01508  -0.01083  -0.00200
  Beta virt. eigenvalues --    0.00151   0.00270   0.00399   0.00748   0.00812

 Mulliken charges and spin densities:
               1          2
     1  Na   0.367046   0.017839
     2  Na  -0.086540  -0.079093
     3  Na  -0.202580  -0.072160
     4  Na  -0.500205   0.458585
     5  Na   0.396053   0.238168
     6  Na   0.223016  -0.044422
     7  Na  -0.196790   0.481083
 Sum of Mulliken charges =  -0.00000   1.00000

 Dipole moment (field-independent basis, Debye):
    X=              0.0136    Y=              0.0960    Z=              0.2143  Tot=              0.2353
 Quadrupole moment (field-independent basis, Debye-Ang):
   XX=            -60.3459   YY=            -66.1092   ZZ=            -65.7901
   XY=             -0.2687   XZ=              2.4104   YZ=              1.0330

 Normal termination of Gaussian 16 at Thu Dec  7 14:37:21 2023.
