 Gaussian 16, Revision B.01,
 Gaussian 16:  ES64L-G16RevB.01 20-Dec-2017

 -------------------------
 #P B3LYP/6-311+g(d) force
 -------------------------

 -----
 DPGEN
 -----
 Symbolic Z-matrix:
 Charge =  0 Multiplicity = 2

                         Standard orientation:
 ---------------------------------------------------------------------
 Center     Atomic      Atomic             Coordinates (Angstroms)
 Number     Number       Type             X           Y           Z
 ---------------------------------------------------------------------
      1         11           0       -2.939425    0.335526   -1.666941
      2         11           0       -1.637408   -3.226267    0.919576
      3         11           0       -1.177886    3.583657   -0.170341
      4         11           0        2.122689    1.610495    1.086813
      5         11           0        0.829358   -1.728492   -1.095061
      6         11           0       -0.878093   -0.012234    1.842952
      7         11           0        3.680765   -0.562685   -0.916998
 ---------------------------------------------------------------------

 SCF Done:  E(UB3LYP) =  -1136.12231491     A.U. after   19 cycles

 The electronic state is 2-A.
 Alpha  occ. eigenvalues --  -38.44948 -38.44479 -38.44188 -38.44036 -38.43961
 Alpha  occ. eigenvalues --  -38.43943 -38.43479  -2.20707  -2.20200  -2.20026
 Alpha  occ. eigenvalues --   -2.19849  -2.19792  -2.19762  -2.19327  -1.14375
 Alpha  occ. eigenvalues --   -1.14339  -1.14317  -1.13892  -1.13856  -1.13848
 Alpha  occ. eigenvalues --   -1.13726  -1.13685  -1.13634  -1.13538  -1.13514
 Alpha  occ. eigenvalues --   -1.13472  -1.13471  -1.13462  -1.13458  -1.13423
 Alpha  occ. eigenvalues --   -1.13415  -1.13383  -1.12992  -1.12969  -1.12957
 Alpha  occ. eigenvalues --   -0.17095  -0.13035  -0.12367  -0.11041
 Alpha virt. eigenvalues --   -0.06074  -0.05470  -0.05058  -0.03453  -0.03193
 Alpha virt. eigenvalues --   -0.02358  -0.01758  -0.01389  -0.00669  -0.00479
 Alpha virt. eigenvalues --   -0.00303   0.00176   0.00301   0.00450   0.00673

  Beta  occ. eigenvalues --  -38.44865 -38.44496 -38.44132 -38.44012 -38.43947
  Beta  occ. eigenvalues --  -38.43920 -38.43465  -2.20552  -2.20234  -2.19924
  Beta  occ. eigenvalues --   -2.19806  -2.19750  -2.19737  -2.19302  -1.14267
  Beta  occ. eigenvalues --   -1.14236  -1.14209  -1.13917  -1.13875  -1.13863
  Beta  occ. eigenvalues --   -1.13658  -1.13607  -1.13559  -1.13499  -1.13486
  Beta  occ. eigenvalues --   -1.13447  -1.13441  -1.13434  -1.13426  -1.13394
  Beta  occ. eigenvalues --   -1.13392  -1.13364  -1.12966  -1.12952  -1.12944
  Beta  occ. eigenvalues --   -0.16497  -0.12660  -0.12134
  Beta virt. eigenvalues --   -0.07486  -0.05814  -0.05260  -0.04604  -0.03036
  Beta virt. eigenvalues --   -0.02725  -0.01888  -0.01575  -0.01241  -0.00516
  Beta virt. eigenvalues --   -0.00226  -0.00104   0.00310   0.00364   0.00601

 Mulliken charges and spin densities:
               1          2
     1  Na  -0.055398   0.426357
     2  Na   0.609865  -0.006161
     3  Na  -0.011887  -0.100264
     4  Na   0.094276   0.137307
     5  Na  -0.670616   0.350722
     6  Na  -0.221282   0.252606
     7  Na   0.255042  -0.060567
 Sum of Mulliken charges =  -0.00000   1.00000

 Dipole moment (field-independent basis, Debye):
    X=             -0.3119    Y=             -0.0668    Z=              0.0198  Tot=              0.3196
 Quadrupole moment (field-independent basis, Debye-Ang):
   XX=            -63.3456   YY=            -61.5159   ZZ=            -71.1076
   XY=              4.0503   XZ=              0.2893   YZ=             -0.2607

 Normal termination of Gaussian 16 at Sun Dec  3 23:06:24 2023.
