 Gaussian 16, Revision B.01,
 Gaussian 16:  ES64L-G16RevB.01 20-Dec-2017

 -------------------------
 #P B3LYP/6-311+g(d) force
 -------------------------

 -----
 DPGEN
 -----
 Symbolic Z-matrix:
 Charge =  0 Multiplicity = 2

                         Standard orientation:
 ---------------------------------------------------------------------
 Center     Atomic      Atomic             Coordinates (Angstroms)
 Number     Number       Type             X           Y           Z
 ---------------------------------------------------------------------
      1         11           0        0.766118   -2.438932   -0.208551
      2         11           0       -2.638015   -1.751909    0.070317
      3         11           0        0.054518    0.108996    1.835450
      4         11           0       -2.271310    1.864473    0.262663
      5         11           0        1.153430    2.545041   -0.315106
      6         11           0        3.274154   -0.434750    0.179306
      7         11           0       -0.338895    0.107082   -1.824080
 ---------------------------------------------------------------------

 SCF Done:  E(UB3LYP) =  -1136.13868368     A.U. after   19 cycles

 The electronic state is 2-A.
 Alpha  occ. eigenvalues --  -38.44039 -38.43713 -38.43675 -38.43419 -38.43302
 Alpha  occ. eigenvalues --  -38.43293 -38.43046  -2.19864  -2.19550  -2.19546
 Alpha  occ. eigenvalues --   -2.19373  -2.19274  -2.19176  -2.18967  -1.13541
 Alpha  occ. eigenvalues --   -1.13526  -1.13504  -1.13253  -1.13232  -1.13217
 Alpha  occ. eigenvalues --   -1.13207  -1.13200  -1.13160  -1.13061  -1.13014
 Alpha  occ. eigenvalues --   -1.12982  -1.12966  -1.12947  -1.12895  -1.12836
 Alpha  occ. eigenvalues --   -1.12822  -1.12788  -1.12652  -1.12633  -1.12576
 Alpha  occ. eigenvalues --   -0.18990  -0.13050  -0.12505  -0.10878
 Alpha virt. eigenvalues --   -0.05620  -0.05205  -0.04331  -0.03172  -0.02943
 Alpha virt. eigenvalues --   -0.02562  -0.01616  -0.01122  -0.00229  -0.00023
 Alpha virt. eigenvalues --    0.00005   0.00350   0.00790   0.00893   0.00939

  Beta  occ. eigenvalues --  -38.44039 -38.43710 -38.43665 -38.43341 -38.43292
  Beta  occ. eigenvalues --  -38.43210 -38.43036  -2.19866  -2.19547  -2.19536
  Beta  occ. eigenvalues --   -2.19230  -2.19161  -2.19122  -2.18953  -1.13545
  Beta  occ. eigenvalues --   -1.13512  -1.13506  -1.13243  -1.13210  -1.13208
  Beta  occ. eigenvalues --   -1.13190  -1.13188  -1.13155  -1.12970  -1.12921
  Beta  occ. eigenvalues --   -1.12893  -1.12876  -1.12852  -1.12805  -1.12798
  Beta  occ. eigenvalues --   -1.12781  -1.12749  -1.12639  -1.12592  -1.12568
  Beta  occ. eigenvalues --   -0.18241  -0.12819  -0.12232
  Beta virt. eigenvalues --   -0.06936  -0.05565  -0.05212  -0.04320  -0.02407
  Beta virt. eigenvalues --   -0.02124  -0.01538  -0.01488  -0.01066  -0.00261
  Beta virt. eigenvalues --   -0.00056   0.00115   0.00365   0.00842   0.00884

 Mulliken charges and spin densities:
               1          2
     1  Na   0.205524  -0.064002
     2  Na   0.085236  -0.100151
     3  Na  -0.436158   0.743548
     4  Na   0.219932  -0.070796
     5  Na   0.171797  -0.078918
     6  Na   0.006710  -0.065451
     7  Na  -0.253040   0.635771
 Sum of Mulliken charges =  -0.00000   1.00000

 Dipole moment (field-independent basis, Debye):
    X=             -0.0475    Y=              0.1196    Z=              0.0998  Tot=              0.1629
 Quadrupole moment (field-independent basis, Debye-Ang):
   XX=            -54.4091   YY=            -64.9819   ZZ=            -73.6919
   XY=              0.7013   XZ=             -0.6333   YZ=             -0.0787

 Normal termination of Gaussian 16 at Fri Dec  8 00:12:06 2023.
