 Gaussian 16, Revision B.01,
 Gaussian 16:  ES64L-G16RevB.01 20-Dec-2017

 -------------------------
 #P B3LYP/6-311+g(d) force
 -------------------------

 -----
 DPGEN
 -----
 Symbolic Z-matrix:
 Charge =  0 Multiplicity = 2

                         Standard orientation:
 ---------------------------------------------------------------------
 Center     Atomic      Atomic             Coordinates (Angstroms)
 Number     Number       Type             X           Y           Z
 ---------------------------------------------------------------------
      1         11           0        1.888807    2.239479    0.023234
      2         11           0       -1.514881    2.488180   -0.080774
      3         11           0       -0.264680   -2.942485    0.219801
      4         11           0       -0.099476   -0.254575   -1.562237
      5         11           0       -3.072988   -0.529937   -0.350576
      6         11           0        3.117411   -0.929343   -0.392837
      7         11           0       -0.054194   -0.071318    2.143389
 ---------------------------------------------------------------------

 SCF Done:  E(UB3LYP) =  -1136.13890201     A.U. after   19 cycles

 The electronic state is 2-A.
 Alpha  occ. eigenvalues --  -38.44017 -38.43958 -38.43717 -38.43512 -38.43413
 Alpha  occ. eigenvalues --  -38.43248 -38.43161  -2.19826  -2.19808  -2.19595
 Alpha  occ. eigenvalues --   -2.19356  -2.19265  -2.19155  -2.19114  -1.13507
 Alpha  occ. eigenvalues --   -1.13502  -1.13485  -1.13464  -1.13462  -1.13436
 Alpha  occ. eigenvalues --   -1.13259  -1.13220  -1.13219  -1.13062  -1.13024
 Alpha  occ. eigenvalues --   -1.12974  -1.12950  -1.12933  -1.12908  -1.12844
 Alpha  occ. eigenvalues --   -1.12811  -1.12780  -1.12775  -1.12755  -1.12746
 Alpha  occ. eigenvalues --   -0.18629  -0.12953  -0.12482  -0.10847
 Alpha virt. eigenvalues --   -0.05660  -0.04980  -0.04785  -0.03080  -0.02967
 Alpha virt. eigenvalues --   -0.02659  -0.01584  -0.01083  -0.00433  -0.00247
 Alpha virt. eigenvalues --   -0.00025   0.00343   0.00812   0.00863   0.00911

  Beta  occ. eigenvalues --  -38.44010 -38.43949 -38.43613 -38.43505 -38.43410
  Beta  occ. eigenvalues --  -38.43244 -38.43108  -2.19814  -2.19794  -2.19404
  Beta  occ. eigenvalues --   -2.19347  -2.19263  -2.19111  -2.19058  -1.13489
  Beta  occ. eigenvalues --   -1.13483  -1.13476  -1.13455  -1.13447  -1.13423
  Beta  occ. eigenvalues --   -1.13135  -1.13088  -1.13085  -1.13047  -1.12988
  Beta  occ. eigenvalues --   -1.12972  -1.12947  -1.12921  -1.12898  -1.12806
  Beta  occ. eigenvalues --   -1.12765  -1.12760  -1.12737  -1.12714  -1.12696
  Beta  occ. eigenvalues --   -0.17914  -0.12694  -0.12250
  Beta virt. eigenvalues --   -0.06924  -0.05611  -0.04982  -0.04717  -0.02349
  Beta virt. eigenvalues --   -0.02175  -0.01587  -0.01473  -0.01015  -0.00467
  Beta virt. eigenvalues --   -0.00297   0.00121   0.00379   0.00856   0.00874

 Mulliken charges and spin densities:
               1          2
     1  Na   0.097935  -0.005071
     2  Na   0.116319  -0.006019
     3  Na   0.149847  -0.020537
     4  Na  -0.375327   0.327497
     5  Na   0.365900   0.010079
     6  Na   0.138440  -0.020714
     7  Na  -0.493113   0.714765
 Sum of Mulliken charges =  -0.00000   1.00000

 Dipole moment (field-independent basis, Debye):
    X=              0.0005    Y=             -0.2364    Z=              0.1545  Tot=              0.2824
 Quadrupole moment (field-independent basis, Debye-Ang):
   XX=            -56.8767   YY=            -62.6735   ZZ=            -73.9905
   XY=             -0.2204   XZ=             -0.0875   YZ=             -0.1299

 Normal termination of Gaussian 16 at Thu Dec  7 23:37:42 2023.
