 Gaussian 16, Revision B.01,
 Gaussian 16:  ES64L-G16RevB.01 20-Dec-2017

 -------------------------
 #P B3LYP/6-311+g(d) force
 -------------------------

 -----
 DPGEN
 -----
 Symbolic Z-matrix:
 Charge =  0 Multiplicity = 2

                         Standard orientation:
 ---------------------------------------------------------------------
 Center     Atomic      Atomic             Coordinates (Angstroms)
 Number     Number       Type             X           Y           Z
 ---------------------------------------------------------------------
      1         11           0       -2.625693   -2.435450    0.650875
      2         11           0        3.746260   -1.898103   -0.147021
      3         11           0       -2.105913    2.805813   -0.286612
      4         11           0        3.914836    1.359252   -0.420244
      5         11           0       -4.702678   -0.178199   -0.555488
      6         11           0        0.909761    3.587820    0.738164
      7         11           0        0.863427   -3.241133    0.020326
 ---------------------------------------------------------------------

 SCF Done:  E(UB3LYP) =  -1136.10960441     A.U. after   22 cycles

 The electronic state is 2-A.
 Alpha  occ. eigenvalues --  -38.45152 -38.45078 -38.44864 -38.44521 -38.44164
 Alpha  occ. eigenvalues --  -38.44087 -38.43872  -2.20918  -2.20848  -2.20656
 Alpha  occ. eigenvalues --   -2.20335  -2.19969  -2.19868  -2.19688  -1.14594
 Alpha  occ. eigenvalues --   -1.14588  -1.14542  -1.14531  -1.14520  -1.14494
 Alpha  occ. eigenvalues --   -1.14318  -1.14314  -1.14282  -1.14017  -1.14001
 Alpha  occ. eigenvalues --   -1.13990  -1.13618  -1.13615  -1.13601  -1.13536
 Alpha  occ. eigenvalues --   -1.13530  -1.13510  -1.13337  -1.13332  -1.13323
 Alpha  occ. eigenvalues --   -0.15615  -0.14095  -0.13432  -0.10932
 Alpha virt. eigenvalues --   -0.07683  -0.04853  -0.04388  -0.03612  -0.03444
 Alpha virt. eigenvalues --   -0.02467  -0.02193  -0.01938  -0.01279  -0.00825
 Alpha virt. eigenvalues --   -0.00539  -0.00083  -0.00035   0.00440   0.00569

  Beta  occ. eigenvalues --  -38.45121 -38.45072 -38.44802 -38.44522 -38.44108
  Beta  occ. eigenvalues --  -38.44070 -38.43814  -2.20867  -2.20843  -2.20544
  Beta  occ. eigenvalues --   -2.20344  -2.19866  -2.19842  -2.19581  -1.14562
  Beta  occ. eigenvalues --   -1.14555  -1.14533  -1.14522  -1.14484  -1.14448
  Beta  occ. eigenvalues --   -1.14242  -1.14239  -1.14203  -1.14021  -1.14012
  Beta  occ. eigenvalues --   -1.13961  -1.13548  -1.13544  -1.13533  -1.13519
  Beta  occ. eigenvalues --   -1.13512  -1.13478  -1.13266  -1.13261  -1.13254
  Beta  occ. eigenvalues --   -0.15061  -0.13401  -0.12719
  Beta virt. eigenvalues --   -0.07857  -0.07695  -0.04334  -0.03978  -0.03383
  Beta virt. eigenvalues --   -0.03081  -0.02256  -0.02024  -0.01776  -0.01132
  Beta virt. eigenvalues --   -0.00467  -0.00324   0.00104   0.00197   0.00446

 Mulliken charges and spin densities:
               1          2
     1  Na  -0.122948   0.009186
     2  Na   0.258679   0.061221
     3  Na  -0.208661   0.199126
     4  Na  -0.116356   0.264066
     5  Na   0.460661   0.257792
     6  Na   0.030510  -0.030394
     7  Na  -0.301885   0.239002
 Sum of Mulliken charges =  -0.00000   1.00000

 Dipole moment (field-independent basis, Debye):
    X=             -0.1574    Y=              0.3435    Z=             -0.0760  Tot=              0.3854
 Quadrupole moment (field-independent basis, Debye-Ang):
   XX=            -60.2713   YY=            -67.8532   ZZ=            -72.0417
   XY=             -0.3429   XZ=              1.5081   YZ=             -1.2599

 Normal termination of Gaussian 16 at Sun Dec  3 13:36:45 2023.
