 Gaussian 16, Revision B.01,
 Gaussian 16:  ES64L-G16RevB.01 20-Dec-2017

 -------------------------
 #P B3LYP/6-311+g(d) force
 -------------------------

 -----
 DPGEN
 -----
 Symbolic Z-matrix:
 Charge =  0 Multiplicity = 2

                         Standard orientation:
 ---------------------------------------------------------------------
 Center     Atomic      Atomic             Coordinates (Angstroms)
 Number     Number       Type             X           Y           Z
 ---------------------------------------------------------------------
      1         11           0       -2.483255   -0.269265    0.915779
      2         11           0       -3.855359   -2.875740   -0.669303
      3         11           0        2.621307    0.245258    1.216026
      4         11           0       -2.768557    3.036648   -0.902055
      5         11           0        5.837935   -0.380163   -1.044377
      6         11           0        0.716195   -2.237789    0.176920
      7         11           0       -0.068265    2.481051    0.307009
 ---------------------------------------------------------------------

 SCF Done:  E(UB3LYP) =  -1136.11397947     A.U. after   19 cycles

 The electronic state is 2-A.
 Alpha  occ. eigenvalues --  -38.45147 -38.44829 -38.44171 -38.44152 -38.44130
 Alpha  occ. eigenvalues --  -38.43964 -38.43687  -2.20916  -2.20613  -2.19999
 Alpha  occ. eigenvalues --   -2.19963  -2.19896  -2.19814  -2.19495  -1.14599
 Alpha  occ. eigenvalues --   -1.14585  -1.14524  -1.14243  -1.14243  -1.14211
 Alpha  occ. eigenvalues --   -1.13739  -1.13667  -1.13658  -1.13647  -1.13634
 Alpha  occ. eigenvalues --   -1.13590  -1.13559  -1.13548  -1.13505  -1.13486
 Alpha  occ. eigenvalues --   -1.13469  -1.13410  -1.13174  -1.13167  -1.13138
 Alpha  occ. eigenvalues --   -0.16444  -0.13563  -0.12376  -0.11094
 Alpha virt. eigenvalues --   -0.06464  -0.05679  -0.04766  -0.03716  -0.02610
 Alpha virt. eigenvalues --   -0.02326  -0.02027  -0.01745  -0.01186  -0.00793
 Alpha virt. eigenvalues --   -0.00602  -0.00368  -0.00089   0.00262   0.00554

  Beta  occ. eigenvalues --  -38.45125 -38.44683 -38.44161 -38.44152 -38.44114
  Beta  occ. eigenvalues --  -38.43960 -38.43687  -2.20877  -2.20341  -2.19980
  Beta  occ. eigenvalues --   -2.19964  -2.19867  -2.19808  -2.19501  -1.14572
  Beta  occ. eigenvalues --   -1.14551  -1.14504  -1.14058  -1.14058  -1.14029
  Beta  occ. eigenvalues --   -1.13728  -1.13666  -1.13644  -1.13634  -1.13623
  Beta  occ. eigenvalues --   -1.13587  -1.13539  -1.13528  -1.13492  -1.13482
  Beta  occ. eigenvalues --   -1.13464  -1.13399  -1.13183  -1.13174  -1.13108
  Beta  occ. eigenvalues --   -0.16138  -0.12820  -0.12226
  Beta virt. eigenvalues --   -0.07254  -0.06259  -0.05470  -0.04384  -0.03576
  Beta virt. eigenvalues --   -0.02446  -0.02015  -0.01599  -0.01388  -0.00896
  Beta virt. eigenvalues --   -0.00625  -0.00183  -0.00056   0.00135   0.00458

 Mulliken charges and spin densities:
               1          2
     1  Na  -0.381438   0.007474
     2  Na   0.149508   0.094968
     3  Na  -0.076326  -0.092610
     4  Na   0.650933   0.110079
     5  Na  -0.012605   0.774775
     6  Na   0.003923   0.085966
     7  Na  -0.333995   0.019347
 Sum of Mulliken charges =  -0.00000   1.00000

 Dipole moment (field-independent basis, Debye):
    X=             -1.0363    Y=             -0.1577    Z=             -0.5502  Tot=              1.1839
 Quadrupole moment (field-independent basis, Debye-Ang):
   XX=            -69.6195   YY=            -64.3303   ZZ=            -68.6121
   XY=             -0.8499   XZ=              4.2863   YZ=              2.1839

 Normal termination of Gaussian 16 at Tue Nov 28 19:10:44 2023.
