 Gaussian 16, Revision B.01,
 Gaussian 16:  ES64L-G16RevB.01 20-Dec-2017

 -------------------------
 #P B3LYP/6-311+g(d) force
 -------------------------

 -----
 DPGEN
 -----
 Symbolic Z-matrix:
 Charge =  0 Multiplicity = 2

                         Standard orientation:
 ---------------------------------------------------------------------
 Center     Atomic      Atomic             Coordinates (Angstroms)
 Number     Number       Type             X           Y           Z
 ---------------------------------------------------------------------
      1         11           0       -0.081132   -0.415200   -1.663267
      2         11           0       -3.092843   -1.291654    0.307621
      3         11           0        0.250475   -0.202590    1.841122
      4         11           0        0.938843   -2.897896   -0.275726
      5         11           0        3.164478   -0.014620    0.100828
      6         11           0       -2.307333    1.935373   -0.187868
      7         11           0        1.127512    2.886587   -0.122709
 ---------------------------------------------------------------------

 SCF Done:  E(UB3LYP) =  -1136.13619788     A.U. after   19 cycles

 The electronic state is 2-A.
 Alpha  occ. eigenvalues --  -38.44309 -38.44251 -38.43700 -38.43618 -38.43429
 Alpha  occ. eigenvalues --  -38.43323 -38.43171  -2.20140  -2.20052  -2.19536
 Alpha  occ. eigenvalues --   -2.19484  -2.19335  -2.19138  -2.19127  -1.13821
 Alpha  occ. eigenvalues --   -1.13804  -1.13769  -1.13718  -1.13716  -1.13693
 Alpha  occ. eigenvalues --   -1.13237  -1.13213  -1.13202  -1.13172  -1.13139
 Alpha  occ. eigenvalues --   -1.13098  -1.13020  -1.12961  -1.12950  -1.12810
 Alpha  occ. eigenvalues --   -1.12804  -1.12796  -1.12784  -1.12753  -1.12733
 Alpha  occ. eigenvalues --   -0.18449  -0.13147  -0.12384  -0.10404
 Alpha virt. eigenvalues --   -0.05944  -0.05195  -0.04884  -0.03138  -0.02751
 Alpha virt. eigenvalues --   -0.02255  -0.01772  -0.01208  -0.00625  -0.00450
 Alpha virt. eigenvalues --    0.00002   0.00339   0.00783   0.00799   0.00868

  Beta  occ. eigenvalues --  -38.44303 -38.44245 -38.43696 -38.43605 -38.43350
  Beta  occ. eigenvalues --  -38.43322 -38.43100  -2.20132  -2.20042  -2.19530
  Beta  occ. eigenvalues --   -2.19466  -2.19191  -2.19137  -2.18998  -1.13806
  Beta  occ. eigenvalues --   -1.13787  -1.13765  -1.13713  -1.13693  -1.13688
  Beta  occ. eigenvalues --   -1.13212  -1.13205  -1.13190  -1.13166  -1.13102
  Beta  occ. eigenvalues --   -1.13090  -1.12923  -1.12864  -1.12843  -1.12802
  Beta  occ. eigenvalues --   -1.12800  -1.12775  -1.12713  -1.12658  -1.12644
  Beta  occ. eigenvalues --   -0.17756  -0.12916  -0.12128
  Beta virt. eigenvalues --   -0.06585  -0.05865  -0.05186  -0.04813  -0.02401
  Beta virt. eigenvalues --   -0.02028  -0.01648  -0.01256  -0.01122  -0.00678
  Beta virt. eigenvalues --   -0.00487   0.00144   0.00376   0.00801   0.00831

 Mulliken charges and spin densities:
               1          2
     1  Na  -0.118893   0.578531
     2  Na   0.087570  -0.030349
     3  Na  -0.267284   0.722248
     4  Na   0.226675  -0.106800
     5  Na   0.232550  -0.029651
     6  Na  -0.014406  -0.049555
     7  Na  -0.146211  -0.084423
 Sum of Mulliken charges =  -0.00000   1.00000

 Dipole moment (field-independent basis, Debye):
    X=              0.0219    Y=             -0.2797    Z=              0.1101  Tot=              0.3014
 Quadrupole moment (field-independent basis, Debye-Ang):
   XX=            -54.7000   YY=            -61.7157   ZZ=            -76.2479
   XY=              0.4595   XZ=             -0.7222   YZ=             -0.7880

 Normal termination of Gaussian 16 at Tue Dec  5 15:42:01 2023.
