 Gaussian 16, Revision B.01,
 Gaussian 16:  ES64L-G16RevB.01 20-Dec-2017

 -------------------------
 #P B3LYP/6-311+g(d) force
 -------------------------

 -----
 DPGEN
 -----
 Symbolic Z-matrix:
 Charge =  0 Multiplicity = 2

                         Standard orientation:
 ---------------------------------------------------------------------
 Center     Atomic      Atomic             Coordinates (Angstroms)
 Number     Number       Type             X           Y           Z
 ---------------------------------------------------------------------
      1         11           0       -1.390547   -1.277733   -1.503005
      2         11           0        4.129249    0.218455    0.833468
      3         11           0        0.037875   -0.306916    1.754522
      4         11           0        1.111071    1.709839   -0.877058
      5         11           0       -2.345836    2.127096   -0.230707
      6         11           0        2.125849   -1.491143   -0.877056
      7         11           0       -3.667661   -0.979598    0.899834
 ---------------------------------------------------------------------

 SCF Done:  E(UB3LYP) =  -1136.11949436     A.U. after   35 cycles

 The electronic state is 2-A.
 Alpha  occ. eigenvalues --  -38.46290 -38.45162 -38.44008 -38.43803 -38.43785
 Alpha  occ. eigenvalues --  -38.43153 -38.42500  -2.22084  -2.20987  -2.19836
 Alpha  occ. eigenvalues --   -2.19715  -2.19660  -2.18972  -2.18380  -1.15798
 Alpha  occ. eigenvalues --   -1.15735  -1.15696  -1.14664  -1.14628  -1.14605
 Alpha  occ. eigenvalues --   -1.13515  -1.13483  -1.13476  -1.13401  -1.13374
 Alpha  occ. eigenvalues --   -1.13360  -1.13330  -1.13296  -1.13282  -1.12658
 Alpha  occ. eigenvalues --   -1.12630  -1.12610  -1.12084  -1.12057  -1.11983
 Alpha  occ. eigenvalues --   -0.18414  -0.14485  -0.11189  -0.10529
 Alpha virt. eigenvalues --   -0.07469  -0.05125  -0.04964  -0.03196  -0.02987
 Alpha virt. eigenvalues --   -0.02290  -0.02016  -0.01409  -0.01106  -0.00292
 Alpha virt. eigenvalues --   -0.00092   0.00203   0.00283   0.00621   0.00624

  Beta  occ. eigenvalues --  -38.46275 -38.45118 -38.43984 -38.43770 -38.43732
  Beta  occ. eigenvalues --  -38.43153 -38.42484  -2.22057  -2.20904  -2.19791
  Beta  occ. eigenvalues --   -2.19659  -2.19566  -2.18975  -2.18353  -1.15765
  Beta  occ. eigenvalues --   -1.15718  -1.15676  -1.14610  -1.14569  -1.14548
  Beta  occ. eigenvalues --   -1.13485  -1.13450  -1.13442  -1.13360  -1.13341
  Beta  occ. eigenvalues --   -1.13286  -1.13262  -1.13229  -1.13197  -1.12658
  Beta  occ. eigenvalues --   -1.12633  -1.12602  -1.12068  -1.12014  -1.11967
  Beta  occ. eigenvalues --   -0.17725  -0.14153  -0.10410
  Beta virt. eigenvalues --   -0.07394  -0.07195  -0.05053  -0.04323  -0.02912
  Beta virt. eigenvalues --   -0.02779  -0.01734  -0.01502  -0.01062  -0.00906
  Beta virt. eigenvalues --   -0.00182  -0.00003   0.00297   0.00347   0.00670

 Mulliken charges and spin densities:
               1          2
     1  Na  -0.341134   0.145843
     2  Na   0.853238   0.298827
     3  Na  -0.621694   0.117182
     4  Na  -0.517565   0.060013
     5  Na  -0.194839   0.032408
     6  Na   0.090363   0.123946
     7  Na   0.731631   0.221781
 Sum of Mulliken charges =  -0.00000   1.00000

 Dipole moment (field-independent basis, Debye):
    X=              0.7240    Y=             -0.0466    Z=              0.6410  Tot=              0.9681
 Quadrupole moment (field-independent basis, Debye-Ang):
   XX=            -49.4115   YY=            -81.0338   ZZ=            -66.3339
   XY=             -0.0031   XZ=              0.9947   YZ=              1.8742

 Normal termination of Gaussian 16 at Tue Dec  5 11:41:02 2023.
