 Gaussian 16, Revision B.01,
 Gaussian 16:  ES64L-G16RevB.01 20-Dec-2017

 -------------------------
 #P B3LYP/6-311+g(d) force
 -------------------------

 -----
 DPGEN
 -----
 Symbolic Z-matrix:
 Charge =  0 Multiplicity = 2

                         Standard orientation:
 ---------------------------------------------------------------------
 Center     Atomic      Atomic             Coordinates (Angstroms)
 Number     Number       Type             X           Y           Z
 ---------------------------------------------------------------------
      1         11           0        1.204465    2.739305    0.107168
      2         11           0        2.933304   -0.004917   -0.122362
      3         11           0        0.161697    0.036012    1.717216
      4         11           0        1.231979   -2.585311   -0.145096
      5         11           0       -3.023764    1.528377   -0.137223
      6         11           0       -2.439572   -1.854974    0.160532
      7         11           0       -0.068109    0.141507   -1.580235
 ---------------------------------------------------------------------

 SCF Done:  E(UB3LYP) =  -1136.13451150     A.U. after   19 cycles

 The electronic state is 2-A.
 Alpha  occ. eigenvalues --  -38.44450 -38.44002 -38.43901 -38.43329 -38.43026
 Alpha  occ. eigenvalues --  -38.42997 -38.42975  -2.20240  -2.19849  -2.19834
 Alpha  occ. eigenvalues --   -2.19205  -2.18985  -2.18979  -2.18934  -1.13913
 Alpha  occ. eigenvalues --   -1.13894  -1.13885  -1.13546  -1.13509  -1.13506
 Alpha  occ. eigenvalues --   -1.13503  -1.13502  -1.13463  -1.12899  -1.12870
 Alpha  occ. eigenvalues --   -1.12840  -1.12741  -1.12647  -1.12641  -1.12614
 Alpha  occ. eigenvalues --   -1.12601  -1.12593  -1.12585  -1.12558  -1.12552
 Alpha  occ. eigenvalues --   -0.19039  -0.13460  -0.12335  -0.10358
 Alpha virt. eigenvalues --   -0.05917  -0.05416  -0.04452  -0.03171  -0.02566
 Alpha virt. eigenvalues --   -0.02061  -0.01745  -0.01258  -0.00455  -0.00287
 Alpha virt. eigenvalues --    0.00035   0.00340   0.00758   0.00830   0.00898

  Beta  occ. eigenvalues --  -38.44448 -38.43997 -38.43890 -38.43322 -38.43018
  Beta  occ. eigenvalues --  -38.42915 -38.42907  -2.20240  -2.19834  -2.19828
  Beta  occ. eigenvalues --   -2.19197  -2.18923  -2.18857  -2.18836  -1.13899
  Beta  occ. eigenvalues --   -1.13895  -1.13886  -1.13541  -1.13502  -1.13501
  Beta  occ. eigenvalues --   -1.13484  -1.13462  -1.13449  -1.12892  -1.12842
  Beta  occ. eigenvalues --   -1.12830  -1.12667  -1.12606  -1.12580  -1.12557
  Beta  occ. eigenvalues --   -1.12530  -1.12510  -1.12494  -1.12483  -1.12474
  Beta  occ. eigenvalues --   -0.18309  -0.13214  -0.12065
  Beta virt. eigenvalues --   -0.06458  -0.05874  -0.05392  -0.04455  -0.02386
  Beta virt. eigenvalues --   -0.01825  -0.01665  -0.01192  -0.01031  -0.00502
  Beta virt. eigenvalues --   -0.00331   0.00174   0.00370   0.00789   0.00851

 Mulliken charges and spin densities:
               1          2
     1  Na   0.143525  -0.104543
     2  Na   0.499221   0.114297
     3  Na  -0.400328   0.641875
     4  Na   0.120420  -0.015754
     5  Na  -0.020773  -0.121758
     6  Na   0.076908  -0.049812
     7  Na  -0.418972   0.535695
 Sum of Mulliken charges =  -0.00000   1.00000

 Dipole moment (field-independent basis, Debye):
    X=             -0.5629    Y=              0.1996    Z=              0.0499  Tot=              0.5994
 Quadrupole moment (field-independent basis, Debye-Ang):
   XX=            -53.7074   YY=            -61.3543   ZZ=            -76.6331
   XY=             -0.3080   XZ=             -0.5194   YZ=              0.1185

 Normal termination of Gaussian 16 at Thu Dec  7 03:18:48 2023.
