 Gaussian 16, Revision B.01,
 Gaussian 16:  ES64L-G16RevB.01 20-Dec-2017

 -------------------------
 #P B3LYP/6-311+g(d) force
 -------------------------

 -----
 DPGEN
 -----
 Symbolic Z-matrix:
 Charge =  0 Multiplicity = 2

                         Standard orientation:
 ---------------------------------------------------------------------
 Center     Atomic      Atomic             Coordinates (Angstroms)
 Number     Number       Type             X           Y           Z
 ---------------------------------------------------------------------
      1         11           0       -1.119874    0.871914    1.497402
      2         11           0        1.595738    1.785374    0.242612
      3         11           0        1.350142   -1.883645    1.339544
      4         11           0       -3.254193   -1.013582   -0.946367
      5         11           0       -0.976301   -3.253383   -0.493990
      6         11           0        4.326558    0.145692   -1.157281
      7         11           0       -1.922071    3.347630   -0.481919
 ---------------------------------------------------------------------

 SCF Done:  E(UB3LYP) =  -1136.12112866     A.U. after   21 cycles

 The electronic state is 2-A.
 Alpha  occ. eigenvalues --  -38.44836 -38.44190 -38.44074 -38.43998 -38.43920
 Alpha  occ. eigenvalues --  -38.43918 -38.43906  -2.20614  -2.20088  -2.19883
 Alpha  occ. eigenvalues --   -2.19816  -2.19744  -2.19740  -2.19713  -1.14291
 Alpha  occ. eigenvalues --   -1.14268  -1.14257  -1.13821  -1.13741  -1.13692
 Alpha  occ. eigenvalues --   -1.13580  -1.13545  -1.13524  -1.13504  -1.13478
 Alpha  occ. eigenvalues --   -1.13447  -1.13435  -1.13431  -1.13403  -1.13392
 Alpha  occ. eigenvalues --   -1.13370  -1.13359  -1.13349  -1.13340  -1.13303
 Alpha  occ. eigenvalues --   -0.17153  -0.13190  -0.12917  -0.10617
 Alpha virt. eigenvalues --   -0.06501  -0.05653  -0.04382  -0.03808  -0.02938
 Alpha virt. eigenvalues --   -0.01996  -0.01733  -0.01427  -0.01196  -0.00757
 Alpha virt. eigenvalues --   -0.00273   0.00054   0.00486   0.00513   0.00599

  Beta  occ. eigenvalues --  -38.44838 -38.44157 -38.44024 -38.43998 -38.43905
  Beta  occ. eigenvalues --  -38.43878 -38.43836  -2.20619  -2.20030  -2.19820
  Beta  occ. eigenvalues --   -2.19790  -2.19746  -2.19669  -2.19557  -1.14294
  Beta  occ. eigenvalues --   -1.14272  -1.14257  -1.13781  -1.13697  -1.13641
  Beta  occ. eigenvalues --   -1.13538  -1.13501  -1.13488  -1.13473  -1.13453
  Beta  occ. eigenvalues --   -1.13443  -1.13417  -1.13400  -1.13351  -1.13346
  Beta  occ. eigenvalues --   -1.13340  -1.13301  -1.13253  -1.13244  -1.13218
  Beta  occ. eigenvalues --   -0.16663  -0.12883  -0.12293
  Beta virt. eigenvalues --   -0.07236  -0.06294  -0.05413  -0.03993  -0.03488
  Beta virt. eigenvalues --   -0.02609  -0.01686  -0.01441  -0.01068  -0.00942
  Beta virt. eigenvalues --   -0.00678  -0.00013   0.00202   0.00516   0.00626

 Mulliken charges and spin densities:
               1          2
     1  Na   0.840024   0.232693
     2  Na  -0.971003  -0.037617
     3  Na  -0.179270   0.164146
     4  Na  -0.331498   0.321243
     5  Na   0.144158  -0.054500
     6  Na   0.273831   0.418492
     7  Na   0.223757  -0.044456
 Sum of Mulliken charges =  -0.00000   1.00000

 Dipole moment (field-independent basis, Debye):
    X=             -0.7004    Y=              0.5305    Z=             -0.1657  Tot=              0.8941
 Quadrupole moment (field-independent basis, Debye-Ang):
   XX=            -68.8037   YY=            -59.8078   ZZ=            -69.9542
   XY=             -8.1190   XZ=              0.2039   YZ=             -1.8104

 Normal termination of Gaussian 16 at Wed Nov 29 00:42:19 2023.
