 Gaussian 16, Revision B.01,
 Gaussian 16:  ES64L-G16RevB.01 20-Dec-2017

 -------------------------
 #P B3LYP/6-311+g(d) force
 -------------------------

 -----
 DPGEN
 -----
 Symbolic Z-matrix:
 Charge =  0 Multiplicity = 2

                         Standard orientation:
 ---------------------------------------------------------------------
 Center     Atomic      Atomic             Coordinates (Angstroms)
 Number     Number       Type             X           Y           Z
 ---------------------------------------------------------------------
      1         11           0        3.071259    0.809713   -0.018008
      2         11           0       -0.212486   -0.570396   -1.564156
      3         11           0        0.284891    3.048299   -0.384538
      4         11           0        2.301483   -2.377743    0.016734
      5         11           0       -2.301159   -2.162604   -0.012055
      6         11           0       -2.823265    1.030493   -0.158042
      7         11           0       -0.320722    0.222238    2.120066
 ---------------------------------------------------------------------

 SCF Done:  E(UB3LYP) =  -1136.13327603     A.U. after   19 cycles

 The electronic state is 2-A.
 Alpha  occ. eigenvalues --  -38.44226 -38.44152 -38.43988 -38.43863 -38.43693
 Alpha  occ. eigenvalues --  -38.43372 -38.43140  -2.20039  -2.20029  -2.19861
 Alpha  occ. eigenvalues --   -2.19672  -2.19552  -2.19324  -2.18946  -1.13726
 Alpha  occ. eigenvalues --   -1.13714  -1.13707  -1.13700  -1.13684  -1.13671
 Alpha  occ. eigenvalues --   -1.13577  -1.13498  -1.13483  -1.13341  -1.13327
 Alpha  occ. eigenvalues --   -1.13317  -1.13214  -1.13180  -1.13167  -1.13007
 Alpha  occ. eigenvalues --   -1.12959  -1.12942  -1.12617  -1.12604  -1.12594
 Alpha  occ. eigenvalues --   -0.18362  -0.13412  -0.12114  -0.10572
 Alpha virt. eigenvalues --   -0.05757  -0.05676  -0.04645  -0.03318  -0.02779
 Alpha virt. eigenvalues --   -0.02409  -0.01631  -0.01210  -0.00692  -0.00467
 Alpha virt. eigenvalues --   -0.00020   0.00345   0.00725   0.00801   0.00860

  Beta  occ. eigenvalues --  -38.44226 -38.44143 -38.43981 -38.43864 -38.43592
  Beta  occ. eigenvalues --  -38.43318 -38.43133  -2.20040  -2.20017  -2.19853
  Beta  occ. eigenvalues --   -2.19675  -2.19367  -2.19225  -2.18936  -1.13723
  Beta  occ. eigenvalues --   -1.13710  -1.13699  -1.13689  -1.13669  -1.13653
  Beta  occ. eigenvalues --   -1.13566  -1.13483  -1.13468  -1.13338  -1.13325
  Beta  occ. eigenvalues --   -1.13319  -1.13091  -1.13049  -1.13035  -1.12939
  Beta  occ. eigenvalues --   -1.12888  -1.12867  -1.12604  -1.12592  -1.12588
  Beta  occ. eigenvalues --   -0.17643  -0.13222  -0.11911
  Beta virt. eigenvalues --   -0.06652  -0.05676  -0.05658  -0.04587  -0.02554
  Beta virt. eigenvalues --   -0.02043  -0.01547  -0.01398  -0.01133  -0.00738
  Beta virt. eigenvalues --   -0.00499   0.00152   0.00387   0.00788   0.00824

 Mulliken charges and spin densities:
               1          2
     1  Na  -0.023314  -0.025580
     2  Na  -0.013854   0.350024
     3  Na  -0.170898  -0.021191
     4  Na   0.080444  -0.078992
     5  Na   0.300910  -0.024695
     6  Na   0.279259   0.105462
     7  Na  -0.452548   0.694972
 Sum of Mulliken charges =  -0.00000   1.00000

 Dipole moment (field-independent basis, Debye):
    X=             -0.0856    Y=             -0.2776    Z=              0.1349  Tot=              0.3203
 Quadrupole moment (field-independent basis, Debye-Ang):
   XX=            -55.6310   YY=            -62.9854   ZZ=            -75.5467
   XY=              0.3814   XZ=              0.4127   YZ=             -1.6461

 Normal termination of Gaussian 16 at Thu Dec  7 22:37:04 2023.
