 Gaussian 16, Revision B.01,
 Gaussian 16:  ES64L-G16RevB.01 20-Dec-2017

 -------------------------
 #P B3LYP/6-311+g(d) force
 -------------------------

 -----
 DPGEN
 -----
 Symbolic Z-matrix:
 Charge =  0 Multiplicity = 2

                         Standard orientation:
 ---------------------------------------------------------------------
 Center     Atomic      Atomic             Coordinates (Angstroms)
 Number     Number       Type             X           Y           Z
 ---------------------------------------------------------------------
      1         11           0       -1.887804    0.708491   -1.164420
      2         11           0        1.506608    0.932537    0.871690
      3         11           0        1.725212   -2.171348   -0.662670
      4         11           0       -1.056475   -1.425416    1.417120
      5         11           0       -4.613553   -1.462610   -0.157281
      6         11           0        4.683954   -0.664754   -0.338303
      7         11           0       -0.357941    4.083100    0.033863
 ---------------------------------------------------------------------

 SCF Done:  E(UB3LYP) =  -1136.12236135     A.U. after   20 cycles

 The electronic state is 2-A.
 Alpha  occ. eigenvalues --  -38.44644 -38.44532 -38.44098 -38.44024 -38.44022
 Alpha  occ. eigenvalues --  -38.43979 -38.43296  -2.20438  -2.20363  -2.19934
 Alpha  occ. eigenvalues --   -2.19883  -2.19810  -2.19802  -2.19051  -1.14145
 Alpha  occ. eigenvalues --   -1.14139  -1.14053  -1.14029  -1.14020  -1.14006
 Alpha  occ. eigenvalues --   -1.13649  -1.13643  -1.13554  -1.13546  -1.13517
 Alpha  occ. eigenvalues --   -1.13487  -1.13468  -1.13463  -1.13450  -1.13444
 Alpha  occ. eigenvalues --   -1.13416  -1.13413  -1.12727  -1.12720  -1.12679
 Alpha  occ. eigenvalues --   -0.17279  -0.13743  -0.11792  -0.10753
 Alpha virt. eigenvalues --   -0.06537  -0.05470  -0.04748  -0.03484  -0.02973
 Alpha virt. eigenvalues --   -0.02192  -0.01703  -0.01419  -0.01307  -0.00715
 Alpha virt. eigenvalues --   -0.00472  -0.00246   0.00303   0.00534   0.00560

  Beta  occ. eigenvalues --  -38.44636 -38.44526 -38.44088 -38.43971 -38.43964
  Beta  occ. eigenvalues --  -38.43906 -38.43297  -2.20426  -2.20360  -2.19919
  Beta  occ. eigenvalues --   -2.19793  -2.19698  -2.19665  -2.19053  -1.14138
  Beta  occ. eigenvalues --   -1.14120  -1.14057  -1.14030  -1.14007  -1.13959
  Beta  occ. eigenvalues --   -1.13639  -1.13598  -1.13516  -1.13495  -1.13488
  Beta  occ. eigenvalues --   -1.13403  -1.13391  -1.13381  -1.13356  -1.13350
  Beta  occ. eigenvalues --   -1.13347  -1.13329  -1.12728  -1.12721  -1.12680
  Beta  occ. eigenvalues --   -0.16644  -0.13085  -0.11631
  Beta virt. eigenvalues --   -0.07298  -0.06324  -0.05325  -0.04159  -0.03158
  Beta virt. eigenvalues --   -0.02651  -0.02109  -0.01574  -0.01085  -0.00848
  Beta virt. eigenvalues --   -0.00352  -0.00299  -0.00039   0.00396   0.00602

 Mulliken charges and spin densities:
               1          2
     1  Na  -0.386791   0.171078
     2  Na  -0.648331   0.065123
     3  Na  -0.068345   0.033660
     4  Na   0.411140   0.118701
     5  Na   0.123893   0.281991
     6  Na   0.304359   0.363700
     7  Na   0.264074  -0.034252
 Sum of Mulliken charges =  -0.00000   1.00000

 Dipole moment (field-independent basis, Debye):
    X=              0.0708    Y=             -0.9287    Z=              0.1537  Tot=              0.9440
 Quadrupole moment (field-independent basis, Debye-Ang):
   XX=            -66.0196   YY=            -67.5597   ZZ=            -66.3940
   XY=              1.6203   XZ=              0.0804   YZ=              1.3463

 Normal termination of Gaussian 16 at Tue Nov 28 23:20:39 2023.
