 Gaussian 16, Revision B.01,
 Gaussian 16:  ES64L-G16RevB.01 20-Dec-2017

 -------------------------
 #P B3LYP/6-311+g(d) force
 -------------------------

 -----
 DPGEN
 -----
 Symbolic Z-matrix:
 Charge =  0 Multiplicity = 2

                         Standard orientation:
 ---------------------------------------------------------------------
 Center     Atomic      Atomic             Coordinates (Angstroms)
 Number     Number       Type             X           Y           Z
 ---------------------------------------------------------------------
      1         11           0        3.250569   -0.990634   -0.074469
      2         11           0        1.586099    1.826752   -1.177994
      3         11           0       -3.160123   -1.561410    0.009460
      4         11           0       -1.302448    3.055074    0.439040
      5         11           0       -1.158016    0.223409   -1.165409
      6         11           0        0.162784   -2.644542   -0.304128
      7         11           0        0.621135    0.091351    2.273500
 ---------------------------------------------------------------------

 SCF Done:  E(UB3LYP) =  -1136.13013529     A.U. after   19 cycles

 The electronic state is 2-A.
 Alpha  occ. eigenvalues --  -38.44117 -38.44026 -38.43895 -38.43879 -38.43714
 Alpha  occ. eigenvalues --  -38.43629 -38.43031  -2.19960  -2.19856  -2.19728
 Alpha  occ. eigenvalues --   -2.19710  -2.19530  -2.19503  -2.19053  -1.13707
 Alpha  occ. eigenvalues --   -1.13597  -1.13581  -1.13514  -1.13494  -1.13465
 Alpha  occ. eigenvalues --   -1.13442  -1.13402  -1.13392  -1.13361  -1.13355
 Alpha  occ. eigenvalues --   -1.13329  -1.13226  -1.13209  -1.13193  -1.13172
 Alpha  occ. eigenvalues --   -1.13143  -1.13093  -1.12740  -1.12712  -1.12657
 Alpha  occ. eigenvalues --   -0.18240  -0.12885  -0.12611  -0.10785
 Alpha virt. eigenvalues --   -0.05706  -0.05396  -0.04548  -0.03242  -0.03006
 Alpha virt. eigenvalues --   -0.02629  -0.01589  -0.01379  -0.00351  -0.00221
 Alpha virt. eigenvalues --    0.00004   0.00297   0.00763   0.00801   0.00858

  Beta  occ. eigenvalues --  -38.44119 -38.43923 -38.43890 -38.43874 -38.43712
  Beta  occ. eigenvalues --  -38.43589 -38.43003  -2.19966  -2.19720  -2.19703
  Beta  occ. eigenvalues --   -2.19665  -2.19529  -2.19433  -2.19005  -1.13709
  Beta  occ. eigenvalues --   -1.13595  -1.13585  -1.13438  -1.13392  -1.13388
  Beta  occ. eigenvalues --   -1.13375  -1.13365  -1.13353  -1.13338  -1.13330
  Beta  occ. eigenvalues --   -1.13320  -1.13206  -1.13184  -1.13169  -1.13163
  Beta  occ. eigenvalues --   -1.13090  -1.13046  -1.12704  -1.12664  -1.12625
  Beta  occ. eigenvalues --   -0.17560  -0.12677  -0.12452
  Beta virt. eigenvalues --   -0.06850  -0.05627  -0.05222  -0.04505  -0.02517
  Beta virt. eigenvalues --   -0.02400  -0.01648  -0.01509  -0.01257  -0.00272
  Beta virt. eigenvalues --   -0.00198   0.00154   0.00363   0.00785   0.00894

 Mulliken charges and spin densities:
               1          2
     1  Na   0.223419   0.060444
     2  Na  -0.042444   0.116520
     3  Na   0.284625  -0.042548
     4  Na  -0.142446   0.023520
     5  Na   0.329508   0.225589
     6  Na  -0.202790  -0.032937
     7  Na  -0.449872   0.649413
 Sum of Mulliken charges =  -0.00000   1.00000

 Dipole moment (field-independent basis, Debye):
    X=             -0.2823    Y=             -0.0589    Z=              0.3976  Tot=              0.4912
 Quadrupole moment (field-independent basis, Debye-Ang):
   XX=            -57.6969   YY=            -62.1389   ZZ=            -73.7770
   XY=             -0.9551   XZ=             -3.0107   YZ=              0.6444

 Normal termination of Gaussian 16 at Thu Dec  7 18:54:04 2023.
