 Gaussian 16, Revision B.01,
 Gaussian 16:  ES64L-G16RevB.01 20-Dec-2017

 -------------------------
 #P B3LYP/6-311+g(d) force
 -------------------------

 -----
 DPGEN
 -----
 Symbolic Z-matrix:
 Charge =  0 Multiplicity = 2

                         Standard orientation:
 ---------------------------------------------------------------------
 Center     Atomic      Atomic             Coordinates (Angstroms)
 Number     Number       Type             X           Y           Z
 ---------------------------------------------------------------------
      1         11           0        1.166877   -2.524404   -0.615286
      2         11           0       -2.214959    2.104980    0.066748
      3         11           0       -0.177513   -0.894284    1.972175
      4         11           0       -3.074099   -1.205188    0.037086
      5         11           0        3.133589    0.181957    0.277670
      6         11           0        1.381159    2.303510    0.053846
      7         11           0       -0.215054    0.033429   -1.792239
 ---------------------------------------------------------------------

 SCF Done:  E(UB3LYP) =  -1136.12872778     A.U. after   20 cycles

 The electronic state is 2-A.
 Alpha  occ. eigenvalues --  -38.44598 -38.44466 -38.43817 -38.43796 -38.43425
 Alpha  occ. eigenvalues --  -38.43296 -38.43197  -2.20410  -2.20363  -2.19685
 Alpha  occ. eigenvalues --   -2.19626  -2.19388  -2.19179  -2.19117  -1.14170
 Alpha  occ. eigenvalues --   -1.14085  -1.14069  -1.14052  -1.13990  -1.13968
 Alpha  occ. eigenvalues --   -1.13354  -1.13329  -1.13307  -1.13304  -1.13293
 Alpha  occ. eigenvalues --   -1.13263  -1.13087  -1.13051  -1.13007  -1.12841
 Alpha  occ. eigenvalues --   -1.12826  -1.12802  -1.12798  -1.12749  -1.12738
 Alpha  occ. eigenvalues --   -0.18715  -0.13509  -0.12168  -0.10935
 Alpha virt. eigenvalues --   -0.06153  -0.05296  -0.04086  -0.03498  -0.02967
 Alpha virt. eigenvalues --   -0.02591  -0.01837  -0.01072  -0.00364  -0.00057
 Alpha virt. eigenvalues --   -0.00019   0.00354   0.00732   0.00785   0.00838

  Beta  occ. eigenvalues --  -38.44595 -38.44459 -38.43794 -38.43745 -38.43344
  Beta  occ. eigenvalues --  -38.43276 -38.43192  -2.20408  -2.20353  -2.19625
  Beta  occ. eigenvalues --   -2.19552  -2.19240  -2.19146  -2.19110  -1.14166
  Beta  occ. eigenvalues --   -1.14071  -1.14058  -1.14054  -1.13966  -1.13960
  Beta  occ. eigenvalues --   -1.13301  -1.13284  -1.13267  -1.13262  -1.13235
  Beta  occ. eigenvalues --   -1.13206  -1.12996  -1.12946  -1.12906  -1.12807
  Beta  occ. eigenvalues --   -1.12799  -1.12781  -1.12771  -1.12737  -1.12713
  Beta  occ. eigenvalues --   -0.18000  -0.13283  -0.11916
  Beta virt. eigenvalues --   -0.07048  -0.06064  -0.05267  -0.04014  -0.02746
  Beta virt. eigenvalues --   -0.02220  -0.01768  -0.01522  -0.01016  -0.00399
  Beta virt. eigenvalues --   -0.00055   0.00125   0.00389   0.00788   0.00878

 Mulliken charges and spin densities:
               1          2
     1  Na   0.318786  -0.013654
     2  Na  -0.049301  -0.005703
     3  Na  -0.458682   0.543366
     4  Na   0.231235  -0.043073
     5  Na   0.138635   0.062328
     6  Na  -0.040700   0.014142
     7  Na  -0.139973   0.442593
 Sum of Mulliken charges =  -0.00000   1.00000

 Dipole moment (field-independent basis, Debye):
    X=             -0.5951    Y=             -0.3694    Z=              0.1973  Tot=              0.7277
 Quadrupole moment (field-independent basis, Debye-Ang):
   XX=            -54.3220   YY=            -67.5853   ZZ=            -73.1627
   XY=             -0.6902   XZ=              0.3039   YZ=              1.5209

 Normal termination of Gaussian 16 at Tue Dec  5 21:09:54 2023.
