 Gaussian 16, Revision B.01,
 Gaussian 16:  ES64L-G16RevB.01 20-Dec-2017

 -------------------------
 #P B3LYP/6-311+g(d) force
 -------------------------

 -----
 DPGEN
 -----
 Symbolic Z-matrix:
 Charge =  0 Multiplicity = 2

                         Standard orientation:
 ---------------------------------------------------------------------
 Center     Atomic      Atomic             Coordinates (Angstroms)
 Number     Number       Type             X           Y           Z
 ---------------------------------------------------------------------
      1         11           0       -3.372005    0.736218   -0.259944
      2         11           0        4.069694    1.297305    0.073342
      3         11           0        0.877313    2.891813    0.886394
      4         11           0       -1.938729    3.596410   -0.653181
      5         11           0        0.184362   -3.059406   -0.284789
      6         11           0       -3.469624   -3.109368    0.566909
      7         11           0        3.648988   -2.352972   -0.328731
 ---------------------------------------------------------------------

 SCF Done:  E(UB3LYP) =  -1136.11214247     A.U. after   22 cycles

 The electronic state is 2-A.
 Alpha  occ. eigenvalues --  -38.45579 -38.45088 -38.45032 -38.44545 -38.44046
 Alpha  occ. eigenvalues --  -38.43939 -38.43740  -2.21344  -2.20832  -2.20812
 Alpha  occ. eigenvalues --   -2.20308  -2.19833  -2.19783  -2.19518  -1.15036
 Alpha  occ. eigenvalues --   -1.15018  -1.14966  -1.14530  -1.14521  -1.14499
 Alpha  occ. eigenvalues --   -1.14485  -1.14438  -1.14432  -1.13985  -1.13966
 Alpha  occ. eigenvalues --   -1.13937  -1.13498  -1.13485  -1.13460  -1.13447
 Alpha  occ. eigenvalues --   -1.13429  -1.13425  -1.13178  -1.13165  -1.13142
 Alpha  occ. eigenvalues --   -0.15666  -0.13848  -0.13333  -0.10811
 Alpha virt. eigenvalues --   -0.07367  -0.05054  -0.04585  -0.03460  -0.03227
 Alpha virt. eigenvalues --   -0.02473  -0.02188  -0.01910  -0.01857  -0.00695
 Alpha virt. eigenvalues --   -0.00464  -0.00053   0.00096   0.00490   0.00547

  Beta  occ. eigenvalues --  -38.45557 -38.45067 -38.45006 -38.44518 -38.44002
  Beta  occ. eigenvalues --  -38.43916 -38.43691  -2.21309  -2.20799  -2.20767
  Beta  occ. eigenvalues --   -2.20261  -2.19753  -2.19740  -2.19426  -1.15015
  Beta  occ. eigenvalues --   -1.14999  -1.14910  -1.14512  -1.14504  -1.14473
  Beta  occ. eigenvalues --   -1.14458  -1.14378  -1.14378  -1.13954  -1.13935
  Beta  occ. eigenvalues --   -1.13892  -1.13445  -1.13429  -1.13410  -1.13404
  Beta  occ. eigenvalues --   -1.13401  -1.13397  -1.13115  -1.13102  -1.13084
  Beta  occ. eigenvalues --   -0.15205  -0.13205  -0.12633
  Beta virt. eigenvalues --   -0.07542  -0.07446  -0.04726  -0.04207  -0.03189
  Beta virt. eigenvalues --   -0.02780  -0.02309  -0.01986  -0.01674  -0.01661
  Beta virt. eigenvalues --   -0.00400  -0.00155   0.00171   0.00251   0.00498

 Mulliken charges and spin densities:
               1          2
     1  Na  -0.273688   0.177010
     2  Na  -0.021402   0.107254
     3  Na  -0.410267   0.135218
     4  Na   0.363155   0.052401
     5  Na  -0.421381   0.239959
     6  Na   0.675623   0.302863
     7  Na   0.087960  -0.014703
 Sum of Mulliken charges =  -0.00000   1.00000

 Dipole moment (field-independent basis, Debye):
    X=             -0.2497    Y=              0.7641    Z=             -0.1051  Tot=              0.8107
 Quadrupole moment (field-independent basis, Debye-Ang):
   XX=            -60.2833   YY=            -66.4032   ZZ=            -72.6912
   XY=             -1.4798   XZ=             -0.6059   YZ=             -1.2972

 Normal termination of Gaussian 16 at Sun Dec  3 18:09:02 2023.
