 Gaussian 16, Revision B.01,
 Gaussian 16:  ES64L-G16RevB.01 20-Dec-2017

 -------------------------
 #P B3LYP/6-311+g(d) force
 -------------------------

 -----
 DPGEN
 -----
 Symbolic Z-matrix:
 Charge =  0 Multiplicity = 2

                         Standard orientation:
 ---------------------------------------------------------------------
 Center     Atomic      Atomic             Coordinates (Angstroms)
 Number     Number       Type             X           Y           Z
 ---------------------------------------------------------------------
      1         11           0        4.510553    0.082013   -0.649118
      2         11           0       -0.787653    3.459497    1.069545
      3         11           0        2.023823   -2.591217    0.388355
      4         11           0       -0.684516   -1.743220    1.188776
      5         11           0       -3.889744   -2.083371   -0.654599
      6         11           0       -2.654799    1.440987   -0.783775
      7         11           0        1.482337    1.435311   -0.559184
 ---------------------------------------------------------------------

 SCF Done:  E(UB3LYP) =  -1136.12208319     A.U. after   20 cycles

 The electronic state is 2-A.
 Alpha  occ. eigenvalues --  -38.44710 -38.44350 -38.44256 -38.43964 -38.43925
 Alpha  occ. eigenvalues --  -38.43778 -38.43758  -2.20503  -2.20161  -2.20102
 Alpha  occ. eigenvalues --   -2.19783  -2.19745  -2.19611  -2.19562  -1.14212
 Alpha  occ. eigenvalues --   -1.14180  -1.14107  -1.13875  -1.13863  -1.13850
 Alpha  occ. eigenvalues --   -1.13773  -1.13753  -1.13698  -1.13448  -1.13437
 Alpha  occ. eigenvalues --   -1.13410  -1.13396  -1.13390  -1.13355  -1.13285
 Alpha  occ. eigenvalues --   -1.13258  -1.13229  -1.13223  -1.13206  -1.13180
 Alpha  occ. eigenvalues --   -0.16671  -0.13744  -0.12888  -0.10720
 Alpha virt. eigenvalues --   -0.06078  -0.05557  -0.04547  -0.03568  -0.03038
 Alpha virt. eigenvalues --   -0.02264  -0.01952  -0.01385  -0.01092  -0.00784
 Alpha virt. eigenvalues --   -0.00345   0.00035   0.00304   0.00587   0.00674

  Beta  occ. eigenvalues --  -38.44700 -38.44342 -38.44213 -38.43950 -38.43858
  Beta  occ. eigenvalues --  -38.43727 -38.43720  -2.20485  -2.20150  -2.20029
  Beta  occ. eigenvalues --   -2.19757  -2.19620  -2.19546  -2.19468  -1.14202
  Beta  occ. eigenvalues --   -1.14171  -1.14075  -1.13871  -1.13836  -1.13786
  Beta  occ. eigenvalues --   -1.13749  -1.13707  -1.13645  -1.13432  -1.13419
  Beta  occ. eigenvalues --   -1.13393  -1.13308  -1.13303  -1.13279  -1.13240
  Beta  occ. eigenvalues --   -1.13219  -1.13162  -1.13158  -1.13135  -1.13120
  Beta  occ. eigenvalues --   -0.16262  -0.13120  -0.12219
  Beta virt. eigenvalues --   -0.07381  -0.06042  -0.05344  -0.04229  -0.03150
  Beta virt. eigenvalues --   -0.02652  -0.02015  -0.01714  -0.01124  -0.00804
  Beta virt. eigenvalues --   -0.00543  -0.00062   0.00213   0.00428   0.00638

 Mulliken charges and spin densities:
               1          2
     1  Na   0.024149   0.272223
     2  Na   0.685153   0.061069
     3  Na   0.079356   0.120213
     4  Na  -0.302586   0.096349
     5  Na   0.231741   0.251895
     6  Na   0.116463   0.121922
     7  Na  -0.834276   0.076329
 Sum of Mulliken charges =  -0.00000   1.00000

 Dipole moment (field-independent basis, Debye):
    X=              0.1807    Y=              0.4203    Z=              0.2127  Tot=              0.5045
 Quadrupole moment (field-independent basis, Debye-Ang):
   XX=            -63.8219   YY=            -64.1853   ZZ=            -69.5796
   XY=             -4.6655   XZ=              0.7912   YZ=              3.4081

 Normal termination of Gaussian 16 at Sun Dec  3 20:50:32 2023.
