 Gaussian 16, Revision B.01,
 Gaussian 16:  ES64L-G16RevB.01 20-Dec-2017

 -------------------------
 #P B3LYP/6-311+g(d) force
 -------------------------

 -----
 DPGEN
 -----
 Symbolic Z-matrix:
 Charge =  0 Multiplicity = 2

                         Standard orientation:
 ---------------------------------------------------------------------
 Center     Atomic      Atomic             Coordinates (Angstroms)
 Number     Number       Type             X           Y           Z
 ---------------------------------------------------------------------
      1         11           0       -2.749296    1.283389    0.210470
      2         11           0        0.391230    3.089804   -0.508762
      3         11           0        0.278592   -0.163116    2.163994
      4         11           0        3.215615    0.420591    0.250419
      5         11           0        1.574371   -2.708943   -0.511734
      6         11           0       -2.747548   -1.920800   -0.084265
      7         11           0        0.037036   -0.000924   -1.520123
 ---------------------------------------------------------------------

 SCF Done:  E(UB3LYP) =  -1136.13419982     A.U. after   19 cycles

 The electronic state is 2-A.
 Alpha  occ. eigenvalues --  -38.44556 -38.44015 -38.43995 -38.43872 -38.43727
 Alpha  occ. eigenvalues --  -38.43132 -38.43118  -2.20358  -2.19856  -2.19798
 Alpha  occ. eigenvalues --   -2.19716  -2.19544  -2.19080  -2.18951  -1.14037
 Alpha  occ. eigenvalues --   -1.14017  -1.13991  -1.13519  -1.13509  -1.13484
 Alpha  occ. eigenvalues --   -1.13473  -1.13463  -1.13440  -1.13386  -1.13377
 Alpha  occ. eigenvalues --   -1.13328  -1.13242  -1.13195  -1.13170  -1.12775
 Alpha  occ. eigenvalues --   -1.12745  -1.12708  -1.12616  -1.12596  -1.12584
 Alpha  occ. eigenvalues --   -0.18150  -0.13158  -0.12055  -0.10689
 Alpha virt. eigenvalues --   -0.05959  -0.05270  -0.04705  -0.03322  -0.02675
 Alpha virt. eigenvalues --   -0.02579  -0.01734  -0.01230  -0.00633  -0.00482
 Alpha virt. eigenvalues --   -0.00031   0.00341   0.00754   0.00794   0.00828

  Beta  occ. eigenvalues --  -38.44549 -38.43997 -38.43918 -38.43869 -38.43712
  Beta  occ. eigenvalues --  -38.43124 -38.43061  -2.20349  -2.19805  -2.19713
  Beta  occ. eigenvalues --   -2.19675  -2.19520  -2.18978  -2.18938  -1.14017
  Beta  occ. eigenvalues --   -1.14002  -1.13990  -1.13515  -1.13455  -1.13445
  Beta  occ. eigenvalues --   -1.13398  -1.13377  -1.13368  -1.13359  -1.13338
  Beta  occ. eigenvalues --   -1.13327  -1.13216  -1.13173  -1.13154  -1.12706
  Beta  occ. eigenvalues --   -1.12680  -1.12638  -1.12589  -1.12576  -1.12574
  Beta  occ. eigenvalues --   -0.17458  -0.12968  -0.11801
  Beta virt. eigenvalues --   -0.06817  -0.05836  -0.05245  -0.04651  -0.02570
  Beta virt. eigenvalues --   -0.02031  -0.01625  -0.01530  -0.01128  -0.00680
  Beta virt. eigenvalues --   -0.00489   0.00121   0.00376   0.00789   0.00841

 Mulliken charges and spin densities:
               1          2
     1  Na   0.141925   0.055857
     2  Na   0.060921   0.001469
     3  Na  -0.361481   0.678481
     4  Na   0.171708   0.056458
     5  Na   0.033056  -0.036166
     6  Na  -0.019771  -0.070052
     7  Na  -0.026358   0.313954
 Sum of Mulliken charges =  -0.00000   1.00000

 Dipole moment (field-independent basis, Debye):
    X=              0.2443    Y=             -0.2254    Z=              0.2574  Tot=              0.4204
 Quadrupole moment (field-independent basis, Debye-Ang):
   XX=            -55.4713   YY=            -62.6396   ZZ=            -75.2261
   XY=              0.8155   XZ=             -0.4674   YZ=              0.6671

 Normal termination of Gaussian 16 at Fri Dec  8 03:48:09 2023.
