 Gaussian 16, Revision B.01,
 Gaussian 16:  ES64L-G16RevB.01 20-Dec-2017

 -------------------------
 #P B3LYP/6-311+g(d) force
 -------------------------

 -----
 DPGEN
 -----
 Symbolic Z-matrix:
 Charge =  0 Multiplicity = 2

                         Standard orientation:
 ---------------------------------------------------------------------
 Center     Atomic      Atomic             Coordinates (Angstroms)
 Number     Number       Type             X           Y           Z
 ---------------------------------------------------------------------
      1         11           0       -3.386024    2.517590   -0.503595
      2         11           0       -2.000330   -2.903489    0.236614
      3         11           0        3.839811    2.188248    0.882314
      4         11           0        4.113569   -1.237687   -0.144365
      5         11           0        1.715863   -3.442421   -0.543171
      6         11           0        0.673487    3.477084   -0.485991
      7         11           0       -4.956376   -0.599326    0.558195
 ---------------------------------------------------------------------

 SCF Done:  E(UB3LYP) =  -1136.09956484     A.U. after   79 cycles

 The electronic state is 2-A.
 Alpha  occ. eigenvalues --  -38.45488 -38.45447 -38.45285 -38.44699 -38.44566
 Alpha  occ. eigenvalues --  -38.44366 -38.43812  -2.21227  -2.21184  -2.21029
 Alpha  occ. eigenvalues --   -2.20455  -2.20315  -2.20133  -2.19623  -1.14901
 Alpha  occ. eigenvalues --   -1.14886  -1.14870  -1.14854  -1.14847  -1.14825
 Alpha  occ. eigenvalues --   -1.14710  -1.14688  -1.14667  -1.14141  -1.14139
 Alpha  occ. eigenvalues --   -1.14105  -1.13982  -1.13975  -1.13933  -1.13797
 Alpha  occ. eigenvalues --   -1.13787  -1.13740  -1.13278  -1.13272  -1.13253
 Alpha  occ. eigenvalues --   -0.15146  -0.13925  -0.13095  -0.10567
 Alpha virt. eigenvalues --   -0.08408  -0.05249  -0.04762  -0.03497  -0.03368
 Alpha virt. eigenvalues --   -0.02435  -0.02307  -0.01789  -0.01372  -0.01180
 Alpha virt. eigenvalues --   -0.01074  -0.00220  -0.00050   0.00264   0.00424

  Beta  occ. eigenvalues --  -38.45455 -38.45446 -38.45281 -38.44713 -38.44516
  Beta  occ. eigenvalues --  -38.44291 -38.43758  -2.21203  -2.21152  -2.21025
  Beta  occ. eigenvalues --   -2.20487  -2.20223  -2.19993  -2.19521  -1.14886
  Beta  occ. eigenvalues --   -1.14868  -1.14852  -1.14837  -1.14813  -1.14784
  Beta  occ. eigenvalues --   -1.14710  -1.14687  -1.14643  -1.14168  -1.14164
  Beta  occ. eigenvalues --   -1.14090  -1.13920  -1.13913  -1.13868  -1.13702
  Beta  occ. eigenvalues --   -1.13693  -1.13647  -1.13208  -1.13207  -1.13189
  Beta  occ. eigenvalues --   -0.14629  -0.13375  -0.12362
  Beta virt. eigenvalues --   -0.08544  -0.07485  -0.04717  -0.04238  -0.03336
  Beta virt. eigenvalues --   -0.03131  -0.02269  -0.02178  -0.01615  -0.01180
  Beta virt. eigenvalues --   -0.00974  -0.00692  -0.00105  -0.00029   0.00402

 Mulliken charges and spin densities:
               1          2
     1  Na  -0.052946   0.234807
     2  Na  -0.344081   0.373175
     3  Na   0.108791  -0.052610
     4  Na  -0.202021   0.228017
     5  Na   0.400838  -0.161559
     6  Na  -0.198379   0.282580
     7  Na   0.287797   0.095590
 Sum of Mulliken charges =  -0.00000   1.00000

 Dipole moment (field-independent basis, Debye):
    X=             -0.6290    Y=              0.6368    Z=              0.1858  Tot=              0.9142
 Quadrupole moment (field-independent basis, Debye-Ang):
   XX=            -57.4367   YY=            -69.1816   ZZ=            -72.3770
   XY=              3.2446   XZ=              0.9710   YZ=             -0.2783

 Normal termination of Gaussian 16 at Mon Dec  4 02:13:46 2023.
