 Gaussian 16, Revision B.01,
 Gaussian 16:  ES64L-G16RevB.01 20-Dec-2017

 -------------------------
 #P B3LYP/6-311+g(d) force
 -------------------------

 -----
 DPGEN
 -----
 Symbolic Z-matrix:
 Charge =  0 Multiplicity = 2

                         Standard orientation:
 ---------------------------------------------------------------------
 Center     Atomic      Atomic             Coordinates (Angstroms)
 Number     Number       Type             X           Y           Z
 ---------------------------------------------------------------------
      1         11           0       -0.309329    1.497343    1.235073
      2         11           0        0.987976    3.978538   -0.398529
      3         11           0        2.789932    0.489966   -0.579878
      4         11           0        4.224117   -2.317973   -0.153030
      5         11           0        1.290344   -1.998507    0.366124
      6         11           0       -2.778085   -0.787483   -0.101329
      7         11           0       -6.204955   -0.861885   -0.368430
 ---------------------------------------------------------------------

 SCF Done:  E(UB3LYP) =  -1136.11847926     A.U. after   20 cycles

 The electronic state is 2-A.
 Alpha  occ. eigenvalues --  -38.44994 -38.44736 -38.44581 -38.44026 -38.43936
 Alpha  occ. eigenvalues --  -38.43779 -38.42975  -2.20878  -2.20623  -2.20496
 Alpha  occ. eigenvalues --   -2.19869  -2.19739  -2.19571  -2.18753  -1.14638
 Alpha  occ. eigenvalues --   -1.14570  -1.14493  -1.14351  -1.14256  -1.14246
 Alpha  occ. eigenvalues --   -1.14181  -1.14153  -1.14037  -1.13567  -1.13541
 Alpha  occ. eigenvalues --   -1.13512  -1.13395  -1.13390  -1.13347  -1.13211
 Alpha  occ. eigenvalues --   -1.13210  -1.13186  -1.12452  -1.12446  -1.12385
 Alpha  occ. eigenvalues --   -0.17433  -0.13798  -0.12641  -0.10719
 Alpha virt. eigenvalues --   -0.06202  -0.05420  -0.05159  -0.03668  -0.02497
 Alpha virt. eigenvalues --   -0.02354  -0.02087  -0.01644  -0.01258  -0.00736
 Alpha virt. eigenvalues --   -0.00452   0.00002   0.00170   0.00409   0.00588

  Beta  occ. eigenvalues --  -38.44979 -38.44719 -38.44548 -38.44008 -38.43913
  Beta  occ. eigenvalues --  -38.43689 -38.42985  -2.20853  -2.20591  -2.20436
  Beta  occ. eigenvalues --   -2.19839  -2.19695  -2.19402  -2.18778  -1.14605
  Beta  occ. eigenvalues --   -1.14555  -1.14470  -1.14325  -1.14235  -1.14220
  Beta  occ. eigenvalues --   -1.14143  -1.14115  -1.13980  -1.13548  -1.13523
  Beta  occ. eigenvalues --   -1.13474  -1.13365  -1.13357  -1.13319  -1.13095
  Beta  occ. eigenvalues --   -1.13095  -1.13077  -1.12478  -1.12471  -1.12348
  Beta  occ. eigenvalues --   -0.16942  -0.13544  -0.11884
  Beta virt. eigenvalues --   -0.07420  -0.06068  -0.05012  -0.04690  -0.03418
  Beta virt. eigenvalues --   -0.02388  -0.02238  -0.01809  -0.01179  -0.00945
  Beta virt. eigenvalues --   -0.00466  -0.00106   0.00128   0.00355   0.00516

 Mulliken charges and spin densities:
               1          2
     1  Na  -0.336785   0.062814
     2  Na   0.504525   0.071515
     3  Na  -0.721984   0.188825
     4  Na   1.522365   0.200736
     5  Na  -0.434972  -0.013530
     6  Na  -0.347990   0.051036
     7  Na  -0.185159   0.438604
 Sum of Mulliken charges =  -0.00000   1.00000

 Dipole moment (field-independent basis, Debye):
    X=              2.8379    Y=             -0.2891    Z=              0.0186  Tot=              2.8526
 Quadrupole moment (field-independent basis, Debye-Ang):
   XX=            -63.9235   YY=            -61.7119   ZZ=            -70.6573
   XY=             -8.8974   XZ=             -0.9477   YZ=             -0.9924

 Normal termination of Gaussian 16 at Tue Nov 28 19:36:06 2023.
