 Gaussian 16, Revision B.01,
 Gaussian 16:  ES64L-G16RevB.01 20-Dec-2017

 -------------------------
 #P B3LYP/6-311+g(d) force
 -------------------------

 -----
 DPGEN
 -----
 Symbolic Z-matrix:
 Charge =  0 Multiplicity = 2

                         Standard orientation:
 ---------------------------------------------------------------------
 Center     Atomic      Atomic             Coordinates (Angstroms)
 Number     Number       Type             X           Y           Z
 ---------------------------------------------------------------------
      1         11           0        2.971919    0.050570   -0.688777
      2         11           0        0.953559    2.723649    0.148349
      3         11           0        0.377509    0.009706    1.997383
      4         11           0       -2.404363    1.836832    0.051670
      5         11           0       -0.317118   -0.093080   -1.697998
      6         11           0       -2.803613   -1.780820   -0.125650
      7         11           0        1.222107   -2.746856    0.315023
 ---------------------------------------------------------------------

 SCF Done:  E(UB3LYP) =  -1136.13891724     A.U. after   19 cycles

 The electronic state is 2-A.
 Alpha  occ. eigenvalues --  -38.44008 -38.43814 -38.43746 -38.43585 -38.43572
 Alpha  occ. eigenvalues --  -38.43341 -38.43124  -2.19799  -2.19652  -2.19608
 Alpha  occ. eigenvalues --   -2.19492  -2.19407  -2.19287  -2.18998  -1.13484
 Alpha  occ. eigenvalues --   -1.13458  -1.13438  -1.13347  -1.13319  -1.13289
 Alpha  occ. eigenvalues --   -1.13274  -1.13261  -1.13252  -1.13170  -1.13148
 Alpha  occ. eigenvalues --   -1.13115  -1.13067  -1.13056  -1.13035  -1.12968
 Alpha  occ. eigenvalues --   -1.12920  -1.12909  -1.12676  -1.12657  -1.12634
 Alpha  occ. eigenvalues --   -0.18565  -0.12983  -0.12390  -0.10857
 Alpha virt. eigenvalues --   -0.05569  -0.05212  -0.04654  -0.03242  -0.02949
 Alpha virt. eigenvalues --   -0.02608  -0.01470  -0.01172  -0.00433  -0.00265
 Alpha virt. eigenvalues --   -0.00005   0.00355   0.00810   0.00859   0.00900

  Beta  occ. eigenvalues --  -38.44009 -38.43811 -38.43724 -38.43563 -38.43495
  Beta  occ. eigenvalues --  -38.43280 -38.43117  -2.19803  -2.19650  -2.19571
  Beta  occ. eigenvalues --   -2.19394  -2.19326  -2.19175  -2.18990  -1.13476
  Beta  occ. eigenvalues --   -1.13460  -1.13439  -1.13342  -1.13307  -1.13272
  Beta  occ. eigenvalues --   -1.13258  -1.13233  -1.13217  -1.13100  -1.13046
  Beta  occ. eigenvalues --   -1.13041  -1.13031  -1.13004  -1.12975  -1.12893
  Beta  occ. eigenvalues --   -1.12845  -1.12821  -1.12668  -1.12641  -1.12617
  Beta  occ. eigenvalues --   -0.17839  -0.12746  -0.12145
  Beta virt. eigenvalues --   -0.06952  -0.05555  -0.05130  -0.04614  -0.02507
  Beta virt. eigenvalues --   -0.02190  -0.01606  -0.01330  -0.01099  -0.00444
  Beta virt. eigenvalues --   -0.00299   0.00120   0.00389   0.00834   0.00898

 Mulliken charges and spin densities:
               1          2
     1  Na   0.175960   0.099148
     2  Na   0.182233   0.009057
     3  Na  -0.281592   0.673036
     4  Na   0.016984  -0.092010
     5  Na  -0.100828   0.472945
     6  Na  -0.016582  -0.117690
     7  Na   0.023826  -0.044485
 Sum of Mulliken charges =  -0.00000   1.00000

 Dipole moment (field-independent basis, Debye):
    X=             -0.2380    Y=             -0.1648    Z=              0.0671  Tot=              0.2972
 Quadrupole moment (field-independent basis, Debye-Ang):
   XX=            -57.8516   YY=            -62.0744   ZZ=            -73.7168
   XY=              0.2352   XZ=             -1.8252   YZ=             -0.2716

 Normal termination of Gaussian 16 at Fri Dec  8 01:14:37 2023.
