 Gaussian 16, Revision B.01,
 Gaussian 16:  ES64L-G16RevB.01 20-Dec-2017

 -------------------------
 #P B3LYP/6-311+g(d) force
 -------------------------

 -----
 DPGEN
 -----
 Symbolic Z-matrix:
 Charge =  0 Multiplicity = 2

                         Standard orientation:
 ---------------------------------------------------------------------
 Center     Atomic      Atomic             Coordinates (Angstroms)
 Number     Number       Type             X           Y           Z
 ---------------------------------------------------------------------
      1         11           0        2.301791    1.158274   -1.237987
      2         11           0       -0.343858   -0.535429   -1.519434
      3         11           0       -0.093188    2.961253    0.604639
      4         11           0        0.688798    0.291569    1.910639
      5         11           0       -3.210478    0.322497   -0.517405
      6         11           0        2.442773   -2.184397    0.180374
      7         11           0       -1.785837   -2.013767    0.579174
 ---------------------------------------------------------------------

 SCF Done:  E(UB3LYP) =  -1136.12760440     A.U. after   19 cycles

 The electronic state is 2-A.
 Alpha  occ. eigenvalues --  -38.44208 -38.43932 -38.43929 -38.43572 -38.43548
 Alpha  occ. eigenvalues --  -38.43545 -38.42959  -2.20092  -2.19865  -2.19815
 Alpha  occ. eigenvalues --   -2.19570  -2.19484  -2.19382  -2.18808  -1.13872
 Alpha  occ. eigenvalues --   -1.13773  -1.13699  -1.13628  -1.13544  -1.13503
 Alpha  occ. eigenvalues --   -1.13453  -1.13436  -1.13414  -1.13232  -1.13200
 Alpha  occ. eigenvalues --   -1.13168  -1.13162  -1.13128  -1.13118  -1.13052
 Alpha  occ. eigenvalues --   -1.13033  -1.13022  -1.12504  -1.12444  -1.12439
 Alpha  occ. eigenvalues --   -0.18769  -0.13460  -0.12027  -0.11271
 Alpha virt. eigenvalues --   -0.05517  -0.04982  -0.04369  -0.03605  -0.02967
 Alpha virt. eigenvalues --   -0.02792  -0.01569  -0.01014  -0.00334   0.00090
 Alpha virt. eigenvalues --    0.00190   0.00356   0.00802   0.00858   0.00907

  Beta  occ. eigenvalues --  -38.44202 -38.43918 -38.43887 -38.43572 -38.43495
  Beta  occ. eigenvalues --  -38.43466 -38.42950  -2.20082  -2.19847  -2.19736
  Beta  occ. eigenvalues --   -2.19476  -2.19385  -2.19339  -2.18794  -1.13865
  Beta  occ. eigenvalues --   -1.13755  -1.13690  -1.13607  -1.13483  -1.13474
  Beta  occ. eigenvalues --   -1.13417  -1.13395  -1.13361  -1.13164  -1.13132
  Beta  occ. eigenvalues --   -1.13102  -1.13071  -1.13064  -1.13035  -1.13022
  Beta  occ. eigenvalues --   -1.13016  -1.12989  -1.12479  -1.12433  -1.12426
  Beta  occ. eigenvalues --   -0.18048  -0.13222  -0.11786
  Beta virt. eigenvalues --   -0.07318  -0.05431  -0.04825  -0.04312  -0.02991
  Beta virt. eigenvalues --   -0.02274  -0.01770  -0.01499  -0.00889  -0.00172
  Beta virt. eigenvalues --    0.00114   0.00240   0.00396   0.00858   0.00900

 Mulliken charges and spin densities:
               1          2
     1  Na   0.049416   0.115197
     2  Na  -0.040048   0.197171
     3  Na  -0.029795   0.049087
     4  Na  -0.133852   0.474021
     5  Na   0.198187  -0.044037
     6  Na  -0.131957   0.014881
     7  Na   0.088049   0.193681
 Sum of Mulliken charges =  -0.00000   1.00000

 Dipole moment (field-independent basis, Debye):
    X=             -0.2168    Y=             -0.1553    Z=             -0.0078  Tot=              0.2668
 Quadrupole moment (field-independent basis, Debye-Ang):
   XX=            -57.3903   YY=            -65.7914   ZZ=            -71.4031
   XY=             -2.0143   XZ=             -1.3435   YZ=             -2.7836

 Normal termination of Gaussian 16 at Mon Dec  4 01:50:48 2023.
