 Gaussian 16, Revision B.01,
 Gaussian 16:  ES64L-G16RevB.01 20-Dec-2017

 -------------------------
 #P B3LYP/6-311+g(d) force
 -------------------------

 -----
 DPGEN
 -----
 Symbolic Z-matrix:
 Charge =  0 Multiplicity = 2

                         Standard orientation:
 ---------------------------------------------------------------------
 Center     Atomic      Atomic             Coordinates (Angstroms)
 Number     Number       Type             X           Y           Z
 ---------------------------------------------------------------------
      1         11           0       -1.775769    2.275580    0.159310
      2         11           0        1.875511   -2.121052   -0.792015
      3         11           0       -3.581663   -1.027079    0.699114
      4         11           0        3.915014    0.495409    0.737855
      5         11           0        0.837999    1.741393   -0.998295
      6         11           0       -1.330039   -0.735722   -1.590184
      7         11           0        0.058947   -0.628529    1.784215
 ---------------------------------------------------------------------

 SCF Done:  E(UB3LYP) =  -1136.12263227     A.U. after   24 cycles

 The electronic state is 2-A.
 Alpha  occ. eigenvalues --  -38.45231 -38.45045 -38.44301 -38.43784 -38.43525
 Alpha  occ. eigenvalues --  -38.43101 -38.42454  -2.21001  -2.20866  -2.20112
 Alpha  occ. eigenvalues --   -2.19612  -2.19467  -2.18998  -2.18388  -1.14669
 Alpha  occ. eigenvalues --   -1.14653  -1.14618  -1.14568  -1.14532  -1.14465
 Alpha  occ. eigenvalues --   -1.13803  -1.13758  -1.13748  -1.13293  -1.13277
 Alpha  occ. eigenvalues --   -1.13234  -1.13157  -1.13111  -1.13082  -1.12754
 Alpha  occ. eigenvalues --   -1.12652  -1.12617  -1.12075  -1.12041  -1.11996
 Alpha  occ. eigenvalues --   -0.18407  -0.13713  -0.11309  -0.11031
 Alpha virt. eigenvalues --   -0.07112  -0.05064  -0.04282  -0.03175  -0.02885
 Alpha virt. eigenvalues --   -0.02495  -0.02318  -0.01027  -0.00892  -0.00284
 Alpha virt. eigenvalues --    0.00070   0.00180   0.00304   0.00688   0.00759

  Beta  occ. eigenvalues --  -38.45198 -38.45010 -38.44293 -38.43754 -38.43467
  Beta  occ. eigenvalues --  -38.43099 -38.42437  -2.20939  -2.20801  -2.20097
  Beta  occ. eigenvalues --   -2.19560  -2.19363  -2.18997  -2.18361  -1.14623
  Beta  occ. eigenvalues --   -1.14611  -1.14579  -1.14519  -1.14483  -1.14415
  Beta  occ. eigenvalues --   -1.13794  -1.13746  -1.13731  -1.13260  -1.13231
  Beta  occ. eigenvalues --   -1.13184  -1.13087  -1.13024  -1.13003  -1.12752
  Beta  occ. eigenvalues --   -1.12638  -1.12617  -1.12061  -1.12000  -1.11973
  Beta  occ. eigenvalues --   -0.17706  -0.13452  -0.11113
  Beta virt. eigenvalues --   -0.07300  -0.06800  -0.04929  -0.03859  -0.03018
  Beta virt. eigenvalues --   -0.02509  -0.01949  -0.01558  -0.00913  -0.00583
  Beta virt. eigenvalues --   -0.00217   0.00109   0.00225   0.00424   0.00761

 Mulliken charges and spin densities:
               1          2
     1  Na   0.080939   0.049858
     2  Na   0.011041   0.103624
     3  Na   0.176795   0.162568
     4  Na   0.245202   0.132790
     5  Na  -0.409412   0.088608
     6  Na   0.233898   0.145891
     7  Na  -0.338463   0.316660
 Sum of Mulliken charges =  -0.00000   1.00000

 Dipole moment (field-independent basis, Debye):
    X=              0.5008    Y=             -0.2641    Z=              0.5308  Tot=              0.7761
 Quadrupole moment (field-independent basis, Debye-Ang):
   XX=            -48.8709   YY=            -75.5591   ZZ=            -69.4647
   XY=             -0.1430   XZ=             -0.1146   YZ=              2.6421

 Normal termination of Gaussian 16 at Tue Dec  5 18:26:42 2023.
