 Gaussian 16, Revision B.01,
 Gaussian 16:  ES64L-G16RevB.01 20-Dec-2017

 -------------------------
 #P B3LYP/6-311+g(d) force
 -------------------------

 -----
 DPGEN
 -----
 Symbolic Z-matrix:
 Charge =  0 Multiplicity = 2

                         Standard orientation:
 ---------------------------------------------------------------------
 Center     Atomic      Atomic             Coordinates (Angstroms)
 Number     Number       Type             X           Y           Z
 ---------------------------------------------------------------------
      1         11           0       -1.424521    2.831640   -0.164984
      2         11           0        1.067196   -2.398357   -0.423461
      3         11           0        1.471428    2.339558    0.135746
      4         11           0       -2.477192   -2.587096    0.486622
      5         11           0        3.900044   -0.653169   -0.677244
      6         11           0       -2.442450    0.283830   -1.671543
      7         11           0       -0.094506    0.183594    2.314864
 ---------------------------------------------------------------------

 SCF Done:  E(UB3LYP) =  -1136.12304932     A.U. after   19 cycles

 The electronic state is 2-A.
 Alpha  occ. eigenvalues --  -38.44795 -38.44316 -38.44277 -38.44142 -38.44085
 Alpha  occ. eigenvalues --  -38.43749 -38.43699  -2.20612  -2.20163  -2.20103
 Alpha  occ. eigenvalues --   -2.19920  -2.19873  -2.19643  -2.19489  -1.14269
 Alpha  occ. eigenvalues --   -1.14252  -1.14219  -1.13894  -1.13830  -1.13801
 Alpha  occ. eigenvalues --   -1.13790  -1.13759  -1.13718  -1.13590  -1.13578
 Alpha  occ. eigenvalues --   -1.13568  -1.13567  -1.13555  -1.13493  -1.13304
 Alpha  occ. eigenvalues --   -1.13296  -1.13261  -1.13149  -1.13142  -1.13120
 Alpha  occ. eigenvalues --   -0.17395  -0.13058  -0.12809  -0.11009
 Alpha virt. eigenvalues --   -0.05976  -0.05613  -0.04887  -0.03512  -0.03360
 Alpha virt. eigenvalues --   -0.02402  -0.01602  -0.01313  -0.00851  -0.00519
 Alpha virt. eigenvalues --   -0.00193   0.00310   0.00490   0.00513   0.00754

  Beta  occ. eigenvalues --  -38.44695 -38.44314 -38.44219 -38.44141 -38.44082
  Beta  occ. eigenvalues --  -38.43739 -38.43672  -2.20427  -2.20163  -2.19998
  Beta  occ. eigenvalues --   -2.19920  -2.19869  -2.19629  -2.19440  -1.14146
  Beta  occ. eigenvalues --   -1.14131  -1.14083  -1.13902  -1.13814  -1.13791
  Beta  occ. eigenvalues --   -1.13723  -1.13688  -1.13646  -1.13591  -1.13567
  Beta  occ. eigenvalues --   -1.13564  -1.13560  -1.13552  -1.13480  -1.13301
  Beta  occ. eigenvalues --   -1.13282  -1.13224  -1.13113  -1.13107  -1.13090
  Beta  occ. eigenvalues --   -0.16759  -0.12817  -0.12404
  Beta virt. eigenvalues --   -0.07440  -0.05753  -0.05419  -0.04621  -0.02923
  Beta virt. eigenvalues --   -0.02729  -0.01790  -0.01522  -0.01178  -0.00791
  Beta virt. eigenvalues --   -0.00460   0.00050   0.00400   0.00638   0.00716

 Mulliken charges and spin densities:
               1          2
     1  Na   0.258316   0.216129
     2  Na  -0.502532   0.186021
     3  Na  -0.155219   0.077280
     4  Na   0.278664   0.139568
     5  Na   0.272388   0.016807
     6  Na  -0.158131   0.099612
     7  Na   0.006515   0.264582
 Sum of Mulliken charges =  -0.00000   1.00000

 Dipole moment (field-independent basis, Debye):
    X=             -0.2963    Y=             -0.0135    Z=              0.3509  Tot=              0.4595
 Quadrupole moment (field-independent basis, Debye-Ang):
   XX=            -63.5252   YY=            -64.7988   ZZ=            -70.8188
   XY=              4.3353   XZ=             -1.4435   YZ=             -0.5049

 Normal termination of Gaussian 16 at Sun Dec  3 12:54:00 2023.
