 Gaussian 16, Revision B.01,
 Gaussian 16:  ES64L-G16RevB.01 20-Dec-2017

 -------------------------
 #P B3LYP/6-311+g(d) force
 -------------------------

 -----
 DPGEN
 -----
 Symbolic Z-matrix:
 Charge =  0 Multiplicity = 2

                         Standard orientation:
 ---------------------------------------------------------------------
 Center     Atomic      Atomic             Coordinates (Angstroms)
 Number     Number       Type             X           Y           Z
 ---------------------------------------------------------------------
      1         11           0       -0.225667    0.025551    2.055120
      2         11           0       -3.821668    1.230026    0.571319
      3         11           0       -2.847828   -1.867100   -0.267265
      4         11           0        1.242491   -1.231762   -1.045511
      5         11           0        3.820848   -0.995427    0.625267
      6         11           0       -0.895208    0.833213   -1.679499
      7         11           0        2.727032    2.005499   -0.259431
 ---------------------------------------------------------------------

 SCF Done:  E(UB3LYP) =  -1136.10470114     A.U. after   33 cycles

 The electronic state is 2-A.
 Alpha  occ. eigenvalues --  -38.46168 -38.45456 -38.44899 -38.44643 -38.44398
 Alpha  occ. eigenvalues --  -38.42581 -38.42484  -2.21900  -2.21260  -2.20719
 Alpha  occ. eigenvalues --   -2.20492  -2.20195  -2.18540  -2.18385  -1.15607
 Alpha  occ. eigenvalues --   -1.15590  -1.15494  -1.14951  -1.14910  -1.14866
 Alpha  occ. eigenvalues --   -1.14396  -1.14368  -1.14340  -1.14192  -1.14135
 Alpha  occ. eigenvalues --   -1.14105  -1.13869  -1.13860  -1.13821  -1.12307
 Alpha  occ. eigenvalues --   -1.12211  -1.12160  -1.12060  -1.12013  -1.11999
 Alpha  occ. eigenvalues --   -0.18054  -0.14598  -0.10908  -0.10169
 Alpha virt. eigenvalues --   -0.07688  -0.06469  -0.04314  -0.03206  -0.02947
 Alpha virt. eigenvalues --   -0.02360  -0.02172  -0.01744  -0.01011  -0.00803
 Alpha virt. eigenvalues --   -0.00095   0.00058   0.00290   0.00398   0.00455

  Beta  occ. eigenvalues --  -38.46157 -38.45432 -38.44845 -38.44620 -38.44387
  Beta  occ. eigenvalues --  -38.42560 -38.42465  -2.21882  -2.21214  -2.20618
  Beta  occ. eigenvalues --   -2.20450  -2.20176  -2.18505  -2.18350  -1.15585
  Beta  occ. eigenvalues --   -1.15567  -1.15484  -1.14914  -1.14879  -1.14836
  Beta  occ. eigenvalues --   -1.14325  -1.14304  -1.14264  -1.14159  -1.14097
  Beta  occ. eigenvalues --   -1.14077  -1.13853  -1.13846  -1.13808  -1.12277
  Beta  occ. eigenvalues --   -1.12178  -1.12131  -1.12035  -1.11984  -1.11957
  Beta  occ. eigenvalues --   -0.17445  -0.14362  -0.10055
  Beta virt. eigenvalues --   -0.07535  -0.07358  -0.05585  -0.04181  -0.03091
  Beta virt. eigenvalues --   -0.02675  -0.01869  -0.01590  -0.01213  -0.00847
  Beta virt. eigenvalues --   -0.00581  -0.00068   0.00174   0.00296   0.00461

 Mulliken charges and spin densities:
               1          2
     1  Na  -0.432018   0.091108
     2  Na   0.274335  -0.067444
     3  Na   0.213349   0.054624
     4  Na  -0.237646   0.302436
     5  Na   0.501615   0.007427
     6  Na  -0.337156   0.470610
     7  Na   0.017522   0.141239
 Sum of Mulliken charges =  -0.00000   1.00000

 Dipole moment (field-independent basis, Debye):
    X=             -0.2219    Y=             -0.3052    Z=             -0.0009  Tot=              0.3773
 Quadrupole moment (field-independent basis, Debye-Ang):
   XX=            -52.9772   YY=            -64.9517   ZZ=            -80.4603
   XY=              2.7052   XZ=              2.5431   YZ=             -2.7675

 Normal termination of Gaussian 16 at Tue Dec  5 16:18:01 2023.
