 Gaussian 16, Revision B.01,
 Gaussian 16:  ES64L-G16RevB.01 20-Dec-2017

 -------------------------
 #P B3LYP/6-311+g(d) force
 -------------------------

 -----
 DPGEN
 -----
 Symbolic Z-matrix:
 Charge =  0 Multiplicity = 2

                         Standard orientation:
 ---------------------------------------------------------------------
 Center     Atomic      Atomic             Coordinates (Angstroms)
 Number     Number       Type             X           Y           Z
 ---------------------------------------------------------------------
      1         11           0        0.266475   -1.939462    0.800942
      2         11           0        3.242074   -2.748026   -0.274456
      3         11           0        3.954879    0.474123   -0.579589
      4         11           0        0.027646    1.095395   -0.639229
      5         11           0       -3.338100   -0.170427    0.777507
      6         11           0        2.189011    3.259502    0.590960
      7         11           0       -6.341986    0.028895   -0.676134
 ---------------------------------------------------------------------

 SCF Done:  E(UB3LYP) =  -1136.12128500     A.U. after   20 cycles

 The electronic state is 2-A.
 Alpha  occ. eigenvalues --  -38.44830 -38.44734 -38.44482 -38.44193 -38.43858
 Alpha  occ. eigenvalues --  -38.43560 -38.43345  -2.20629  -2.20556  -2.20323
 Alpha  occ. eigenvalues --   -2.20023  -2.19634  -2.19371  -2.19180  -1.14262
 Alpha  occ. eigenvalues --   -1.14262  -1.14250  -1.14242  -1.14212  -1.14165
 Alpha  occ. eigenvalues --   -1.14018  -1.14008  -1.13919  -1.13708  -1.13697
 Alpha  occ. eigenvalues --   -1.13629  -1.13326  -1.13323  -1.13276  -1.13038
 Alpha  occ. eigenvalues --   -1.13033  -1.13007  -1.12845  -1.12835  -1.12826
 Alpha  occ. eigenvalues --   -0.16794  -0.13946  -0.12152  -0.11662
 Alpha virt. eigenvalues --   -0.05877  -0.05512  -0.04755  -0.03733  -0.02792
 Alpha virt. eigenvalues --   -0.02214  -0.02145  -0.01847  -0.00968  -0.00806
 Alpha virt. eigenvalues --   -0.00235  -0.00019   0.00119   0.00286   0.00679

  Beta  occ. eigenvalues --  -38.44731 -38.44685 -38.44448 -38.44161 -38.43868
  Beta  occ. eigenvalues --  -38.43558 -38.43333  -2.20466  -2.20444  -2.20262
  Beta  occ. eigenvalues --   -2.19966  -2.19660  -2.19368  -2.19158  -1.14182
  Beta  occ. eigenvalues --   -1.14155  -1.14136  -1.14136  -1.14128  -1.14091
  Beta  occ. eigenvalues --   -1.13974  -1.13969  -1.13869  -1.13668  -1.13659
  Beta  occ. eigenvalues --   -1.13585  -1.13351  -1.13347  -1.13236  -1.13033
  Beta  occ. eigenvalues --   -1.13031  -1.13005  -1.12822  -1.12820  -1.12812
  Beta  occ. eigenvalues --   -0.16204  -0.12970  -0.12122
  Beta virt. eigenvalues --   -0.08223  -0.05498  -0.05121  -0.04416  -0.03530
  Beta virt. eigenvalues --   -0.02481  -0.01928  -0.01739  -0.01621  -0.00785
  Beta virt. eigenvalues --   -0.00432  -0.00121   0.00148   0.00262   0.00413

 Mulliken charges and spin densities:
               1          2
     1  Na  -0.151699   0.016211
     2  Na   0.423444   0.113808
     3  Na  -0.074069   0.331275
     4  Na  -1.014331  -0.044545
     5  Na   0.054666   0.097050
     6  Na   0.670951   0.067117
     7  Na   0.091039   0.419085
 Sum of Mulliken charges =  -0.00000   1.00000

 Dipole moment (field-independent basis, Debye):
    X=              0.0922    Y=              0.3023    Z=             -0.1064  Tot=              0.3335
 Quadrupole moment (field-independent basis, Debye-Ang):
   XX=            -58.4489   YY=            -68.8645   ZZ=            -68.3030
   XY=              0.4841   XZ=              2.2595   YZ=              0.9999

 Normal termination of Gaussian 16 at Tue Nov 28 23:30:30 2023.
