 Gaussian 16, Revision B.01,
 Gaussian 16:  ES64L-G16RevB.01 20-Dec-2017

 -------------------------
 #P B3LYP/6-311+g(d) force
 -------------------------

 -----
 DPGEN
 -----
 Symbolic Z-matrix:
 Charge =  0 Multiplicity = 2

                         Standard orientation:
 ---------------------------------------------------------------------
 Center     Atomic      Atomic             Coordinates (Angstroms)
 Number     Number       Type             X           Y           Z
 ---------------------------------------------------------------------
      1         11           0       -0.682807   -2.814182   -0.029475
      2         11           0       -3.280453   -0.432233   -0.211021
      3         11           0       -1.253310    2.743247    0.032991
      4         11           0        2.819094   -1.586977   -0.070854
      5         11           0        0.090452    0.074562    2.268829
      6         11           0        0.038586    0.002895   -1.721532
      7         11           0        2.268438    2.012689   -0.268938
 ---------------------------------------------------------------------

 SCF Done:  E(UB3LYP) =  -1136.13889450     A.U. after   18 cycles

 The electronic state is 2-A.
 Alpha  occ. eigenvalues --  -38.44032 -38.43995 -38.43870 -38.43710 -38.43527
 Alpha  occ. eigenvalues --  -38.43436 -38.43433  -2.19832  -2.19824  -2.19671
 Alpha  occ. eigenvalues --   -2.19543  -2.19370  -2.19345  -2.19268  -1.13499
 Alpha  occ. eigenvalues --   -1.13486  -1.13478  -1.13471  -1.13458  -1.13452
 Alpha  occ. eigenvalues --   -1.13345  -1.13331  -1.13318  -1.13243  -1.13204
 Alpha  occ. eigenvalues --   -1.13169  -1.13064  -1.13046  -1.13016  -1.13006
 Alpha  occ. eigenvalues --   -1.12979  -1.12976  -1.12939  -1.12934  -1.12888
 Alpha  occ. eigenvalues --   -0.18218  -0.12705  -0.12394  -0.10884
 Alpha virt. eigenvalues --   -0.05573  -0.05316  -0.04777  -0.03079  -0.03002
 Alpha virt. eigenvalues --   -0.02868  -0.01529  -0.01177  -0.00489  -0.00423
 Alpha virt. eigenvalues --   -0.00061   0.00351   0.00752   0.00861   0.00874

  Beta  occ. eigenvalues --  -38.44031 -38.43888 -38.43869 -38.43704 -38.43524
  Beta  occ. eigenvalues --  -38.43429 -38.43376  -2.19824  -2.19672  -2.19633
  Beta  occ. eigenvalues --   -2.19535  -2.19343  -2.19264  -2.19261  -1.13485
  Beta  occ. eigenvalues --   -1.13481  -1.13473  -1.13353  -1.13334  -1.13330
  Beta  occ. eigenvalues --   -1.13319  -1.13319  -1.13307  -1.13227  -1.13184
  Beta  occ. eigenvalues --   -1.13167  -1.13027  -1.13000  -1.12994  -1.12978
  Beta  occ. eigenvalues --   -1.12957  -1.12920  -1.12905  -1.12897  -1.12887
  Beta  occ. eigenvalues --   -0.17488  -0.12508  -0.12195
  Beta virt. eigenvalues --   -0.06920  -0.05543  -0.05340  -0.04668  -0.02342
  Beta virt. eigenvalues --   -0.02213  -0.01784  -0.01444  -0.01109  -0.00545
  Beta virt. eigenvalues --   -0.00477   0.00100   0.00377   0.00836   0.00845

 Mulliken charges and spin densities:
               1          2
     1  Na   0.108817  -0.047872
     2  Na   0.076127  -0.058313
     3  Na   0.103610  -0.047350
     4  Na   0.115157  -0.053540
     5  Na  -0.562934   0.807947
     6  Na  -0.058170   0.441526
     7  Na   0.217393  -0.042398
 Sum of Mulliken charges =  -0.00000   1.00000

 Dipole moment (field-independent basis, Debye):
    X=              0.0073    Y=              0.0150    Z=              0.1046  Tot=              0.1060
 Quadrupole moment (field-independent basis, Debye-Ang):
   XX=            -57.0263   YY=            -63.2059   ZZ=            -73.7816
   XY=             -0.4686   XZ=             -0.0320   YZ=             -0.1838

 Normal termination of Gaussian 16 at Thu Dec  7 06:09:35 2023.
