 Gaussian 16, Revision B.01,
 Gaussian 16:  ES64L-G16RevB.01 20-Dec-2017

 -------------------------
 #P B3LYP/6-311+g(d) force
 -------------------------

 -----
 DPGEN
 -----
 Symbolic Z-matrix:
 Charge =  0 Multiplicity = 2

                         Standard orientation:
 ---------------------------------------------------------------------
 Center     Atomic      Atomic             Coordinates (Angstroms)
 Number     Number       Type             X           Y           Z
 ---------------------------------------------------------------------
      1         11           0       -3.139188    1.191165   -0.019913
      2         11           0        0.787552    3.006304   -0.348355
      3         11           0        0.119288   -0.263600   -1.344337
      4         11           0       -0.046909    0.080716    1.929383
      5         11           0        3.103663    0.533868    0.038590
      6         11           0        2.085393   -2.699621   -0.080103
      7         11           0       -2.909798   -1.848831   -0.175264
 ---------------------------------------------------------------------

 SCF Done:  E(UB3LYP) =  -1136.12894429     A.U. after   21 cycles

 The electronic state is 2-A.
 Alpha  occ. eigenvalues --  -38.44797 -38.44517 -38.44489 -38.43490 -38.43377
 Alpha  occ. eigenvalues --  -38.43232 -38.42918  -2.20622  -2.20352  -2.20343
 Alpha  occ. eigenvalues --   -2.19333  -2.19307  -2.19117  -2.18746  -1.14340
 Alpha  occ. eigenvalues --   -1.14281  -1.14260  -1.14035  -1.14021  -1.13997
 Alpha  occ. eigenvalues --   -1.13987  -1.13980  -1.13979  -1.13072  -1.13008
 Alpha  occ. eigenvalues --   -1.12970  -1.12961  -1.12956  -1.12922  -1.12800
 Alpha  occ. eigenvalues --   -1.12728  -1.12723  -1.12417  -1.12403  -1.12393
 Alpha  occ. eigenvalues --   -0.18285  -0.13826  -0.11815  -0.10022
 Alpha virt. eigenvalues --   -0.06294  -0.05768  -0.04556  -0.03328  -0.02265
 Alpha virt. eigenvalues --   -0.02143  -0.02019  -0.01452  -0.00865  -0.00575
 Alpha virt. eigenvalues --   -0.00014   0.00288   0.00643   0.00719   0.00823

  Beta  occ. eigenvalues --  -38.44794 -38.44512 -38.44484 -38.43490 -38.43334
  Beta  occ. eigenvalues --  -38.43129 -38.42911  -2.20619  -2.20345  -2.20337
  Beta  occ. eigenvalues --   -2.19309  -2.19257  -2.18929  -2.18736  -1.14342
  Beta  occ. eigenvalues --   -1.14266  -1.14252  -1.14028  -1.13993  -1.13988
  Beta  occ. eigenvalues --   -1.13982  -1.13979  -1.13967  -1.13008  -1.12985
  Beta  occ. eigenvalues --   -1.12970  -1.12943  -1.12908  -1.12884  -1.12674
  Beta  occ. eigenvalues --   -1.12596  -1.12588  -1.12405  -1.12399  -1.12372
  Beta  occ. eigenvalues --   -0.17599  -0.13616  -0.11617
  Beta virt. eigenvalues --   -0.06206  -0.06161  -0.05747  -0.04533  -0.02584
  Beta virt. eigenvalues --   -0.02031  -0.01646  -0.01393  -0.01049  -0.00866
  Beta virt. eigenvalues --   -0.00558   0.00168   0.00341   0.00703   0.00739

 Mulliken charges and spin densities:
               1          2
     1  Na   0.190032   0.028771
     2  Na  -0.109249   0.002162
     3  Na  -0.287103   0.218805
     4  Na  -0.378824   0.674619
     5  Na   0.383068   0.078940
     6  Na   0.070553  -0.016640
     7  Na   0.131523   0.013342
 Sum of Mulliken charges =  -0.00000   1.00000

 Dipole moment (field-independent basis, Debye):
    X=             -0.5111    Y=             -0.1557    Z=              0.1383  Tot=              0.5519
 Quadrupole moment (field-independent basis, Debye-Ang):
   XX=            -51.5004   YY=            -62.1145   ZZ=            -78.5351
   XY=             -0.3750   XZ=              0.7676   YZ=             -0.4514

 Normal termination of Gaussian 16 at Tue Dec  5 11:35:16 2023.
