 Gaussian 16, Revision B.01,
 Gaussian 16:  ES64L-G16RevB.01 20-Dec-2017

 -------------------------
 #P B3LYP/6-311+g(d) force
 -------------------------

 -----
 DPGEN
 -----
 Symbolic Z-matrix:
 Charge =  0 Multiplicity = 2

                         Standard orientation:
 ---------------------------------------------------------------------
 Center     Atomic      Atomic             Coordinates (Angstroms)
 Number     Number       Type             X           Y           Z
 ---------------------------------------------------------------------
      1         11           0       -3.433092   -1.869124    0.444182
      2         11           0       -0.035947   -0.076067    1.971585
      3         11           0       -1.232448   -0.597082   -1.498390
      4         11           0       -2.158284    2.519749    0.036925
      5         11           0        1.228175    2.205365   -0.855331
      6         11           0        2.065722   -2.238446   -0.821394
      7         11           0        3.565875    0.055606    0.722422
 ---------------------------------------------------------------------

 SCF Done:  E(UB3LYP) =  -1136.12450957     A.U. after   22 cycles

 The electronic state is 2-A.
 Alpha  occ. eigenvalues --  -38.44463 -38.44415 -38.44307 -38.44218 -38.44154
 Alpha  occ. eigenvalues --  -38.43547 -38.43298  -2.20296  -2.20231  -2.20084
 Alpha  occ. eigenvalues --   -2.20032  -2.19942  -2.19368  -2.19186  -1.13990
 Alpha  occ. eigenvalues --   -1.13956  -1.13940  -1.13912  -1.13870  -1.13839
 Alpha  occ. eigenvalues --   -1.13770  -1.13739  -1.13725  -1.13686  -1.13684
 Alpha  occ. eigenvalues --   -1.13666  -1.13620  -1.13599  -1.13581  -1.13048
 Alpha  occ. eigenvalues --   -1.13036  -1.12991  -1.12875  -1.12837  -1.12807
 Alpha  occ. eigenvalues --   -0.17793  -0.13497  -0.11651  -0.10562
 Alpha virt. eigenvalues --   -0.06544  -0.05920  -0.04369  -0.03370  -0.02691
 Alpha virt. eigenvalues --   -0.02433  -0.02104  -0.01526  -0.00823  -0.00295
 Alpha virt. eigenvalues --   -0.00038   0.00218   0.00340   0.00600   0.00687

  Beta  occ. eigenvalues --  -38.44456 -38.44336 -38.44311 -38.44193 -38.44155
  Beta  occ. eigenvalues --  -38.43531 -38.43255  -2.20284  -2.20093  -2.20085
  Beta  occ. eigenvalues --   -2.19985  -2.19947  -2.19341  -2.19108  -1.13982
  Beta  occ. eigenvalues --   -1.13946  -1.13918  -1.13811  -1.13774  -1.13771
  Beta  occ. eigenvalues --   -1.13746  -1.13733  -1.13722  -1.13654  -1.13644
  Beta  occ. eigenvalues --   -1.13632  -1.13613  -1.13602  -1.13582  -1.13028
  Beta  occ. eigenvalues --   -1.13000  -1.12976  -1.12825  -1.12770  -1.12750
  Beta  occ. eigenvalues --   -0.17092  -0.13392  -0.11456
  Beta virt. eigenvalues --   -0.06824  -0.06298  -0.05838  -0.04004  -0.02988
  Beta virt. eigenvalues --   -0.02165  -0.01975  -0.01490  -0.01402  -0.00687
  Beta virt. eigenvalues --   -0.00160   0.00018   0.00256   0.00477   0.00674

 Mulliken charges and spin densities:
               1          2
     1  Na   0.132187   0.021864
     2  Na  -0.370591   0.560175
     3  Na  -0.060777   0.120226
     4  Na   0.193224  -0.064240
     5  Na  -0.193794   0.109490
     6  Na  -0.162920   0.153094
     7  Na   0.462670   0.099391
 Sum of Mulliken charges =  -0.00000   1.00000

 Dipole moment (field-independent basis, Debye):
    X=             -0.0235    Y=              0.1727    Z=              0.3752  Tot=              0.4138
 Quadrupole moment (field-independent basis, Debye-Ang):
   XX=            -51.2368   YY=            -68.9937   ZZ=            -73.8390
   XY=             -0.5041   XZ=             -1.3830   YZ=             -0.1375

 Normal termination of Gaussian 16 at Thu Dec  7 20:33:43 2023.
