 Gaussian 16, Revision B.01,
 Gaussian 16:  ES64L-G16RevB.01 20-Dec-2017

 -------------------------
 #P B3LYP/6-311+g(d) force
 -------------------------

 -----
 DPGEN
 -----
 Symbolic Z-matrix:
 Charge =  0 Multiplicity = 2

                         Standard orientation:
 ---------------------------------------------------------------------
 Center     Atomic      Atomic             Coordinates (Angstroms)
 Number     Number       Type             X           Y           Z
 ---------------------------------------------------------------------
      1         11           0       -2.363345   -1.759208   -0.274820
      2         11           0        1.024471   -2.924883    0.026038
      3         11           0        2.994461    0.199474    0.208634
      4         11           0       -0.148092   -0.064893    2.006449
      5         11           0        0.372126   -0.017983   -1.882942
      6         11           0       -2.664910    1.550112    0.068872
      7         11           0        0.785289    3.017380   -0.152232
 ---------------------------------------------------------------------

 SCF Done:  E(UB3LYP) =  -1136.14128228     A.U. after   19 cycles

 The electronic state is 2-A.
 Alpha  occ. eigenvalues --  -38.43780 -38.43710 -38.43642 -38.43612 -38.43603
 Alpha  occ. eigenvalues --  -38.43542 -38.43503  -2.19619  -2.19528  -2.19519
 Alpha  occ. eigenvalues --   -2.19437  -2.19429  -2.19413  -2.19390  -1.13311
 Alpha  occ. eigenvalues --   -1.13295  -1.13250  -1.13204  -1.13201  -1.13182
 Alpha  occ. eigenvalues --   -1.13161  -1.13157  -1.13155  -1.13122  -1.13120
 Alpha  occ. eigenvalues --   -1.13102  -1.13093  -1.13082  -1.13077  -1.13071
 Alpha  occ. eigenvalues --   -1.13063  -1.13045  -1.13034  -1.13021  -1.13003
 Alpha  occ. eigenvalues --   -0.18436  -0.12786  -0.12518  -0.10825
 Alpha virt. eigenvalues --   -0.05393  -0.05121  -0.05028  -0.03201  -0.03007
 Alpha virt. eigenvalues --   -0.02697  -0.01279  -0.01233  -0.00445  -0.00379
 Alpha virt. eigenvalues --   -0.00033   0.00385   0.00839   0.00861   0.00879

  Beta  occ. eigenvalues --  -38.43774 -38.43707 -38.43609 -38.43601 -38.43555
  Beta  occ. eigenvalues --  -38.43536 -38.43428  -2.19611  -2.19518  -2.19435
  Beta  occ. eigenvalues --   -2.19428  -2.19382  -2.19366  -2.19275  -1.13302
  Beta  occ. eigenvalues --   -1.13266  -1.13247  -1.13190  -1.13171  -1.13159
  Beta  occ. eigenvalues --   -1.13134  -1.13117  -1.13094  -1.13090  -1.13081
  Beta  occ. eigenvalues --   -1.13074  -1.13071  -1.13050  -1.13040  -1.13023
  Beta  occ. eigenvalues --   -1.13019  -1.13002  -1.12989  -1.12945  -1.12926
  Beta  occ. eigenvalues --   -0.17688  -0.12566  -0.12302
  Beta virt. eigenvalues --   -0.06927  -0.05415  -0.05140  -0.04870  -0.02403
  Beta virt. eigenvalues --   -0.02245  -0.01657  -0.01199  -0.01145  -0.00504
  Beta virt. eigenvalues --   -0.00439   0.00106   0.00400   0.00853   0.00879

 Mulliken charges and spin densities:
               1          2
     1  Na   0.100122  -0.061851
     2  Na   0.144826  -0.092465
     3  Na   0.167078  -0.090113
     4  Na  -0.322620   0.764174
     5  Na  -0.195122   0.683807
     6  Na   0.052804  -0.089019
     7  Na   0.052912  -0.114534
 Sum of Mulliken charges =  -0.00000   1.00000

 Dipole moment (field-independent basis, Debye):
    X=              0.1477    Y=              0.0310    Z=              0.0427  Tot=              0.1568
 Quadrupole moment (field-independent basis, Debye-Ang):
   XX=            -60.4853   YY=            -59.9792   ZZ=            -73.6008
   XY=             -0.3512   XZ=              1.1296   YZ=              0.1088

 Normal termination of Gaussian 16 at Wed Nov 29 15:37:32 2023.
