 Gaussian 16, Revision B.01,
 Gaussian 16:  ES64L-G16RevB.01 20-Dec-2017

 -------------------------
 #P B3LYP/6-311+g(d) force
 -------------------------

 -----
 DPGEN
 -----
 Symbolic Z-matrix:
 Charge =  0 Multiplicity = 2

                         Standard orientation:
 ---------------------------------------------------------------------
 Center     Atomic      Atomic             Coordinates (Angstroms)
 Number     Number       Type             X           Y           Z
 ---------------------------------------------------------------------
      1         11           0       -0.518466   -2.685521   -1.222860
      2         11           0        1.148035   -2.834861    1.507484
      3         11           0       -4.052070   -0.908840   -0.771390
      4         11           0        3.359928   -0.969984    0.114242
      5         11           0       -3.294673    1.990737    1.128514
      6         11           0        0.118382    3.050779   -0.093707
      7         11           0        3.238864    2.357690   -0.662284
 ---------------------------------------------------------------------

 SCF Done:  E(UB3LYP) =  -1136.11053639     A.U. after   23 cycles

 The electronic state is 2-A.
 Alpha  occ. eigenvalues --  -38.45393 -38.45110 -38.45035 -38.44489 -38.44094
 Alpha  occ. eigenvalues --  -38.43795 -38.43253  -2.21198  -2.20890  -2.20800
 Alpha  occ. eigenvalues --   -2.20243  -2.19946  -2.19577  -2.19087  -1.14892
 Alpha  occ. eigenvalues --   -1.14860  -1.14828  -1.14589  -1.14563  -1.14496
 Alpha  occ. eigenvalues --   -1.14488  -1.14478  -1.14428  -1.13924  -1.13900
 Alpha  occ. eigenvalues --   -1.13877  -1.13612  -1.13592  -1.13576  -1.13244
 Alpha  occ. eigenvalues --   -1.13226  -1.13209  -1.12748  -1.12734  -1.12733
 Alpha  occ. eigenvalues --   -0.16107  -0.13537  -0.13377  -0.10296
 Alpha virt. eigenvalues --   -0.07448  -0.05331  -0.04359  -0.03762  -0.03332
 Alpha virt. eigenvalues --   -0.02319  -0.01816  -0.01468  -0.01284  -0.01082
 Alpha virt. eigenvalues --   -0.00558  -0.00033   0.00044   0.00474   0.00623

  Beta  occ. eigenvalues --  -38.45370 -38.45082 -38.45021 -38.44468 -38.44064
  Beta  occ. eigenvalues --  -38.43754 -38.43223  -2.21161  -2.20840  -2.20778
  Beta  occ. eigenvalues --   -2.20205  -2.19892  -2.19503  -2.19031  -1.14863
  Beta  occ. eigenvalues --   -1.14841  -1.14776  -1.14557  -1.14531  -1.14477
  Beta  occ. eigenvalues --   -1.14467  -1.14440  -1.14384  -1.13899  -1.13876
  Beta  occ. eigenvalues --   -1.13837  -1.13566  -1.13559  -1.13538  -1.13194
  Beta  occ. eigenvalues --   -1.13176  -1.13154  -1.12711  -1.12696  -1.12694
  Beta  occ. eigenvalues --   -0.15683  -0.13016  -0.12890
  Beta virt. eigenvalues --   -0.07470  -0.06973  -0.04917  -0.03885  -0.03603
  Beta virt. eigenvalues --   -0.02870  -0.02186  -0.01619  -0.01287  -0.00986
  Beta virt. eigenvalues --   -0.00968  -0.00248   0.00215   0.00285   0.00490

 Mulliken charges and spin densities:
               1          2
     1  Na  -0.095397   0.196849
     2  Na   0.347098   0.153023
     3  Na   0.044566   0.090657
     4  Na  -0.314148   0.119723
     5  Na  -0.052781   0.094118
     6  Na  -0.409169   0.137037
     7  Na   0.479831   0.208593
 Sum of Mulliken charges =  -0.00000   1.00000

 Dipole moment (field-independent basis, Debye):
    X=              0.7201    Y=             -0.8568    Z=              0.1371  Tot=              1.1276
 Quadrupole moment (field-independent basis, Debye-Ang):
   XX=            -62.5072   YY=            -70.6858   ZZ=            -69.1240
   XY=             -1.1709   XZ=             -1.6305   YZ=             -0.9639

 Normal termination of Gaussian 16 at Sun Dec  3 21:13:04 2023.
