 Gaussian 16, Revision B.01,
 Gaussian 16:  ES64L-G16RevB.01 20-Dec-2017

 -------------------------
 #P B3LYP/6-311+g(d) force
 -------------------------

 -----
 DPGEN
 -----
 Symbolic Z-matrix:
 Charge =  0 Multiplicity = 2

                         Standard orientation:
 ---------------------------------------------------------------------
 Center     Atomic      Atomic             Coordinates (Angstroms)
 Number     Number       Type             X           Y           Z
 ---------------------------------------------------------------------
      1         11           0       -0.255150   -0.480430    2.081494
      2         11           0       -0.180085    2.508417   -0.741245
      3         11           0        2.130817   -2.464981    0.307252
      4         11           0        0.437102   -0.651295   -2.038467
      5         11           0       -2.387261   -1.772228   -0.560577
      6         11           0        2.961270    1.654566    0.330139
      7         11           0       -2.706693    1.205950    0.621404
 ---------------------------------------------------------------------

 SCF Done:  E(UB3LYP) =  -1136.12901910     A.U. after   20 cycles

 The electronic state is 2-A.
 Alpha  occ. eigenvalues --  -38.44479 -38.44233 -38.44171 -38.43974 -38.43874
 Alpha  occ. eigenvalues --  -38.43618 -38.43016  -2.20239  -2.20095  -2.20015
 Alpha  occ. eigenvalues --   -2.19851  -2.19663  -2.19515  -2.18884  -1.13917
 Alpha  occ. eigenvalues --   -1.13896  -1.13879  -1.13765  -1.13735  -1.13725
 Alpha  occ. eigenvalues --   -1.13702  -1.13673  -1.13653  -1.13517  -1.13494
 Alpha  occ. eigenvalues --   -1.13472  -1.13339  -1.13318  -1.13301  -1.13197
 Alpha  occ. eigenvalues --   -1.13174  -1.13152  -1.12562  -1.12545  -1.12517
 Alpha  occ. eigenvalues --   -0.18229  -0.12903  -0.12063  -0.11428
 Alpha virt. eigenvalues --   -0.06010  -0.05317  -0.04128  -0.03543  -0.03184
 Alpha virt. eigenvalues --   -0.03085  -0.01568  -0.01185  -0.00301  -0.00095
 Alpha virt. eigenvalues --    0.00051   0.00399   0.00587   0.00728   0.00770

  Beta  occ. eigenvalues --  -38.44481 -38.44155 -38.44153 -38.43896 -38.43872
  Beta  occ. eigenvalues --  -38.43609 -38.43004  -2.20243  -2.19989  -2.19948
  Beta  occ. eigenvalues --   -2.19708  -2.19662  -2.19501  -2.18865  -1.13914
  Beta  occ. eigenvalues --   -1.13897  -1.13882  -1.13689  -1.13661  -1.13647
  Beta  occ. eigenvalues --   -1.13640  -1.13623  -1.13608  -1.13424  -1.13404
  Beta  occ. eigenvalues --   -1.13366  -1.13320  -1.13311  -1.13298  -1.13190
  Beta  occ. eigenvalues --   -1.13148  -1.13137  -1.12547  -1.12520  -1.12504
  Beta  occ. eigenvalues --   -0.17459  -0.12725  -0.11855
  Beta virt. eigenvalues --   -0.07510  -0.05983  -0.05120  -0.03921  -0.02937
  Beta virt. eigenvalues --   -0.02498  -0.02125  -0.01463  -0.01100  -0.00257
  Beta virt. eigenvalues --   -0.00037   0.00091   0.00436   0.00708   0.00794

 Mulliken charges and spin densities:
               1          2
     1  Na  -0.063835   0.513619
     2  Na  -0.355870  -0.010829
     3  Na  -0.120410  -0.103045
     4  Na   0.402165   0.512165
     5  Na  -0.253493  -0.081447
     6  Na  -0.109295  -0.025884
     7  Na   0.500738   0.195421
 Sum of Mulliken charges =  -0.00000   1.00000

 Dipole moment (field-independent basis, Debye):
    X=              0.2877    Y=             -0.4053    Z=              0.2422  Tot=              0.5529
 Quadrupole moment (field-independent basis, Debye-Ang):
   XX=            -57.6282   YY=            -68.2453   ZZ=            -70.0877
   XY=              0.2648   XZ=              1.6096   YZ=              0.7511

 Normal termination of Gaussian 16 at Tue Dec  5 19:18:12 2023.
