 Gaussian 16, Revision B.01,
 Gaussian 16:  ES64L-G16RevB.01 20-Dec-2017

 -------------------------
 #P B3LYP/6-311+g(d) force
 -------------------------

 -----
 DPGEN
 -----
 Symbolic Z-matrix:
 Charge =  0 Multiplicity = 2

                         Standard orientation:
 ---------------------------------------------------------------------
 Center     Atomic      Atomic             Coordinates (Angstroms)
 Number     Number       Type             X           Y           Z
 ---------------------------------------------------------------------
      1         11           0       -1.560060    2.737811   -0.081028
      2         11           0        0.227595   -0.043173   -1.740949
      3         11           0        0.004264   -0.248198    1.845834
      4         11           0        2.931965   -1.237195    0.226795
      5         11           0       -3.106909   -0.635333    0.178096
      6         11           0        2.062395    2.141620   -0.034120
      7         11           0       -0.559250   -2.715531   -0.394627
 ---------------------------------------------------------------------

 SCF Done:  E(UB3LYP) =  -1136.13884145     A.U. after   19 cycles

 The electronic state is 2-A.
 Alpha  occ. eigenvalues --  -38.44008 -38.43905 -38.43704 -38.43572 -38.43395
 Alpha  occ. eigenvalues --  -38.43282 -38.43202  -2.19835  -2.19741  -2.19551
 Alpha  occ. eigenvalues --   -2.19369  -2.19320  -2.19189  -2.19171  -1.13508
 Alpha  occ. eigenvalues --   -1.13498  -1.13479  -1.13414  -1.13404  -1.13385
 Alpha  occ. eigenvalues --   -1.13245  -1.13220  -1.13171  -1.13047  -1.13031
 Alpha  occ. eigenvalues --   -1.13019  -1.13009  -1.12967  -1.12956  -1.12932
 Alpha  occ. eigenvalues --   -1.12841  -1.12823  -1.12803  -1.12775  -1.12758
 Alpha  occ. eigenvalues --   -0.18694  -0.13052  -0.12435  -0.10642
 Alpha virt. eigenvalues --   -0.05564  -0.05346  -0.04706  -0.03158  -0.02815
 Alpha virt. eigenvalues --   -0.02424  -0.01586  -0.01163  -0.00437  -0.00336
 Alpha virt. eigenvalues --    0.00008   0.00355   0.00789   0.00869   0.00885

  Beta  occ. eigenvalues --  -38.44004 -38.43899 -38.43699 -38.43573 -38.43316
  Beta  occ. eigenvalues --  -38.43266 -38.43124  -2.19832  -2.19732  -2.19545
  Beta  occ. eigenvalues --   -2.19372  -2.19175  -2.19164  -2.19030  -1.13502
  Beta  occ. eigenvalues --   -1.13481  -1.13480  -1.13403  -1.13387  -1.13373
  Beta  occ. eigenvalues --   -1.13235  -1.13200  -1.13168  -1.13038  -1.13030
  Beta  occ. eigenvalues --   -1.13010  -1.12948  -1.12894  -1.12860  -1.12824
  Beta  occ. eigenvalues --   -1.12791  -1.12786  -1.12737  -1.12683  -1.12667
  Beta  occ. eigenvalues --   -0.17965  -0.12810  -0.12192
  Beta virt. eigenvalues --   -0.06735  -0.05509  -0.05363  -0.04661  -0.02372
  Beta virt. eigenvalues --   -0.02072  -0.01484  -0.01378  -0.01100  -0.00479
  Beta virt. eigenvalues --   -0.00380   0.00137   0.00382   0.00847   0.00859

 Mulliken charges and spin densities:
               1          2
     1  Na  -0.126075  -0.126377
     2  Na  -0.091762   0.627125
     3  Na  -0.297468   0.764203
     4  Na   0.208612  -0.047353
     5  Na   0.016066  -0.065828
     6  Na   0.001612  -0.112789
     7  Na   0.289015  -0.038981
 Sum of Mulliken charges =  -0.00000   1.00000

 Dipole moment (field-independent basis, Debye):
    X=              0.0650    Y=              0.0077    Z=              0.1185  Tot=              0.1354
 Quadrupole moment (field-independent basis, Debye-Ang):
   XX=            -55.3182   YY=            -62.4193   ZZ=            -75.0885
   XY=             -0.4196   XZ=              0.3491   YZ=              0.2908

 Normal termination of Gaussian 16 at Tue Dec  5 20:30:44 2023.
