 Gaussian 16, Revision B.01,
 Gaussian 16:  ES64L-G16RevB.01 20-Dec-2017

 -------------------------
 #P B3LYP/6-311+g(d) force
 -------------------------

 -----
 DPGEN
 -----
 Symbolic Z-matrix:
 Charge =  0 Multiplicity = 2

                         Standard orientation:
 ---------------------------------------------------------------------
 Center     Atomic      Atomic             Coordinates (Angstroms)
 Number     Number       Type             X           Y           Z
 ---------------------------------------------------------------------
      1         11           0       -2.389333    1.452324    0.655331
      2         11           0        0.696137   -2.825045    0.357760
      3         11           0       -2.750256   -1.372864   -0.838822
      4         11           0        0.943957    2.964538   -0.115304
      5         11           0        0.037851    0.274061   -1.858912
      6         11           0        3.421167   -0.333611   -0.261448
      7         11           0        0.040477   -0.159405    2.061395
 ---------------------------------------------------------------------

 SCF Done:  E(UB3LYP) =  -1136.13348260     A.U. after   18 cycles

 The electronic state is 2-A.
 Alpha  occ. eigenvalues --  -38.44616 -38.43997 -38.43790 -38.43662 -38.43642
 Alpha  occ. eigenvalues --  -38.43410 -38.43386  -2.20373  -2.19895  -2.19689
 Alpha  occ. eigenvalues --   -2.19525  -2.19509  -2.19233  -2.19192  -1.14060
 Alpha  occ. eigenvalues --   -1.14020  -1.14010  -1.13567  -1.13550  -1.13511
 Alpha  occ. eigenvalues --   -1.13370  -1.13341  -1.13319  -1.13243  -1.13209
 Alpha  occ. eigenvalues --   -1.13174  -1.13152  -1.13131  -1.13103  -1.12933
 Alpha  occ. eigenvalues --   -1.12891  -1.12879  -1.12851  -1.12849  -1.12822
 Alpha  occ. eigenvalues --   -0.18286  -0.12812  -0.12131  -0.11295
 Alpha virt. eigenvalues --   -0.05922  -0.04814  -0.04547  -0.03404  -0.03090
 Alpha virt. eigenvalues --   -0.02950  -0.01658  -0.01033  -0.00403  -0.00174
 Alpha virt. eigenvalues --   -0.00010   0.00360   0.00719   0.00783   0.00872

  Beta  occ. eigenvalues --  -38.44616 -38.43905 -38.43723 -38.43640 -38.43625
  Beta  occ. eigenvalues --  -38.43403 -38.43387  -2.20374  -2.19729  -2.19567
  Beta  occ. eigenvalues --   -2.19496  -2.19470  -2.19223  -2.19196  -1.14053
  Beta  occ. eigenvalues --   -1.14022  -1.14010  -1.13460  -1.13424  -1.13397
  Beta  occ. eigenvalues --   -1.13292  -1.13253  -1.13240  -1.13215  -1.13165
  Beta  occ. eigenvalues --   -1.13134  -1.13123  -1.13104  -1.13081  -1.12915
  Beta  occ. eigenvalues --   -1.12874  -1.12874  -1.12852  -1.12845  -1.12821
  Beta  occ. eigenvalues --   -0.17529  -0.12589  -0.11884
  Beta virt. eigenvalues --   -0.07377  -0.05877  -0.04709  -0.04459  -0.02712
  Beta virt. eigenvalues --   -0.02360  -0.01956  -0.01552  -0.00946  -0.00367
  Beta virt. eigenvalues --   -0.00188   0.00083   0.00394   0.00812   0.00851

 Mulliken charges and spin densities:
               1          2
     1  Na   0.211791   0.099641
     2  Na  -0.014857  -0.026099
     3  Na   0.022015   0.074010
     4  Na  -0.099708  -0.104549
     5  Na  -0.038989   0.575948
     6  Na  -0.095963  -0.102709
     7  Na   0.015711   0.483757
 Sum of Mulliken charges =  -0.00000   1.00000

 Dipole moment (field-independent basis, Debye):
    X=              0.4473    Y=             -0.0234    Z=             -0.0293  Tot=              0.4489
 Quadrupole moment (field-independent basis, Debye-Ang):
   XX=            -57.3806   YY=            -65.4673   ZZ=            -71.6812
   XY=              0.5669   XZ=             -0.0556   YZ=              1.7780

 Normal termination of Gaussian 16 at Tue Dec  5 22:03:49 2023.
