 Gaussian 16, Revision B.01,
 Gaussian 16:  ES64L-G16RevB.01 20-Dec-2017

 -------------------------
 #P B3LYP/6-311+g(d) force
 -------------------------

 -----
 DPGEN
 -----
 Symbolic Z-matrix:
 Charge =  0 Multiplicity = 2

                         Standard orientation:
 ---------------------------------------------------------------------
 Center     Atomic      Atomic             Coordinates (Angstroms)
 Number     Number       Type             X           Y           Z
 ---------------------------------------------------------------------
      1         11           0        3.118900   -1.704894   -0.775633
      2         11           0        2.032725   -0.197970    1.659158
      3         11           0       -2.227482   -0.505602    1.670405
      4         11           0        2.161707    1.898113   -0.687750
      5         11           0       -0.903461    2.093951   -0.090450
      6         11           0       -0.214435   -1.039401   -0.765605
      7         11           0       -3.967954   -0.544196   -1.010125
 ---------------------------------------------------------------------

 SCF Done:  E(UB3LYP) =  -1136.11979779     A.U. after   24 cycles

 The electronic state is 2-A.
 Alpha  occ. eigenvalues --  -38.44782 -38.44491 -38.44459 -38.44188 -38.43332
 Alpha  occ. eigenvalues --  -38.43280 -38.42650  -2.20602  -2.20420  -2.20387
 Alpha  occ. eigenvalues --   -2.20097  -2.19208  -2.19189  -2.18557  -1.14279
 Alpha  occ. eigenvalues --   -1.14248  -1.14228  -1.14171  -1.14100  -1.14083
 Alpha  occ. eigenvalues --   -1.14060  -1.14012  -1.14006  -1.13773  -1.13745
 Alpha  occ. eigenvalues --   -1.13703  -1.12883  -1.12875  -1.12865  -1.12859
 Alpha  occ. eigenvalues --   -1.12844  -1.12800  -1.12266  -1.12217  -1.12164
 Alpha  occ. eigenvalues --   -0.18748  -0.14648  -0.11154  -0.10617
 Alpha virt. eigenvalues --   -0.06923  -0.05289  -0.04890  -0.03127  -0.02824
 Alpha virt. eigenvalues --   -0.02093  -0.02005  -0.01145  -0.00845  -0.00234
 Alpha virt. eigenvalues --    0.00097   0.00294   0.00320   0.00600   0.00678

  Beta  occ. eigenvalues --  -38.44746 -38.44476 -38.44423 -38.44143 -38.43324
  Beta  occ. eigenvalues --  -38.43265 -38.42641  -2.20534  -2.20399  -2.20323
  Beta  occ. eigenvalues --   -2.20017  -2.19193  -2.19162  -2.18543  -1.14232
  Beta  occ. eigenvalues --   -1.14201  -1.14183  -1.14121  -1.14075  -1.14056
  Beta  occ. eigenvalues --   -1.14009  -1.13985  -1.13954  -1.13720  -1.13693
  Beta  occ. eigenvalues --   -1.13621  -1.12872  -1.12855  -1.12851  -1.12842
  Beta  occ. eigenvalues --   -1.12826  -1.12779  -1.12259  -1.12181  -1.12157
  Beta  occ. eigenvalues --   -0.18087  -0.14407  -0.10998
  Beta virt. eigenvalues --   -0.06901  -0.06686  -0.04963  -0.04401  -0.02977
  Beta virt. eigenvalues --   -0.02652  -0.01620  -0.01365  -0.00898  -0.00478
  Beta virt. eigenvalues --   -0.00097   0.00164   0.00372   0.00465   0.00686

 Mulliken charges and spin densities:
               1          2
     1  Na   0.962994   0.028232
     2  Na   0.147465   0.183024
     3  Na   0.490417   0.134679
     4  Na  -0.116236   0.085294
     5  Na  -0.346115   0.095342
     6  Na  -1.975763   0.240748
     7  Na   0.837239   0.232681
 Sum of Mulliken charges =  -0.00000   1.00000

 Dipole moment (field-independent basis, Debye):
    X=             -0.6278    Y=             -0.0053    Z=              0.2271  Tot=              0.6677
 Quadrupole moment (field-independent basis, Debye-Ang):
   XX=            -50.2196   YY=            -77.4009   ZZ=            -67.5857
   XY=              0.6412   XZ=              0.5703   YZ=              1.4631

 Normal termination of Gaussian 16 at Tue Dec  5 15:06:41 2023.
