 Gaussian 16, Revision B.01,
 Gaussian 16:  ES64L-G16RevB.01 20-Dec-2017

 -------------------------
 #P B3LYP/6-311+g(d) force
 -------------------------

 -----
 DPGEN
 -----
 Symbolic Z-matrix:
 Charge =  0 Multiplicity = 2

                         Standard orientation:
 ---------------------------------------------------------------------
 Center     Atomic      Atomic             Coordinates (Angstroms)
 Number     Number       Type             X           Y           Z
 ---------------------------------------------------------------------
      1         11           0        0.195128    0.281084    1.906882
      2         11           0       -2.444481   -1.898117   -0.124466
      3         11           0        0.385539   -0.234973   -1.805296
      4         11           0        1.124455   -2.570275    0.121854
      5         11           0        3.058580    0.260557    0.158229
      6         11           0       -2.795132    1.373125    0.146405
      7         11           0        0.475911    2.788599   -0.403608
 ---------------------------------------------------------------------

 SCF Done:  E(UB3LYP) =  -1136.13898312     A.U. after   19 cycles

 The electronic state is 2-A.
 Alpha  occ. eigenvalues --  -38.44040 -38.43824 -38.43651 -38.43502 -38.43350
 Alpha  occ. eigenvalues --  -38.43290 -38.43228  -2.19916  -2.19649  -2.19474
 Alpha  occ. eigenvalues --   -2.19429  -2.19319  -2.19183  -2.19093  -1.13596
 Alpha  occ. eigenvalues --   -1.13590  -1.13546  -1.13331  -1.13320  -1.13294
 Alpha  occ. eigenvalues --   -1.13146  -1.13133  -1.13115  -1.13106  -1.13065
 Alpha  occ. eigenvalues --   -1.13049  -1.13039  -1.12982  -1.12930  -1.12843
 Alpha  occ. eigenvalues --   -1.12833  -1.12795  -1.12767  -1.12754  -1.12714
 Alpha  occ. eigenvalues --   -0.18839  -0.13115  -0.12453  -0.10873
 Alpha virt. eigenvalues --   -0.05641  -0.05136  -0.04587  -0.03213  -0.02961
 Alpha virt. eigenvalues --   -0.02595  -0.01502  -0.00996  -0.00338  -0.00230
 Alpha virt. eigenvalues --   -0.00011   0.00369   0.00836   0.00901   0.00912

  Beta  occ. eigenvalues --  -38.44032 -38.43823 -38.43651 -38.43419 -38.43282
  Beta  occ. eigenvalues --  -38.43272 -38.43217  -2.19904  -2.19650  -2.19476
  Beta  occ. eigenvalues --   -2.19278  -2.19179  -2.19169  -2.19075  -1.13591
  Beta  occ. eigenvalues --   -1.13552  -1.13537  -1.13334  -1.13305  -1.13296
  Beta  occ. eigenvalues --   -1.13138  -1.13129  -1.13116  -1.13013  -1.12972
  Beta  occ. eigenvalues --   -1.12956  -1.12935  -1.12888  -1.12832  -1.12817
  Beta  occ. eigenvalues --   -1.12794  -1.12780  -1.12745  -1.12718  -1.12704
  Beta  occ. eigenvalues --   -0.18091  -0.12895  -0.12199
  Beta virt. eigenvalues --   -0.06931  -0.05591  -0.05146  -0.04537  -0.02440
  Beta virt. eigenvalues --   -0.02175  -0.01543  -0.01404  -0.00933  -0.00369
  Beta virt. eigenvalues --   -0.00292   0.00123   0.00395   0.00879   0.00897

 Mulliken charges and spin densities:
               1          2
     1  Na  -0.335133   0.708426
     2  Na  -0.064189  -0.109875
     3  Na  -0.211147   0.669412
     4  Na   0.139408  -0.080402
     5  Na   0.435864  -0.025870
     6  Na  -0.006305  -0.076061
     7  Na   0.041502  -0.085630
 Sum of Mulliken charges =  -0.00000   1.00000

 Dipole moment (field-independent basis, Debye):
    X=              0.1205    Y=              0.0532    Z=              0.0878  Tot=              0.1583
 Quadrupole moment (field-independent basis, Debye-Ang):
   XX=            -56.6064   YY=            -63.7276   ZZ=            -73.6507
   XY=              0.0677   XZ=              0.3788   YZ=             -0.9343

 Normal termination of Gaussian 16 at Thu Dec  7 10:29:17 2023.
