 Gaussian 16, Revision B.01,
 Gaussian 16:  ES64L-G16RevB.01 20-Dec-2017

 -------------------------
 #P B3LYP/6-311+g(d) force
 -------------------------

 -----
 DPGEN
 -----
 Symbolic Z-matrix:
 Charge =  0 Multiplicity = 2

                         Standard orientation:
 ---------------------------------------------------------------------
 Center     Atomic      Atomic             Coordinates (Angstroms)
 Number     Number       Type             X           Y           Z
 ---------------------------------------------------------------------
      1         11           0        0.372412    0.541928   -0.406131
      2         11           0        2.978001    2.313769    0.346740
      3         11           0        3.226659   -1.101987   -0.429790
      4         11           0       -1.997710   -0.186780    1.857308
      5         11           0        0.211980   -2.825623    0.384248
      6         11           0       -2.315918   -1.221571   -1.275905
      7         11           0       -2.475425    2.480263   -0.476468
 ---------------------------------------------------------------------

 SCF Done:  E(UB3LYP) =  -1136.12619199     A.U. after   22 cycles

 The electronic state is 2-A.
 Alpha  occ. eigenvalues --  -38.44685 -38.44494 -38.44239 -38.44042 -38.43184
 Alpha  occ. eigenvalues --  -38.43064 -38.42952  -2.20503  -2.20290  -2.20041
 Alpha  occ. eigenvalues --   -2.19930  -2.19090  -2.18971  -2.18912  -1.14191
 Alpha  occ. eigenvalues --   -1.14174  -1.14120  -1.13970  -1.13949  -1.13915
 Alpha  occ. eigenvalues --   -1.13713  -1.13696  -1.13678  -1.13617  -1.13597
 Alpha  occ. eigenvalues --   -1.13531  -1.12780  -1.12739  -1.12686  -1.12672
 Alpha  occ. eigenvalues --   -1.12651  -1.12608  -1.12580  -1.12572  -1.12550
 Alpha  occ. eigenvalues --   -0.18158  -0.13853  -0.12049  -0.09846
 Alpha virt. eigenvalues --   -0.06525  -0.05717  -0.04706  -0.03048  -0.02400
 Alpha virt. eigenvalues --   -0.02100  -0.01810  -0.01401  -0.01076  -0.00448
 Alpha virt. eigenvalues --   -0.00087   0.00292   0.00460   0.00621   0.00750

  Beta  occ. eigenvalues --  -38.44684 -38.44495 -38.44226 -38.43997 -38.43098
  Beta  occ. eigenvalues --  -38.43058 -38.42935  -2.20501  -2.20293  -2.20019
  Beta  occ. eigenvalues --   -2.19850  -2.18946  -2.18931  -2.18906  -1.14188
  Beta  occ. eigenvalues --   -1.14170  -1.14122  -1.13972  -1.13948  -1.13918
  Beta  occ. eigenvalues --   -1.13699  -1.13672  -1.13655  -1.13564  -1.13526
  Beta  occ. eigenvalues --   -1.13470  -1.12692  -1.12640  -1.12627  -1.12603
  Beta  occ. eigenvalues --   -1.12592  -1.12572  -1.12570  -1.12563  -1.12524
  Beta  occ. eigenvalues --   -0.17545  -0.13655  -0.11870
  Beta virt. eigenvalues --   -0.06497  -0.05902  -0.05514  -0.04637  -0.02636
  Beta virt. eigenvalues --   -0.02013  -0.01771  -0.01499  -0.00993  -0.00815
  Beta virt. eigenvalues --   -0.00360   0.00211   0.00390   0.00544   0.00692

 Mulliken charges and spin densities:
               1          2
     1  Na  -3.298271   0.600559
     2  Na   0.434465  -0.231382
     3  Na   1.076244  -0.111914
     4  Na  -0.431194   0.325778
     5  Na   0.586005   0.132375
     6  Na   1.099661   0.210956
     7  Na   0.533089   0.073627
 Sum of Mulliken charges =  -0.00000   1.00000

 Dipole moment (field-independent basis, Debye):
    X=              0.8477    Y=              0.4410    Z=             -0.1094  Tot=              0.9618
 Quadrupole moment (field-independent basis, Debye-Ang):
   XX=            -52.6781   YY=            -60.3857   ZZ=            -77.2189
   XY=             -1.5173   XZ=              1.6266   YZ=              1.0596

 Normal termination of Gaussian 16 at Tue Dec  5 13:54:46 2023.
