 Gaussian 16, Revision B.01,
 Gaussian 16:  ES64L-G16RevB.01 20-Dec-2017

 -------------------------
 #P B3LYP/6-311+g(d) force
 -------------------------

 -----
 DPGEN
 -----
 Symbolic Z-matrix:
 Charge =  0 Multiplicity = 2

                         Standard orientation:
 ---------------------------------------------------------------------
 Center     Atomic      Atomic             Coordinates (Angstroms)
 Number     Number       Type             X           Y           Z
 ---------------------------------------------------------------------
      1         11           0        2.325580   -0.546964   -0.787516
      2         11           0        3.272072   -3.062764    0.714584
      3         11           0       -2.465886    0.253160   -1.017125
      4         11           0        2.873521    3.435131    0.990197
      5         11           0       -5.469118   -0.163708    1.093592
      6         11           0       -0.539037   -2.124638   -0.228141
      7         11           0        0.002869    2.209783   -0.765591
 ---------------------------------------------------------------------

 SCF Done:  E(UB3LYP) =  -1136.11499164     A.U. after   20 cycles

 The electronic state is 2-A.
 Alpha  occ. eigenvalues --  -38.45054 -38.44690 -38.44347 -38.44309 -38.44201
 Alpha  occ. eigenvalues --  -38.43791 -38.43410  -2.20879  -2.20481  -2.20175
 Alpha  occ. eigenvalues --   -2.20158  -2.19960  -2.19628  -2.19286  -1.14572
 Alpha  occ. eigenvalues --   -1.14561  -1.14490  -1.14113  -1.14113  -1.14082
 Alpha  occ. eigenvalues --   -1.13943  -1.13870  -1.13831  -1.13805  -1.13789
 Alpha  occ. eigenvalues --   -1.13708  -1.13626  -1.13617  -1.13576  -1.13316
 Alpha  occ. eigenvalues --   -1.13304  -1.13276  -1.12976  -1.12952  -1.12914
 Alpha  occ. eigenvalues --   -0.16980  -0.13634  -0.12496  -0.10993
 Alpha virt. eigenvalues --   -0.06495  -0.05724  -0.04382  -0.03868  -0.02685
 Alpha virt. eigenvalues --   -0.02278  -0.02102  -0.01510  -0.01116  -0.00835
 Alpha virt. eigenvalues --   -0.00466  -0.00271  -0.00021   0.00368   0.00594

  Beta  occ. eigenvalues --  -38.45042 -38.44559 -38.44327 -38.44309 -38.44168
  Beta  occ. eigenvalues --  -38.43787 -38.43405  -2.20860  -2.20236  -2.20177
  Beta  occ. eigenvalues --   -2.20121  -2.19897  -2.19622  -2.19285  -1.14550
  Beta  occ. eigenvalues --   -1.14547  -1.14483  -1.13947  -1.13947  -1.13926
  Beta  occ. eigenvalues --   -1.13920  -1.13865  -1.13822  -1.13782  -1.13765
  Beta  occ. eigenvalues --   -1.13700  -1.13582  -1.13573  -1.13537  -1.13319
  Beta  occ. eigenvalues --   -1.13299  -1.13253  -1.12983  -1.12955  -1.12863
  Beta  occ. eigenvalues --   -0.16598  -0.12981  -0.12135
  Beta virt. eigenvalues --   -0.07447  -0.06258  -0.05360  -0.04152  -0.03661
  Beta virt. eigenvalues --   -0.02552  -0.01951  -0.01537  -0.01283  -0.00827
  Beta virt. eigenvalues --   -0.00635  -0.00110  -0.00027   0.00201   0.00532

 Mulliken charges and spin densities:
               1          2
     1  Na  -0.671577   0.018093
     2  Na   0.491933   0.117145
     3  Na  -0.241660  -0.064384
     4  Na   0.406409   0.249407
     5  Na  -0.015999   0.693416
     6  Na   0.080311   0.019417
     7  Na  -0.049418  -0.033096
 Sum of Mulliken charges =  -0.00000   1.00000

 Dipole moment (field-independent basis, Debye):
    X=              0.9874    Y=             -1.0309    Z=              0.5642  Tot=              1.5349
 Quadrupole moment (field-independent basis, Debye-Ang):
   XX=            -66.9355   YY=            -63.7059   ZZ=            -68.6507
   XY=             -1.7453   XZ=              3.0594   YZ=             -1.5536

 Normal termination of Gaussian 16 at Tue Nov 28 21:52:02 2023.
