 Gaussian 16, Revision B.01,
 Gaussian 16:  ES64L-G16RevB.01 20-Dec-2017

 -------------------------
 #P B3LYP/6-311+g(d) force
 -------------------------

 -----
 DPGEN
 -----
 Symbolic Z-matrix:
 Charge =  0 Multiplicity = 2

                         Standard orientation:
 ---------------------------------------------------------------------
 Center     Atomic      Atomic             Coordinates (Angstroms)
 Number     Number       Type             X           Y           Z
 ---------------------------------------------------------------------
      1         11           0        3.320398    0.138368   -0.190101
      2         11           0        0.774881    2.912075   -0.004348
      3         11           0        0.019090   -0.273898    2.050831
      4         11           0       -2.794293    1.409513   -0.064224
      5         11           0       -2.877667   -1.946941   -0.163582
      6         11           0       -0.270277    0.134385   -1.392686
      7         11           0        1.827868   -2.373503   -0.235889
 ---------------------------------------------------------------------

 SCF Done:  E(UB3LYP) =  -1136.12906770     A.U. after   22 cycles

 The electronic state is 2-A.
 Alpha  occ. eigenvalues --  -38.44651 -38.44450 -38.44190 -38.43616 -38.43376
 Alpha  occ. eigenvalues --  -38.43361 -38.42943  -2.20506  -2.20304  -2.19991
 Alpha  occ. eigenvalues --   -2.19497  -2.19346  -2.19251  -2.18769  -1.14238
 Alpha  occ. eigenvalues --   -1.14156  -1.14128  -1.14020  -1.13963  -1.13920
 Alpha  occ. eigenvalues --   -1.13660  -1.13643  -1.13635  -1.13178  -1.13151
 Alpha  occ. eigenvalues --   -1.13133  -1.13056  -1.12997  -1.12965  -1.12916
 Alpha  occ. eigenvalues --   -1.12867  -1.12860  -1.12452  -1.12426  -1.12405
 Alpha  occ. eigenvalues --   -0.18460  -0.13743  -0.11878  -0.10351
 Alpha virt. eigenvalues --   -0.06201  -0.05656  -0.04330  -0.03354  -0.02460
 Alpha virt. eigenvalues --   -0.02239  -0.02052  -0.01390  -0.00639  -0.00384
 Alpha virt. eigenvalues --   -0.00029   0.00285   0.00656   0.00788   0.00847

  Beta  occ. eigenvalues --  -38.44644 -38.44443 -38.44188 -38.43608 -38.43320
  Beta  occ. eigenvalues --  -38.43267 -38.42941  -2.20496  -2.20295  -2.19990
  Beta  occ. eigenvalues --   -2.19487  -2.19273  -2.19050  -2.18767  -1.14233
  Beta  occ. eigenvalues --   -1.14131  -1.14121  -1.14010  -1.13943  -1.13914
  Beta  occ. eigenvalues --   -1.13655  -1.13641  -1.13627  -1.13173  -1.13146
  Beta  occ. eigenvalues --   -1.13098  -1.12991  -1.12946  -1.12912  -1.12784
  Beta  occ. eigenvalues --   -1.12727  -1.12717  -1.12448  -1.12411  -1.12405
  Beta  occ. eigenvalues --   -0.17768  -0.13492  -0.11688
  Beta virt. eigenvalues --   -0.06467  -0.06082  -0.05652  -0.04322  -0.02596
  Beta virt. eigenvalues --   -0.01950  -0.01726  -0.01360  -0.01203  -0.00661
  Beta virt. eigenvalues --   -0.00398   0.00146   0.00340   0.00731   0.00794

 Mulliken charges and spin densities:
               1          2
     1  Na   0.121767   0.051305
     2  Na   0.055292   0.001624
     3  Na  -0.530725   0.728212
     4  Na   0.308270   0.050008
     5  Na   0.178689  -0.017142
     6  Na  -0.465449   0.148541
     7  Na   0.332156   0.037452
 Sum of Mulliken charges =  -0.00000   1.00000

 Dipole moment (field-independent basis, Debye):
    X=             -0.2792    Y=             -0.0683    Z=              0.1543  Tot=              0.3262
 Quadrupole moment (field-independent basis, Debye-Ang):
   XX=            -52.2356   YY=            -64.1532   ZZ=            -76.6828
   XY=              1.2553   XZ=             -0.4838   YZ=              1.2248

 Normal termination of Gaussian 16 at Fri Dec  8 07:24:38 2023.
