 Gaussian 16, Revision B.01,
 Gaussian 16:  ES64L-G16RevB.01 20-Dec-2017

 -------------------------
 #P B3LYP/6-311+g(d) force
 -------------------------

 -----
 DPGEN
 -----
 Symbolic Z-matrix:
 Charge =  0 Multiplicity = 2

                         Standard orientation:
 ---------------------------------------------------------------------
 Center     Atomic      Atomic             Coordinates (Angstroms)
 Number     Number       Type             X           Y           Z
 ---------------------------------------------------------------------
      1         11           0        1.884702   -0.140427    0.655242
      2         11           0        3.453317   -2.655120   -0.283636
      3         11           0       -2.073785   -0.543411    2.139078
      4         11           0       -0.512586    1.777238   -0.315742
      5         11           0       -1.363633   -2.137080   -1.118351
      6         11           0        2.722790    3.147474   -0.282718
      7         11           0       -4.110804    0.551327   -0.793873
 ---------------------------------------------------------------------

 SCF Done:  E(UB3LYP) =  -1136.11513099     A.U. after   23 cycles

 The electronic state is 2-A.
 Alpha  occ. eigenvalues --  -38.46065 -38.44821 -38.44071 -38.44021 -38.43987
 Alpha  occ. eigenvalues --  -38.43776 -38.43096  -2.21799  -2.20614  -2.19909
 Alpha  occ. eigenvalues --   -2.19831  -2.19805  -2.19559  -2.18994  -1.15504
 Alpha  occ. eigenvalues --   -1.15473  -1.15398  -1.14279  -1.14270  -1.14226
 Alpha  occ. eigenvalues --   -1.13574  -1.13561  -1.13552  -1.13525  -1.13514
 Alpha  occ. eigenvalues --   -1.13476  -1.13470  -1.13447  -1.13383  -1.13263
 Alpha  occ. eigenvalues --   -1.13213  -1.13189  -1.12714  -1.12667  -1.12589
 Alpha  occ. eigenvalues --   -0.17399  -0.13633  -0.11659  -0.10394
 Alpha virt. eigenvalues --   -0.07183  -0.06171  -0.04432  -0.03078  -0.02675
 Alpha virt. eigenvalues --   -0.02342  -0.02144  -0.01945  -0.01164  -0.00523
 Alpha virt. eigenvalues --   -0.00285  -0.00034  -0.00003   0.00379   0.00499

  Beta  occ. eigenvalues --  -38.46054 -38.44769 -38.44020 -38.43981 -38.43976
  Beta  occ. eigenvalues --  -38.43774 -38.43090  -2.21780  -2.20519  -2.19823
  Beta  occ. eigenvalues --   -2.19802  -2.19733  -2.19555  -2.18986  -1.15491
  Beta  occ. eigenvalues --   -1.15447  -1.15382  -1.14211  -1.14194  -1.14166
  Beta  occ. eigenvalues --   -1.13564  -1.13496  -1.13474  -1.13467  -1.13449
  Beta  occ. eigenvalues --   -1.13438  -1.13423  -1.13400  -1.13382  -1.13262
  Beta  occ. eigenvalues --   -1.13209  -1.13186  -1.12709  -1.12641  -1.12589
  Beta  occ. eigenvalues --   -0.16810  -0.13382  -0.11594
  Beta virt. eigenvalues --   -0.06936  -0.06602  -0.05904  -0.04149  -0.02841
  Beta virt. eigenvalues --   -0.02479  -0.02050  -0.01752  -0.01369  -0.00795
  Beta virt. eigenvalues --   -0.00377  -0.00098   0.00096   0.00162   0.00444

 Mulliken charges and spin densities:
               1          2
     1  Na  -0.759781   0.122134
     2  Na   0.312844  -0.038093
     3  Na   0.273700   0.360635
     4  Na  -1.078064  -0.032092
     5  Na  -0.096390   0.135970
     6  Na   0.510416  -0.033960
     7  Na   0.837275   0.485405
 Sum of Mulliken charges =  -0.00000   1.00000

 Dipole moment (field-independent basis, Debye):
    X=             -0.8334    Y=              0.0497    Z=             -0.2608  Tot=              0.8747
 Quadrupole moment (field-independent basis, Debye-Ang):
   XX=            -54.9745   YY=            -65.7815   ZZ=            -74.0208
   XY=              3.2059   XZ=             -2.1317   YZ=              1.5947

 Normal termination of Gaussian 16 at Thu Dec  7 14:04:52 2023.
