 Gaussian 16, Revision B.01,
 Gaussian 16:  ES64L-G16RevB.01 20-Dec-2017

 -------------------------
 #P B3LYP/6-311+g(d) force
 -------------------------

 -----
 DPGEN
 -----
 Symbolic Z-matrix:
 Charge =  0 Multiplicity = 2

                         Standard orientation:
 ---------------------------------------------------------------------
 Center     Atomic      Atomic             Coordinates (Angstroms)
 Number     Number       Type             X           Y           Z
 ---------------------------------------------------------------------
      1         11           0        1.579543   -2.013768    1.793151
      2         11           0        1.350920    0.810434   -0.932915
      3         11           0       -1.908668    1.268126    0.478442
      4         11           0       -1.273132   -1.872451   -0.397088
      5         11           0       -4.471588   -0.832370   -0.472102
      6         11           0        0.743876    3.741456    0.435016
      7         11           0        3.979050   -1.101428   -0.904504
 ---------------------------------------------------------------------

 SCF Done:  E(UB3LYP) =  -1136.12589730     A.U. after   19 cycles

 The electronic state is 2-A.
 Alpha  occ. eigenvalues --  -38.44229 -38.44208 -38.44070 -38.43869 -38.43654
 Alpha  occ. eigenvalues --  -38.43636 -38.43522  -2.20087  -2.20007  -2.19928
 Alpha  occ. eigenvalues --   -2.19701  -2.19545  -2.19469  -2.19322  -1.13809
 Alpha  occ. eigenvalues --   -1.13775  -1.13702  -1.13675  -1.13651  -1.13640
 Alpha  occ. eigenvalues --   -1.13625  -1.13623  -1.13505  -1.13358  -1.13349
 Alpha  occ. eigenvalues --   -1.13311  -1.13269  -1.13228  -1.13199  -1.13113
 Alpha  occ. eigenvalues --   -1.13098  -1.13065  -1.12989  -1.12986  -1.12944
 Alpha  occ. eigenvalues --   -0.17332  -0.13816  -0.12402  -0.10361
 Alpha virt. eigenvalues --   -0.06526  -0.05437  -0.04231  -0.03618  -0.02729
 Alpha virt. eigenvalues --   -0.02562  -0.01730  -0.01342  -0.00838  -0.00575
 Alpha virt. eigenvalues --   -0.00359  -0.00139   0.00379   0.00589   0.00683

  Beta  occ. eigenvalues --  -38.44213 -38.44161 -38.44065 -38.43826 -38.43636
  Beta  occ. eigenvalues --  -38.43560 -38.43528  -2.20062  -2.19923  -2.19921
  Beta  occ. eigenvalues --   -2.19618  -2.19517  -2.19333  -2.19329  -1.13796
  Beta  occ. eigenvalues --   -1.13758  -1.13657  -1.13634  -1.13620  -1.13609
  Beta  occ. eigenvalues --   -1.13581  -1.13567  -1.13495  -1.13301  -1.13292
  Beta  occ. eigenvalues --   -1.13262  -1.13249  -1.13186  -1.13163  -1.13019
  Beta  occ. eigenvalues --   -1.13014  -1.12994  -1.12991  -1.12979  -1.12947
  Beta  occ. eigenvalues --   -0.16882  -0.13205  -0.12176
  Beta virt. eigenvalues --   -0.06771  -0.06306  -0.05321  -0.03868  -0.03272
  Beta virt. eigenvalues --   -0.02429  -0.02237  -0.01581  -0.01046  -0.00436
  Beta virt. eigenvalues --   -0.00286  -0.00162   0.00054   0.00526   0.00668

 Mulliken charges and spin densities:
               1          2
     1  Na   0.096266   0.192498
     2  Na  -0.523806   0.229247
     3  Na  -0.404070   0.074315
     4  Na  -0.273009   0.009109
     5  Na   0.497527   0.247253
     6  Na   0.516709  -0.015773
     7  Na   0.090383   0.263351
 Sum of Mulliken charges =  -0.00000   1.00000

 Dipole moment (field-independent basis, Debye):
    X=             -0.5704    Y=             -0.1542    Z=              0.8298  Tot=              1.0187
 Quadrupole moment (field-independent basis, Debye-Ang):
   XX=            -63.4604   YY=            -65.3486   ZZ=            -68.1248
   XY=             -0.1383   XZ=              3.2736   YZ=              2.7192

 Normal termination of Gaussian 16 at Wed Nov 29 02:07:02 2023.
