 Gaussian 16, Revision B.01,
 Gaussian 16:  ES64L-G16RevB.01 20-Dec-2017

 -------------------------
 #P B3LYP/6-311+g(d) force
 -------------------------

 -----
 DPGEN
 -----
 Symbolic Z-matrix:
 Charge =  0 Multiplicity = 2

                         Standard orientation:
 ---------------------------------------------------------------------
 Center     Atomic      Atomic             Coordinates (Angstroms)
 Number     Number       Type             X           Y           Z
 ---------------------------------------------------------------------
      1         11           0       -3.030908    0.336345    0.390182
      2         11           0       -1.328577   -2.700343    0.077397
      3         11           0        0.052933    0.207910    2.006638
      4         11           0        3.439041    1.114775    0.377136
      5         11           0        1.997949   -1.818333   -0.533798
      6         11           0       -0.929557    3.026802   -0.663087
      7         11           0       -0.200883   -0.167155   -1.654468
 ---------------------------------------------------------------------

 SCF Done:  E(UB3LYP) =  -1136.13225010     A.U. after   20 cycles

 The electronic state is 2-A.
 Alpha  occ. eigenvalues --  -38.44284 -38.44097 -38.44093 -38.43577 -38.43461
 Alpha  occ. eigenvalues --  -38.43403 -38.43116  -2.20056  -2.19955  -2.19944
 Alpha  occ. eigenvalues --   -2.19399  -2.19383  -2.19365  -2.18986  -1.13724
 Alpha  occ. eigenvalues --   -1.13720  -1.13696  -1.13650  -1.13625  -1.13614
 Alpha  occ. eigenvalues --   -1.13588  -1.13566  -1.13556  -1.13245  -1.13081
 Alpha  occ. eigenvalues --   -1.13058  -1.13031  -1.13019  -1.13012  -1.13003
 Alpha  occ. eigenvalues --   -1.12966  -1.12934  -1.12660  -1.12646  -1.12623
 Alpha  occ. eigenvalues --   -0.18475  -0.13091  -0.12147  -0.10948
 Alpha virt. eigenvalues --   -0.05981  -0.04823  -0.04765  -0.03245  -0.02947
 Alpha virt. eigenvalues --   -0.02581  -0.01748  -0.01156  -0.00512  -0.00123
 Alpha virt. eigenvalues --   -0.00044   0.00328   0.00733   0.00797   0.00837

  Beta  occ. eigenvalues --  -38.44281 -38.44084 -38.44017 -38.43558 -38.43447
  Beta  occ. eigenvalues --  -38.43334 -38.43113  -2.20052  -2.19930  -2.19808
  Beta  occ. eigenvalues --   -2.19350  -2.19348  -2.19269  -2.18985  -1.13722
  Beta  occ. eigenvalues --   -1.13708  -1.13693  -1.13617  -1.13600  -1.13551
  Beta  occ. eigenvalues --   -1.13532  -1.13490  -1.13449  -1.13189  -1.13038
  Beta  occ. eigenvalues --   -1.13005  -1.13002  -1.12999  -1.12961  -1.12952
  Beta  occ. eigenvalues --   -1.12925  -1.12865  -1.12658  -1.12646  -1.12600
  Beta  occ. eigenvalues --   -0.17762  -0.12849  -0.11861
  Beta virt. eigenvalues --   -0.07125  -0.05839  -0.04741  -0.04686  -0.02579
  Beta virt. eigenvalues --   -0.02246  -0.01720  -0.01501  -0.01071  -0.00515
  Beta virt. eigenvalues --   -0.00127   0.00086   0.00360   0.00804   0.00841

 Mulliken charges and spin densities:
               1          2
     1  Na   0.188908   0.058620
     2  Na  -0.080734  -0.016250
     3  Na  -0.386538   0.623250
     4  Na  -0.066478  -0.009232
     5  Na   0.225748   0.012206
     6  Na  -0.035017   0.021943
     7  Na   0.154112   0.309462
 Sum of Mulliken charges =  -0.00000   1.00000

 Dipole moment (field-independent basis, Debye):
    X=             -0.0094    Y=              0.2657    Z=              0.3157  Tot=              0.4128
 Quadrupole moment (field-independent basis, Debye-Ang):
   XX=            -56.8822   YY=            -63.4589   ZZ=            -73.4269
   XY=              2.0343   XZ=             -0.7596   YZ=             -0.6422

 Normal termination of Gaussian 16 at Fri Dec  8 03:07:39 2023.
