 Gaussian 16, Revision B.01,
 Gaussian 16:  ES64L-G16RevB.01 20-Dec-2017

 -------------------------
 #P B3LYP/6-311+g(d) force
 -------------------------

 -----
 DPGEN
 -----
 Symbolic Z-matrix:
 Charge =  0 Multiplicity = 2

                         Standard orientation:
 ---------------------------------------------------------------------
 Center     Atomic      Atomic             Coordinates (Angstroms)
 Number     Number       Type             X           Y           Z
 ---------------------------------------------------------------------
      1         11           0        3.809834   -1.996757    0.109202
      2         11           0       -0.033241   -0.894769   -1.188492
      3         11           0       -3.782225   -1.161536   -0.989931
      4         11           0       -2.138792   -0.658030    1.653382
      5         11           0       -1.311040    2.316008   -0.215323
      6         11           0        0.959315    0.758130    1.640530
      7         11           0        2.496149    1.636954   -1.009367
 ---------------------------------------------------------------------

 SCF Done:  E(UB3LYP) =  -1136.12164849     A.U. after   22 cycles

 The electronic state is 2-A.
 Alpha  occ. eigenvalues --  -38.44722 -38.44661 -38.44068 -38.43911 -38.43815
 Alpha  occ. eigenvalues --  -38.43555 -38.43347  -2.20571  -2.20495  -2.19888
 Alpha  occ. eigenvalues --   -2.19728  -2.19648  -2.19401  -2.19297  -1.14301
 Alpha  occ. eigenvalues --   -1.14245  -1.14202  -1.14179  -1.14146  -1.14071
 Alpha  occ. eigenvalues --   -1.13593  -1.13537  -1.13525  -1.13413  -1.13369
 Alpha  occ. eigenvalues --   -1.13331  -1.13325  -1.13321  -1.13272  -1.13089
 Alpha  occ. eigenvalues --   -1.13076  -1.13026  -1.12995  -1.12954  -1.12877
 Alpha  occ. eigenvalues --   -0.18361  -0.13773  -0.11153  -0.10878
 Alpha virt. eigenvalues --   -0.06495  -0.05840  -0.04637  -0.03012  -0.02582
 Alpha virt. eigenvalues --   -0.02406  -0.02107  -0.01514  -0.00907  -0.00350
 Alpha virt. eigenvalues --    0.00092   0.00242   0.00348   0.00440   0.00512

  Beta  occ. eigenvalues --  -38.44697 -38.44634 -38.44051 -38.43910 -38.43766
  Beta  occ. eigenvalues --  -38.43544 -38.43298  -2.20528  -2.20447  -2.19857
  Beta  occ. eigenvalues --   -2.19646  -2.19641  -2.19384  -2.19211  -1.14259
  Beta  occ. eigenvalues --   -1.14203  -1.14169  -1.14145  -1.14114  -1.14035
  Beta  occ. eigenvalues --   -1.13568  -1.13516  -1.13498  -1.13351  -1.13323
  Beta  occ. eigenvalues --   -1.13319  -1.13315  -1.13272  -1.13250  -1.13080
  Beta  occ. eigenvalues --   -1.13041  -1.13012  -1.12938  -1.12866  -1.12821
  Beta  occ. eigenvalues --   -0.17630  -0.13594  -0.10928
  Beta virt. eigenvalues --   -0.07063  -0.06308  -0.05692  -0.04069  -0.02867
  Beta virt. eigenvalues --   -0.02386  -0.01877  -0.01577  -0.01236  -0.00440
  Beta virt. eigenvalues --   -0.00324   0.00135   0.00283   0.00423   0.00539

 Mulliken charges and spin densities:
               1          2
     1  Na  -0.053593  -0.084121
     2  Na  -0.728655   0.352739
     3  Na   0.272067   0.146103
     4  Na  -0.017587  -0.026255
     5  Na  -0.077857   0.185425
     6  Na   0.127479   0.315256
     7  Na   0.478147   0.110853
 Sum of Mulliken charges =  -0.00000   1.00000

 Dipole moment (field-independent basis, Debye):
    X=             -0.3459    Y=              0.7692    Z=             -0.3195  Tot=              0.9019
 Quadrupole moment (field-independent basis, Debye-Ang):
   XX=            -54.6786   YY=            -70.6466   ZZ=            -70.1512
   XY=              1.4345   XZ=              0.5773   YZ=             -2.1015

 Normal termination of Gaussian 16 at Thu Dec  7 18:57:35 2023.
