 Gaussian 16, Revision B.01,
 Gaussian 16:  ES64L-G16RevB.01 20-Dec-2017

 -------------------------
 #P B3LYP/6-311+g(d) force
 -------------------------

 -----
 DPGEN
 -----
 Symbolic Z-matrix:
 Charge =  0 Multiplicity = 2

                         Standard orientation:
 ---------------------------------------------------------------------
 Center     Atomic      Atomic             Coordinates (Angstroms)
 Number     Number       Type             X           Y           Z
 ---------------------------------------------------------------------
      1         11           0        3.035652   -0.130968    0.123211
      2         11           0        1.063173   -2.647668   -0.139005
      3         11           0       -0.257337    0.397073   -1.585848
      4         11           0       -2.613076    1.576404    0.254461
      5         11           0        1.125801    2.821007   -0.106244
      6         11           0       -0.143291   -0.096162    1.626794
      7         11           0       -2.210921   -1.919686   -0.173368
 ---------------------------------------------------------------------

 SCF Done:  E(UB3LYP) =  -1136.13711311     A.U. after   19 cycles

 The electronic state is 2-A.
 Alpha  occ. eigenvalues --  -38.43937 -38.43791 -38.43720 -38.43605 -38.43282
 Alpha  occ. eigenvalues --  -38.42844 -38.42808  -2.19810  -2.19651  -2.19572
 Alpha  occ. eigenvalues --   -2.19502  -2.19182  -2.18871  -2.18841  -1.13501
 Alpha  occ. eigenvalues --   -1.13484  -1.13429  -1.13337  -1.13317  -1.13303
 Alpha  occ. eigenvalues --   -1.13271  -1.13227  -1.13195  -1.13191  -1.13169
 Alpha  occ. eigenvalues --   -1.13132  -1.12864  -1.12837  -1.12820  -1.12614
 Alpha  occ. eigenvalues --   -1.12498  -1.12484  -1.12482  -1.12460  -1.12456
 Alpha  occ. eigenvalues --   -0.19189  -0.13173  -0.12828  -0.10333
 Alpha virt. eigenvalues --   -0.05599  -0.05190  -0.04837  -0.02967  -0.02790
 Alpha virt. eigenvalues --   -0.01966  -0.01481  -0.01290  -0.00390  -0.00239
 Alpha virt. eigenvalues --    0.00054   0.00357   0.00838   0.00884   0.00905

  Beta  occ. eigenvalues --  -38.43926 -38.43787 -38.43714 -38.43596 -38.43276
  Beta  occ. eigenvalues --  -38.42769 -38.42738  -2.19794  -2.19647  -2.19565
  Beta  occ. eigenvalues --   -2.19489  -2.19175  -2.18735  -2.18713  -1.13494
  Beta  occ. eigenvalues --   -1.13441  -1.13423  -1.13338  -1.13310  -1.13285
  Beta  occ. eigenvalues --   -1.13259  -1.13205  -1.13190  -1.13190  -1.13135
  Beta  occ. eigenvalues --   -1.13118  -1.12859  -1.12827  -1.12796  -1.12523
  Beta  occ. eigenvalues --   -1.12403  -1.12389  -1.12383  -1.12366  -1.12363
  Beta  occ. eigenvalues --   -0.18480  -0.12907  -0.12555
  Beta virt. eigenvalues --   -0.06434  -0.05582  -0.05168  -0.04819  -0.02178
  Beta virt. eigenvalues --   -0.02014  -0.01399  -0.01217  -0.00964  -0.00440
  Beta virt. eigenvalues --   -0.00291   0.00185   0.00394   0.00855   0.00904

 Mulliken charges and spin densities:
               1          2
     1  Na   0.079063  -0.041075
     2  Na   0.068277  -0.024177
     3  Na  -0.446991   0.614337
     4  Na   0.233103  -0.089939
     5  Na   0.168157  -0.110142
     6  Na  -0.426962   0.646655
     7  Na   0.325353   0.004340
 Sum of Mulliken charges =  -0.00000   1.00000

 Dipole moment (field-independent basis, Debye):
    X=             -0.1075    Y=              0.2493    Z=              0.0323  Tot=              0.2734
 Quadrupole moment (field-independent basis, Debye-Ang):
   XX=            -55.7705   YY=            -59.2574   ZZ=            -76.6375
   XY=              0.0948   XZ=             -0.1308   YZ=              1.1775

 Normal termination of Gaussian 16 at Wed Nov 29 03:52:36 2023.
