 Gaussian 16, Revision B.01,
 Gaussian 16:  ES64L-G16RevB.01 20-Dec-2017

 -------------------------
 #P B3LYP/6-311+g(d) force
 -------------------------

 -----
 DPGEN
 -----
 Symbolic Z-matrix:
 Charge =  0 Multiplicity = 2

                         Standard orientation:
 ---------------------------------------------------------------------
 Center     Atomic      Atomic             Coordinates (Angstroms)
 Number     Number       Type             X           Y           Z
 ---------------------------------------------------------------------
      1         11           0       -0.320232   -0.598689   -1.550851
      2         11           0       -3.955972    0.081265   -0.584002
      3         11           0        2.611901   -1.803835   -0.725501
      4         11           0       -1.080639   -2.090417    1.136379
      5         11           0        2.391680    1.740946   -0.515758
      6         11           0       -0.611525    2.637963    0.387811
      7         11           0        0.964788    0.032765    1.851921
 ---------------------------------------------------------------------

 SCF Done:  E(UB3LYP) =  -1136.12853670     A.U. after   20 cycles

 The electronic state is 2-A.
 Alpha  occ. eigenvalues --  -38.44702 -38.43812 -38.43752 -38.43667 -38.43582
 Alpha  occ. eigenvalues --  -38.43560 -38.43160  -2.20445  -2.19734  -2.19642
 Alpha  occ. eigenvalues --   -2.19571  -2.19518  -2.19450  -2.19000  -1.14120
 Alpha  occ. eigenvalues --   -1.14103  -1.14067  -1.13494  -1.13426  -1.13399
 Alpha  occ. eigenvalues --   -1.13361  -1.13275  -1.13242  -1.13225  -1.13219
 Alpha  occ. eigenvalues --   -1.13185  -1.13172  -1.13153  -1.13132  -1.13124
 Alpha  occ. eigenvalues --   -1.13094  -1.13066  -1.12685  -1.12675  -1.12611
 Alpha  occ. eigenvalues --   -0.18613  -0.12973  -0.12056  -0.11274
 Alpha virt. eigenvalues --   -0.06286  -0.04805  -0.04229  -0.03317  -0.02909
 Alpha virt. eigenvalues --   -0.02677  -0.02078  -0.00971  -0.00528  -0.00084
 Alpha virt. eigenvalues --    0.00095   0.00239   0.00576   0.00772   0.00830

  Beta  occ. eigenvalues --  -38.44687 -38.43774 -38.43709 -38.43648 -38.43551
  Beta  occ. eigenvalues --  -38.43499 -38.43157  -2.20418  -2.19665  -2.19567
  Beta  occ. eigenvalues --   -2.19485  -2.19435  -2.19422  -2.18997  -1.14097
  Beta  occ. eigenvalues --   -1.14085  -1.14050  -1.13442  -1.13354  -1.13338
  Beta  occ. eigenvalues --   -1.13305  -1.13217  -1.13184  -1.13175  -1.13152
  Beta  occ. eigenvalues --   -1.13142  -1.13122  -1.13116  -1.13107  -1.13062
  Beta  occ. eigenvalues --   -1.13046  -1.13019  -1.12680  -1.12663  -1.12608
  Beta  occ. eigenvalues --   -0.17909  -0.12679  -0.11814
  Beta virt. eigenvalues --   -0.07377  -0.06060  -0.04757  -0.04103  -0.02817
  Beta virt. eigenvalues --   -0.02285  -0.01921  -0.01634  -0.00949  -0.00323
  Beta virt. eigenvalues --    0.00015   0.00128   0.00295   0.00699   0.00818

 Mulliken charges and spin densities:
               1          2
     1  Na  -0.325675   0.559399
     2  Na   0.066995   0.079943
     3  Na   0.129500   0.056196
     4  Na  -0.093510  -0.141265
     5  Na   0.106282   0.085557
     6  Na  -0.317328  -0.122769
     7  Na   0.433735   0.482940
 Sum of Mulliken charges =  -0.00000   1.00000

 Dipole moment (field-independent basis, Debye):
    X=             -0.2166    Y=             -0.1196    Z=             -0.1307  Tot=              0.2798
 Quadrupole moment (field-independent basis, Debye-Ang):
   XX=            -53.2698   YY=            -69.1180   ZZ=            -71.1310
   XY=             -1.1612   XZ=             -1.2181   YZ=             -1.1660

 Normal termination of Gaussian 16 at Tue Dec  5 22:28:28 2023.
