 Gaussian 16, Revision B.01,
 Gaussian 16:  ES64L-G16RevB.01 20-Dec-2017

 -------------------------
 #P B3LYP/6-311+g(d) force
 -------------------------

 -----
 DPGEN
 -----
 Symbolic Z-matrix:
 Charge =  0 Multiplicity = 2

                         Standard orientation:
 ---------------------------------------------------------------------
 Center     Atomic      Atomic             Coordinates (Angstroms)
 Number     Number       Type             X           Y           Z
 ---------------------------------------------------------------------
      1         11           0        0.369781   -2.941649   -0.117442
      2         11           0        3.696739   -1.791684    1.043158
      3         11           0       -3.933464   -0.010540    0.776025
      4         11           0       -2.225088    3.024083    0.284918
      5         11           0        4.253709    0.789439   -0.650774
      6         11           0       -3.079999   -2.547604   -0.967545
      7         11           0        0.918323    3.477955   -0.368341
 ---------------------------------------------------------------------

 SCF Done:  E(UB3LYP) =  -1136.10744857     A.U. after   23 cycles

 The electronic state is 2-A.
 Alpha  occ. eigenvalues --  -38.45010 -38.44870 -38.44722 -38.44265 -38.44230
 Alpha  occ. eigenvalues --  -38.44175 -38.44027  -2.20806  -2.20665  -2.20506
 Alpha  occ. eigenvalues --   -2.20048  -2.20016  -2.19960  -2.19855  -1.14507
 Alpha  occ. eigenvalues --   -1.14456  -1.14442  -1.14329  -1.14314  -1.14293
 Alpha  occ. eigenvalues --   -1.14196  -1.14180  -1.14159  -1.13719  -1.13711
 Alpha  occ. eigenvalues --   -1.13699  -1.13693  -1.13684  -1.13654  -1.13615
 Alpha  occ. eigenvalues --   -1.13602  -1.13567  -1.13504  -1.13490  -1.13487
 Alpha  occ. eigenvalues --   -0.15610  -0.14165  -0.13163  -0.10559
 Alpha virt. eigenvalues --   -0.07790  -0.04843  -0.04618  -0.03539  -0.03431
 Alpha virt. eigenvalues --   -0.02360  -0.02229  -0.01592  -0.01260  -0.01037
 Alpha virt. eigenvalues --   -0.00668  -0.00176   0.00207   0.00402   0.00664

  Beta  occ. eigenvalues --  -38.44964 -38.44867 -38.44735 -38.44230 -38.44187
  Beta  occ. eigenvalues --  -38.44131 -38.43964  -2.20723  -2.20665  -2.20536
  Beta  occ. eigenvalues --   -2.20023  -2.19903  -2.19880  -2.19737  -1.14457
  Beta  occ. eigenvalues --   -1.14401  -1.14382  -1.14333  -1.14311  -1.14258
  Beta  occ. eigenvalues --   -1.14211  -1.14205  -1.14149  -1.13706  -1.13701
  Beta  occ. eigenvalues --   -1.13666  -1.13612  -1.13600  -1.13562  -1.13561
  Beta  occ. eigenvalues --   -1.13550  -1.13513  -1.13425  -1.13414  -1.13411
  Beta  occ. eigenvalues --   -0.15068  -0.13580  -0.12483
  Beta virt. eigenvalues --   -0.07751  -0.07425  -0.04469  -0.04209  -0.03242
  Beta virt. eigenvalues --   -0.03085  -0.02168  -0.02063  -0.01471  -0.01122
  Beta virt. eigenvalues --   -0.00602  -0.00473  -0.00021   0.00238   0.00508

 Mulliken charges and spin densities:
               1          2
     1  Na  -0.284732   0.368553
     2  Na   0.158639   0.017529
     3  Na  -0.173755   0.313131
     4  Na   0.058262  -0.038746
     5  Na   0.039195   0.234216
     6  Na   0.179820  -0.079919
     7  Na   0.022571   0.185236
 Sum of Mulliken charges =  -0.00000   1.00000

 Dipole moment (field-independent basis, Debye):
    X=              0.7841    Y=             -0.3597    Z=             -0.1124  Tot=              0.8700
 Quadrupole moment (field-independent basis, Debye-Ang):
   XX=            -62.6556   YY=            -70.0391   ZZ=            -68.5122
   XY=              2.5153   XZ=              0.3861   YZ=             -1.4748

 Normal termination of Gaussian 16 at Sun Dec  3 21:42:42 2023.
