 Gaussian 16, Revision B.01,
 Gaussian 16:  ES64L-G16RevB.01 20-Dec-2017

 -------------------------
 #P B3LYP/6-311+g(d) force
 -------------------------

 -----
 DPGEN
 -----
 Symbolic Z-matrix:
 Charge =  0 Multiplicity = 2

                         Standard orientation:
 ---------------------------------------------------------------------
 Center     Atomic      Atomic             Coordinates (Angstroms)
 Number     Number       Type             X           Y           Z
 ---------------------------------------------------------------------
      1         11           0        0.735758    3.076495   -0.011627
      2         11           0       -2.927678    1.354270   -0.226780
      3         11           0        1.347993   -2.877031   -0.602694
      4         11           0        3.247161    0.364501    0.232414
      5         11           0        0.056777   -0.362346    2.015261
      6         11           0        0.058824    0.192998   -1.650720
      7         11           0       -2.518834   -1.748888    0.244146
 ---------------------------------------------------------------------

 SCF Done:  E(UB3LYP) =  -1136.13547601     A.U. after   19 cycles

 The electronic state is 2-A.
 Alpha  occ. eigenvalues --  -38.44535 -38.44006 -38.43815 -38.43718 -38.43562
 Alpha  occ. eigenvalues --  -38.43542 -38.43266  -2.20323  -2.19834  -2.19665
 Alpha  occ. eigenvalues --   -2.19580  -2.19361  -2.19341  -2.19190  -1.14004
 Alpha  occ. eigenvalues --   -1.13981  -1.13955  -1.13541  -1.13500  -1.13475
 Alpha  occ. eigenvalues --   -1.13348  -1.13317  -1.13291  -1.13248  -1.13204
 Alpha  occ. eigenvalues --   -1.13196  -1.13044  -1.13032  -1.13009  -1.13008
 Alpha  occ. eigenvalues --   -1.13002  -1.12974  -1.12878  -1.12820  -1.12808
 Alpha  occ. eigenvalues --   -0.18140  -0.13086  -0.12152  -0.10565
 Alpha virt. eigenvalues --   -0.05914  -0.05198  -0.04930  -0.03226  -0.02812
 Alpha virt. eigenvalues --   -0.02420  -0.01705  -0.01253  -0.00635  -0.00554
 Alpha virt. eigenvalues --   -0.00022   0.00350   0.00749   0.00825   0.00839

  Beta  occ. eigenvalues --  -38.44530 -38.44003 -38.43809 -38.43632 -38.43545
  Beta  occ. eigenvalues --  -38.43542 -38.43204  -2.20317  -2.19831  -2.19657
  Beta  occ. eigenvalues --   -2.19420  -2.19344  -2.19331  -2.19077  -1.13982
  Beta  occ. eigenvalues --   -1.13979  -1.13952  -1.13542  -1.13479  -1.13475
  Beta  occ. eigenvalues --   -1.13328  -1.13297  -1.13287  -1.13143  -1.13096
  Beta  occ. eigenvalues --   -1.13080  -1.13027  -1.13009  -1.13004  -1.12985
  Beta  occ. eigenvalues --   -1.12983  -1.12973  -1.12800  -1.12743  -1.12722
  Beta  occ. eigenvalues --   -0.17444  -0.12876  -0.11899
  Beta virt. eigenvalues --   -0.06744  -0.05851  -0.05163  -0.04826  -0.02488
  Beta virt. eigenvalues --   -0.02126  -0.01601  -0.01431  -0.01140  -0.00670
  Beta virt. eigenvalues --   -0.00591   0.00120   0.00384   0.00790   0.00840

 Mulliken charges and spin densities:
               1          2
     1  Na  -0.084182  -0.107325
     2  Na  -0.005659  -0.092857
     3  Na  -0.029461  -0.004130
     4  Na   0.085036  -0.027038
     5  Na  -0.241846   0.664109
     6  Na   0.008763   0.537260
     7  Na   0.267348   0.029982
 Sum of Mulliken charges =  -0.00000   1.00000

 Dipole moment (field-independent basis, Debye):
    X=              0.1886    Y=              0.0694    Z=              0.1460  Tot=              0.2484
 Quadrupole moment (field-independent basis, Debye-Ang):
   XX=            -55.4749   YY=            -62.1886   ZZ=            -75.4759
   XY=             -0.1942   XZ=              0.4153   YZ=              1.1688

 Normal termination of Gaussian 16 at Thu Dec  7 02:42:57 2023.
