 Gaussian 16, Revision B.01,
 Gaussian 16:  ES64L-G16RevB.01 20-Dec-2017

 -------------------------
 #P B3LYP/6-311+g(d) force
 -------------------------

 -----
 DPGEN
 -----
 Symbolic Z-matrix:
 Charge =  0 Multiplicity = 2

                         Standard orientation:
 ---------------------------------------------------------------------
 Center     Atomic      Atomic             Coordinates (Angstroms)
 Number     Number       Type             X           Y           Z
 ---------------------------------------------------------------------
      1         11           0       -0.032501   -0.362408   -1.515291
      2         11           0       -3.510220   -0.033073   -0.559276
      3         11           0       -1.582513    2.020208    0.788794
      4         11           0       -0.891407   -2.738576    0.497753
      5         11           0        1.695729    2.378356   -0.356819
      6         11           0        1.185105   -0.287154    1.694455
      7         11           0        3.135808   -0.977353   -0.549616
 ---------------------------------------------------------------------

 SCF Done:  E(UB3LYP) =  -1136.13025619     A.U. after   21 cycles

 The electronic state is 2-A.
 Alpha  occ. eigenvalues --  -38.44682 -38.44508 -38.43527 -38.43465 -38.43370
 Alpha  occ. eigenvalues --  -38.43198 -38.43157  -2.20546  -2.20328  -2.19356
 Alpha  occ. eigenvalues --   -2.19341  -2.19326  -2.19134  -2.19068  -1.14253
 Alpha  occ. eigenvalues --   -1.14204  -1.14153  -1.14020  -1.13987  -1.13947
 Alpha  occ. eigenvalues --   -1.13104  -1.13058  -1.13029  -1.13002  -1.12997
 Alpha  occ. eigenvalues --   -1.12974  -1.12960  -1.12955  -1.12937  -1.12806
 Alpha  occ. eigenvalues --   -1.12795  -1.12737  -1.12727  -1.12716  -1.12711
 Alpha  occ. eigenvalues --   -0.18698  -0.13560  -0.12029  -0.10574
 Alpha virt. eigenvalues --   -0.06468  -0.05053  -0.04306  -0.03328  -0.02711
 Alpha virt. eigenvalues --   -0.02174  -0.02080  -0.01037  -0.00618  -0.00070
 Alpha virt. eigenvalues --    0.00064   0.00300   0.00525   0.00798   0.00831

  Beta  occ. eigenvalues --  -38.44664 -38.44500 -38.43515 -38.43457 -38.43321
  Beta  occ. eigenvalues --  -38.43185 -38.43087  -2.20515  -2.20314  -2.19337
  Beta  occ. eigenvalues --   -2.19316  -2.19252  -2.19046  -2.19006  -1.14227
  Beta  occ. eigenvalues --   -1.14170  -1.14128  -1.14013  -1.13969  -1.13940
  Beta  occ. eigenvalues --   -1.13075  -1.13029  -1.12997  -1.12981  -1.12960
  Beta  occ. eigenvalues --   -1.12957  -1.12934  -1.12906  -1.12876  -1.12730
  Beta  occ. eigenvalues --   -1.12714  -1.12705  -1.12702  -1.12682  -1.12623
  Beta  occ. eigenvalues --   -0.18006  -0.13334  -0.11767
  Beta virt. eigenvalues --   -0.06751  -0.06359  -0.05000  -0.04113  -0.02793
  Beta virt. eigenvalues --   -0.02087  -0.01896  -0.01205  -0.00997  -0.00512
  Beta virt. eigenvalues --    0.00033   0.00110   0.00346   0.00653   0.00832

 Mulliken charges and spin densities:
               1          2
     1  Na  -0.416641   0.277822
     2  Na   0.376381   0.038946
     3  Na  -0.320315   0.003973
     4  Na  -0.155758  -0.029677
     5  Na   0.119181   0.144202
     6  Na  -0.018935   0.496656
     7  Na   0.416087   0.068077
 Sum of Mulliken charges =  -0.00000   1.00000

 Dipole moment (field-independent basis, Debye):
    X=              0.1132    Y=             -0.2751    Z=             -0.1495  Tot=              0.3330
 Quadrupole moment (field-independent basis, Debye-Ang):
   XX=            -51.1012   YY=            -67.4402   ZZ=            -73.7352
   XY=              0.5184   XZ=             -0.8959   YZ=             -0.3344

 Normal termination of Gaussian 16 at Tue Dec  5 14:45:07 2023.
