 Gaussian 16, Revision B.01,
 Gaussian 16:  ES64L-G16RevB.01 20-Dec-2017

 -------------------------
 #P B3LYP/6-311+g(d) force
 -------------------------

 -----
 DPGEN
 -----
 Symbolic Z-matrix:
 Charge =  0 Multiplicity = 2

                         Standard orientation:
 ---------------------------------------------------------------------
 Center     Atomic      Atomic             Coordinates (Angstroms)
 Number     Number       Type             X           Y           Z
 ---------------------------------------------------------------------
      1         11           0        0.191164    1.677828    1.170745
      2         11           0        2.406133    3.579893   -0.668371
      3         11           0        2.859672    0.306457   -0.630663
      4         11           0        0.599916   -2.016430    0.529681
      5         11           0       -3.219348    0.465604    0.622345
      6         11           0        4.364973   -3.112896   -0.216108
      7         11           0       -7.202509   -0.900455   -0.807630
 ---------------------------------------------------------------------

 SCF Done:  E(UB3LYP) =  -1136.11320605     A.U. after   22 cycles

 The electronic state is 2-A.
 Alpha  occ. eigenvalues --  -38.45445 -38.45149 -38.44735 -38.44130 -38.43970
 Alpha  occ. eigenvalues --  -38.43903 -38.43412  -2.21216  -2.20917  -2.20483
 Alpha  occ. eigenvalues --   -2.19846  -2.19810  -2.19767  -2.19240  -1.14843
 Alpha  occ. eigenvalues --   -1.14843  -1.14815  -1.14628  -1.14616  -1.14482
 Alpha  occ. eigenvalues --   -1.14156  -1.14154  -1.14092  -1.13546  -1.13540
 Alpha  occ. eigenvalues --   -1.13529  -1.13506  -1.13482  -1.13476  -1.13470
 Alpha  occ. eigenvalues --   -1.13395  -1.13339  -1.12904  -1.12894  -1.12865
 Alpha  occ. eigenvalues --   -0.16514  -0.13112  -0.12477  -0.11453
 Alpha virt. eigenvalues --   -0.06664  -0.05250  -0.04984  -0.03629  -0.02785
 Alpha virt. eigenvalues --   -0.02352  -0.02058  -0.01919  -0.01472  -0.01153
 Alpha virt. eigenvalues --   -0.00634  -0.00357  -0.00026   0.00211   0.00507

  Beta  occ. eigenvalues --  -38.45297 -38.45131 -38.44721 -38.44160 -38.43954
  Beta  occ. eigenvalues --  -38.43895 -38.43395  -2.20939  -2.20885  -2.20457
  Beta  occ. eigenvalues --   -2.19906  -2.19782  -2.19754  -2.19208  -1.14655
  Beta  occ. eigenvalues --   -1.14655  -1.14630  -1.14608  -1.14595  -1.14451
  Beta  occ. eigenvalues --   -1.14138  -1.14134  -1.14076  -1.13590  -1.13582
  Beta  occ. eigenvalues --   -1.13514  -1.13498  -1.13483  -1.13463  -1.13459
  Beta  occ. eigenvalues --   -1.13367  -1.13327  -1.12879  -1.12872  -1.12847
  Beta  occ. eigenvalues --   -0.16227  -0.12518  -0.11931
  Beta virt. eigenvalues --   -0.07877  -0.06289  -0.04939  -0.04800  -0.03496
  Beta virt. eigenvalues --   -0.02482  -0.02074  -0.01712  -0.01548  -0.01018
  Beta virt. eigenvalues --   -0.00721  -0.00246  -0.00222   0.00084   0.00369

 Mulliken charges and spin densities:
               1          2
     1  Na  -0.502973  -0.058403
     2  Na   1.113558   0.056826
     3  Na  -0.979720   0.113606
     4  Na  -0.084213   0.080292
     5  Na  -0.092062   0.008234
     6  Na   0.535799   0.085457
     7  Na   0.009612   0.713988
 Sum of Mulliken charges =  -0.00000   1.00000

 Dipole moment (field-independent basis, Debye):
    X=              1.0695    Y=             -0.6278    Z=             -0.1710  Tot=              1.2519
 Quadrupole moment (field-independent basis, Debye-Ang):
   XX=            -61.2016   YY=            -60.9834   ZZ=            -72.2177
   XY=             -3.5680   XZ=              0.3907   YZ=             -0.2279

 Normal termination of Gaussian 16 at Tue Nov 28 19:43:26 2023.
