 Gaussian 16, Revision B.01,
 Gaussian 16:  ES64L-G16RevB.01 20-Dec-2017

 -------------------------
 #P B3LYP/6-311+g(d) force
 -------------------------

 -----
 DPGEN
 -----
 Symbolic Z-matrix:
 Charge =  0 Multiplicity = 2

                         Standard orientation:
 ---------------------------------------------------------------------
 Center     Atomic      Atomic             Coordinates (Angstroms)
 Number     Number       Type             X           Y           Z
 ---------------------------------------------------------------------
      1         11           0        3.629213    2.097308   -0.769077
      2         11           0        2.128395   -1.151870    0.484147
      3         11           0        5.002842   -1.832230   -0.199758
      4         11           0        0.595436    1.824659    0.165397
      5         11           0       -1.842014   -0.522076    1.436570
      6         11           0       -4.762798    1.465059    0.045259
      7         11           0       -4.751073   -1.880850   -1.162539
 ---------------------------------------------------------------------

 SCF Done:  E(UB3LYP) =  -1136.11040717     A.U. after   35 cycles

 The electronic state is 2-A.
 Alpha  occ. eigenvalues --  -38.45982 -38.45391 -38.44406 -38.43856 -38.43361
 Alpha  occ. eigenvalues --  -38.42842 -38.42838  -2.21735  -2.21126  -2.20241
 Alpha  occ. eigenvalues --   -2.19659  -2.19247  -2.18705  -2.18664  -1.15411
 Alpha  occ. eigenvalues --   -1.15384  -1.15350  -1.14806  -1.14803  -1.14749
 Alpha  occ. eigenvalues --   -1.13911  -1.13895  -1.13827  -1.13347  -1.13322
 Alpha  occ. eigenvalues --   -1.13256  -1.12934  -1.12926  -1.12895  -1.12397
 Alpha  occ. eigenvalues --   -1.12379  -1.12338  -1.12332  -1.12308  -1.12280
 Alpha  occ. eigenvalues --   -0.16232  -0.14519  -0.11250  -0.10834
 Alpha virt. eigenvalues --   -0.07153  -0.05352  -0.04141  -0.03573  -0.02766
 Alpha virt. eigenvalues --   -0.02631  -0.02163  -0.01687  -0.01016  -0.00598
 Alpha virt. eigenvalues --   -0.00449  -0.00125   0.00101   0.00171   0.00402

  Beta  occ. eigenvalues --  -38.45962 -38.45405 -38.44315 -38.43815 -38.43327
  Beta  occ. eigenvalues --  -38.42828 -38.42811  -2.21697  -2.21153  -2.20073
  Beta  occ. eigenvalues --   -2.19583  -2.19186  -2.18686  -2.18615  -1.15384
  Beta  occ. eigenvalues --   -1.15357  -1.15326  -1.14825  -1.14818  -1.14765
  Beta  occ. eigenvalues --   -1.13792  -1.13782  -1.13706  -1.13296  -1.13274
  Beta  occ. eigenvalues --   -1.13198  -1.12895  -1.12874  -1.12842  -1.12392
  Beta  occ. eigenvalues --   -1.12374  -1.12292  -1.12276  -1.12267  -1.12249
  Beta  occ. eigenvalues --   -0.15624  -0.14145  -0.10706
  Beta virt. eigenvalues --   -0.07296  -0.07137  -0.04893  -0.03967  -0.03397
  Beta virt. eigenvalues --   -0.02430  -0.02069  -0.01828  -0.01549  -0.00828
  Beta virt. eigenvalues --   -0.00326  -0.00228  -0.00038   0.00180   0.00294

 Mulliken charges and spin densities:
               1          2
     1  Na   0.608851   0.289494
     2  Na  -2.105977   0.417650
     3  Na   1.869600   0.270447
     4  Na  -0.503146   0.062727
     5  Na  -0.338301  -0.070641
     6  Na   0.300659   0.129081
     7  Na   0.168313  -0.098759
 Sum of Mulliken charges =  -0.00000   1.00000

 Dipole moment (field-independent basis, Debye):
    X=             -2.7837    Y=              0.5012    Z=             -0.5253  Tot=              2.8768
 Quadrupole moment (field-independent basis, Debye-Ang):
   XX=            -61.2513   YY=            -61.8125   ZZ=            -71.7932
   XY=              1.2514   XZ=             -2.5551   YZ=              1.6530

 Normal termination of Gaussian 16 at Sun Dec  3 22:44:54 2023.
