 Gaussian 16, Revision B.01,
 Gaussian 16:  ES64L-G16RevB.01 20-Dec-2017

 -------------------------
 #P B3LYP/6-311+g(d) force
 -------------------------

 -----
 DPGEN
 -----
 Symbolic Z-matrix:
 Charge =  0 Multiplicity = 2

                         Standard orientation:
 ---------------------------------------------------------------------
 Center     Atomic      Atomic             Coordinates (Angstroms)
 Number     Number       Type             X           Y           Z
 ---------------------------------------------------------------------
      1         11           0        0.500242   -0.660226   -1.271555
      2         11           0       -4.150522    0.103825    0.795836
      3         11           0       -2.256412   -2.620385   -0.641715
      4         11           0        4.332749   -0.933866    0.830251
      5         11           0       -1.848939    2.656495   -0.327409
      6         11           0        0.573286    0.148187    1.521198
      7         11           0        2.849596    1.305969   -0.906606
 ---------------------------------------------------------------------

 SCF Done:  E(UB3LYP) =  -1136.10496012     A.U. after   30 cycles

 The electronic state is 2-A.
 Alpha  occ. eigenvalues --  -38.46847 -38.45265 -38.44558 -38.44520 -38.44016
 Alpha  occ. eigenvalues --  -38.43166 -38.42583  -2.22672  -2.21158  -2.20357
 Alpha  occ. eigenvalues --   -2.20344  -2.19982  -2.18926  -2.18374  -1.16453
 Alpha  occ. eigenvalues --   -1.16299  -1.16260  -1.14878  -1.14807  -1.14780
 Alpha  occ. eigenvalues --   -1.14016  -1.14014  -1.13994  -1.13975  -1.13963
 Alpha  occ. eigenvalues --   -1.13961  -1.13720  -1.13593  -1.13569  -1.12617
 Alpha  occ. eigenvalues --   -1.12590  -1.12568  -1.12057  -1.12032  -1.12029
 Alpha  occ. eigenvalues --   -0.18027  -0.14239  -0.10955  -0.10764
 Alpha virt. eigenvalues --   -0.07463  -0.05678  -0.04834  -0.03232  -0.02946
 Alpha virt. eigenvalues --   -0.02533  -0.01995  -0.01583  -0.01038  -0.00483
 Alpha virt. eigenvalues --   -0.00315  -0.00110   0.00188   0.00391   0.00579

  Beta  occ. eigenvalues --  -38.46851 -38.45245 -38.44490 -38.44438 -38.43950
  Beta  occ. eigenvalues --  -38.43173 -38.42592  -2.22683  -2.21127  -2.20217
  Beta  occ. eigenvalues --   -2.20203  -2.19864  -2.18942  -2.18393  -1.16439
  Beta  occ. eigenvalues --   -1.16303  -1.16279  -1.14841  -1.14793  -1.14729
  Beta  occ. eigenvalues --   -1.13929  -1.13909  -1.13892  -1.13887  -1.13874
  Beta  occ. eigenvalues --   -1.13864  -1.13643  -1.13521  -1.13468  -1.12630
  Beta  occ. eigenvalues --   -1.12604  -1.12560  -1.12071  -1.12044  -1.12029
  Beta  occ. eigenvalues --   -0.17460  -0.13569  -0.10661
  Beta virt. eigenvalues --   -0.07465  -0.07243  -0.05197  -0.04423  -0.03036
  Beta virt. eigenvalues --   -0.02728  -0.01836  -0.01757  -0.01505  -0.00811
  Beta virt. eigenvalues --   -0.00212  -0.00099   0.00017   0.00340   0.00520

 Mulliken charges and spin densities:
               1          2
     1  Na  -0.588114   0.222658
     2  Na  -0.035306   0.454227
     3  Na  -0.007991  -0.243732
     4  Na   0.030569   0.467069
     5  Na  -0.064552  -0.029829
     6  Na  -0.455503  -0.075403
     7  Na   1.120897   0.205010
 Sum of Mulliken charges =  -0.00000   1.00000

 Dipole moment (field-independent basis, Debye):
    X=              1.5734    Y=              0.3962    Z=              0.3326  Tot=              1.6563
 Quadrupole moment (field-independent basis, Debye-Ang):
   XX=            -63.8932   YY=            -77.2454   ZZ=            -63.6538
   XY=              2.3991   XZ=             -3.1760   YZ=             -4.6832

 Normal termination of Gaussian 16 at Fri Dec  8 03:57:38 2023.
