 Gaussian 16, Revision B.01,
 Gaussian 16:  ES64L-G16RevB.01 20-Dec-2017

 -------------------------
 #P B3LYP/6-311+g(d) force
 -------------------------

 -----
 DPGEN
 -----
 Symbolic Z-matrix:
 Charge =  0 Multiplicity = 2

                         Standard orientation:
 ---------------------------------------------------------------------
 Center     Atomic      Atomic             Coordinates (Angstroms)
 Number     Number       Type             X           Y           Z
 ---------------------------------------------------------------------
      1         11           0        0.788711   -1.717215    1.370653
      2         11           0        4.551215   -2.986814   -0.649914
      3         11           0        2.483707    0.437702   -0.458717
      4         11           0        1.119950    4.490210   -0.424971
      5         11           0       -0.380330    1.738884    0.962199
      6         11           0       -2.355183   -0.698584   -0.286468
      7         11           0       -6.208070   -1.264183   -0.512781
 ---------------------------------------------------------------------

 SCF Done:  E(UB3LYP) =  -1136.11184986     A.U. after   21 cycles

 The electronic state is 2-A.
 Alpha  occ. eigenvalues --  -38.45073 -38.44984 -38.44883 -38.44843 -38.43913
 Alpha  occ. eigenvalues --  -38.43874 -38.43738  -2.20863  -2.20754  -2.20663
 Alpha  occ. eigenvalues --   -2.20627  -2.19785  -2.19651  -2.19516  -1.14601
 Alpha  occ. eigenvalues --   -1.14571  -1.14436  -1.14392  -1.14392  -1.14354
 Alpha  occ. eigenvalues --   -1.14354  -1.14336  -1.14290  -1.14285  -1.14246
 Alpha  occ. eigenvalues --   -1.14226  -1.13494  -1.13477  -1.13406  -1.13347
 Alpha  occ. eigenvalues --   -1.13339  -1.13271  -1.13179  -1.13177  -1.13132
 Alpha  occ. eigenvalues --   -0.16886  -0.13055  -0.12468  -0.11242
 Alpha virt. eigenvalues --   -0.06600  -0.05638  -0.05122  -0.03274  -0.02742
 Alpha virt. eigenvalues --   -0.02422  -0.02075  -0.01805  -0.01403  -0.01307
 Alpha virt. eigenvalues --   -0.00650  -0.00257  -0.00150   0.00373   0.00505

  Beta  occ. eigenvalues --  -38.45083 -38.44868 -38.44826 -38.44817 -38.43909
  Beta  occ. eigenvalues --  -38.43896 -38.43713  -2.20883  -2.20618  -2.20537
  Beta  occ. eigenvalues --   -2.20520  -2.19781  -2.19697  -2.19468  -1.14606
  Beta  occ. eigenvalues --   -1.14581  -1.14453  -1.14327  -1.14308  -1.14244
  Beta  occ. eigenvalues --   -1.14244  -1.14217  -1.14212  -1.14210  -1.14203
  Beta  occ. eigenvalues --   -1.14158  -1.13502  -1.13476  -1.13407  -1.13376
  Beta  occ. eigenvalues --   -1.13356  -1.13259  -1.13146  -1.13145  -1.13102
  Beta  occ. eigenvalues --   -0.16588  -0.12284  -0.11929
  Beta virt. eigenvalues --   -0.08043  -0.06131  -0.05442  -0.04889  -0.03064
  Beta virt. eigenvalues --   -0.02481  -0.02154  -0.01897  -0.01409  -0.00989
  Beta virt. eigenvalues --   -0.00956  -0.00329  -0.00060  -0.00019   0.00467

 Mulliken charges and spin densities:
               1          2
     1  Na   0.264032  -0.003716
     2  Na   0.360377   0.335210
     3  Na  -0.504220  -0.023772
     4  Na   0.551965   0.125905
     5  Na  -0.224207   0.017665
     6  Na  -0.326541   0.038630
     7  Na  -0.121407   0.510077
 Sum of Mulliken charges =  -0.00000   1.00000

 Dipole moment (field-independent basis, Debye):
    X=              0.5597    Y=             -0.6383    Z=              0.2042  Tot=              0.8731
 Quadrupole moment (field-independent basis, Debye-Ang):
   XX=            -64.0518   YY=            -63.4376   ZZ=            -69.3446
   XY=             -3.6088   XZ=             -1.9342   YZ=             -1.8478

 Normal termination of Gaussian 16 at Tue Nov 28 21:21:55 2023.
