 Gaussian 16, Revision B.01,
 Gaussian 16:  ES64L-G16RevB.01 20-Dec-2017

 -------------------------
 #P B3LYP/6-311+g(d) force
 -------------------------

 -----
 DPGEN
 -----
 Symbolic Z-matrix:
 Charge =  0 Multiplicity = 2

                         Standard orientation:
 ---------------------------------------------------------------------
 Center     Atomic      Atomic             Coordinates (Angstroms)
 Number     Number       Type             X           Y           Z
 ---------------------------------------------------------------------
      1         11           0        3.059163    1.410839   -0.013988
      2         11           0        2.983740   -1.736940    0.152311
      3         11           0       -0.939594    2.906745   -0.302564
      4         11           0        0.082550   -0.425548   -1.668307
      5         11           0        0.013801   -0.029411    1.707726
      6         11           0       -3.218287    0.467686    0.270416
      7         11           0       -1.981372   -2.593371   -0.145593
 ---------------------------------------------------------------------

 SCF Done:  E(UB3LYP) =  -1136.12986946     A.U. after   21 cycles

 The electronic state is 2-A.
 Alpha  occ. eigenvalues --  -38.44846 -38.44596 -38.44543 -38.43747 -38.43361
 Alpha  occ. eigenvalues --  -38.43160 -38.42844  -2.20657  -2.20418  -2.20389
 Alpha  occ. eigenvalues --   -2.19634  -2.19197  -2.19072  -2.18661  -1.14350
 Alpha  occ. eigenvalues --   -1.14323  -1.14299  -1.14075  -1.14064  -1.14062
 Alpha  occ. eigenvalues --   -1.14058  -1.14048  -1.14032  -1.13346  -1.13262
 Alpha  occ. eigenvalues --   -1.13247  -1.12879  -1.12857  -1.12847  -1.12767
 Alpha  occ. eigenvalues --   -1.12692  -1.12679  -1.12331  -1.12322  -1.12312
 Alpha  occ. eigenvalues --   -0.18252  -0.13841  -0.11727  -0.10103
 Alpha virt. eigenvalues --   -0.06445  -0.05819  -0.04353  -0.03414  -0.02380
 Alpha virt. eigenvalues --   -0.02230  -0.02038  -0.01463  -0.00779  -0.00466
 Alpha virt. eigenvalues --   -0.00033   0.00294   0.00621   0.00723   0.00822

  Beta  occ. eigenvalues --  -38.44844 -38.44591 -38.44536 -38.43683 -38.43358
  Beta  occ. eigenvalues --  -38.43081 -38.42839  -2.20655  -2.20412  -2.20378
  Beta  occ. eigenvalues --   -2.19516  -2.19195  -2.18926  -2.18655  -1.14352
  Beta  occ. eigenvalues --   -1.14309  -1.14291  -1.14067  -1.14058  -1.14044
  Beta  occ. eigenvalues --   -1.14044  -1.14032  -1.14029  -1.13259  -1.13181
  Beta  occ. eigenvalues --   -1.13159  -1.12870  -1.12857  -1.12828  -1.12667
  Beta  occ. eigenvalues --   -1.12589  -1.12576  -1.12328  -1.12315  -1.12296
  Beta  occ. eigenvalues --   -0.17565  -0.13630  -0.11508
  Beta virt. eigenvalues --   -0.06397  -0.06234  -0.05831  -0.04295  -0.02674
  Beta virt. eigenvalues --   -0.02095  -0.01706  -0.01417  -0.01109  -0.00777
  Beta virt. eigenvalues --   -0.00476   0.00145   0.00335   0.00695   0.00725

 Mulliken charges and spin densities:
               1          2
     1  Na   0.002468   0.006404
     2  Na   0.197717  -0.019808
     3  Na  -0.274702  -0.046688
     4  Na  -0.143192   0.597695
     5  Na  -0.102363   0.428954
     6  Na   0.223683   0.089736
     7  Na   0.096388  -0.056291
 Sum of Mulliken charges =  -0.00000   1.00000

 Dipole moment (field-independent basis, Debye):
    X=              0.6669    Y=             -0.1860    Z=              0.1040  Tot=              0.7001
 Quadrupole moment (field-independent basis, Debye-Ang):
   XX=            -49.8807   YY=            -64.5259   ZZ=            -77.8232
   XY=              0.4225   XZ=             -0.2125   YZ=             -0.9823

 Normal termination of Gaussian 16 at Tue Dec  5 21:50:16 2023.
