 Gaussian 16, Revision B.01,
 Gaussian 16:  ES64L-G16RevB.01 20-Dec-2017

 -------------------------
 #P B3LYP/6-311+g(d) force
 -------------------------

 -----
 DPGEN
 -----
 Symbolic Z-matrix:
 Charge =  0 Multiplicity = 2

                         Standard orientation:
 ---------------------------------------------------------------------
 Center     Atomic      Atomic             Coordinates (Angstroms)
 Number     Number       Type             X           Y           Z
 ---------------------------------------------------------------------
      1         11           0        0.228513   -0.394408    2.024358
      2         11           0       -0.111346    0.045584   -1.836342
      3         11           0       -0.852794   -3.004431   -0.219690
      4         11           0        3.349889   -1.110898   -0.047124
      5         11           0       -1.523275    2.728247    0.186590
      6         11           0        1.922970    2.155642   -0.149324
      7         11           0       -3.013956   -0.419735    0.041533
 ---------------------------------------------------------------------

 SCF Done:  E(UB3LYP) =  -1136.13680903     A.U. after   20 cycles

 The electronic state is 2-A.
 Alpha  occ. eigenvalues --  -38.44415 -38.43984 -38.43741 -38.43685 -38.43671
 Alpha  occ. eigenvalues --  -38.43528 -38.43264  -2.20177  -2.19831  -2.19592
 Alpha  occ. eigenvalues --   -2.19528  -2.19494  -2.19432  -2.19090  -1.13850
 Alpha  occ. eigenvalues --   -1.13836  -1.13822  -1.13511  -1.13498  -1.13473
 Alpha  occ. eigenvalues --   -1.13266  -1.13236  -1.13230  -1.13210  -1.13195
 Alpha  occ. eigenvalues --   -1.13170  -1.13150  -1.13146  -1.13133  -1.13104
 Alpha  occ. eigenvalues --   -1.13057  -1.13050  -1.12753  -1.12750  -1.12742
 Alpha  occ. eigenvalues --   -0.18209  -0.12974  -0.12251  -0.10646
 Alpha virt. eigenvalues --   -0.05966  -0.05126  -0.04844  -0.03231  -0.02912
 Alpha virt. eigenvalues --   -0.02560  -0.01697  -0.01194  -0.00600  -0.00396
 Alpha virt. eigenvalues --   -0.00042   0.00356   0.00758   0.00815   0.00829

  Beta  occ. eigenvalues --  -38.44418 -38.43979 -38.43678 -38.43666 -38.43655
  Beta  occ. eigenvalues --  -38.43453 -38.43261  -2.20185  -2.19825  -2.19519
  Beta  occ. eigenvalues --   -2.19488  -2.19433  -2.19295  -2.19087  -1.13846
  Beta  occ. eigenvalues --   -1.13839  -1.13828  -1.13505  -1.13477  -1.13467
  Beta  occ. eigenvalues --   -1.13220  -1.13178  -1.13170  -1.13148  -1.13145
  Beta  occ. eigenvalues --   -1.13139  -1.13131  -1.13102  -1.13093  -1.13015
  Beta  occ. eigenvalues --   -1.12960  -1.12954  -1.12751  -1.12744  -1.12728
  Beta  occ. eigenvalues --   -0.17470  -0.12773  -0.12053
  Beta virt. eigenvalues --   -0.06771  -0.05939  -0.05045  -0.04804  -0.02452
  Beta virt. eigenvalues --   -0.02163  -0.01668  -0.01497  -0.01105  -0.00661
  Beta virt. eigenvalues --   -0.00439   0.00109   0.00377   0.00789   0.00828

 Mulliken charges and spin densities:
               1          2
     1  Na  -0.365534   0.741119
     2  Na  -0.058511   0.577463
     3  Na   0.112874  -0.139959
     4  Na   0.041536  -0.149792
     5  Na  -0.047768  -0.026618
     6  Na   0.120509  -0.022983
     7  Na   0.196894   0.020771
 Sum of Mulliken charges =  -0.00000   1.00000

 Dipole moment (field-independent basis, Debye):
    X=              0.2452    Y=             -0.3332    Z=              0.0223  Tot=              0.4143
 Quadrupole moment (field-independent basis, Debye-Ang):
   XX=            -56.8202   YY=            -62.0922   ZZ=            -74.7470
   XY=             -1.0936   XZ=             -0.8439   YZ=              1.0349

 Normal termination of Gaussian 16 at Tue Dec  5 11:18:16 2023.
