 Gaussian 16, Revision B.01,
 Gaussian 16:  ES64L-G16RevB.01 20-Dec-2017

 -------------------------
 #P B3LYP/6-311+g(d) force
 -------------------------

 -----
 DPGEN
 -----
 Symbolic Z-matrix:
 Charge =  0 Multiplicity = 2

                         Standard orientation:
 ---------------------------------------------------------------------
 Center     Atomic      Atomic             Coordinates (Angstroms)
 Number     Number       Type             X           Y           Z
 ---------------------------------------------------------------------
      1         11           0        0.421388   -2.072258    1.215261
      2         11           0       -2.756145   -1.664697   -0.768463
      3         11           0       -2.561235    1.666842    0.211207
      4         11           0        0.229232   -0.480358   -1.879952
      5         11           0       -0.435126    1.093321    1.895778
      6         11           0        3.396039   -0.796108    0.187055
      7         11           0        1.705847    2.253258   -0.860886
 ---------------------------------------------------------------------

 SCF Done:  E(UB3LYP) =  -1136.12522401     A.U. after   20 cycles

 The electronic state is 2-A.
 Alpha  occ. eigenvalues --  -38.44712 -38.44087 -38.44038 -38.43861 -38.43707
 Alpha  occ. eigenvalues --  -38.43638 -38.43420  -2.20504  -2.19966  -2.19938
 Alpha  occ. eigenvalues --   -2.19793  -2.19533  -2.19468  -2.19296  -1.14178
 Alpha  occ. eigenvalues --   -1.14167  -1.14144  -1.13900  -1.13623  -1.13594
 Alpha  occ. eigenvalues --   -1.13591  -1.13573  -1.13562  -1.13428  -1.13379
 Alpha  occ. eigenvalues --   -1.13353  -1.13206  -1.13179  -1.13169  -1.13162
 Alpha  occ. eigenvalues --   -1.13118  -1.13077  -1.12987  -1.12945  -1.12903
 Alpha  occ. eigenvalues --   -0.18415  -0.13313  -0.11774  -0.11628
 Alpha virt. eigenvalues --   -0.06184  -0.05073  -0.03730  -0.03695  -0.03349
 Alpha virt. eigenvalues --   -0.02914  -0.01888  -0.01010  -0.00293  -0.00041
 Alpha virt. eigenvalues --    0.00155   0.00298   0.00577   0.00740   0.00836

  Beta  occ. eigenvalues --  -38.44713 -38.44084 -38.43974 -38.43797 -38.43690
  Beta  occ. eigenvalues --  -38.43613 -38.43377  -2.20508  -2.19962  -2.19822
  Beta  occ. eigenvalues --   -2.19679  -2.19503  -2.19424  -2.19218  -1.14177
  Beta  occ. eigenvalues --   -1.14164  -1.14142  -1.13865  -1.13579  -1.13574
  Beta  occ. eigenvalues --   -1.13546  -1.13505  -1.13475  -1.13350  -1.13300
  Beta  occ. eigenvalues --   -1.13289  -1.13172  -1.13161  -1.13151  -1.13119
  Beta  occ. eigenvalues --   -1.13089  -1.13048  -1.12931  -1.12885  -1.12843
  Beta  occ. eigenvalues --   -0.17679  -0.13050  -0.11498
  Beta virt. eigenvalues --   -0.07748  -0.06035  -0.04976  -0.03483  -0.03046
  Beta virt. eigenvalues --   -0.02794  -0.01943  -0.01799  -0.00922  -0.00150
  Beta virt. eigenvalues --    0.00025   0.00177   0.00330   0.00707   0.00817

 Mulliken charges and spin densities:
               1          2
     1  Na  -0.074001   0.355016
     2  Na   0.078271   0.076806
     3  Na  -0.007398   0.003583
     4  Na  -0.149950   0.468419
     5  Na   0.150005   0.153695
     6  Na   0.054553  -0.117475
     7  Na  -0.051480   0.059957
 Sum of Mulliken charges =  -0.00000   1.00000

 Dipole moment (field-independent basis, Debye):
    X=              0.4860    Y=             -0.1023    Z=             -0.2054  Tot=              0.5375
 Quadrupole moment (field-independent basis, Debye-Ang):
   XX=            -53.7773   YY=            -71.5992   ZZ=            -70.1003
   XY=              0.2641   XZ=              1.7250   YZ=             -2.1528

 Normal termination of Gaussian 16 at Tue Dec  5 10:22:40 2023.
