 Gaussian 16, Revision B.01,
 Gaussian 16:  ES64L-G16RevB.01 20-Dec-2017

 -------------------------
 #P B3LYP/6-311+g(d) force
 -------------------------

 -----
 DPGEN
 -----
 Symbolic Z-matrix:
 Charge =  0 Multiplicity = 2

                         Standard orientation:
 ---------------------------------------------------------------------
 Center     Atomic      Atomic             Coordinates (Angstroms)
 Number     Number       Type             X           Y           Z
 ---------------------------------------------------------------------
      1         11           0       -0.738931   -1.748040   -0.152838
      2         11           0       -2.483187    1.200070   -0.438896
      3         11           0        0.918323    1.050397    0.988818
      4         11           0        3.147250   -2.404078    0.334167
      5         11           0        3.996637    0.413955   -0.802192
      6         11           0       -0.515264    3.430722    0.091959
      7         11           0       -4.324826   -1.943026   -0.021017
 ---------------------------------------------------------------------

 SCF Done:  E(UB3LYP) =  -1136.11981457     A.U. after   21 cycles

 The electronic state is 2-A.
 Alpha  occ. eigenvalues --  -38.44961 -38.44363 -38.44316 -38.43952 -38.43805
 Alpha  occ. eigenvalues --  -38.43582 -38.43206  -2.20752  -2.20279  -2.20199
 Alpha  occ. eigenvalues --   -2.19854  -2.19649  -2.19378  -2.19065  -1.14442
 Alpha  occ. eigenvalues --   -1.14424  -1.14383  -1.14010  -1.13963  -1.13936
 Alpha  occ. eigenvalues --   -1.13895  -1.13875  -1.13860  -1.13496  -1.13472
 Alpha  occ. eigenvalues --   -1.13469  -1.13295  -1.13288  -1.13275  -1.13039
 Alpha  occ. eigenvalues --   -1.13035  -1.12991  -1.12768  -1.12748  -1.12642
 Alpha  occ. eigenvalues --   -0.17497  -0.14105  -0.12707  -0.09971
 Alpha virt. eigenvalues --   -0.06621  -0.05567  -0.04772  -0.03449  -0.02645
 Alpha virt. eigenvalues --   -0.02443  -0.01873  -0.01539  -0.01090  -0.00624
 Alpha virt. eigenvalues --   -0.00045   0.00065   0.00463   0.00493   0.00594

  Beta  occ. eigenvalues --  -38.44960 -38.44342 -38.44308 -38.43953 -38.43734
  Beta  occ. eigenvalues --  -38.43538 -38.43159  -2.20756  -2.20244  -2.20186
  Beta  occ. eigenvalues --   -2.19856  -2.19517  -2.19296  -2.18982  -1.14444
  Beta  occ. eigenvalues --   -1.14423  -1.14358  -1.13987  -1.13925  -1.13906
  Beta  occ. eigenvalues --   -1.13888  -1.13863  -1.13840  -1.13495  -1.13472
  Beta  occ. eigenvalues --   -1.13467  -1.13204  -1.13197  -1.13189  -1.12983
  Beta  occ. eigenvalues --   -1.12975  -1.12941  -1.12711  -1.12692  -1.12567
  Beta  occ. eigenvalues --   -0.17000  -0.13599  -0.12423
  Beta virt. eigenvalues --   -0.06526  -0.06430  -0.05274  -0.04538  -0.02950
  Beta virt. eigenvalues --   -0.02366  -0.02214  -0.01752  -0.01213  -0.00907
  Beta virt. eigenvalues --   -0.00278   0.00208   0.00296   0.00513   0.00631

 Mulliken charges and spin densities:
               1          2
     1  Na  -0.777763   0.022993
     2  Na  -0.498671   0.113059
     3  Na  -0.937058   0.229934
     4  Na   0.368901   0.067608
     5  Na   0.185960   0.362812
     6  Na   0.900468  -0.099037
     7  Na   0.758163   0.302631
 Sum of Mulliken charges =  -0.00000   1.00000

 Dipole moment (field-independent basis, Debye):
    X=              0.2431    Y=             -0.0620    Z=              0.2704  Tot=              0.3688
 Quadrupole moment (field-independent basis, Debye-Ang):
   XX=            -71.4073   YY=            -58.4775   ZZ=            -70.4507
   XY=             -4.3949   XZ=              0.9331   YZ=             -2.0876

 Normal termination of Gaussian 16 at Wed Nov 29 02:31:59 2023.
