 Gaussian 16, Revision B.01,
 Gaussian 16:  ES64L-G16RevB.01 20-Dec-2017

 -------------------------
 #P B3LYP/6-311+g(d) force
 -------------------------

 -----
 DPGEN
 -----
 Symbolic Z-matrix:
 Charge =  0 Multiplicity = 2

                         Standard orientation:
 ---------------------------------------------------------------------
 Center     Atomic      Atomic             Coordinates (Angstroms)
 Number     Number       Type             X           Y           Z
 ---------------------------------------------------------------------
      1         11           0        0.078357    0.154249   -1.523372
      2         11           0        0.302767    2.566204    0.210871
      3         11           0        2.629025    0.436156   -0.079449
      4         11           0        1.252061   -2.218067   -0.222460
      5         11           0       -0.104027   -0.078236    1.891283
      6         11           0       -1.752828   -1.894227    0.112940
      7         11           0       -2.405354    1.033922   -0.389813
 ---------------------------------------------------------------------

 SCF Done:  E(UB3LYP) =  -1136.11600689     A.U. after   18 cycles

 The electronic state is 2-A.
 Alpha  occ. eigenvalues --  -38.43552 -38.43471 -38.43440 -38.43343 -38.43291
 Alpha  occ. eigenvalues --  -38.43277 -38.43225  -2.19628  -2.19606  -2.19483
 Alpha  occ. eigenvalues --   -2.19448  -2.19327  -2.19301  -2.19233  -1.13504
 Alpha  occ. eigenvalues --   -1.13445  -1.13362  -1.13305  -1.13282  -1.13249
 Alpha  occ. eigenvalues --   -1.13184  -1.13165  -1.13112  -1.13093  -1.13076
 Alpha  occ. eigenvalues --   -1.13031  -1.13020  -1.12950  -1.12934  -1.12928
 Alpha  occ. eigenvalues --   -1.12917  -1.12884  -1.12866  -1.12843  -1.12814
 Alpha  occ. eigenvalues --   -0.20683  -0.13394  -0.13180  -0.11570
 Alpha virt. eigenvalues --   -0.04887  -0.04606  -0.04561  -0.03286  -0.03198
 Alpha virt. eigenvalues --   -0.02650  -0.00985  -0.00847  -0.00021   0.00352
 Alpha virt. eigenvalues --    0.00489   0.00512   0.01019   0.01065   0.01080

  Beta  occ. eigenvalues --  -38.43457 -38.43457 -38.43432 -38.43280 -38.43267
  Beta  occ. eigenvalues --  -38.43266 -38.43215  -2.19486  -2.19455  -2.19453
  Beta  occ. eigenvalues --   -2.19431  -2.19312  -2.19287  -2.19219  -1.13436
  Beta  occ. eigenvalues --   -1.13384  -1.13290  -1.13213  -1.13176  -1.13167
  Beta  occ. eigenvalues --   -1.13163  -1.13134  -1.13059  -1.13053  -1.13037
  Beta  occ. eigenvalues --   -1.13005  -1.12965  -1.12919  -1.12916  -1.12891
  Beta  occ. eigenvalues --   -1.12869  -1.12860  -1.12838  -1.12815  -1.12807
  Beta  occ. eigenvalues --   -0.19905  -0.13059  -0.12853
  Beta virt. eigenvalues --   -0.07474  -0.04899  -0.04607  -0.04551  -0.02392
  Beta virt. eigenvalues --   -0.02303  -0.01528  -0.00921  -0.00791   0.00110
  Beta virt. eigenvalues --    0.00368   0.00440   0.00463   0.01052   0.01061

 Mulliken charges and spin densities:
               1          2
     1  Na  -1.132893   0.257382
     2  Na   0.441520   0.056780
     3  Na   0.305207   0.008904
     4  Na   0.365973   0.019857
     5  Na  -0.847965   0.580236
     6  Na   0.504089   0.063712
     7  Na   0.364069   0.013128
 Sum of Mulliken charges =  -0.00000   1.00000

 Dipole moment (field-independent basis, Debye):
    X=             -0.0023    Y=              0.0762    Z=              0.3452  Tot=              0.3535
 Quadrupole moment (field-independent basis, Debye-Ang):
   XX=            -61.1955   YY=            -63.1891   ZZ=            -71.2445
   XY=              0.1122   XZ=              0.4437   YZ=              0.4675

 Normal termination of Gaussian 16 at Fri Dec  8 19:54:35 2023.
