 Gaussian 16, Revision B.01,
 Gaussian 16:  ES64L-G16RevB.01 20-Dec-2017

 -------------------------
 #P B3LYP/6-311+g(d) force
 -------------------------

 -----
 DPGEN
 -----
 Symbolic Z-matrix:
 Charge =  0 Multiplicity = 2

                         Standard orientation:
 ---------------------------------------------------------------------
 Center     Atomic      Atomic             Coordinates (Angstroms)
 Number     Number       Type             X           Y           Z
 ---------------------------------------------------------------------
      1         11           0        0.009791   -0.133795    2.156532
      2         11           0       -0.539938    2.751496    0.131230
      3         11           0       -2.984073    0.559267   -0.205275
      4         11           0        2.336264   -1.881697    0.158081
      5         11           0       -1.560559   -2.399339   -0.201718
      6         11           0        2.713596    1.405956   -0.444873
      7         11           0        0.024919   -0.301888   -1.593977
 ---------------------------------------------------------------------

 SCF Done:  E(UB3LYP) =  -1136.13724998     A.U. after   19 cycles

 The electronic state is 2-A.
 Alpha  occ. eigenvalues --  -38.43859 -38.43815 -38.43788 -38.43735 -38.43388
 Alpha  occ. eigenvalues --  -38.43243 -38.42985  -2.19734  -2.19700  -2.19633
 Alpha  occ. eigenvalues --   -2.19593  -2.19293  -2.19264  -2.18848  -1.13416
 Alpha  occ. eigenvalues --   -1.13396  -1.13385  -1.13364  -1.13332  -1.13325
 Alpha  occ. eigenvalues --   -1.13323  -1.13304  -1.13278  -1.13266  -1.13247
 Alpha  occ. eigenvalues --   -1.13205  -1.13122  -1.12947  -1.12916  -1.12904
 Alpha  occ. eigenvalues --   -1.12872  -1.12835  -1.12523  -1.12513  -1.12487
 Alpha  occ. eigenvalues --   -0.18920  -0.13249  -0.12349  -0.11039
 Alpha virt. eigenvalues --   -0.05471  -0.05241  -0.04409  -0.03322  -0.02896
 Alpha virt. eigenvalues --   -0.02791  -0.01464  -0.01041  -0.00208  -0.00154
 Alpha virt. eigenvalues --   -0.00006   0.00358   0.00802   0.00899   0.00937

  Beta  occ. eigenvalues --  -38.43855 -38.43779 -38.43729 -38.43711 -38.43380
  Beta  occ. eigenvalues --  -38.43185 -38.42981  -2.19729  -2.19619  -2.19586
  Beta  occ. eigenvalues --   -2.19508  -2.19279  -2.19162  -2.18844  -1.13411
  Beta  occ. eigenvalues --   -1.13395  -1.13363  -1.13324  -1.13287  -1.13265
  Beta  occ. eigenvalues --   -1.13263  -1.13241  -1.13224  -1.13202  -1.13191
  Beta  occ. eigenvalues --   -1.13171  -1.13087  -1.12919  -1.12887  -1.12850
  Beta  occ. eigenvalues --   -1.12806  -1.12775  -1.12522  -1.12495  -1.12479
  Beta  occ. eigenvalues --   -0.18186  -0.12994  -0.12109
  Beta virt. eigenvalues --   -0.07075  -0.05432  -0.05228  -0.04381  -0.02525
  Beta virt. eigenvalues --   -0.02106  -0.01690  -0.01373  -0.00978  -0.00257
  Beta virt. eigenvalues --   -0.00178   0.00123   0.00386   0.00882   0.00889

 Mulliken charges and spin densities:
               1          2
     1  Na  -0.622658   0.725883
     2  Na   0.112033   0.004280
     3  Na   0.119297  -0.013533
     4  Na   0.269989   0.011704
     5  Na   0.456949   0.013423
     6  Na   0.078664  -0.010452
     7  Na  -0.414274   0.268696
 Sum of Mulliken charges =  -0.00000   1.00000

 Dipole moment (field-independent basis, Debye):
    X=              0.1204    Y=             -0.1342    Z=              0.2098  Tot=              0.2766
 Quadrupole moment (field-independent basis, Debye-Ang):
   XX=            -56.7265   YY=            -64.5779   ZZ=            -73.0024
   XY=             -0.0782   XZ=             -0.0667   YZ=             -0.6856

 Normal termination of Gaussian 16 at Fri Dec  8 01:56:14 2023.
