 Gaussian 16, Revision B.01,
 Gaussian 16:  ES64L-G16RevB.01 20-Dec-2017

 -------------------------
 #P B3LYP/6-311+g(d) force
 -------------------------

 -----
 DPGEN
 -----
 Symbolic Z-matrix:
 Charge =  0 Multiplicity = 2

                         Standard orientation:
 ---------------------------------------------------------------------
 Center     Atomic      Atomic             Coordinates (Angstroms)
 Number     Number       Type             X           Y           Z
 ---------------------------------------------------------------------
      1         11           0       -3.030266    1.214822   -0.458354
      2         11           0       -0.864740   -0.121378    2.321202
      3         11           0       -1.781783   -2.433497   -0.378175
      4         11           0        0.015380   -0.000072   -1.517148
      5         11           0        0.336276    2.845031    0.018169
      6         11           0        3.506752    0.604186   -0.038092
      7         11           0        1.818380   -2.109092    0.052398
 ---------------------------------------------------------------------

 SCF Done:  E(UB3LYP) =  -1136.13318849     A.U. after   19 cycles

 The electronic state is 2-A.
 Alpha  occ. eigenvalues --  -38.44476 -38.44281 -38.43885 -38.43531 -38.43450
 Alpha  occ. eigenvalues --  -38.43447 -38.43258  -2.20279  -2.20081  -2.19721
 Alpha  occ. eigenvalues --   -2.19343  -2.19322  -2.19293  -2.19249  -1.13959
 Alpha  occ. eigenvalues --   -1.13934  -1.13913  -1.13766  -1.13745  -1.13713
 Alpha  occ. eigenvalues --   -1.13369  -1.13350  -1.13337  -1.13082  -1.13064
 Alpha  occ. eigenvalues --   -1.13013  -1.13011  -1.12982  -1.12955  -1.12954
 Alpha  occ. eigenvalues --   -1.12942  -1.12914  -1.12910  -1.12861  -1.12848
 Alpha  occ. eigenvalues --   -0.18263  -0.13114  -0.12166  -0.10777
 Alpha virt. eigenvalues --   -0.06126  -0.05215  -0.04437  -0.03238  -0.02795
 Alpha virt. eigenvalues --   -0.02685  -0.01853  -0.01190  -0.00544  -0.00241
 Alpha virt. eigenvalues --   -0.00088   0.00300   0.00714   0.00810   0.00860

  Beta  occ. eigenvalues --  -38.44467 -38.44284 -38.43776 -38.43528 -38.43446
  Beta  occ. eigenvalues --  -38.43439 -38.43207  -2.20266  -2.20088  -2.19518
  Beta  occ. eigenvalues --   -2.19341  -2.19318  -2.19281  -2.19157  -1.13934
  Beta  occ. eigenvalues --   -1.13920  -1.13905  -1.13772  -1.13743  -1.13718
  Beta  occ. eigenvalues --   -1.13231  -1.13212  -1.13193  -1.13067  -1.13051
  Beta  occ. eigenvalues --   -1.12996  -1.12992  -1.12963  -1.12956  -1.12945
  Beta  occ. eigenvalues --   -1.12922  -1.12908  -1.12855  -1.12803  -1.12785
  Beta  occ. eigenvalues --   -0.17580  -0.12927  -0.11966
  Beta virt. eigenvalues --   -0.06771  -0.06064  -0.05209  -0.04371  -0.02541
  Beta virt. eigenvalues --   -0.02026  -0.01780  -0.01610  -0.01154  -0.00552
  Beta virt. eigenvalues --   -0.00280   0.00119   0.00351   0.00800   0.00860

 Mulliken charges and spin densities:
               1          2
     1  Na   0.230702  -0.008492
     2  Na  -0.675897   0.748892
     3  Na   0.296979   0.041601
     4  Na  -0.030750   0.199805
     5  Na   0.015590  -0.001267
     6  Na  -0.040111  -0.020105
     7  Na   0.203486   0.039566
 Sum of Mulliken charges =  -0.00000   1.00000

 Dipole moment (field-independent basis, Debye):
    X=             -0.1682    Y=              0.2231    Z=              0.0986  Tot=              0.2963
 Quadrupole moment (field-independent basis, Debye-Ang):
   XX=            -53.3958   YY=            -65.5485   ZZ=            -74.5416
   XY=              0.7335   XZ=              1.8070   YZ=              0.1995

 Normal termination of Gaussian 16 at Thu Dec  7 10:17:49 2023.
