 Gaussian 16, Revision B.01,
 Gaussian 16:  ES64L-G16RevB.01 20-Dec-2017

 -------------------------
 #P B3LYP/6-311+g(d) force
 -------------------------

 -----
 DPGEN
 -----
 Symbolic Z-matrix:
 Charge =  0 Multiplicity = 2

                         Standard orientation:
 ---------------------------------------------------------------------
 Center     Atomic      Atomic             Coordinates (Angstroms)
 Number     Number       Type             X           Y           Z
 ---------------------------------------------------------------------
      1         11           0       -2.496415   -1.828484   -0.229746
      2         11           0       -2.582634    1.449656    0.132109
      3         11           0        0.845769    3.010283   -0.001798
      4         11           0        0.215192    0.428232   -1.558344
      5         11           0        2.956314    0.027868    0.272267
      6         11           0       -0.258346   -0.338733    1.602466
      7         11           0        1.320120   -2.748822   -0.216954
 ---------------------------------------------------------------------

 SCF Done:  E(UB3LYP) =  -1136.13661143     A.U. after  125 cycles

 The electronic state is 2-A.
 Alpha  occ. eigenvalues --  -38.43853 -38.43852 -38.43832 -38.43625 -38.43625
 Alpha  occ. eigenvalues --  -38.42817 -38.42773  -2.19732  -2.19712  -2.19707
 Alpha  occ. eigenvalues --   -2.19479  -2.19475  -2.18823  -2.18791  -1.13447
 Alpha  occ. eigenvalues --   -1.13408  -1.13405  -1.13387  -1.13377  -1.13376
 Alpha  occ. eigenvalues --   -1.13354  -1.13353  -1.13309  -1.13191  -1.13146
 Alpha  occ. eigenvalues --   -1.13138  -1.13123  -1.13115  -1.13104  -1.12563
 Alpha  occ. eigenvalues --   -1.12456  -1.12443  -1.12438  -1.12411  -1.12407
 Alpha  occ. eigenvalues --   -0.18980  -0.13278  -0.12690  -0.10119
 Alpha virt. eigenvalues --   -0.05420  -0.05377  -0.05073  -0.03037  -0.02706
 Alpha virt. eigenvalues --   -0.01828  -0.01472  -0.01348  -0.00466  -0.00436
 Alpha virt. eigenvalues --    0.00059   0.00360   0.00846   0.00854   0.00879

  Beta  occ. eigenvalues --  -38.43846 -38.43845 -38.43823 -38.43622 -38.43619
  Beta  occ. eigenvalues --  -38.42746 -38.42706  -2.19721  -2.19700  -2.19698
  Beta  occ. eigenvalues --   -2.19473  -2.19471  -2.18695  -2.18670  -1.13443
  Beta  occ. eigenvalues --   -1.13399  -1.13388  -1.13373  -1.13358  -1.13351
  Beta  occ. eigenvalues --   -1.13338  -1.13331  -1.13306  -1.13181  -1.13141
  Beta  occ. eigenvalues --   -1.13120  -1.13107  -1.13103  -1.13102  -1.12475
  Beta  occ. eigenvalues --   -1.12363  -1.12351  -1.12345  -1.12324  -1.12317
  Beta  occ. eigenvalues --   -0.18276  -0.13018  -0.12449
  Beta virt. eigenvalues --   -0.06262  -0.05403  -0.05353  -0.05030  -0.02233
  Beta virt. eigenvalues --   -0.01977  -0.01386  -0.01273  -0.00889  -0.00517
  Beta virt. eigenvalues --   -0.00454   0.00196   0.00402   0.00860   0.00874

 Mulliken charges and spin densities:
               1          2
     1  Na   0.060580  -0.025599
     2  Na   0.208812  -0.071638
     3  Na   0.230468  -0.086219
     4  Na  -0.438693   0.672416
     5  Na   0.176379  -0.021907
     6  Na  -0.273481   0.567307
     7  Na   0.035936  -0.034359
 Sum of Mulliken charges =  -0.00000   1.00000

 Dipole moment (field-independent basis, Debye):
    X=             -0.0801    Y=             -0.0185    Z=              0.0263  Tot=              0.0863
 Quadrupole moment (field-independent basis, Debye-Ang):
   XX=            -56.1390   YY=            -57.6035   ZZ=            -77.4508
   XY=              0.2955   XZ=              1.1352   YZ=              1.9388

 Normal termination of Gaussian 16 at Wed Nov 29 02:00:51 2023.
