 Gaussian 16, Revision B.01,
 Gaussian 16:  ES64L-G16RevB.01 20-Dec-2017

 -------------------------
 #P B3LYP/6-311+g(d) force
 -------------------------

 -----
 DPGEN
 -----
 Symbolic Z-matrix:
 Charge =  0 Multiplicity = 2

                         Standard orientation:
 ---------------------------------------------------------------------
 Center     Atomic      Atomic             Coordinates (Angstroms)
 Number     Number       Type             X           Y           Z
 ---------------------------------------------------------------------
      1         11           0       -0.741221    0.062179    2.080276
      2         11           0       -3.374066   -0.000367   -0.188238
      3         11           0       -0.834137   -2.726133   -0.318070
      4         11           0        2.664251    1.512883    0.228039
      5         11           0        2.570847   -1.852903    0.086771
      6         11           0        0.241635    0.114354   -1.541198
      7         11           0       -0.527309    2.889988   -0.347579
 ---------------------------------------------------------------------

 SCF Done:  E(UB3LYP) =  -1136.13621876     A.U. after   19 cycles

 The electronic state is 2-A.
 Alpha  occ. eigenvalues --  -38.44549 -38.43841 -38.43647 -38.43625 -38.43484
 Alpha  occ. eigenvalues --  -38.43467 -38.43010  -2.20336  -2.19689  -2.19488
 Alpha  occ. eigenvalues --   -2.19480  -2.19332  -2.19320  -2.19011  -1.14014
 Alpha  occ. eigenvalues --   -1.13986  -1.13983  -1.13380  -1.13350  -1.13331
 Alpha  occ. eigenvalues --   -1.13154  -1.13150  -1.13139  -1.13128  -1.13119
 Alpha  occ. eigenvalues --   -1.13106  -1.13054  -1.13034  -1.12995  -1.12973
 Alpha  occ. eigenvalues --   -1.12942  -1.12934  -1.12688  -1.12643  -1.12628
 Alpha  occ. eigenvalues --   -0.18438  -0.13031  -0.12473  -0.10507
 Alpha virt. eigenvalues --   -0.05982  -0.05080  -0.04744  -0.03235  -0.02809
 Alpha virt. eigenvalues --   -0.02396  -0.01747  -0.01105  -0.00470  -0.00423
 Alpha virt. eigenvalues --   -0.00022   0.00339   0.00771   0.00848   0.00865

  Beta  occ. eigenvalues --  -38.44548 -38.43836 -38.43646 -38.43535 -38.43473
  Beta  occ. eigenvalues --  -38.43456 -38.42950  -2.20338  -2.19682  -2.19480
  Beta  occ. eigenvalues --   -2.19322  -2.19315  -2.19304  -2.18902  -1.13996
  Beta  occ. eigenvalues --   -1.13989  -1.13984  -1.13376  -1.13331  -1.13326
  Beta  occ. eigenvalues --   -1.13149  -1.13134  -1.13122  -1.13045  -1.13034
  Beta  occ. eigenvalues --   -1.13014  -1.13003  -1.12987  -1.12963  -1.12943
  Beta  occ. eigenvalues --   -1.12935  -1.12926  -1.12611  -1.12563  -1.12550
  Beta  occ. eigenvalues --   -0.17746  -0.12820  -0.12229
  Beta virt. eigenvalues --   -0.06654  -0.05894  -0.05081  -0.04680  -0.02479
  Beta virt. eigenvalues --   -0.02069  -0.01670  -0.01358  -0.01037  -0.00509
  Beta virt. eigenvalues --   -0.00452   0.00141   0.00374   0.00803   0.00854

 Mulliken charges and spin densities:
               1          2
     1  Na  -0.586182   0.784433
     2  Na   0.217882  -0.094227
     3  Na   0.156669  -0.041882
     4  Na   0.114077   0.048678
     5  Na   0.011783  -0.005437
     6  Na  -0.131202   0.365696
     7  Na   0.216973  -0.057260
 Sum of Mulliken charges =  -0.00000   1.00000

 Dipole moment (field-independent basis, Debye):
    X=             -0.3463    Y=              0.0534    Z=              0.1335  Tot=              0.3749
 Quadrupole moment (field-independent basis, Debye-Ang):
   XX=            -54.4381   YY=            -62.9648   ZZ=            -75.4084
   XY=             -0.2546   XZ=              2.4493   YZ=              0.1421

 Normal termination of Gaussian 16 at Thu Dec  7 17:27:14 2023.
