 Gaussian 16, Revision B.01,
 Gaussian 16:  ES64L-G16RevB.01 20-Dec-2017

 -------------------------
 #P B3LYP/6-311+g(d) force
 -------------------------

 -----
 DPGEN
 -----
 Symbolic Z-matrix:
 Charge =  0 Multiplicity = 2

                         Standard orientation:
 ---------------------------------------------------------------------
 Center     Atomic      Atomic             Coordinates (Angstroms)
 Number     Number       Type             X           Y           Z
 ---------------------------------------------------------------------
      1         11           0        0.674157   -2.423063    0.535136
      2         11           0       -0.078713    0.021129    2.372041
      3         11           0        0.426793   -0.752925   -1.840627
      4         11           0        2.857593    0.048775   -0.215079
      5         11           0       -2.323957    1.817658   -0.102339
      6         11           0       -2.404486   -1.520991   -0.499220
      7         11           0        0.848613    2.809417   -0.249911
 ---------------------------------------------------------------------

 SCF Done:  E(UB3LYP) =  -1136.13152548     A.U. after   20 cycles

 The electronic state is 2-A.
 Alpha  occ. eigenvalues --  -38.44691 -38.43942 -38.43441 -38.43425 -38.43414
 Alpha  occ. eigenvalues --  -38.43398 -38.43354  -2.20561  -2.19947  -2.19423
 Alpha  occ. eigenvalues --   -2.19299  -2.19258  -2.19244  -2.19235  -1.14243
 Alpha  occ. eigenvalues --   -1.14173  -1.14171  -1.13708  -1.13608  -1.13559
 Alpha  occ. eigenvalues --   -1.13105  -1.13087  -1.13036  -1.12995  -1.12966
 Alpha  occ. eigenvalues --   -1.12951  -1.12949  -1.12929  -1.12926  -1.12911
 Alpha  occ. eigenvalues --   -1.12908  -1.12879  -1.12874  -1.12858  -1.12837
 Alpha  occ. eigenvalues --   -0.18983  -0.12765  -0.12652  -0.11836
 Alpha virt. eigenvalues --   -0.05014  -0.04881  -0.04653  -0.03612  -0.03326
 Alpha virt. eigenvalues --   -0.03295  -0.00988  -0.00785  -0.00203   0.00001
 Alpha virt. eigenvalues --    0.00122   0.00389   0.00902   0.00953   0.00974

  Beta  occ. eigenvalues --  -38.44581 -38.43880 -38.43425 -38.43420 -38.43414
  Beta  occ. eigenvalues --  -38.43391 -38.43343  -2.20360  -2.19833  -2.19391
  Beta  occ. eigenvalues --   -2.19291  -2.19259  -2.19244  -2.19219  -1.14104
  Beta  occ. eigenvalues --   -1.14035  -1.14026  -1.13641  -1.13520  -1.13479
  Beta  occ. eigenvalues --   -1.13085  -1.13025  -1.13012  -1.12980  -1.12969
  Beta  occ. eigenvalues --   -1.12948  -1.12942  -1.12915  -1.12912  -1.12897
  Beta  occ. eigenvalues --   -1.12889  -1.12879  -1.12858  -1.12854  -1.12833
  Beta  occ. eigenvalues --   -0.18198  -0.12557  -0.12432
  Beta virt. eigenvalues --   -0.07743  -0.05015  -0.04886  -0.04460  -0.02781
  Beta virt. eigenvalues --   -0.02546  -0.02264  -0.00926  -0.00740  -0.00058
  Beta virt. eigenvalues --    0.00002   0.00105   0.00434   0.00963   0.00970

 Mulliken charges and spin densities:
               1          2
     1  Na   0.524277   0.150497
     2  Na  -0.541265   0.519054
     3  Na  -0.160269   0.427647
     4  Na   0.302264   0.011175
     5  Na  -0.102809  -0.030250
     6  Na   0.120856  -0.018778
     7  Na  -0.143055  -0.059344
 Sum of Mulliken charges =  -0.00000   1.00000

 Dipole moment (field-independent basis, Debye):
    X=              0.0059    Y=              0.0368    Z=              0.2496  Tot=              0.2524
 Quadrupole moment (field-independent basis, Debye-Ang):
   XX=            -63.5033   YY=            -66.0106   ZZ=            -68.0076
   XY=              0.5836   XZ=              0.6955   YZ=             -0.6666

 Normal termination of Gaussian 16 at Thu Dec  7 18:14:21 2023.
