 Gaussian 16, Revision B.01,
 Gaussian 16:  ES64L-G16RevB.01 20-Dec-2017

 -------------------------
 #P B3LYP/6-311+g(d) force
 -------------------------

 -----
 DPGEN
 -----
 Symbolic Z-matrix:
 Charge =  0 Multiplicity = 2

                         Standard orientation:
 ---------------------------------------------------------------------
 Center     Atomic      Atomic             Coordinates (Angstroms)
 Number     Number       Type             X           Y           Z
 ---------------------------------------------------------------------
      1         11           0        3.300493   -1.735836   -0.470916
      2         11           0        2.672194    2.054149   -0.116457
      3         11           0       -2.793848    1.610162   -0.779395
      4         11           0       -3.255455   -1.680879    0.319338
      5         11           0        0.399515   -1.114732    1.881280
      6         11           0       -0.104880   -0.875414   -1.819604
      7         11           0       -0.218019    1.742549    0.985754
 ---------------------------------------------------------------------

 SCF Done:  E(UB3LYP) =  -1136.11759189     A.U. after   23 cycles

 The electronic state is 2-A.
 Alpha  occ. eigenvalues --  -38.44949 -38.44650 -38.44535 -38.44342 -38.44221
 Alpha  occ. eigenvalues --  -38.44005 -38.42531  -2.20712  -2.20448  -2.20328
 Alpha  occ. eigenvalues --   -2.20182  -2.19990  -2.19880  -2.18492  -1.14385
 Alpha  occ. eigenvalues --   -1.14375  -1.14352  -1.14144  -1.14110  -1.14052
 Alpha  occ. eigenvalues --   -1.14020  -1.13993  -1.13954  -1.13874  -1.13839
 Alpha  occ. eigenvalues --   -1.13795  -1.13663  -1.13649  -1.13627  -1.13601
 Alpha  occ. eigenvalues --   -1.13496  -1.13469  -1.12186  -1.12140  -1.12131
 Alpha  occ. eigenvalues --   -0.18016  -0.13472  -0.11350  -0.11006
 Alpha virt. eigenvalues --   -0.06642  -0.06184  -0.03844  -0.03204  -0.02890
 Alpha virt. eigenvalues --   -0.02610  -0.02354  -0.01679  -0.00502  -0.00355
 Alpha virt. eigenvalues --    0.00134   0.00175   0.00381   0.00546   0.00580

  Beta  occ. eigenvalues --  -38.44948 -38.44609 -38.44535 -38.44320 -38.44215
  Beta  occ. eigenvalues --  -38.43909 -38.42503  -2.20712  -2.20373  -2.20330
  Beta  occ. eigenvalues --   -2.20140  -2.19979  -2.19707  -2.18447  -1.14387
  Beta  occ. eigenvalues --   -1.14358  -1.14354  -1.14094  -1.14052  -1.14020
  Beta  occ. eigenvalues --   -1.13995  -1.13987  -1.13957  -1.13846  -1.13801
  Beta  occ. eigenvalues --   -1.13768  -1.13646  -1.13642  -1.13621  -1.13479
  Beta  occ. eigenvalues --   -1.13371  -1.13347  -1.12145  -1.12111  -1.12077
  Beta  occ. eigenvalues --   -0.17283  -0.13261  -0.11190
  Beta virt. eigenvalues --   -0.07162  -0.06480  -0.06064  -0.03301  -0.03045
  Beta virt. eigenvalues --   -0.02261  -0.02224  -0.01808  -0.01421  -0.00497
  Beta virt. eigenvalues --   -0.00119   0.00147   0.00224   0.00449   0.00639

 Mulliken charges and spin densities:
               1          2
     1  Na   0.208024   0.138698
     2  Na  -0.052340  -0.175353
     3  Na   0.528590   0.040853
     4  Na   0.053122   0.009006
     5  Na  -0.163647   0.322448
     6  Na  -0.441378   0.319436
     7  Na  -0.132371   0.344912
 Sum of Mulliken charges =  -0.00000   1.00000

 Dipole moment (field-independent basis, Debye):
    X=             -0.2052    Y=             -0.4633    Z=             -0.4314  Tot=              0.6655
 Quadrupole moment (field-independent basis, Debye-Ang):
   XX=            -49.2746   YY=            -72.3408   ZZ=            -72.1806
   XY=              1.7281   XZ=             -0.4674   YZ=             -3.1650

 Normal termination of Gaussian 16 at Thu Dec  7 23:55:16 2023.
