 Gaussian 16, Revision B.01,
 Gaussian 16:  ES64L-G16RevB.01 20-Dec-2017

 -------------------------
 #P B3LYP/6-311+g(d) force
 -------------------------

 -----
 DPGEN
 -----
 Symbolic Z-matrix:
 Charge =  0 Multiplicity = 2

                         Standard orientation:
 ---------------------------------------------------------------------
 Center     Atomic      Atomic             Coordinates (Angstroms)
 Number     Number       Type             X           Y           Z
 ---------------------------------------------------------------------
      1         11           0       -0.410207   -2.700598   -0.622023
      2         11           0       -1.539238    2.741368   -0.124735
      3         11           0        2.741756   -1.609773    0.457295
      4         11           0        0.192609    0.155186   -1.606126
      5         11           0       -0.529688   -0.040969    2.041763
      6         11           0        2.643768    2.086487   -0.132878
      7         11           0       -3.099000   -0.631701   -0.013296
 ---------------------------------------------------------------------

 SCF Done:  E(UB3LYP) =  -1136.13484708     A.U. after   20 cycles

 The electronic state is 2-A.
 Alpha  occ. eigenvalues --  -38.44194 -38.44093 -38.43987 -38.43884 -38.43749
 Alpha  occ. eigenvalues --  -38.43156 -38.43069  -2.19966  -2.19935  -2.19789
 Alpha  occ. eigenvalues --   -2.19684  -2.19622  -2.19120  -2.18963  -1.13651
 Alpha  occ. eigenvalues --   -1.13624  -1.13623  -1.13603  -1.13595  -1.13572
 Alpha  occ. eigenvalues --   -1.13460  -1.13448  -1.13430  -1.13370  -1.13355
 Alpha  occ. eigenvalues --   -1.13311  -1.13286  -1.13254  -1.13232  -1.12859
 Alpha  occ. eigenvalues --   -1.12785  -1.12734  -1.12619  -1.12602  -1.12581
 Alpha  occ. eigenvalues --   -0.18342  -0.12923  -0.12297  -0.10662
 Alpha virt. eigenvalues --   -0.05870  -0.05437  -0.04530  -0.03235  -0.02843
 Alpha virt. eigenvalues --   -0.02507  -0.01612  -0.01285  -0.00588  -0.00363
 Alpha virt. eigenvalues --   -0.00008   0.00344   0.00760   0.00798   0.00876

  Beta  occ. eigenvalues --  -38.44196 -38.44088 -38.43978 -38.43881 -38.43661
  Beta  occ. eigenvalues --  -38.43092 -38.43051  -2.19971  -2.19930  -2.19774
  Beta  occ. eigenvalues --   -2.19681  -2.19460  -2.19005  -2.18933  -1.13645
  Beta  occ. eigenvalues --   -1.13625  -1.13613  -1.13606  -1.13578  -1.13565
  Beta  occ. eigenvalues --   -1.13440  -1.13432  -1.13423  -1.13360  -1.13344
  Beta  occ. eigenvalues --   -1.13309  -1.13179  -1.13142  -1.13115  -1.12790
  Beta  occ. eigenvalues --   -1.12701  -1.12653  -1.12582  -1.12567  -1.12552
  Beta  occ. eigenvalues --   -0.17623  -0.12716  -0.12052
  Beta virt. eigenvalues --   -0.06791  -0.05876  -0.05293  -0.04497  -0.02497
  Beta virt. eigenvalues --   -0.02137  -0.01544  -0.01475  -0.01186  -0.00626
  Beta virt. eigenvalues --   -0.00362   0.00130   0.00380   0.00779   0.00857

 Mulliken charges and spin densities:
               1          2
     1  Na   0.218854   0.062450
     2  Na  -0.100146  -0.144369
     3  Na  -0.073545   0.066204
     4  Na   0.132709   0.379805
     5  Na  -0.382542   0.741259
     6  Na  -0.080397  -0.098301
     7  Na   0.285067  -0.007048
 Sum of Mulliken charges =  -0.00000   1.00000

 Dipole moment (field-independent basis, Debye):
    X=             -0.0098    Y=              0.2985    Z=              0.2295  Tot=              0.3767
 Quadrupole moment (field-independent basis, Debye-Ang):
   XX=            -55.4541   YY=            -62.5172   ZZ=            -74.8745
   XY=             -0.0213   XZ=              1.8064   YZ=              0.1417

 Normal termination of Gaussian 16 at Thu Dec  7 22:33:08 2023.
