 Gaussian 16, Revision B.01,
 Gaussian 16:  ES64L-G16RevB.01 20-Dec-2017

 -------------------------
 #P B3LYP/6-311+g(d) force
 -------------------------

 -----
 DPGEN
 -----
 Symbolic Z-matrix:
 Charge =  0 Multiplicity = 2

                         Standard orientation:
 ---------------------------------------------------------------------
 Center     Atomic      Atomic             Coordinates (Angstroms)
 Number     Number       Type             X           Y           Z
 ---------------------------------------------------------------------
      1         11           0       -0.065666   -0.128022   -1.687358
      2         11           0       -0.079416   -0.833950    1.985337
      3         11           0       -2.598968   -1.858679   -0.228707
      4         11           0       -2.761638    1.328180    0.432532
      5         11           0        0.542342    2.821064   -0.750002
      6         11           0        2.688130    0.618823    1.184312
      7         11           0        2.275216   -1.947415   -0.936115
 ---------------------------------------------------------------------

 SCF Done:  E(UB3LYP) =  -1136.12945585     A.U. after   21 cycles

 The electronic state is 2-A.
 Alpha  occ. eigenvalues --  -38.44325 -38.44147 -38.44118 -38.43990 -38.43820
 Alpha  occ. eigenvalues --  -38.43523 -38.42562  -2.20147  -2.20025  -2.19984
 Alpha  occ. eigenvalues --   -2.19848  -2.19670  -2.19511  -2.18397  -1.13833
 Alpha  occ. eigenvalues --   -1.13818  -1.13771  -1.13753  -1.13680  -1.13661
 Alpha  occ. eigenvalues --   -1.13639  -1.13610  -1.13595  -1.13587  -1.13473
 Alpha  occ. eigenvalues --   -1.13460  -1.13354  -1.13320  -1.13310  -1.13170
 Alpha  occ. eigenvalues --   -1.13150  -1.13137  -1.12100  -1.12045  -1.12023
 Alpha  occ. eigenvalues --   -0.18502  -0.13464  -0.11663  -0.11572
 Alpha virt. eigenvalues --   -0.05672  -0.05391  -0.04177  -0.03589  -0.03028
 Alpha virt. eigenvalues --   -0.02871  -0.01606  -0.01072  -0.00383   0.00038
 Alpha virt. eigenvalues --    0.00165   0.00368   0.00696   0.00738   0.00781

  Beta  occ. eigenvalues --  -38.44321 -38.44084 -38.44077 -38.43961 -38.43820
  Beta  occ. eigenvalues --  -38.43450 -38.42557  -2.20142  -2.19924  -2.19897
  Beta  occ. eigenvalues --   -2.19799  -2.19673  -2.19379  -2.18391  -1.13823
  Beta  occ. eigenvalues --   -1.13814  -1.13766  -1.13678  -1.13602  -1.13594
  Beta  occ. eigenvalues --   -1.13569  -1.13564  -1.13531  -1.13521  -1.13442
  Beta  occ. eigenvalues --   -1.13419  -1.13347  -1.13319  -1.13306  -1.13084
  Beta  occ. eigenvalues --   -1.13055  -1.13037  -1.12087  -1.12036  -1.12022
  Beta  occ. eigenvalues --   -0.17775  -0.13235  -0.11423
  Beta virt. eigenvalues --   -0.07605  -0.05571  -0.05218  -0.03913  -0.03122
  Beta virt. eigenvalues --   -0.02265  -0.02008  -0.01506  -0.00911  -0.00261
  Beta virt. eigenvalues --    0.00076   0.00207   0.00412   0.00797   0.00810

 Mulliken charges and spin densities:
               1          2
     1  Na   0.278605   0.295068
     2  Na  -0.100019   0.358122
     3  Na   0.119971  -0.002021
     4  Na  -0.082431   0.030134
     5  Na  -0.072685   0.039970
     6  Na   0.047876   0.210735
     7  Na  -0.191317   0.067993
 Sum of Mulliken charges =  -0.00000   1.00000

 Dipole moment (field-independent basis, Debye):
    X=             -0.3059    Y=             -0.4412    Z=              0.4527  Tot=              0.7023
 Quadrupole moment (field-independent basis, Debye-Ang):
   XX=            -56.1389   YY=            -68.8228   ZZ=            -70.1962
   XY=             -0.1354   XZ=             -0.1461   YZ=              3.2333

 Normal termination of Gaussian 16 at Sun Dec  3 15:08:28 2023.
