 Gaussian 16, Revision B.01,
 Gaussian 16:  ES64L-G16RevB.01 20-Dec-2017

 -------------------------
 #P B3LYP/6-311+g(d) force
 -------------------------

 -----
 DPGEN
 -----
 Symbolic Z-matrix:
 Charge =  0 Multiplicity = 2

                         Standard orientation:
 ---------------------------------------------------------------------
 Center     Atomic      Atomic             Coordinates (Angstroms)
 Number     Number       Type             X           Y           Z
 ---------------------------------------------------------------------
      1         11           0       -3.337333    1.455121   -1.389266
      2         11           0        0.540221    2.273774   -0.794447
      3         11           0        0.973111   -1.185732   -1.176300
      4         11           0       -0.751584   -0.447265    1.823631
      5         11           0        4.078626   -1.615188   -1.013685
      6         11           0       -3.985122   -1.890537    0.601035
      7         11           0        2.482081    1.409827    1.949032
 ---------------------------------------------------------------------

 SCF Done:  E(UB3LYP) =  -1136.10949427     A.U. after   26 cycles

 The electronic state is 2-A.
 Alpha  occ. eigenvalues --  -38.45479 -38.45041 -38.44647 -38.44625 -38.44303
 Alpha  occ. eigenvalues --  -38.43834 -38.43201  -2.21225  -2.20845  -2.20415
 Alpha  occ. eigenvalues --   -2.20397  -2.20111  -2.19682  -2.18989  -1.14900
 Alpha  occ. eigenvalues --   -1.14868  -1.14839  -1.14557  -1.14505  -1.14424
 Alpha  occ. eigenvalues --   -1.14086  -1.14069  -1.14057  -1.14056  -1.14044
 Alpha  occ. eigenvalues --   -1.14026  -1.13811  -1.13768  -1.13726  -1.13369
 Alpha  occ. eigenvalues --   -1.13333  -1.13320  -1.12652  -1.12647  -1.12642
 Alpha  occ. eigenvalues --   -0.17211  -0.13337  -0.11665  -0.11077
 Alpha virt. eigenvalues --   -0.07095  -0.06034  -0.04610  -0.03254  -0.02718
 Alpha virt. eigenvalues --   -0.02598  -0.02258  -0.01900  -0.01400  -0.00526
 Alpha virt. eigenvalues --   -0.00181  -0.00031   0.00205   0.00287   0.00497

  Beta  occ. eigenvalues --  -38.45420 -38.44983 -38.44631 -38.44596 -38.44281
  Beta  occ. eigenvalues --  -38.43817 -38.43214  -2.21117  -2.20739  -2.20368
  Beta  occ. eigenvalues --   -2.20361  -2.20072  -2.19651  -2.19014  -1.14827
  Beta  occ. eigenvalues --   -1.14793  -1.14759  -1.14485  -1.14432  -1.14338
  Beta  occ. eigenvalues --   -1.14049  -1.14044  -1.14027  -1.14021  -1.14011
  Beta  occ. eigenvalues --   -1.14010  -1.13783  -1.13743  -1.13683  -1.13331
  Beta  occ. eigenvalues --   -1.13320  -1.13302  -1.12668  -1.12665  -1.12656
  Beta  occ. eigenvalues --   -0.16591  -0.13057  -0.10965
  Beta virt. eigenvalues --   -0.07911  -0.06908  -0.05414  -0.04266  -0.02840
  Beta virt. eigenvalues --   -0.02506  -0.02317  -0.01941  -0.01511  -0.01044
  Beta virt. eigenvalues --   -0.00380  -0.00137   0.00075   0.00313   0.00444

 Mulliken charges and spin densities:
               1          2
     1  Na   0.035155   0.231604
     2  Na  -0.044879   0.152000
     3  Na  -0.688060   0.251983
     4  Na  -0.553940   0.375778
     5  Na   0.267709  -0.135029
     6  Na   0.421971  -0.023412
     7  Na   0.562045   0.147077
 Sum of Mulliken charges =  -0.00000   1.00000

 Dipole moment (field-independent basis, Debye):
    X=             -0.8015    Y=              0.8091    Z=              0.6488  Tot=              1.3107
 Quadrupole moment (field-independent basis, Debye-Ang):
   XX=            -52.8863   YY=            -73.8148   ZZ=            -71.1926
   XY=              5.9557   XZ=              7.4555   YZ=             -4.8159

 Normal termination of Gaussian 16 at Sun Dec  3 21:08:20 2023.
