 Gaussian 16, Revision B.01,
 Gaussian 16:  ES64L-G16RevB.01 20-Dec-2017

 -------------------------
 #P B3LYP/6-311+g(d) force
 -------------------------

 -----
 DPGEN
 -----
 Symbolic Z-matrix:
 Charge =  0 Multiplicity = 2

                         Standard orientation:
 ---------------------------------------------------------------------
 Center     Atomic      Atomic             Coordinates (Angstroms)
 Number     Number       Type             X           Y           Z
 ---------------------------------------------------------------------
      1         11           0        3.500930   -0.493479   -0.488832
      2         11           0       -2.651695   -2.147789   -0.138408
      3         11           0        0.978064   -2.072882    0.574701
      4         11           0       -0.317700   -0.119220   -1.811375
      5         11           0       -2.200018    2.267759   -0.631961
      6         11           0       -0.932252    0.450950    2.048409
      7         11           0        1.622671    2.114662    0.447466
 ---------------------------------------------------------------------

 SCF Done:  E(UB3LYP) =  -1136.13362088     A.U. after   19 cycles

 The electronic state is 2-A.
 Alpha  occ. eigenvalues --  -38.43989 -38.43966 -38.43799 -38.43752 -38.43722
 Alpha  occ. eigenvalues --  -38.43651 -38.43310  -2.19805  -2.19778  -2.19669
 Alpha  occ. eigenvalues --   -2.19623  -2.19556  -2.19543  -2.19201  -1.13493
 Alpha  occ. eigenvalues --   -1.13464  -1.13457  -1.13451  -1.13435  -1.13422
 Alpha  occ. eigenvalues --   -1.13376  -1.13353  -1.13292  -1.13283  -1.13267
 Alpha  occ. eigenvalues --   -1.13251  -1.13244  -1.13228  -1.13211  -1.13169
 Alpha  occ. eigenvalues --   -1.13165  -1.13137  -1.12896  -1.12877  -1.12804
 Alpha  occ. eigenvalues --   -0.18416  -0.13145  -0.11986  -0.11123
 Alpha virt. eigenvalues --   -0.05749  -0.05591  -0.03999  -0.03342  -0.02995
 Alpha virt. eigenvalues --   -0.02830  -0.01730  -0.01317  -0.00416  -0.00006
 Alpha virt. eigenvalues --    0.00095   0.00300   0.00701   0.00790   0.00849

  Beta  occ. eigenvalues --  -38.43990 -38.43964 -38.43784 -38.43712 -38.43684
  Beta  occ. eigenvalues --  -38.43565 -38.43296  -2.19803  -2.19782  -2.19600
  Beta  occ. eigenvalues --   -2.19546  -2.19540  -2.19385  -2.19180  -1.13493
  Beta  occ. eigenvalues --   -1.13463  -1.13445  -1.13441  -1.13439  -1.13420
  Beta  occ. eigenvalues --   -1.13323  -1.13272  -1.13262  -1.13237  -1.13227
  Beta  occ. eigenvalues --   -1.13208  -1.13189  -1.13185  -1.13163  -1.13112
  Beta  occ. eigenvalues --   -1.13061  -1.13028  -1.12883  -1.12830  -1.12795
  Beta  occ. eigenvalues --   -0.17675  -0.12943  -0.11771
  Beta virt. eigenvalues --   -0.07169  -0.05662  -0.05532  -0.03852  -0.02782
  Beta virt. eigenvalues --   -0.02252  -0.01813  -0.01650  -0.01246  -0.00258
  Beta virt. eigenvalues --    0.00030   0.00106   0.00334   0.00797   0.00815

 Mulliken charges and spin densities:
               1          2
     1  Na   0.231995  -0.031669
     2  Na   0.094491  -0.138329
     3  Na  -0.053429   0.059713
     4  Na  -0.218370   0.689430
     5  Na   0.014268  -0.141467
     6  Na   0.039307   0.542353
     7  Na  -0.108262   0.019968
 Sum of Mulliken charges =  -0.00000   1.00000

 Dipole moment (field-independent basis, Debye):
    X=             -0.2086    Y=              0.0671    Z=             -0.0969  Tot=              0.2396
 Quadrupole moment (field-independent basis, Debye-Ang):
   XX=            -54.0576   YY=            -68.0053   ZZ=            -71.6817
   XY=              0.5617   XZ=             -0.5985   YZ=             -0.5104

 Normal termination of Gaussian 16 at Tue Dec  5 17:02:45 2023.
