 Gaussian 16, Revision B.01,
 Gaussian 16:  ES64L-G16RevB.01 20-Dec-2017

 -------------------------
 #P B3LYP/6-311+g(d) force
 -------------------------

 -----
 DPGEN
 -----
 Symbolic Z-matrix:
 Charge =  0 Multiplicity = 2

                         Standard orientation:
 ---------------------------------------------------------------------
 Center     Atomic      Atomic             Coordinates (Angstroms)
 Number     Number       Type             X           Y           Z
 ---------------------------------------------------------------------
      1         11           0        2.279380    2.018033   -0.297815
      2         11           0       -1.140295   -2.456018   -0.290215
      3         11           0        2.512619   -1.812756   -0.156515
      4         11           0        0.308034    0.010115   -1.521345
      5         11           0       -1.130639    2.479934    0.052538
      6         11           0        0.438827   -0.223088    2.293723
      7         11           0       -3.267925   -0.016221   -0.080371
 ---------------------------------------------------------------------

 SCF Done:  E(UB3LYP) =  -1136.13457782     A.U. after   18 cycles

 The electronic state is 2-A.
 Alpha  occ. eigenvalues --  -38.43992 -38.43895 -38.43887 -38.43732 -38.43375
 Alpha  occ. eigenvalues --  -38.43238 -38.43158  -2.19846  -2.19743  -2.19725
 Alpha  occ. eigenvalues --   -2.19596  -2.19260  -2.19211  -2.19114  -1.13496
 Alpha  occ. eigenvalues --   -1.13475  -1.13467  -1.13446  -1.13403  -1.13394
 Alpha  occ. eigenvalues --   -1.13387  -1.13381  -1.13370  -1.13331  -1.13243
 Alpha  occ. eigenvalues --   -1.13216  -1.13027  -1.12918  -1.12893  -1.12874
 Alpha  occ. eigenvalues --   -1.12844  -1.12813  -1.12773  -1.12767  -1.12737
 Alpha  occ. eigenvalues --   -0.18783  -0.13078  -0.12470  -0.11019
 Alpha virt. eigenvalues --   -0.05558  -0.05340  -0.04346  -0.03178  -0.02960
 Alpha virt. eigenvalues --   -0.02855  -0.01496  -0.01158  -0.00242  -0.00118
 Alpha virt. eigenvalues --   -0.00047   0.00330   0.00791   0.00889   0.00929

  Beta  occ. eigenvalues --  -38.43890 -38.43889 -38.43882 -38.43725 -38.43367
  Beta  occ. eigenvalues --  -38.43235 -38.43102  -2.19737  -2.19730  -2.19641
  Beta  occ. eigenvalues --   -2.19585  -2.19248  -2.19111  -2.19109  -1.13439
  Beta  occ. eigenvalues --   -1.13409  -1.13391  -1.13385  -1.13371  -1.13370
  Beta  occ. eigenvalues --   -1.13354  -1.13328  -1.13314  -1.13312  -1.13220
  Beta  occ. eigenvalues --   -1.13212  -1.13000  -1.12891  -1.12865  -1.12850
  Beta  occ. eigenvalues --   -1.12789  -1.12754  -1.12750  -1.12741  -1.12719
  Beta  occ. eigenvalues --   -0.18068  -0.12872  -0.12236
  Beta virt. eigenvalues --   -0.06997  -0.05511  -0.05328  -0.04322  -0.02421
  Beta virt. eigenvalues --   -0.02128  -0.01738  -0.01432  -0.01109  -0.00282
  Beta virt. eigenvalues --   -0.00155   0.00126   0.00366   0.00858   0.00889

 Mulliken charges and spin densities:
               1          2
     1  Na   0.394291   0.027601
     2  Na   0.428422   0.063181
     3  Na   0.390885   0.003320
     4  Na  -0.583747   0.101096
     5  Na   0.251351   0.080987
     6  Na  -0.773906   0.744090
     7  Na  -0.107296  -0.020275
 Sum of Mulliken charges =  -0.00000   1.00000

 Dipole moment (field-independent basis, Debye):
    X=              0.2550    Y=             -0.0813    Z=              0.2953  Tot=              0.3986
 Quadrupole moment (field-independent basis, Debye-Ang):
   XX=            -55.9638   YY=            -64.8791   ZZ=            -73.3924
   XY=             -0.2587   XZ=             -0.3864   YZ=              0.4473

 Normal termination of Gaussian 16 at Tue Dec  5 21:21:50 2023.
