 Gaussian 16, Revision B.01,
 Gaussian 16:  ES64L-G16RevB.01 20-Dec-2017

 -------------------------
 #P B3LYP/6-311+g(d) force
 -------------------------

 -----
 DPGEN
 -----
 Symbolic Z-matrix:
 Charge =  0 Multiplicity = 2

                         Standard orientation:
 ---------------------------------------------------------------------
 Center     Atomic      Atomic             Coordinates (Angstroms)
 Number     Number       Type             X           Y           Z
 ---------------------------------------------------------------------
      1         11           0        1.949373   -1.803692   -0.905140
      2         11           0        0.593849   -0.292565    2.209274
      3         11           0       -2.592387    2.179323   -0.523949
      4         11           0        0.684357    1.626661   -0.915766
      5         11           0       -1.389339   -1.715092   -1.289897
      6         11           0        4.030420    0.802137    0.355710
      7         11           0       -3.276272   -0.796774    1.069769
 ---------------------------------------------------------------------

 SCF Done:  E(UB3LYP) =  -1136.12012280     A.U. after   27 cycles

 The electronic state is 2-A.
 Alpha  occ. eigenvalues --  -38.45623 -38.45346 -38.44937 -38.43546 -38.43481
 Alpha  occ. eigenvalues --  -38.43198 -38.43144  -2.21393  -2.21134  -2.20760
 Alpha  occ. eigenvalues --   -2.19402  -2.19328  -2.19057  -2.18958  -1.15064
 Alpha  occ. eigenvalues --   -1.15056  -1.15017  -1.14813  -1.14778  -1.14733
 Alpha  occ. eigenvalues --   -1.14448  -1.14404  -1.14393  -1.13095  -1.13064
 Alpha  occ. eigenvalues --   -1.13033  -1.13025  -1.12996  -1.12943  -1.12736
 Alpha  occ. eigenvalues --   -1.12719  -1.12685  -1.12627  -1.12617  -1.12606
 Alpha  occ. eigenvalues --   -0.17946  -0.14000  -0.11155  -0.11019
 Alpha virt. eigenvalues --   -0.07361  -0.05330  -0.04688  -0.03313  -0.02861
 Alpha virt. eigenvalues --   -0.02497  -0.02411  -0.01215  -0.00992  -0.00328
 Alpha virt. eigenvalues --    0.00059   0.00161   0.00176   0.00618   0.00716

  Beta  occ. eigenvalues --  -38.45618 -38.45266 -38.44919 -38.43519 -38.43454
  Beta  occ. eigenvalues --  -38.43176 -38.43141  -2.21383  -2.20986  -2.20727
  Beta  occ. eigenvalues --   -2.19354  -2.19281  -2.19018  -2.18954  -1.15056
  Beta  occ. eigenvalues --   -1.15044  -1.15011  -1.14711  -1.14678  -1.14622
  Beta  occ. eigenvalues --   -1.14428  -1.14376  -1.14369  -1.13057  -1.13024
  Beta  occ. eigenvalues --   -1.13001  -1.12986  -1.12949  -1.12911  -1.12697
  Beta  occ. eigenvalues --   -1.12688  -1.12659  -1.12616  -1.12611  -1.12605
  Beta  occ. eigenvalues --   -0.17268  -0.13881  -0.10790
  Beta virt. eigenvalues --   -0.07437  -0.06963  -0.05369  -0.04030  -0.02994
  Beta virt. eigenvalues --   -0.02644  -0.01952  -0.01659  -0.01147  -0.00628
  Beta virt. eigenvalues --   -0.00300   0.00096   0.00183   0.00348   0.00688

 Mulliken charges and spin densities:
               1          2
     1  Na   0.210234   0.085337
     2  Na  -0.398108   0.353277
     3  Na  -0.116883  -0.113162
     4  Na  -0.711522   0.295515
     5  Na  -0.368629  -0.021975
     6  Na   0.917602   0.066921
     7  Na   0.467305   0.334087
 Sum of Mulliken charges =  -0.00000   1.00000

 Dipole moment (field-independent basis, Debye):
    X=              1.1905    Y=             -0.1713    Z=              0.7673  Tot=              1.4266
 Quadrupole moment (field-independent basis, Debye-Ang):
   XX=            -43.9525   YY=            -79.1065   ZZ=            -70.9476
   XY=              2.0955   XZ=             -1.0685   YZ=              0.5156

 Normal termination of Gaussian 16 at Thu Dec  7 15:46:50 2023.
