 Gaussian 16, Revision B.01,
 Gaussian 16:  ES64L-G16RevB.01 20-Dec-2017

 -------------------------
 #P B3LYP/6-311+g(d) force
 -------------------------

 -----
 DPGEN
 -----
 Symbolic Z-matrix:
 Charge =  0 Multiplicity = 2

                         Standard orientation:
 ---------------------------------------------------------------------
 Center     Atomic      Atomic             Coordinates (Angstroms)
 Number     Number       Type             X           Y           Z
 ---------------------------------------------------------------------
      1         11           0        1.313382    2.452970    0.414534
      2         11           0       -2.424998    1.748384   -0.436217
      3         11           0        2.984426   -0.356034   -0.284623
      4         11           0        0.800340   -2.464610    0.347931
      5         11           0        0.299107    0.054132   -1.756064
      6         11           0       -0.454483    0.205702    1.846820
      7         11           0       -2.517774   -1.640545   -0.132381
 ---------------------------------------------------------------------

 SCF Done:  E(UB3LYP) =  -1136.13634632     A.U. after   20 cycles

 The electronic state is 2-A.
 Alpha  occ. eigenvalues --  -38.43837 -38.43795 -38.43696 -38.43406 -38.43342
 Alpha  occ. eigenvalues --  -38.43254 -38.42931  -2.19757  -2.19651  -2.19561
 Alpha  occ. eigenvalues --   -2.19405  -2.19323  -2.19142  -2.18864  -1.13485
 Alpha  occ. eigenvalues --   -1.13422  -1.13388  -1.13338  -1.13327  -1.13287
 Alpha  occ. eigenvalues --   -1.13236  -1.13226  -1.13190  -1.13087  -1.13032
 Alpha  occ. eigenvalues --   -1.13025  -1.13007  -1.12973  -1.12944  -1.12806
 Alpha  occ. eigenvalues --   -1.12795  -1.12759  -1.12547  -1.12517  -1.12493
 Alpha  occ. eigenvalues --   -0.19258  -0.13402  -0.12383  -0.11069
 Alpha virt. eigenvalues --   -0.05453  -0.05211  -0.04234  -0.03430  -0.02943
 Alpha virt. eigenvalues --   -0.02578  -0.01452  -0.01003  -0.00168   0.00037
 Alpha virt. eigenvalues --    0.00082   0.00372   0.00818   0.00922   0.00950

  Beta  occ. eigenvalues --  -38.43830 -38.43784 -38.43692 -38.43335 -38.43259
  Beta  occ. eigenvalues --  -38.43242 -38.42921  -2.19748  -2.19634  -2.19557
  Beta  occ. eigenvalues --   -2.19275  -2.19172  -2.19123  -2.18848  -1.13469
  Beta  occ. eigenvalues --   -1.13413  -1.13369  -1.13328  -1.13295  -1.13273
  Beta  occ. eigenvalues --   -1.13228  -1.13212  -1.13181  -1.13004  -1.12946
  Beta  occ. eigenvalues --   -1.12929  -1.12915  -1.12870  -1.12839  -1.12779
  Beta  occ. eigenvalues --   -1.12754  -1.12742  -1.12538  -1.12493  -1.12467
  Beta  occ. eigenvalues --   -0.18520  -0.13136  -0.12106
  Beta virt. eigenvalues --   -0.07124  -0.05384  -0.05216  -0.04203  -0.02644
  Beta virt. eigenvalues --   -0.02146  -0.01524  -0.01349  -0.00946  -0.00144
  Beta virt. eigenvalues --    0.00023   0.00140   0.00400   0.00887   0.00920

 Mulliken charges and spin densities:
               1          2
     1  Na   0.130067  -0.071213
     2  Na   0.047008  -0.043066
     3  Na   0.334170   0.049649
     4  Na   0.135437  -0.022346
     5  Na  -0.382580   0.545721
     6  Na  -0.301922   0.587421
     7  Na   0.037821  -0.046167
 Sum of Mulliken charges =  -0.00000   1.00000

 Dipole moment (field-independent basis, Debye):
    X=             -0.2431    Y=              0.1579    Z=             -0.0683  Tot=              0.2978
 Quadrupole moment (field-independent basis, Debye-Ang):
   XX=            -56.1466   YY=            -65.3364   ZZ=            -72.6299
   XY=              0.2138   XZ=              1.2717   YZ=             -0.3325

 Normal termination of Gaussian 16 at Thu Dec  7 08:18:57 2023.
