 Gaussian 16, Revision B.01,
 Gaussian 16:  ES64L-G16RevB.01 20-Dec-2017

 -------------------------
 #P B3LYP/6-311+g(d) force
 -------------------------

 -----
 DPGEN
 -----
 Symbolic Z-matrix:
 Charge =  0 Multiplicity = 2

                         Standard orientation:
 ---------------------------------------------------------------------
 Center     Atomic      Atomic             Coordinates (Angstroms)
 Number     Number       Type             X           Y           Z
 ---------------------------------------------------------------------
      1         11           0       -4.041525    1.144087    0.727749
      2         11           0        3.290756   -2.818332   -0.071937
      3         11           0        4.234468    0.636982    0.660760
      4         11           0       -1.384468    3.503765   -0.535961
      5         11           0       -3.751791   -2.271795   -0.033875
      6         11           0        2.170775    2.762255   -0.325812
      7         11           0       -0.518215   -2.956962   -0.420925
 ---------------------------------------------------------------------

 SCF Done:  E(UB3LYP) =  -1136.10617148     A.U. after   26 cycles

 The electronic state is 2-A.
 Alpha  occ. eigenvalues --  -38.45851 -38.45547 -38.44747 -38.44319 -38.44236
 Alpha  occ. eigenvalues --  -38.44079 -38.43788  -2.21595  -2.21300  -2.20557
 Alpha  occ. eigenvalues --   -2.20125  -2.19996  -2.19859  -2.19606  -1.15280
 Alpha  occ. eigenvalues --   -1.15257  -1.15223  -1.14989  -1.14979  -1.14922
 Alpha  occ. eigenvalues --   -1.14258  -1.14218  -1.14184  -1.13792  -1.13787
 Alpha  occ. eigenvalues --   -1.13757  -1.13672  -1.13661  -1.13621  -1.13520
 Alpha  occ. eigenvalues --   -1.13500  -1.13491  -1.13262  -1.13256  -1.13244
 Alpha  occ. eigenvalues --   -0.15543  -0.14184  -0.13258  -0.10771
 Alpha virt. eigenvalues --   -0.08012  -0.04766  -0.04522  -0.03638  -0.03532
 Alpha virt. eigenvalues --   -0.02442  -0.02179  -0.02001  -0.01309  -0.00870
 Alpha virt. eigenvalues --   -0.00718  -0.00172   0.00155   0.00253   0.00582

  Beta  occ. eigenvalues --  -38.45830 -38.45522 -38.44718 -38.44293 -38.44216
  Beta  occ. eigenvalues --  -38.44022 -38.43745  -2.21560  -2.21259  -2.20509
  Beta  occ. eigenvalues --   -2.20081  -2.19959  -2.19753  -2.19528  -1.15259
  Beta  occ. eigenvalues --   -1.15237  -1.15173  -1.14967  -1.14958  -1.14852
  Beta  occ. eigenvalues --   -1.14211  -1.14189  -1.14140  -1.13764  -1.13761
  Beta  occ. eigenvalues --   -1.13713  -1.13648  -1.13638  -1.13590  -1.13448
  Beta  occ. eigenvalues --   -1.13431  -1.13415  -1.13206  -1.13203  -1.13194
  Beta  occ. eigenvalues --   -0.15016  -0.13519  -0.12513
  Beta virt. eigenvalues --   -0.08246  -0.07549  -0.04291  -0.04046  -0.03486
  Beta virt. eigenvalues --   -0.03205  -0.02229  -0.01947  -0.01786  -0.01085
  Beta virt. eigenvalues --   -0.00638  -0.00439   0.00083   0.00194   0.00217

 Mulliken charges and spin densities:
               1          2
     1  Na  -0.185190   0.114158
     2  Na   0.109535   0.117480
     3  Na   0.194656   0.048082
     4  Na   0.091461   0.146436
     5  Na   0.555861   0.157087
     6  Na  -0.236008   0.100591
     7  Na  -0.530315   0.316167
 Sum of Mulliken charges =  -0.00000   1.00000

 Dipole moment (field-independent basis, Debye):
    X=             -0.5432    Y=             -0.0459    Z=              0.2225  Tot=              0.5888
 Quadrupole moment (field-independent basis, Debye-Ang):
   XX=            -56.0801   YY=            -71.8727   ZZ=            -72.0748
   XY=             -1.3539   XZ=             -0.6464   YZ=              0.0047

 Normal termination of Gaussian 16 at Mon Dec  4 01:29:56 2023.
