 Gaussian 16, Revision B.01,
 Gaussian 16:  ES64L-G16RevB.01 20-Dec-2017

 -------------------------
 #P B3LYP/6-311+g(d) force
 -------------------------

 -----
 DPGEN
 -----
 Symbolic Z-matrix:
 Charge =  0 Multiplicity = 2

                         Standard orientation:
 ---------------------------------------------------------------------
 Center     Atomic      Atomic             Coordinates (Angstroms)
 Number     Number       Type             X           Y           Z
 ---------------------------------------------------------------------
      1         11           0        2.967606    1.393583   -0.305858
      2         11           0        2.227019   -2.089923    0.385876
      3         11           0       -0.683601    3.079102    0.000982
      4         11           0       -2.884844    0.265730   -0.321135
      5         11           0        0.194992    0.266307   -1.317996
      6         11           0       -1.173953   -2.756074   -0.736638
      7         11           0       -0.647219   -0.158725    2.294770
 ---------------------------------------------------------------------

 SCF Done:  E(UB3LYP) =  -1136.13575946     A.U. after   19 cycles

 The electronic state is 2-A.
 Alpha  occ. eigenvalues --  -38.43931 -38.43892 -38.43871 -38.43824 -38.43648
 Alpha  occ. eigenvalues --  -38.43509 -38.42836  -2.19777  -2.19711  -2.19683
 Alpha  occ. eigenvalues --   -2.19632  -2.19526  -2.19349  -2.18869  -1.13430
 Alpha  occ. eigenvalues --   -1.13415  -1.13408  -1.13391  -1.13389  -1.13371
 Alpha  occ. eigenvalues --   -1.13342  -1.13338  -1.13312  -1.13304  -1.13296
 Alpha  occ. eigenvalues --   -1.13260  -1.13227  -1.13190  -1.13145  -1.13035
 Alpha  occ. eigenvalues --   -1.12993  -1.12982  -1.12556  -1.12518  -1.12499
 Alpha  occ. eigenvalues --   -0.18376  -0.12787  -0.12524  -0.10803
 Alpha virt. eigenvalues --   -0.05561  -0.05127  -0.04932  -0.03087  -0.02905
 Alpha virt. eigenvalues --   -0.02631  -0.01335  -0.01318  -0.00534  -0.00374
 Alpha virt. eigenvalues --   -0.00029   0.00337   0.00819   0.00849   0.00859

  Beta  occ. eigenvalues --  -38.43891 -38.43870 -38.43823 -38.43819 -38.43638
  Beta  occ. eigenvalues --  -38.43491 -38.42795  -2.19711  -2.19684  -2.19624
  Beta  occ. eigenvalues --   -2.19577  -2.19513  -2.19319  -2.18796  -1.13406
  Beta  occ. eigenvalues --   -1.13386  -1.13364  -1.13339  -1.13336  -1.13313
  Beta  occ. eigenvalues --   -1.13300  -1.13293  -1.13283  -1.13276  -1.13259
  Beta  occ. eigenvalues --   -1.13243  -1.13212  -1.13160  -1.13129  -1.13006
  Beta  occ. eigenvalues --   -1.12971  -1.12955  -1.12499  -1.12460  -1.12448
  Beta  occ. eigenvalues --   -0.17687  -0.12593  -0.12296
  Beta virt. eigenvalues --   -0.06836  -0.05541  -0.05046  -0.04828  -0.02363
  Beta virt. eigenvalues --   -0.02226  -0.01574  -0.01268  -0.01220  -0.00514
  Beta virt. eigenvalues --   -0.00410   0.00150   0.00388   0.00822   0.00885

 Mulliken charges and spin densities:
               1          2
     1  Na   0.073793   0.001271
     2  Na   0.021791   0.080154
     3  Na   0.005296   0.012293
     4  Na   0.419931   0.065283
     5  Na  -0.070803   0.028017
     6  Na   0.167653   0.085168
     7  Na  -0.617661   0.727813
 Sum of Mulliken charges =  -0.00000   1.00000

 Dipole moment (field-independent basis, Debye):
    X=              0.0681    Y=              0.1684    Z=              0.2757  Tot=              0.3302
 Quadrupole moment (field-independent basis, Debye-Ang):
   XX=            -59.4838   YY=            -59.3029   ZZ=            -74.2879
   XY=             -0.2833   XZ=              1.6485   YZ=              0.7918

 Normal termination of Gaussian 16 at Thu Dec  7 21:48:37 2023.
