 Gaussian 16, Revision B.01,
 Gaussian 16:  ES64L-G16RevB.01 20-Dec-2017

 -------------------------
 #P B3LYP/6-311+g(d) force
 -------------------------

 -----
 DPGEN
 -----
 Symbolic Z-matrix:
 Charge =  0 Multiplicity = 2

                         Standard orientation:
 ---------------------------------------------------------------------
 Center     Atomic      Atomic             Coordinates (Angstroms)
 Number     Number       Type             X           Y           Z
 ---------------------------------------------------------------------
      1         11           0       -1.510987   -2.007115    0.192707
      2         11           0       -1.967439    1.449757   -0.554323
      3         11           0        3.955296    0.338255   -0.513340
      4         11           0       -4.821282    0.259959   -0.125011
      5         11           0        1.127354   -0.377472    1.927266
      6         11           0        1.674965   -2.698289   -0.861354
      7         11           0        1.542092    3.034905   -0.065945
 ---------------------------------------------------------------------

 SCF Done:  E(UB3LYP) =  -1136.12321278     A.U. after   20 cycles

 The electronic state is 2-A.
 Alpha  occ. eigenvalues --  -38.45157 -38.44049 -38.44044 -38.44021 -38.43965
 Alpha  occ. eigenvalues --  -38.43867 -38.43614  -2.20959  -2.19869  -2.19848
 Alpha  occ. eigenvalues --   -2.19844  -2.19771  -2.19697  -2.19387  -1.14642
 Alpha  occ. eigenvalues --   -1.14621  -1.14569  -1.13604  -1.13537  -1.13535
 Alpha  occ. eigenvalues --   -1.13527  -1.13506  -1.13504  -1.13495  -1.13489
 Alpha  occ. eigenvalues --   -1.13443  -1.13412  -1.13408  -1.13395  -1.13385
 Alpha  occ. eigenvalues --   -1.13384  -1.13280  -1.13067  -1.13041  -1.13026
 Alpha  occ. eigenvalues --   -0.17037  -0.13891  -0.12113  -0.10447
 Alpha virt. eigenvalues --   -0.06757  -0.05515  -0.04743  -0.03301  -0.02912
 Alpha virt. eigenvalues --   -0.02526  -0.01731  -0.01627  -0.01016  -0.00712
 Alpha virt. eigenvalues --   -0.00411  -0.00122   0.00390   0.00499   0.00714

  Beta  occ. eigenvalues --  -38.45121 -38.44040 -38.44018 -38.43992 -38.43894
  Beta  occ. eigenvalues --  -38.43856 -38.43604  -2.20895  -2.19846  -2.19832
  Beta  occ. eigenvalues --   -2.19772  -2.19680  -2.19641  -2.19370  -1.14585
  Beta  occ. eigenvalues --   -1.14572  -1.14524  -1.13570  -1.13534  -1.13530
  Beta  occ. eigenvalues --   -1.13510  -1.13495  -1.13458  -1.13444  -1.13432
  Beta  occ. eigenvalues --   -1.13386  -1.13365  -1.13362  -1.13355  -1.13326
  Beta  occ. eigenvalues --   -1.13289  -1.13269  -1.13056  -1.13021  -1.13013
  Beta  occ. eigenvalues --   -0.16496  -0.13285  -0.11948
  Beta virt. eigenvalues --   -0.07025  -0.06463  -0.05383  -0.04308  -0.02887
  Beta virt. eigenvalues --   -0.02599  -0.02261  -0.01444  -0.01202  -0.00895
  Beta virt. eigenvalues --   -0.00536  -0.00121   0.00088   0.00490   0.00618

 Mulliken charges and spin densities:
               1          2
     1  Na  -0.299769  -0.071981
     2  Na  -0.709328   0.105814
     3  Na  -0.042846   0.432251
     4  Na   0.526720   0.232820
     5  Na   0.044813   0.265175
     6  Na   0.183016   0.078051
     7  Na   0.297395  -0.042130
 Sum of Mulliken charges =  -0.00000   1.00000

 Dipole moment (field-independent basis, Debye):
    X=             -0.4229    Y=             -0.4633    Z=              0.5372  Tot=              0.8259
 Quadrupole moment (field-independent basis, Debye-Ang):
   XX=            -65.2132   YY=            -68.8714   ZZ=            -66.8403
   XY=              2.6278   XZ=              0.1013   YZ=              0.0090

 Normal termination of Gaussian 16 at Sun Dec  3 22:45:14 2023.
