 Gaussian 16, Revision B.01,
 Gaussian 16:  ES64L-G16RevB.01 20-Dec-2017

 -------------------------
 #P B3LYP/6-311+g(d) force
 -------------------------

 -----
 DPGEN
 -----
 Symbolic Z-matrix:
 Charge =  0 Multiplicity = 2

                         Standard orientation:
 ---------------------------------------------------------------------
 Center     Atomic      Atomic             Coordinates (Angstroms)
 Number     Number       Type             X           Y           Z
 ---------------------------------------------------------------------
      1         11           0       -3.130152   -0.209010   -0.102841
      2         11           0       -0.790105   -2.709314   -0.427409
      3         11           0        0.280536   -0.826133    1.899221
      4         11           0        0.340820    0.247118   -1.844504
      5         11           0       -1.560687    2.344916    0.451915
      6         11           0        3.004207   -0.979997    0.085055
      7         11           0        1.855382    2.132421   -0.061436
 ---------------------------------------------------------------------

 SCF Done:  E(UB3LYP) =  -1136.13356355     A.U. after   19 cycles

 The electronic state is 2-A.
 Alpha  occ. eigenvalues --  -38.44289 -38.44178 -38.43597 -38.43533 -38.43513
 Alpha  occ. eigenvalues --  -38.43343 -38.43210  -2.20144  -2.20028  -2.19509
 Alpha  occ. eigenvalues --   -2.19491  -2.19416  -2.19211  -2.19082  -1.13831
 Alpha  occ. eigenvalues --   -1.13805  -1.13782  -1.13736  -1.13683  -1.13663
 Alpha  occ. eigenvalues --   -1.13287  -1.13194  -1.13154  -1.13140  -1.13129
 Alpha  occ. eigenvalues --   -1.13103  -1.13060  -1.13035  -1.13024  -1.12879
 Alpha  occ. eigenvalues --   -1.12874  -1.12832  -1.12760  -1.12734  -1.12718
 Alpha  occ. eigenvalues --   -0.18822  -0.13363  -0.12413  -0.10917
 Alpha virt. eigenvalues --   -0.05933  -0.05047  -0.04383  -0.03416  -0.03126
 Alpha virt. eigenvalues --   -0.02532  -0.01625  -0.00915  -0.00284  -0.00116
 Alpha virt. eigenvalues --   -0.00019   0.00364   0.00825   0.00861   0.00884

  Beta  occ. eigenvalues --  -38.44282 -38.44177 -38.43525 -38.43506 -38.43454
  Beta  occ. eigenvalues --  -38.43332 -38.43200  -2.20136  -2.20029  -2.19410
  Beta  occ. eigenvalues --   -2.19375  -2.19345  -2.19193  -2.19066  -1.13820
  Beta  occ. eigenvalues --   -1.13781  -1.13774  -1.13737  -1.13669  -1.13664
  Beta  occ. eigenvalues --   -1.13227  -1.13111  -1.13066  -1.13048  -1.13045
  Beta  occ. eigenvalues --   -1.13032  -1.13028  -1.12993  -1.12958  -1.12864
  Beta  occ. eigenvalues --   -1.12834  -1.12820  -1.12752  -1.12719  -1.12695
  Beta  occ. eigenvalues --   -0.18097  -0.13121  -0.12170
  Beta virt. eigenvalues --   -0.07037  -0.05886  -0.05001  -0.04301  -0.02626
  Beta virt. eigenvalues --   -0.02355  -0.01558  -0.01516  -0.00852  -0.00330
  Beta virt. eigenvalues --   -0.00118   0.00124   0.00397   0.00868   0.00910

 Mulliken charges and spin densities:
               1          2
     1  Na  -0.036772  -0.028897
     2  Na   0.188847  -0.104046
     3  Na  -0.399594   0.635304
     4  Na  -0.237984   0.512482
     5  Na  -0.028837   0.006903
     6  Na   0.308119  -0.096695
     7  Na   0.206220   0.074950
 Sum of Mulliken charges =  -0.00000   1.00000

 Dipole moment (field-independent basis, Debye):
    X=              0.2653    Y=             -0.2831    Z=              0.0287  Tot=              0.3890
 Quadrupole moment (field-independent basis, Debye-Ang):
   XX=            -56.0502   YY=            -66.1192   ZZ=            -72.9415
   XY=              0.1707   XZ=              0.2586   YZ=              2.0390

 Normal termination of Gaussian 16 at Tue Dec  5 12:18:13 2023.
