 Gaussian 16, Revision B.01,
 Gaussian 16:  ES64L-G16RevB.01 20-Dec-2017

 -------------------------
 #P B3LYP/6-311+g(d) force
 -------------------------

 -----
 DPGEN
 -----
 Symbolic Z-matrix:
 Charge =  0 Multiplicity = 2

                         Standard orientation:
 ---------------------------------------------------------------------
 Center     Atomic      Atomic             Coordinates (Angstroms)
 Number     Number       Type             X           Y           Z
 ---------------------------------------------------------------------
      1         11           0       -0.026464    0.273318   -1.526021
      2         11           0       -3.026448   -1.441175   -0.197674
      3         11           0        0.047546   -0.577787    1.601430
      4         11           0        2.979592   -0.231709   -0.342239
      5         11           0        1.395987    2.683550    0.336312
      6         11           0       -2.264527    2.137232    0.088379
      7         11           0        0.894314   -2.843430    0.039813
 ---------------------------------------------------------------------

 SCF Done:  E(UB3LYP) =  -1136.13317788     A.U. after   19 cycles

 The electronic state is 2-A.
 Alpha  occ. eigenvalues --  -38.44358 -38.44065 -38.43753 -38.43701 -38.43452
 Alpha  occ. eigenvalues --  -38.42955 -38.42879  -2.20144  -2.19883  -2.19649
 Alpha  occ. eigenvalues --   -2.19601  -2.19303  -2.18960  -2.18885  -1.13821
 Alpha  occ. eigenvalues --   -1.13795  -1.13787  -1.13574  -1.13547  -1.13508
 Alpha  occ. eigenvalues --   -1.13396  -1.13339  -1.13308  -1.13300  -1.13234
 Alpha  occ. eigenvalues --   -1.13195  -1.12979  -1.12964  -1.12943  -1.12688
 Alpha  occ. eigenvalues --   -1.12592  -1.12552  -1.12545  -1.12513  -1.12492
 Alpha  occ. eigenvalues --   -0.18825  -0.13162  -0.12656  -0.10062
 Alpha virt. eigenvalues --   -0.05817  -0.05398  -0.04858  -0.02944  -0.02754
 Alpha virt. eigenvalues --   -0.01795  -0.01693  -0.01340  -0.00545  -0.00486
 Alpha virt. eigenvalues --    0.00057   0.00340   0.00784   0.00816   0.00866

  Beta  occ. eigenvalues --  -38.44355 -38.44062 -38.43738 -38.43692 -38.43443
  Beta  occ. eigenvalues --  -38.42884 -38.42816  -2.20139  -2.19881  -2.19627
  Beta  occ. eigenvalues --   -2.19589  -2.19290  -2.18829  -2.18772  -1.13805
  Beta  occ. eigenvalues --   -1.13793  -1.13783  -1.13567  -1.13536  -1.13504
  Beta  occ. eigenvalues --   -1.13378  -1.13320  -1.13293  -1.13260  -1.13205
  Beta  occ. eigenvalues --   -1.13188  -1.12970  -1.12944  -1.12924  -1.12601
  Beta  occ. eigenvalues --   -1.12501  -1.12463  -1.12454  -1.12428  -1.12408
  Beta  occ. eigenvalues --   -0.18138  -0.12904  -0.12397
  Beta virt. eigenvalues --   -0.06249  -0.05793  -0.05353  -0.04799  -0.02206
  Beta virt. eigenvalues --   -0.02009  -0.01614  -0.01265  -0.00857  -0.00576
  Beta virt. eigenvalues --   -0.00516   0.00192   0.00385   0.00797   0.00846

 Mulliken charges and spin densities:
               1          2
     1  Na  -0.237294   0.499885
     2  Na  -0.044663  -0.111496
     3  Na  -0.365003   0.636571
     4  Na   0.335415   0.098645
     5  Na  -0.051405   0.014100
     6  Na  -0.010214  -0.063808
     7  Na   0.373163  -0.073896
 Sum of Mulliken charges =  -0.00000   1.00000

 Dipole moment (field-independent basis, Debye):
    X=             -0.4225    Y=             -0.0372    Z=             -0.0184  Tot=              0.4245
 Quadrupole moment (field-independent basis, Debye-Ang):
   XX=            -54.1700   YY=            -58.9901   ZZ=            -77.7023
   XY=              0.3481   XZ=             -0.2150   YZ=              2.1285

 Normal termination of Gaussian 16 at Fri Dec  8 04:54:02 2023.
