 Gaussian 16, Revision B.01,
 Gaussian 16:  ES64L-G16RevB.01 20-Dec-2017

 -------------------------
 #P B3LYP/6-311+g(d) force
 -------------------------

 -----
 DPGEN
 -----
 Symbolic Z-matrix:
 Charge =  0 Multiplicity = 2

                         Standard orientation:
 ---------------------------------------------------------------------
 Center     Atomic      Atomic             Coordinates (Angstroms)
 Number     Number       Type             X           Y           Z
 ---------------------------------------------------------------------
      1         11           0        1.397251    2.778869   -0.196996
      2         11           0        0.543844   -2.628515   -0.212378
      3         11           0        3.267311   -0.545920    0.329525
      4         11           0       -2.289971    2.033866    0.248038
      5         11           0        0.159859    0.215437   -1.621338
      6         11           0       -2.519633   -1.487965   -0.486033
      7         11           0       -0.558662   -0.365771    1.939183
 ---------------------------------------------------------------------

 SCF Done:  E(UB3LYP) =  -1136.13655653     A.U. after   19 cycles

 The electronic state is 2-A.
 Alpha  occ. eigenvalues --  -38.44127 -38.43781 -38.43757 -38.43601 -38.43529
 Alpha  occ. eigenvalues --  -38.43148 -38.43085  -2.19917  -2.19594  -2.19589
 Alpha  occ. eigenvalues --   -2.19504  -2.19453  -2.19079  -2.19072  -1.13591
 Alpha  occ. eigenvalues --   -1.13574  -1.13560  -1.13307  -1.13282  -1.13262
 Alpha  occ. eigenvalues --   -1.13251  -1.13228  -1.13209  -1.13204  -1.13176
 Alpha  occ. eigenvalues --   -1.13137  -1.13113  -1.13081  -1.13055  -1.12832
 Alpha  occ. eigenvalues --   -1.12745  -1.12733  -1.12700  -1.12686  -1.12672
 Alpha  occ. eigenvalues --   -0.18763  -0.12890  -0.12630  -0.10716
 Alpha virt. eigenvalues --   -0.05656  -0.05209  -0.04675  -0.03121  -0.02932
 Alpha virt. eigenvalues --   -0.02423  -0.01501  -0.01154  -0.00484  -0.00198
 Alpha virt. eigenvalues --   -0.00003   0.00347   0.00820   0.00855   0.00911

  Beta  occ. eigenvalues --  -38.44123 -38.43779 -38.43750 -38.43585 -38.43446
  Beta  occ. eigenvalues --  -38.43137 -38.43019  -2.19912  -2.19591  -2.19580
  Beta  occ. eigenvalues --   -2.19480  -2.19300  -2.19059  -2.18958  -1.13582
  Beta  occ. eigenvalues --   -1.13567  -1.13556  -1.13297  -1.13267  -1.13244
  Beta  occ. eigenvalues --   -1.13238  -1.13223  -1.13203  -1.13188  -1.13134
  Beta  occ. eigenvalues --   -1.13110  -1.13020  -1.12977  -1.12951  -1.12795
  Beta  occ. eigenvalues --   -1.12707  -1.12670  -1.12664  -1.12607  -1.12602
  Beta  occ. eigenvalues --   -0.18033  -0.12669  -0.12365
  Beta virt. eigenvalues --   -0.06815  -0.05585  -0.05163  -0.04640  -0.02411
  Beta virt. eigenvalues --   -0.02182  -0.01434  -0.01369  -0.01054  -0.00504
  Beta virt. eigenvalues --   -0.00251   0.00141   0.00380   0.00850   0.00885

 Mulliken charges and spin densities:
               1          2
     1  Na  -0.030846  -0.104478
     2  Na   0.239368   0.048146
     3  Na  -0.134010  -0.014482
     4  Na   0.034584  -0.060311
     5  Na  -0.093393   0.377942
     6  Na   0.434492   0.031562
     7  Na  -0.450196   0.721621
 Sum of Mulliken charges =  -0.00000   1.00000

 Dipole moment (field-independent basis, Debye):
    X=              0.0797    Y=              0.2173    Z=              0.1907  Tot=              0.2999
 Quadrupole moment (field-independent basis, Debye-Ang):
   XX=            -56.2980   YY=            -62.4766   ZZ=            -74.3090
   XY=              0.1067   XZ=              1.9134   YZ=              1.2285

 Normal termination of Gaussian 16 at Thu Dec  7 20:03:50 2023.
