 Gaussian 16, Revision B.01,
 Gaussian 16:  ES64L-G16RevB.01 20-Dec-2017

 -------------------------
 #P B3LYP/6-311+g(d) force
 -------------------------

 -----
 DPGEN
 -----
 Symbolic Z-matrix:
 Charge =  0 Multiplicity = 2

                         Standard orientation:
 ---------------------------------------------------------------------
 Center     Atomic      Atomic             Coordinates (Angstroms)
 Number     Number       Type             X           Y           Z
 ---------------------------------------------------------------------
      1         11           0       -1.240530    3.388384    0.372550
      2         11           0       -2.915756    1.329823   -0.924199
      3         11           0       -1.660882   -2.463037    1.811748
      4         11           0       -2.303452   -2.133975   -1.091665
      5         11           0        0.643780    0.133398    0.340443
      6         11           0        3.767086   -1.166893   -1.211205
      7         11           0        3.709755    0.912301    0.702328
 ---------------------------------------------------------------------

 SCF Done:  E(UB3LYP) =  -1136.11361353     A.U. after   19 cycles

 The electronic state is 2-A.
 Alpha  occ. eigenvalues --  -38.45164 -38.44826 -38.43934 -38.43806 -38.43612
 Alpha  occ. eigenvalues --  -38.43303 -38.43264  -2.21053  -2.20694  -2.19770
 Alpha  occ. eigenvalues --   -2.19679  -2.19476  -2.19147  -2.19125  -1.14856
 Alpha  occ. eigenvalues --   -1.14712  -1.14681  -1.14324  -1.14316  -1.14282
 Alpha  occ. eigenvalues --   -1.13497  -1.13414  -1.13407  -1.13390  -1.13324
 Alpha  occ. eigenvalues --   -1.13302  -1.13133  -1.13124  -1.13094  -1.12970
 Alpha  occ. eigenvalues --   -1.12808  -1.12789  -1.12769  -1.12750  -1.12671
 Alpha  occ. eigenvalues --   -0.17039  -0.14600  -0.12166  -0.09984
 Alpha virt. eigenvalues --   -0.06210  -0.05835  -0.04590  -0.03446  -0.03012
 Alpha virt. eigenvalues --   -0.02412  -0.01949  -0.01320  -0.00743  -0.00548
 Alpha virt. eigenvalues --   -0.00355   0.00227   0.00277   0.00568   0.00647

  Beta  occ. eigenvalues --  -38.45162 -38.44783 -38.43906 -38.43765 -38.43588
  Beta  occ. eigenvalues --  -38.43307 -38.43226  -2.21053  -2.20614  -2.19717
  Beta  occ. eigenvalues --   -2.19608  -2.19435  -2.19143  -2.19064  -1.14839
  Beta  occ. eigenvalues --   -1.14691  -1.14686  -1.14268  -1.14260  -1.14237
  Beta  occ. eigenvalues --   -1.13464  -1.13379  -1.13362  -1.13320  -1.13277
  Beta  occ. eigenvalues --   -1.13256  -1.13108  -1.13093  -1.13048  -1.12952
  Beta  occ. eigenvalues --   -1.12797  -1.12768  -1.12738  -1.12718  -1.12638
  Beta  occ. eigenvalues --   -0.16504  -0.14159  -0.12090
  Beta virt. eigenvalues --   -0.06642  -0.05763  -0.05416  -0.04249  -0.03296
  Beta virt. eigenvalues --   -0.02661  -0.02181  -0.01502  -0.01168  -0.00663
  Beta virt. eigenvalues --   -0.00265  -0.00014   0.00322   0.00437   0.00680

 Mulliken charges and spin densities:
               1          2
     1  Na   0.286065  -0.047562
     2  Na   0.279195   0.259463
     3  Na   0.669674   0.100384
     4  Na   0.725703   0.190822
     5  Na  -2.087579   0.278522
     6  Na   0.456927   0.266159
     7  Na  -0.329985  -0.047787
 Sum of Mulliken charges =  -0.00000   1.00000

 Dipole moment (field-independent basis, Debye):
    X=              1.8335    Y=             -0.2940    Z=              0.5183  Tot=              1.9279
 Quadrupole moment (field-independent basis, Debye-Ang):
   XX=            -63.8611   YY=            -65.8459   ZZ=            -67.6428
   XY=              3.5539   XZ=             -0.4949   YZ=              4.5239

 Normal termination of Gaussian 16 at Sat Dec  9 05:34:05 2023.
