 Gaussian 16, Revision B.01,
 Gaussian 16:  ES64L-G16RevB.01 20-Dec-2017

 -------------------------
 #P B3LYP/6-311+g(d) force
 -------------------------

 -----
 DPGEN
 -----
 Symbolic Z-matrix:
 Charge =  0 Multiplicity = 2

                         Standard orientation:
 ---------------------------------------------------------------------
 Center     Atomic      Atomic             Coordinates (Angstroms)
 Number     Number       Type             X           Y           Z
 ---------------------------------------------------------------------
      1         11           0       -1.670234   -1.608018   -0.481593
      2         11           0        1.445857   -2.856995    0.224176
      3         11           0        3.882188   -0.768044   -0.414096
      4         11           0       -4.734287    0.324984   -1.102445
      5         11           0        2.412445    2.978315   -0.893209
      6         11           0        1.335148    0.982184    1.132961
      7         11           0       -2.671115    0.947575    1.534207
 ---------------------------------------------------------------------

 SCF Done:  E(UB3LYP) =  -1136.11912185     A.U. after   22 cycles

 The electronic state is 2-A.
 Alpha  occ. eigenvalues --  -38.44910 -38.44664 -38.44549 -38.44041 -38.43960
 Alpha  occ. eigenvalues --  -38.43556 -38.42806  -2.20716  -2.20478  -2.20376
 Alpha  occ. eigenvalues --   -2.19836  -2.19789  -2.19436  -2.18636  -1.14399
 Alpha  occ. eigenvalues --   -1.14386  -1.14350  -1.14177  -1.14158  -1.14084
 Alpha  occ. eigenvalues --   -1.14053  -1.14033  -1.13980  -1.13559  -1.13497
 Alpha  occ. eigenvalues --   -1.13467  -1.13442  -1.13433  -1.13394  -1.13126
 Alpha  occ. eigenvalues --   -1.13083  -1.13055  -1.12305  -1.12303  -1.12292
 Alpha  occ. eigenvalues --   -0.16911  -0.14457  -0.11771  -0.10494
 Alpha virt. eigenvalues --   -0.06994  -0.05031  -0.04577  -0.03929  -0.02864
 Alpha virt. eigenvalues --   -0.02233  -0.01957  -0.01626  -0.00829  -0.00658
 Alpha virt. eigenvalues --   -0.00317   0.00163   0.00319   0.00470   0.00523

  Beta  occ. eigenvalues --  -38.44893 -38.44651 -38.44500 -38.44052 -38.43880
  Beta  occ. eigenvalues --  -38.43527 -38.42805  -2.20690  -2.20459  -2.20283
  Beta  occ. eigenvalues --   -2.19856  -2.19637  -2.19386  -2.18638  -1.14381
  Beta  occ. eigenvalues --   -1.14374  -1.14295  -1.14166  -1.14130  -1.14063
  Beta  occ. eigenvalues --   -1.13991  -1.13973  -1.13914  -1.13571  -1.13512
  Beta  occ. eigenvalues --   -1.13474  -1.13337  -1.13328  -1.13298  -1.13099
  Beta  occ. eigenvalues --   -1.13045  -1.12997  -1.12309  -1.12302  -1.12276
  Beta  occ. eigenvalues --   -0.16307  -0.13966  -0.11653
  Beta virt. eigenvalues --   -0.07042  -0.06645  -0.04608  -0.04196  -0.03772
  Beta virt. eigenvalues --   -0.02488  -0.02107  -0.01360  -0.01284  -0.00690
  Beta virt. eigenvalues --   -0.00437  -0.00164   0.00315   0.00447   0.00572

 Mulliken charges and spin densities:
               1          2
     1  Na  -0.927769   0.095877
     2  Na   0.343040   0.098399
     3  Na   0.226943   0.365320
     4  Na   0.544492   0.387893
     5  Na   0.344661   0.108450
     6  Na  -0.571814  -0.189951
     7  Na   0.040447   0.134011
 Sum of Mulliken charges =  -0.00000   1.00000

 Dipole moment (field-independent basis, Debye):
    X=             -0.2376    Y=              0.5239    Z=             -0.2500  Tot=              0.6272
 Quadrupole moment (field-independent basis, Debye-Ang):
   XX=            -63.6752   YY=            -69.9326   ZZ=            -65.8277
   XY=             -0.9457   XZ=             -3.0224   YZ=             -1.1430

 Normal termination of Gaussian 16 at Tue Nov 28 22:24:31 2023.
