 Gaussian 16, Revision B.01,
 Gaussian 16:  ES64L-G16RevB.01 20-Dec-2017

 -------------------------
 #P B3LYP/6-311+g(d) force
 -------------------------

 -----
 DPGEN
 -----
 Symbolic Z-matrix:
 Charge =  0 Multiplicity = 2

                         Standard orientation:
 ---------------------------------------------------------------------
 Center     Atomic      Atomic             Coordinates (Angstroms)
 Number     Number       Type             X           Y           Z
 ---------------------------------------------------------------------
      1         11           0        3.446494    1.558163   -0.484394
      2         11           0        0.391701    1.272563    1.554138
      3         11           0       -2.004369    3.129669   -0.614943
      4         11           0       -2.250457    0.609624   -0.094569
      5         11           0       -3.242406   -2.606035   -0.489875
      6         11           0        0.262555   -2.166628    0.770087
      7         11           0        3.396483   -1.797355   -0.640444
 ---------------------------------------------------------------------

 SCF Done:  E(UB3LYP) =  -1136.10791302     A.U. after   24 cycles

 The electronic state is 2-A.
 Alpha  occ. eigenvalues --  -38.45208 -38.44879 -38.44686 -38.44074 -38.43738
 Alpha  occ. eigenvalues --  -38.43698 -38.43632  -2.20981  -2.20671  -2.20585
 Alpha  occ. eigenvalues --   -2.19863  -2.19637  -2.19623  -2.19521  -1.14653
 Alpha  occ. eigenvalues --   -1.14632  -1.14627  -1.14560  -1.14338  -1.14330
 Alpha  occ. eigenvalues --   -1.14302  -1.14182  -1.14144  -1.13532  -1.13522
 Alpha  occ. eigenvalues --   -1.13485  -1.13375  -1.13277  -1.13259  -1.13251
 Alpha  occ. eigenvalues --   -1.13233  -1.13205  -1.13192  -1.13181  -1.13132
 Alpha  occ. eigenvalues --   -0.17354  -0.13998  -0.12393  -0.10336
 Alpha virt. eigenvalues --   -0.07460  -0.04820  -0.04426  -0.03673  -0.03457
 Alpha virt. eigenvalues --   -0.02032  -0.01520  -0.01387  -0.01259  -0.00918
 Alpha virt. eigenvalues --   -0.00291   0.00082   0.00339   0.00465   0.00628

  Beta  occ. eigenvalues --  -38.45186 -38.44860 -38.44658 -38.44044 -38.43674
  Beta  occ. eigenvalues --  -38.43668 -38.43612  -2.20944  -2.20638  -2.20536
  Beta  occ. eigenvalues --   -2.19806  -2.19607  -2.19496  -2.19479  -1.14626
  Beta  occ. eigenvalues --   -1.14606  -1.14589  -1.14527  -1.14317  -1.14297
  Beta  occ. eigenvalues --   -1.14278  -1.14149  -1.14102  -1.13492  -1.13483
  Beta  occ. eigenvalues --   -1.13447  -1.13296  -1.13250  -1.13199  -1.13189
  Beta  occ. eigenvalues --   -1.13178  -1.13167  -1.13145  -1.13115  -1.13095
  Beta  occ. eigenvalues --   -0.16712  -0.13449  -0.12220
  Beta virt. eigenvalues --   -0.07341  -0.06860  -0.04579  -0.04169  -0.03189
  Beta virt. eigenvalues --   -0.02975  -0.01803  -0.01375  -0.01125  -0.00944
  Beta virt. eigenvalues --   -0.00722  -0.00130   0.00299   0.00407   0.00551

 Mulliken charges and spin densities:
               1          2
     1  Na   0.000416   0.113773
     2  Na  -0.067415   0.485123
     3  Na   1.432930  -0.199422
     4  Na  -1.637793   0.290124
     5  Na   0.399654   0.225430
     6  Na  -0.277745  -0.010828
     7  Na   0.149953   0.095799
 Sum of Mulliken charges =  -0.00000   1.00000

 Dipole moment (field-independent basis, Debye):
    X=              0.9788    Y=              0.3257    Z=             -0.1513  Tot=              1.0425
 Quadrupole moment (field-independent basis, Debye-Ang):
   XX=            -66.6814   YY=            -57.4393   ZZ=            -72.9250
   XY=              1.2335   XZ=              0.8476   YZ=             -0.1556

 Normal termination of Gaussian 16 at Tue Dec  5 23:04:46 2023.
