 Gaussian 16, Revision B.01,
 Gaussian 16:  ES64L-G16RevB.01 20-Dec-2017

 -------------------------
 #P B3LYP/6-311+g(d) force
 -------------------------

 -----
 DPGEN
 -----
 Symbolic Z-matrix:
 Charge =  0 Multiplicity = 2

                         Standard orientation:
 ---------------------------------------------------------------------
 Center     Atomic      Atomic             Coordinates (Angstroms)
 Number     Number       Type             X           Y           Z
 ---------------------------------------------------------------------
      1         11           0       -6.068021    1.537537   -0.222584
      2         11           0       -0.118313   -1.484839   -0.280074
      3         11           0       -9.219697    0.497951    0.510826
      4         11           0       -3.460254   -0.805159   -0.491782
      5         11           0        2.935499   -1.271143    0.373698
      6         11           0        9.117893    1.863928   -0.096157
      7         11           0        6.812893   -0.338274    0.206072
 ---------------------------------------------------------------------

 SCF Done:  E(UB3LYP) =  -1136.10642976     A.U. after   20 cycles

 The electronic state is 2-A.
 Alpha  occ. eigenvalues --  -38.45544 -38.44761 -38.44757 -38.44699 -38.44477
 Alpha  occ. eigenvalues --  -38.44119 -38.43928  -2.21319  -2.20569  -2.20541
 Alpha  occ. eigenvalues --   -2.20467  -2.20290  -2.19887  -2.19731  -1.14965
 Alpha  occ. eigenvalues --   -1.14963  -1.14936  -1.14221  -1.14219  -1.14196
 Alpha  occ. eigenvalues --   -1.14189  -1.14188  -1.14185  -1.14148  -1.14133
 Alpha  occ. eigenvalues --   -1.14115  -1.13945  -1.13932  -1.13927  -1.13562
 Alpha  occ. eigenvalues --   -1.13560  -1.13534  -1.13405  -1.13400  -1.13396
 Alpha  occ. eigenvalues --   -0.15192  -0.14225  -0.13137  -0.11648
 Alpha virt. eigenvalues --   -0.07394  -0.05652  -0.03706  -0.03396  -0.03178
 Alpha virt. eigenvalues --   -0.02809  -0.02412  -0.02206  -0.02004  -0.01319
 Alpha virt. eigenvalues --   -0.00877  -0.00583  -0.00402   0.00213   0.00484

  Beta  occ. eigenvalues --  -38.45468 -38.44717 -38.44717 -38.44682 -38.44408
  Beta  occ. eigenvalues --  -38.44130 -38.43942  -2.21176  -2.20507  -2.20467
  Beta  occ. eigenvalues --   -2.20422  -2.20162  -2.19912  -2.19765  -1.14867
  Beta  occ. eigenvalues --   -1.14865  -1.14842  -1.14180  -1.14176  -1.14138
  Beta  occ. eigenvalues --   -1.14138  -1.14136  -1.14131  -1.14118  -1.14111
  Beta  occ. eigenvalues --   -1.14080  -1.13868  -1.13845  -1.13842  -1.13582
  Beta  occ. eigenvalues --   -1.13580  -1.13525  -1.13430  -1.13430  -1.13370
  Beta  occ. eigenvalues --   -0.14528  -0.13636  -0.12597
  Beta virt. eigenvalues --   -0.08638  -0.06835  -0.05215  -0.03453  -0.03210
  Beta virt. eigenvalues --   -0.02968  -0.02659  -0.02137  -0.01905  -0.01815
  Beta virt. eigenvalues --   -0.01032  -0.00435  -0.00251  -0.00240   0.00289

 Mulliken charges and spin densities:
               1          2
     1  Na   0.046018  -0.061092
     2  Na  -1.363289   0.080093
     3  Na   0.119859   0.373081
     4  Na   0.301699   0.248722
     5  Na   0.200388   0.209827
     6  Na   0.350901   0.178295
     7  Na   0.344424  -0.028927
 Sum of Mulliken charges =  -0.00000   1.00000

 Dipole moment (field-independent basis, Debye):
    X=             -1.6388    Y=              0.6181    Z=              0.1200  Tot=              1.7556
 Quadrupole moment (field-independent basis, Debye-Ang):
   XX=            -31.9656   YY=            -67.5260   ZZ=            -75.0525
   XY=              8.6879   XZ=             -2.8700   YZ=             -1.0642

 Normal termination of Gaussian 16 at Sun Dec  3 15:26:13 2023.
