 Gaussian 16, Revision B.01,
 Gaussian 16:  ES64L-G16RevB.01 20-Dec-2017

 -------------------------
 #P B3LYP/6-311+g(d) force
 -------------------------

 -----
 DPGEN
 -----
 Symbolic Z-matrix:
 Charge =  0 Multiplicity = 2

                         Standard orientation:
 ---------------------------------------------------------------------
 Center     Atomic      Atomic             Coordinates (Angstroms)
 Number     Number       Type             X           Y           Z
 ---------------------------------------------------------------------
      1         11           0       -0.662710    1.655156   -0.340211
      2         11           0        0.851889    4.397050    0.507975
      3         11           0        2.846429    0.718457   -0.583433
      4         11           0        4.064338   -2.696808    0.098456
      5         11           0        1.063441   -1.763294    0.036558
      6         11           0       -2.723485   -1.629822    0.769465
      7         11           0       -5.439901   -0.680739   -0.488812
 ---------------------------------------------------------------------

 SCF Done:  E(UB3LYP) =  -1136.11939492     A.U. after   21 cycles

 The electronic state is 2-A.
 Alpha  occ. eigenvalues --  -38.45708 -38.44405 -38.44344 -38.44077 -38.43637
 Alpha  occ. eigenvalues --  -38.43584 -38.43169  -2.21517  -2.20235  -2.20131
 Alpha  occ. eigenvalues --   -2.19905  -2.19555  -2.19403  -2.18983  -1.15254
 Alpha  occ. eigenvalues --   -1.15217  -1.15079  -1.13917  -1.13884  -1.13850
 Alpha  occ. eigenvalues --   -1.13812  -1.13789  -1.13757  -1.13606  -1.13586
 Alpha  occ. eigenvalues --   -1.13495  -1.13265  -1.13225  -1.13148  -1.13064
 Alpha  occ. eigenvalues --   -1.13037  -1.13034  -1.12663  -1.12652  -1.12626
 Alpha  occ. eigenvalues --   -0.16984  -0.13604  -0.12986  -0.10262
 Alpha virt. eigenvalues --   -0.06865  -0.05209  -0.04402  -0.03929  -0.02833
 Alpha virt. eigenvalues --   -0.02339  -0.01952  -0.01645  -0.01171  -0.01087
 Alpha virt. eigenvalues --   -0.00284   0.00163   0.00290   0.00345   0.00520

  Beta  occ. eigenvalues --  -38.45707 -38.44370 -38.44321 -38.44064 -38.43596
  Beta  occ. eigenvalues --  -38.43506 -38.43169  -2.21516  -2.20169  -2.20089
  Beta  occ. eigenvalues --   -2.19884  -2.19485  -2.19257  -2.18990  -1.15239
  Beta  occ. eigenvalues --   -1.15218  -1.15077  -1.13874  -1.13838  -1.13805
  Beta  occ. eigenvalues --   -1.13784  -1.13760  -1.13729  -1.13595  -1.13563
  Beta  occ. eigenvalues --   -1.13468  -1.13222  -1.13182  -1.13062  -1.12974
  Beta  occ. eigenvalues --   -1.12937  -1.12934  -1.12676  -1.12661  -1.12574
  Beta  occ. eigenvalues --   -0.16440  -0.13175  -0.12519
  Beta virt. eigenvalues --   -0.07000  -0.06504  -0.04969  -0.03992  -0.03635
  Beta virt. eigenvalues --   -0.02711  -0.02083  -0.01790  -0.01401  -0.00818
  Beta virt. eigenvalues --   -0.00694  -0.00092   0.00388   0.00421   0.00530

 Mulliken charges and spin densities:
               1          2
     1  Na  -1.198613  -0.117518
     2  Na   0.749534   0.215630
     3  Na   0.343466   0.138424
     4  Na   1.918921   0.278293
     5  Na  -2.066518   0.170155
     6  Na   0.061533  -0.053931
     7  Na   0.191678   0.368947
 Sum of Mulliken charges =  -0.00000   1.00000

 Dipole moment (field-independent basis, Debye):
    X=              2.2807    Y=              0.4911    Z=             -0.0194  Tot=              2.3330
 Quadrupole moment (field-independent basis, Debye-Ang):
   XX=            -67.5489   YY=            -59.4339   ZZ=            -71.0338
   XY=             -5.0120   XZ=              1.7391   YZ=             -0.5244

 Normal termination of Gaussian 16 at Wed Nov 29 00:19:37 2023.
