 Gaussian 16, Revision B.01,
 Gaussian 16:  ES64L-G16RevB.01 20-Dec-2017

 -------------------------
 #P B3LYP/6-311+g(d) force
 -------------------------

 -----
 DPGEN
 -----
 Symbolic Z-matrix:
 Charge =  0 Multiplicity = 2

                         Standard orientation:
 ---------------------------------------------------------------------
 Center     Atomic      Atomic             Coordinates (Angstroms)
 Number     Number       Type             X           Y           Z
 ---------------------------------------------------------------------
      1         11           0        3.973798    0.449542    1.032301
      2         11           0       -3.978172   -0.749447    0.549513
      3         11           0       -0.166198   -0.597204    1.968881
      4         11           0       -1.181147   -0.817377   -1.548860
      5         11           0        1.872610   -1.889578   -0.746317
      6         11           0       -1.757583    2.254700    0.156317
      7         11           0        1.236692    1.349365   -1.411835
 ---------------------------------------------------------------------

 SCF Done:  E(UB3LYP) =  -1136.11872216     A.U. after   41 cycles

 The electronic state is 2-A.
 Alpha  occ. eigenvalues --  -38.45112 -38.44921 -38.44569 -38.44112 -38.43789
 Alpha  occ. eigenvalues --  -38.43589 -38.42305  -2.20896  -2.20691  -2.20329
 Alpha  occ. eigenvalues --   -2.19995  -2.19631  -2.19537  -2.18204  -1.14593
 Alpha  occ. eigenvalues --   -1.14578  -1.14479  -1.14355  -1.14351  -1.14310
 Alpha  occ. eigenvalues --   -1.14028  -1.14001  -1.13966  -1.13688  -1.13650
 Alpha  occ. eigenvalues --   -1.13610  -1.13322  -1.13281  -1.13239  -1.13235
 Alpha  occ. eigenvalues --   -1.13167  -1.13149  -1.11904  -1.11877  -1.11819
 Alpha  occ. eigenvalues --   -0.18338  -0.13759  -0.11524  -0.10718
 Alpha virt. eigenvalues --   -0.07346  -0.05062  -0.04538  -0.03144  -0.02968
 Alpha virt. eigenvalues --   -0.02562  -0.02343  -0.01239  -0.00969  -0.00317
 Alpha virt. eigenvalues --   -0.00030   0.00137   0.00283   0.00638   0.00690

  Beta  occ. eigenvalues --  -38.45070 -38.44891 -38.44603 -38.44063 -38.43752
  Beta  occ. eigenvalues --  -38.43531 -38.42295  -2.20821  -2.20633  -2.20394
  Beta  occ. eigenvalues --   -2.19910  -2.19561  -2.19435  -2.18188  -1.14538
  Beta  occ. eigenvalues --   -1.14513  -1.14428  -1.14315  -1.14307  -1.14274
  Beta  occ. eigenvalues --   -1.14070  -1.14041  -1.14006  -1.13627  -1.13587
  Beta  occ. eigenvalues --   -1.13527  -1.13271  -1.13236  -1.13189  -1.13171
  Beta  occ. eigenvalues --   -1.13082  -1.13070  -1.11892  -1.11837  -1.11817
  Beta  occ. eigenvalues --   -0.17530  -0.13636  -0.10487
  Beta virt. eigenvalues --   -0.07715  -0.07073  -0.04578  -0.04380  -0.02783
  Beta virt. eigenvalues --   -0.02722  -0.01966  -0.01731  -0.01048  -0.00705
  Beta virt. eigenvalues --   -0.00208  -0.00003   0.00240   0.00316   0.00689

 Mulliken charges and spin densities:
               1          2
     1  Na   0.085418   0.008328
     2  Na   0.267710  -0.213829
     3  Na  -0.445839   0.430177
     4  Na  -0.043146   0.297324
     5  Na   0.362078  -0.012856
     6  Na   0.024742   0.070135
     7  Na  -0.250962   0.420720
 Sum of Mulliken charges =  -0.00000   1.00000

 Dipole moment (field-independent basis, Debye):
    X=             -0.0233    Y=              0.1585    Z=              0.3152  Tot=              0.3536
 Quadrupole moment (field-independent basis, Debye-Ang):
   XX=            -51.5040   YY=            -71.6834   ZZ=            -72.6758
   XY=              0.4162   XZ=              0.7431   YZ=              7.1105

 Normal termination of Gaussian 16 at Thu Dec  7 19:05:24 2023.
