 Gaussian 16, Revision B.01,
 Gaussian 16:  ES64L-G16RevB.01 20-Dec-2017

 -------------------------
 #P B3LYP/6-311+g(d) force
 -------------------------

 -----
 DPGEN
 -----
 Symbolic Z-matrix:
 Charge =  0 Multiplicity = 2

                         Standard orientation:
 ---------------------------------------------------------------------
 Center     Atomic      Atomic             Coordinates (Angstroms)
 Number     Number       Type             X           Y           Z
 ---------------------------------------------------------------------
      1         11           0       -1.851568   -2.502302   -0.293792
      2         11           0        2.559517   -2.340695    0.234860
      3         11           0        2.912311    1.429767   -0.109377
      4         11           0       -0.805410   -0.129571    1.706452
      5         11           0       -0.244187    2.960830    0.091532
      6         11           0        0.380728   -0.140991   -1.272351
      7         11           0       -2.951391    0.722962   -0.357323
 ---------------------------------------------------------------------

 SCF Done:  E(UB3LYP) =  -1136.13058915     A.U. after   23 cycles

 The electronic state is 2-A.
 Alpha  occ. eigenvalues --  -38.44388 -38.44327 -38.44099 -38.43935 -38.43273
 Alpha  occ. eigenvalues --  -38.42908 -38.42779  -2.20157  -2.20147  -2.19994
 Alpha  occ. eigenvalues --   -2.19793  -2.19128  -2.18892  -2.18801  -1.13848
 Alpha  occ. eigenvalues --   -1.13833  -1.13813  -1.13805  -1.13801  -1.13765
 Alpha  occ. eigenvalues --   -1.13702  -1.13652  -1.13626  -1.13472  -1.13459
 Alpha  occ. eigenvalues --   -1.13417  -1.12812  -1.12796  -1.12766  -1.12629
 Alpha  occ. eigenvalues --   -1.12522  -1.12492  -1.12477  -1.12436  -1.12415
 Alpha  occ. eigenvalues --   -0.18661  -0.13378  -0.12448  -0.09795
 Alpha virt. eigenvalues --   -0.06024  -0.05638  -0.04889  -0.02963  -0.02493
 Alpha virt. eigenvalues --   -0.01789  -0.01595  -0.01489  -0.00792  -0.00597
 Alpha virt. eigenvalues --    0.00043   0.00324   0.00725   0.00789   0.00826

  Beta  occ. eigenvalues --  -38.44386 -38.44325 -38.44084 -38.43921 -38.43267
  Beta  occ. eigenvalues --  -38.42828 -38.42734  -2.20155  -2.20145  -2.19974
  Beta  occ. eigenvalues --   -2.19772  -2.19122  -2.18745  -2.18720  -1.13841
  Beta  occ. eigenvalues --   -1.13824  -1.13808  -1.13799  -1.13796  -1.13766
  Beta  occ. eigenvalues --   -1.13685  -1.13625  -1.13595  -1.13460  -1.13424
  Beta  occ. eigenvalues --   -1.13396  -1.12809  -1.12779  -1.12750  -1.12541
  Beta  occ. eigenvalues --   -1.12423  -1.12396  -1.12385  -1.12371  -1.12353
  Beta  occ. eigenvalues --   -0.17979  -0.13142  -0.12218
  Beta virt. eigenvalues --   -0.06104  -0.05861  -0.05531  -0.04864  -0.02272
  Beta virt. eigenvalues --   -0.01852  -0.01633  -0.01406  -0.00823  -0.00754
  Beta virt. eigenvalues --   -0.00591   0.00211   0.00393   0.00747   0.00830

 Mulliken charges and spin densities:
               1          2
     1  Na   0.136012   0.033236
     2  Na  -0.110973  -0.067024
     3  Na   0.059631  -0.057887
     4  Na  -0.411314   0.764211
     5  Na   0.012214  -0.060578
     6  Na  -0.025996   0.285019
     7  Na   0.340427   0.103023
 Sum of Mulliken charges =  -0.00000   1.00000

 Dipole moment (field-independent basis, Debye):
    X=              0.3172    Y=             -0.2258    Z=              0.0482  Tot=              0.3923
 Quadrupole moment (field-independent basis, Debye-Ang):
   XX=            -53.1662   YY=            -58.1641   ZZ=            -78.7964
   XY=             -0.1028   XZ=              2.4142   YZ=             -0.2064

 Normal termination of Gaussian 16 at Wed Nov 29 01:31:43 2023.
