 Gaussian 16, Revision B.01,
 Gaussian 16:  ES64L-G16RevB.01 20-Dec-2017

 -------------------------
 #P B3LYP/6-311+g(d) force
 -------------------------

 -----
 DPGEN
 -----
 Symbolic Z-matrix:
 Charge =  0 Multiplicity = 2

                         Standard orientation:
 ---------------------------------------------------------------------
 Center     Atomic      Atomic             Coordinates (Angstroms)
 Number     Number       Type             X           Y           Z
 ---------------------------------------------------------------------
      1         11           0       -3.874274   -0.021429   -0.332266
      2         11           0       -0.265796    0.027278   -1.795913
      3         11           0        2.785418    1.827140   -0.595795
      4         11           0        0.882870   -0.051370    1.822151
      5         11           0       -1.175300   -2.532304    0.382045
      6         11           0       -1.098588    2.642153    0.700251
      7         11           0        2.745671   -1.891468   -0.180473
 ---------------------------------------------------------------------

 SCF Done:  E(UB3LYP) =  -1136.13002209     A.U. after   20 cycles

 The electronic state is 2-A.
 Alpha  occ. eigenvalues --  -38.44977 -38.44206 -38.44179 -38.44131 -38.43459
 Alpha  occ. eigenvalues --  -38.43448 -38.43220  -2.20723  -2.20013  -2.19980
 Alpha  occ. eigenvalues --   -2.19971  -2.19271  -2.19241  -2.19138  -1.14402
 Alpha  occ. eigenvalues --   -1.14377  -1.14356  -1.13707  -1.13681  -1.13669
 Alpha  occ. eigenvalues --   -1.13649  -1.13647  -1.13629  -1.13619  -1.13604
 Alpha  occ. eigenvalues --   -1.13583  -1.12967  -1.12956  -1.12929  -1.12905
 Alpha  occ. eigenvalues --   -1.12879  -1.12862  -1.12809  -1.12784  -1.12739
 Alpha  occ. eigenvalues --   -0.17899  -0.13092  -0.11788  -0.10550
 Alpha virt. eigenvalues --   -0.06510  -0.05527  -0.04339  -0.03201  -0.02778
 Alpha virt. eigenvalues --   -0.02368  -0.02215  -0.01359  -0.00757  -0.00243
 Alpha virt. eigenvalues --   -0.00136   0.00252   0.00555   0.00684   0.00737

  Beta  occ. eigenvalues --  -38.44976 -38.44202 -38.44162 -38.44076 -38.43453
  Beta  occ. eigenvalues --  -38.43426 -38.43144  -2.20723  -2.20009  -2.19942
  Beta  occ. eigenvalues --   -2.19878  -2.19262  -2.19204  -2.18998  -1.14396
  Beta  occ. eigenvalues --   -1.14377  -1.14356  -1.13698  -1.13666  -1.13635
  Beta  occ. eigenvalues --   -1.13616  -1.13610  -1.13600  -1.13579  -1.13558
  Beta  occ. eigenvalues --   -1.13507  -1.12960  -1.12934  -1.12896  -1.12870
  Beta  occ. eigenvalues --   -1.12869  -1.12839  -1.12719  -1.12685  -1.12635
  Beta  occ. eigenvalues --   -0.17210  -0.12896  -0.11522
  Beta virt. eigenvalues --   -0.06814  -0.06325  -0.05503  -0.04183  -0.02656
  Beta virt. eigenvalues --   -0.02105  -0.02075  -0.01424  -0.01310  -0.00686
  Beta virt. eigenvalues --   -0.00245   0.00024   0.00297   0.00697   0.00756

 Mulliken charges and spin densities:
               1          2
     1  Na   0.122572   0.005048
     2  Na  -0.067704   0.616588
     3  Na  -0.020662   0.078051
     4  Na   0.414560   0.605086
     5  Na  -0.253794  -0.184243
     6  Na  -0.257185  -0.076706
     7  Na   0.062213  -0.043824
 Sum of Mulliken charges =  -0.00000   1.00000

 Dipole moment (field-independent basis, Debye):
    X=             -0.1939    Y=             -0.0844    Z=             -0.2543  Tot=              0.3307
 Quadrupole moment (field-independent basis, Debye-Ang):
   XX=            -49.8355   YY=            -67.6573   ZZ=            -74.5615
   XY=             -0.6673   XZ=             -1.4413   YZ=             -0.0052

 Normal termination of Gaussian 16 at Mon Dec  4 03:53:50 2023.
