 Gaussian 16, Revision B.01,
 Gaussian 16:  ES64L-G16RevB.01 20-Dec-2017

 -------------------------
 #P B3LYP/6-311+g(d) force
 -------------------------

 -----
 DPGEN
 -----
 Symbolic Z-matrix:
 Charge =  0 Multiplicity = 2

                         Standard orientation:
 ---------------------------------------------------------------------
 Center     Atomic      Atomic             Coordinates (Angstroms)
 Number     Number       Type             X           Y           Z
 ---------------------------------------------------------------------
      1         11           0       -1.894477   -2.246703   -0.796493
      2         11           0        0.092038   -0.528229    2.117626
      3         11           0       -0.045738    2.897169    0.331382
      4         11           0        3.008375    1.048210   -0.878800
      5         11           0        0.170993    0.107595   -0.845907
      6         11           0       -3.514307    0.782265   -0.165359
      7         11           0        2.183116   -2.060306    0.237550
 ---------------------------------------------------------------------

 SCF Done:  E(UB3LYP) =  -1136.12365693     A.U. after   20 cycles

 The electronic state is 2-A.
 Alpha  occ. eigenvalues --  -38.44779 -38.43940 -38.43779 -38.43721 -38.43558
 Alpha  occ. eigenvalues --  -38.43185 -38.42851  -2.20545  -2.19817  -2.19705
 Alpha  occ. eigenvalues --   -2.19563  -2.19453  -2.19029  -2.19015  -1.14226
 Alpha  occ. eigenvalues --   -1.14195  -1.14183  -1.13550  -1.13456  -1.13438
 Alpha  occ. eigenvalues --   -1.13422  -1.13332  -1.13296  -1.13285  -1.13209
 Alpha  occ. eigenvalues --   -1.13168  -1.13145  -1.13110  -1.13070  -1.12835
 Alpha  occ. eigenvalues --   -1.12721  -1.12674  -1.12649  -1.12620  -1.12583
 Alpha  occ. eigenvalues --   -0.18617  -0.13328  -0.12074  -0.10705
 Alpha virt. eigenvalues --   -0.06147  -0.04987  -0.04381  -0.03131  -0.02737
 Alpha virt. eigenvalues --   -0.02209  -0.01967  -0.01134  -0.00446  -0.00262
 Alpha virt. eigenvalues --   -0.00039   0.00286   0.00733   0.00836   0.00840

  Beta  occ. eigenvalues --  -38.44779 -38.43903 -38.43700 -38.43674 -38.43549
  Beta  occ. eigenvalues --  -38.43178 -38.42828  -2.20547  -2.19750  -2.19526
  Beta  occ. eigenvalues --   -2.19512  -2.19441  -2.19015  -2.18983  -1.14225
  Beta  occ. eigenvalues --   -1.14192  -1.14182  -1.13502  -1.13407  -1.13373
  Beta  occ. eigenvalues --   -1.13321  -1.13261  -1.13208  -1.13182  -1.13162
  Beta  occ. eigenvalues --   -1.13137  -1.13127  -1.13080  -1.13039  -1.12818
  Beta  occ. eigenvalues --   -1.12670  -1.12646  -1.12631  -1.12606  -1.12563
  Beta  occ. eigenvalues --   -0.17930  -0.12947  -0.11860
  Beta virt. eigenvalues --   -0.06944  -0.06019  -0.04767  -0.04290  -0.02547
  Beta virt. eigenvalues --   -0.02039  -0.01908  -0.01289  -0.01068  -0.00348
  Beta virt. eigenvalues --   -0.00209   0.00115   0.00348   0.00797   0.00858

 Mulliken charges and spin densities:
               1          2
     1  Na   0.373385   0.155708
     2  Na  -0.230905   0.548059
     3  Na  -0.056360   0.159850
     4  Na   0.578340   0.204006
     5  Na  -1.104148  -0.241356
     6  Na   0.129643  -0.004521
     7  Na   0.310045   0.178254
 Sum of Mulliken charges =  -0.00000   1.00000

 Dipole moment (field-independent basis, Debye):
    X=             -0.4131    Y=             -0.0440    Z=              0.4181  Tot=              0.5894
 Quadrupole moment (field-independent basis, Debye-Ang):
   XX=            -53.3089   YY=            -64.4393   ZZ=            -73.3583
   XY=             -2.0692   XZ=             -0.9511   YZ=              1.2180

 Normal termination of Gaussian 16 at Thu Dec  7 11:03:16 2023.
