 Gaussian 16, Revision B.01,
 Gaussian 16:  ES64L-G16RevB.01 20-Dec-2017

 -------------------------
 #P B3LYP/6-311+g(d) force
 -------------------------

 -----
 DPGEN
 -----
 Symbolic Z-matrix:
 Charge =  0 Multiplicity = 2

                         Standard orientation:
 ---------------------------------------------------------------------
 Center     Atomic      Atomic             Coordinates (Angstroms)
 Number     Number       Type             X           Y           Z
 ---------------------------------------------------------------------
      1         11           0        0.243867   -0.458101   -1.512954
      2         11           0        0.521576    2.928813   -0.265776
      3         11           0        3.092040    0.900261    0.324792
      4         11           0        2.051590   -2.530339   -0.230067
      5         11           0       -0.638151   -0.122826    2.155850
      6         11           0       -2.910844    1.417605   -0.431186
      7         11           0       -2.360077   -2.135412   -0.040659
 ---------------------------------------------------------------------

 SCF Done:  E(UB3LYP) =  -1136.13292595     A.U. after   19 cycles

 The electronic state is 2-A.
 Alpha  occ. eigenvalues --  -38.44267 -38.44219 -38.44185 -38.43862 -38.43774
 Alpha  occ. eigenvalues --  -38.43233 -38.43224  -2.20064  -2.20038  -2.19999
 Alpha  occ. eigenvalues --   -2.19688  -2.19621  -2.19185  -2.19045  -1.13739
 Alpha  occ. eigenvalues --   -1.13727  -1.13715  -1.13713  -1.13701  -1.13673
 Alpha  occ. eigenvalues --   -1.13665  -1.13660  -1.13639  -1.13424  -1.13334
 Alpha  occ. eigenvalues --   -1.13309  -1.13277  -1.13249  -1.13238  -1.12867
 Alpha  occ. eigenvalues --   -1.12827  -1.12809  -1.12721  -1.12709  -1.12686
 Alpha  occ. eigenvalues --   -0.18100  -0.13176  -0.12224  -0.10488
 Alpha virt. eigenvalues --   -0.05889  -0.05695  -0.04593  -0.03312  -0.02706
 Alpha virt. eigenvalues --   -0.02467  -0.01671  -0.01380  -0.00727  -0.00456
 Alpha virt. eigenvalues --   -0.00036   0.00323   0.00725   0.00760   0.00853

  Beta  occ. eigenvalues --  -38.44255 -38.44214 -38.44181 -38.43859 -38.43675
  Beta  occ. eigenvalues --  -38.43222 -38.43184  -2.20044  -2.20032  -2.19994
  Beta  occ. eigenvalues --   -2.19685  -2.19438  -2.19095  -2.19043  -1.13722
  Beta  occ. eigenvalues --   -1.13710  -1.13702  -1.13694  -1.13679  -1.13669
  Beta  occ. eigenvalues --   -1.13658  -1.13651  -1.13637  -1.13413  -1.13322
  Beta  occ. eigenvalues --   -1.13309  -1.13154  -1.13122  -1.13107  -1.12802
  Beta  occ. eigenvalues --   -1.12765  -1.12746  -1.12713  -1.12697  -1.12681
  Beta  occ. eigenvalues --   -0.17431  -0.12980  -0.11996
  Beta virt. eigenvalues --   -0.06663  -0.05834  -0.05564  -0.04549  -0.02585
  Beta virt. eigenvalues --   -0.02034  -0.01570  -0.01468  -0.01263  -0.00752
  Beta virt. eigenvalues --   -0.00481   0.00139   0.00376   0.00760   0.00820

 Mulliken charges and spin densities:
               1          2
     1  Na  -0.018912   0.309232
     2  Na  -0.073973  -0.023387
     3  Na  -0.007059   0.056139
     4  Na   0.250121  -0.043529
     5  Na  -0.471984   0.724201
     6  Na   0.085506   0.021441
     7  Na   0.236301  -0.044096
 Sum of Mulliken charges =  -0.00000   1.00000

 Dipole moment (field-independent basis, Debye):
    X=             -0.1878    Y=             -0.2949    Z=              0.1395  Tot=              0.3764
 Quadrupole moment (field-independent basis, Debye-Ang):
   XX=            -54.7490   YY=            -63.0486   ZZ=            -75.7639
   XY=             -0.1403   XZ=              2.4350   YZ=             -0.5637

 Normal termination of Gaussian 16 at Thu Dec  7 17:28:39 2023.
