 Gaussian 16, Revision B.01,
 Gaussian 16:  ES64L-G16RevB.01 20-Dec-2017

 -------------------------
 #P B3LYP/6-311+g(d) force
 -------------------------

 -----
 DPGEN
 -----
 Symbolic Z-matrix:
 Charge =  0 Multiplicity = 2

                         Standard orientation:
 ---------------------------------------------------------------------
 Center     Atomic      Atomic             Coordinates (Angstroms)
 Number     Number       Type             X           Y           Z
 ---------------------------------------------------------------------
      1         11           0       -4.582491   -0.164103    0.644625
      2         11           0        3.509202   -0.475674   -0.487289
      3         11           0        5.310124    1.245573    1.156429
      4         11           0        0.409246   -2.572179   -1.118791
      5         11           0       -3.143043    2.922835   -0.382013
      6         11           0        0.356388    1.247346   -0.844762
      7         11           0       -1.859425   -2.203799    1.031801
 ---------------------------------------------------------------------

 SCF Done:  E(UB3LYP) =  -1136.11446871     A.U. after   19 cycles

 The electronic state is 2-A.
 Alpha  occ. eigenvalues --  -38.45543 -38.44514 -38.44344 -38.44192 -38.44096
 Alpha  occ. eigenvalues --  -38.43923 -38.43775  -2.21313  -2.20303  -2.20174
 Alpha  occ. eigenvalues --   -2.20017  -2.19858  -2.19774  -2.19597  -1.15001
 Alpha  occ. eigenvalues --   -1.14958  -1.14913  -1.13975  -1.13970  -1.13925
 Alpha  occ. eigenvalues --   -1.13887  -1.13802  -1.13796  -1.13694  -1.13676
 Alpha  occ. eigenvalues --   -1.13663  -1.13533  -1.13512  -1.13496  -1.13444
 Alpha  occ. eigenvalues --   -1.13440  -1.13403  -1.13266  -1.13260  -1.13230
 Alpha  occ. eigenvalues --   -0.16492  -0.14128  -0.12105  -0.11525
 Alpha virt. eigenvalues --   -0.06289  -0.06108  -0.04322  -0.03581  -0.03002
 Alpha virt. eigenvalues --   -0.02414  -0.02166  -0.01640  -0.01101  -0.00760
 Alpha virt. eigenvalues --   -0.00587   0.00019   0.00036   0.00234   0.00590

  Beta  occ. eigenvalues --  -38.45473 -38.44478 -38.44281 -38.44163 -38.44082
  Beta  occ. eigenvalues --  -38.43923 -38.43778  -2.21183  -2.20238  -2.20058
  Beta  occ. eigenvalues --   -2.19965  -2.19833  -2.19779  -2.19601  -1.14913
  Beta  occ. eigenvalues --   -1.14876  -1.14811  -1.13929  -1.13922  -1.13878
  Beta  occ. eigenvalues --   -1.13813  -1.13723  -1.13717  -1.13666  -1.13640
  Beta  occ. eigenvalues --   -1.13617  -1.13518  -1.13490  -1.13476  -1.13450
  Beta  occ. eigenvalues --   -1.13449  -1.13363  -1.13271  -1.13265  -1.13223
  Beta  occ. eigenvalues --   -0.15913  -0.13502  -0.11870
  Beta virt. eigenvalues --   -0.08121  -0.05973  -0.05524  -0.04062  -0.03186
  Beta virt. eigenvalues --   -0.02809  -0.02269  -0.01788  -0.01372  -0.00902
  Beta virt. eigenvalues --   -0.00527  -0.00333   0.00132   0.00193   0.00368

 Mulliken charges and spin densities:
               1          2
     1  Na  -0.258502   0.099518
     2  Na  -0.499576   0.157397
     3  Na   0.734410   0.208922
     4  Na   0.177304  -0.039139
     5  Na   0.441602  -0.108945
     6  Na  -0.656958   0.437110
     7  Na   0.061721   0.245137
 Sum of Mulliken charges =  -0.00000   1.00000

 Dipole moment (field-independent basis, Debye):
    X=              0.0283    Y=              0.1066    Z=              0.0418  Tot=              0.1179
 Quadrupole moment (field-independent basis, Debye-Ang):
   XX=            -63.7386   YY=            -66.8886   ZZ=            -68.9877
   XY=              0.1159   XZ=              0.9181   YZ=              2.2564

 Normal termination of Gaussian 16 at Sun Dec  3 23:59:45 2023.
