 Gaussian 16, Revision B.01,
 Gaussian 16:  ES64L-G16RevB.01 20-Dec-2017

 -------------------------
 #P B3LYP/6-311+g(d) force
 -------------------------

 -----
 DPGEN
 -----
 Symbolic Z-matrix:
 Charge =  0 Multiplicity = 2

                         Standard orientation:
 ---------------------------------------------------------------------
 Center     Atomic      Atomic             Coordinates (Angstroms)
 Number     Number       Type             X           Y           Z
 ---------------------------------------------------------------------
      1         11           0        3.157733    0.057789    0.461551
      2         11           0        3.156467   -3.303320    0.725626
      3         11           0       -3.498780   -0.297329   -1.301772
      4         11           0        2.097438    4.022623    0.221417
      5         11           0       -4.734632    0.032495    1.908548
      6         11           0       -0.365475   -1.839293   -1.170132
      7         11           0        0.187249    1.327034   -0.845239
 ---------------------------------------------------------------------

 SCF Done:  E(UB3LYP) =  -1136.11938900     A.U. after   20 cycles

 The electronic state is 2-A.
 Alpha  occ. eigenvalues --  -38.45041 -38.44593 -38.44305 -38.44264 -38.43939
 Alpha  occ. eigenvalues --  -38.43756 -38.43644  -2.20835  -2.20422  -2.20109
 Alpha  occ. eigenvalues --   -2.20055  -2.19794  -2.19525  -2.19424  -1.14469
 Alpha  occ. eigenvalues --   -1.14467  -1.14446  -1.14137  -1.14090  -1.13996
 Alpha  occ. eigenvalues --   -1.13810  -1.13810  -1.13744  -1.13726  -1.13699
 Alpha  occ. eigenvalues --   -1.13693  -1.13502  -1.13483  -1.13380  -1.13195
 Alpha  occ. eigenvalues --   -1.13193  -1.13143  -1.13088  -1.13087  -1.13050
 Alpha  occ. eigenvalues --   -0.16550  -0.13886  -0.11942  -0.11430
 Alpha virt. eigenvalues --   -0.05979  -0.05413  -0.04857  -0.03809  -0.02737
 Alpha virt. eigenvalues --   -0.02322  -0.01981  -0.01604  -0.01190  -0.00957
 Alpha virt. eigenvalues --   -0.00390  -0.00015   0.00008   0.00250   0.00576

  Beta  occ. eigenvalues --  -38.44926 -38.44542 -38.44289 -38.44272 -38.43918
  Beta  occ. eigenvalues --  -38.43751 -38.43624  -2.20620  -2.20331  -2.20080
  Beta  occ. eigenvalues --   -2.20077  -2.19759  -2.19515  -2.19387  -1.14323
  Beta  occ. eigenvalues --   -1.14320  -1.14305  -1.14068  -1.14030  -1.13930
  Beta  occ. eigenvalues --   -1.13791  -1.13789  -1.13767  -1.13744  -1.13667
  Beta  occ. eigenvalues --   -1.13663  -1.13482  -1.13461  -1.13336  -1.13188
  Beta  occ. eigenvalues --   -1.13186  -1.13135  -1.13063  -1.13055  -1.13029
  Beta  occ. eigenvalues --   -0.15978  -0.13114  -0.11774
  Beta virt. eigenvalues --   -0.07854  -0.05706  -0.05081  -0.04643  -0.03559
  Beta virt. eigenvalues --   -0.02208  -0.02135  -0.01705  -0.01408  -0.01059
  Beta virt. eigenvalues --   -0.00592  -0.00057   0.00086   0.00287   0.00374

 Mulliken charges and spin densities:
               1          2
     1  Na  -0.117027   0.160868
     2  Na   0.421830   0.109565
     3  Na  -0.098899  -0.075245
     4  Na   0.963660   0.069119
     5  Na   0.174463   0.586044
     6  Na  -0.153609   0.002516
     7  Na  -1.190418   0.147133
 Sum of Mulliken charges =  -0.00000   1.00000

 Dipole moment (field-independent basis, Debye):
    X=             -0.5589    Y=             -0.0499    Z=              0.2393  Tot=              0.6100
 Quadrupole moment (field-independent basis, Debye-Ang):
   XX=            -67.0478   YY=            -62.0299   ZZ=            -67.6979
   XY=              1.6009   XZ=              1.7444   YZ=              1.4086

 Normal termination of Gaussian 16 at Wed Nov 29 01:18:10 2023.
