 Gaussian 16, Revision B.01,
 Gaussian 16:  ES64L-G16RevB.01 20-Dec-2017

 -------------------------
 #P B3LYP/6-311+g(d) force
 -------------------------

 -----
 DPGEN
 -----
 Symbolic Z-matrix:
 Charge =  0 Multiplicity = 2

                         Standard orientation:
 ---------------------------------------------------------------------
 Center     Atomic      Atomic             Coordinates (Angstroms)
 Number     Number       Type             X           Y           Z
 ---------------------------------------------------------------------
      1         11           0        2.766119    0.273462   -1.387967
      2         11           0        1.607622   -2.826672   -0.567480
      3         11           0       -3.905593    0.778242   -0.581261
      4         11           0       -0.736144    0.830681   -0.785058
      5         11           0       -2.122573   -1.422109    0.412774
      6         11           0        0.763331   -0.659294    2.261809
      7         11           0        1.627239    3.025689    0.647183
 ---------------------------------------------------------------------

 SCF Done:  E(UB3LYP) =  -1136.12516242     A.U. after   19 cycles

 The electronic state is 2-A.
 Alpha  occ. eigenvalues --  -38.44217 -38.44057 -38.44024 -38.43989 -38.43745
 Alpha  occ. eigenvalues --  -38.43379 -38.43322  -2.20095  -2.19935  -2.19895
 Alpha  occ. eigenvalues --   -2.19867  -2.19706  -2.19188  -2.19119  -1.13859
 Alpha  occ. eigenvalues --   -1.13771  -1.13731  -1.13726  -1.13591  -1.13584
 Alpha  occ. eigenvalues --   -1.13549  -1.13540  -1.13501  -1.13498  -1.13484
 Alpha  occ. eigenvalues --   -1.13459  -1.13387  -1.13362  -1.13283  -1.12863
 Alpha  occ. eigenvalues --   -1.12856  -1.12813  -1.12789  -1.12777  -1.12753
 Alpha  occ. eigenvalues --   -0.18011  -0.13831  -0.11799  -0.11028
 Alpha virt. eigenvalues --   -0.05890  -0.04956  -0.04770  -0.03369  -0.03005
 Alpha virt. eigenvalues --   -0.02469  -0.01987  -0.01188  -0.00565  -0.00218
 Alpha virt. eigenvalues --    0.00075   0.00255   0.00595   0.00750   0.00823

  Beta  occ. eigenvalues --  -38.44208 -38.44005 -38.43979 -38.43939 -38.43736
  Beta  occ. eigenvalues --  -38.43361 -38.43311  -2.20077  -2.19920  -2.19800
  Beta  occ. eigenvalues --   -2.19711  -2.19691  -2.19158  -2.19100  -1.13850
  Beta  occ. eigenvalues --   -1.13761  -1.13721  -1.13711  -1.13560  -1.13517
  Beta  occ. eigenvalues --   -1.13491  -1.13471  -1.13425  -1.13420  -1.13395
  Beta  occ. eigenvalues --   -1.13358  -1.13356  -1.13348  -1.13274  -1.12846
  Beta  occ. eigenvalues --   -1.12827  -1.12781  -1.12777  -1.12753  -1.12742
  Beta  occ. eigenvalues --   -0.17403  -0.13451  -0.11612
  Beta virt. eigenvalues --   -0.07243  -0.05639  -0.04836  -0.04477  -0.02905
  Beta virt. eigenvalues --   -0.02466  -0.02009  -0.01534  -0.01122  -0.00372
  Beta virt. eigenvalues --   -0.00025   0.00167   0.00324   0.00744   0.00833

 Mulliken charges and spin densities:
               1          2
     1  Na   0.527629   0.167901
     2  Na  -0.069822   0.099994
     3  Na   0.285273  -0.052890
     4  Na  -1.128195   0.394097
     5  Na   0.328205   0.019384
     6  Na  -0.202447   0.389374
     7  Na   0.259358  -0.017861
 Sum of Mulliken charges =  -0.00000   1.00000

 Dipole moment (field-independent basis, Debye):
    X=             -0.7338    Y=              0.1209    Z=              0.3358  Tot=              0.8160
 Quadrupole moment (field-independent basis, Debye-Ang):
   XX=            -56.6323   YY=            -66.9492   ZZ=            -70.2688
   XY=             -0.5203   XZ=              0.8617   YZ=              1.5063

 Normal termination of Gaussian 16 at Fri Dec  8 19:48:01 2023.
