 Gaussian 16, Revision B.01,
 Gaussian 16:  ES64L-G16RevB.01 20-Dec-2017

 -------------------------
 #P B3LYP/6-311+g(d) force
 -------------------------

 -----
 DPGEN
 -----
 Symbolic Z-matrix:
 Charge =  0 Multiplicity = 2

                         Standard orientation:
 ---------------------------------------------------------------------
 Center     Atomic      Atomic             Coordinates (Angstroms)
 Number     Number       Type             X           Y           Z
 ---------------------------------------------------------------------
      1         11           0       -3.829570   -1.070215   -0.449590
      2         11           0        2.573298    1.181639    0.612969
      3         11           0       -0.357767    3.094164   -1.112117
      4         11           0       -0.070862   -2.107082    1.150487
      5         11           0        2.626051   -2.092057   -1.001156
      6         11           0       -0.646562    1.122127    2.133269
      7         11           0       -0.294587   -0.128577   -1.333862
 ---------------------------------------------------------------------

 SCF Done:  E(UB3LYP) =  -1136.12709128     A.U. after   21 cycles

 The electronic state is 2-A.
 Alpha  occ. eigenvalues --  -38.44481 -38.44390 -38.44053 -38.43828 -38.43724
 Alpha  occ. eigenvalues --  -38.43336 -38.43213  -2.20208  -2.20192  -2.19910
 Alpha  occ. eigenvalues --   -2.19696  -2.19539  -2.19170  -2.19162  -1.13886
 Alpha  occ. eigenvalues --   -1.13883  -1.13876  -1.13864  -1.13832  -1.13807
 Alpha  occ. eigenvalues --   -1.13602  -1.13537  -1.13516  -1.13423  -1.13362
 Alpha  occ. eigenvalues --   -1.13283  -1.13243  -1.13183  -1.13150  -1.12883
 Alpha  occ. eigenvalues --   -1.12843  -1.12817  -1.12809  -1.12800  -1.12761
 Alpha  occ. eigenvalues --   -0.18060  -0.12362  -0.12022  -0.11299
 Alpha virt. eigenvalues --   -0.06262  -0.04947  -0.04402  -0.03150  -0.02969
 Alpha virt. eigenvalues --   -0.02706  -0.01967  -0.01173  -0.00684  -0.00074
 Alpha virt. eigenvalues --    0.00138   0.00287   0.00372   0.00683   0.00735

  Beta  occ. eigenvalues --  -38.44481 -38.44382 -38.43973 -38.43803 -38.43695
  Beta  occ. eigenvalues --  -38.43323 -38.43170  -2.20209  -2.20179  -2.19763
  Beta  occ. eigenvalues --   -2.19652  -2.19487  -2.19140  -2.19092  -1.13883
  Beta  occ. eigenvalues --   -1.13875  -1.13863  -1.13841  -1.13834  -1.13804
  Beta  occ. eigenvalues --   -1.13500  -1.13429  -1.13418  -1.13395  -1.13298
  Beta  occ. eigenvalues --   -1.13259  -1.13196  -1.13148  -1.13116  -1.12820
  Beta  occ. eigenvalues --   -1.12812  -1.12800  -1.12789  -1.12756  -1.12709
  Beta  occ. eigenvalues --   -0.17299  -0.12118  -0.11868
  Beta virt. eigenvalues --   -0.07370  -0.06117  -0.04787  -0.04093  -0.02757
  Beta virt. eigenvalues --   -0.02457  -0.01951  -0.01693  -0.01076  -0.00363
  Beta virt. eigenvalues --   -0.00067   0.00195   0.00319   0.00490   0.00720

 Mulliken charges and spin densities:
               1          2
     1  Na  -0.021104  -0.038104
     2  Na  -0.155722   0.129558
     3  Na  -0.016768  -0.014445
     4  Na   0.022641   0.191683
     5  Na   0.295562  -0.093474
     6  Na   0.193395   0.359541
     7  Na  -0.318005   0.465241
 Sum of Mulliken charges =  -0.00000   1.00000

 Dipole moment (field-independent basis, Debye):
    X=             -0.0179    Y=              0.3205    Z=              0.2630  Tot=              0.4150
 Quadrupole moment (field-independent basis, Debye-Ang):
   XX=            -57.6574   YY=            -65.2227   ZZ=            -69.3747
   XY=             -0.7042   XZ=             -0.1270   YZ=             -0.2773

 Normal termination of Gaussian 16 at Tue Dec  5 15:55:57 2023.
