 Gaussian 16, Revision B.01,
 Gaussian 16:  ES64L-G16RevB.01 20-Dec-2017

 -------------------------
 #P B3LYP/6-311+g(d) force
 -------------------------

 -----
 DPGEN
 -----
 Symbolic Z-matrix:
 Charge =  0 Multiplicity = 2

                         Standard orientation:
 ---------------------------------------------------------------------
 Center     Atomic      Atomic             Coordinates (Angstroms)
 Number     Number       Type             X           Y           Z
 ---------------------------------------------------------------------
      1         11           0        0.477472   -1.249008   -1.047909
      2         11           0       -3.777228   -1.243596   -0.942251
      3         11           0        1.221697    1.875013    0.429821
      4         11           0        2.645707   -1.018955    1.805739
      5         11           0       -2.562900    1.970379   -0.208231
      6         11           0       -1.679601   -0.482000    1.635722
      7         11           0        3.674853    0.148168   -1.672892
 ---------------------------------------------------------------------

 SCF Done:  E(UB3LYP) =  -1136.11713843     A.U. after   31 cycles

 The electronic state is 2-A.
 Alpha  occ. eigenvalues --  -38.45197 -38.44661 -38.44512 -38.44308 -38.44057
 Alpha  occ. eigenvalues --  -38.43710 -38.42956  -2.21014  -2.20490  -2.20387
 Alpha  occ. eigenvalues --   -2.20125  -2.19901  -2.19504  -2.18804  -1.14682
 Alpha  occ. eigenvalues --   -1.14658  -1.14629  -1.14194  -1.14184  -1.14098
 Alpha  occ. eigenvalues --   -1.14074  -1.14071  -1.13981  -1.13787  -1.13777
 Alpha  occ. eigenvalues --   -1.13741  -1.13583  -1.13558  -1.13499  -1.13191
 Alpha  occ. eigenvalues --   -1.13170  -1.13151  -1.12516  -1.12479  -1.12404
 Alpha  occ. eigenvalues --   -0.18041  -0.14517  -0.11142  -0.10428
 Alpha virt. eigenvalues --   -0.06912  -0.05641  -0.05354  -0.03087  -0.02698
 Alpha virt. eigenvalues --   -0.02332  -0.02056  -0.01621  -0.01087  -0.00266
 Alpha virt. eigenvalues --    0.00053   0.00115   0.00224   0.00268   0.00346

  Beta  occ. eigenvalues --  -38.45138 -38.44631 -38.44492 -38.44259 -38.44030
  Beta  occ. eigenvalues --  -38.43734 -38.42943  -2.20905  -2.20439  -2.20351
  Beta  occ. eigenvalues --   -2.20035  -2.19847  -2.19551  -2.18782  -1.14597
  Beta  occ. eigenvalues --   -1.14586  -1.14550  -1.14160  -1.14120  -1.14071
  Beta  occ. eigenvalues --   -1.14042  -1.14023  -1.13963  -1.13720  -1.13709
  Beta  occ. eigenvalues --   -1.13687  -1.13545  -1.13522  -1.13472  -1.13221
  Beta  occ. eigenvalues --   -1.13199  -1.13180  -1.12504  -1.12442  -1.12393
  Beta  occ. eigenvalues --   -0.17420  -0.14303  -0.10264
  Beta virt. eigenvalues --   -0.07436  -0.06640  -0.05245  -0.04963  -0.02754
  Beta virt. eigenvalues --   -0.02613  -0.01792  -0.01562  -0.01095  -0.00857
  Beta virt. eigenvalues --   -0.00182   0.00077   0.00268   0.00299   0.00391

 Mulliken charges and spin densities:
               1          2
     1  Na  -0.674836   0.276521
     2  Na   0.183461  -0.232950
     3  Na  -0.333149   0.251001
     4  Na   0.200468   0.248020
     5  Na  -0.018324   0.090438
     6  Na   0.118601   0.283027
     7  Na   0.523779   0.083943
 Sum of Mulliken charges =  -0.00000   1.00000

 Dipole moment (field-independent basis, Debye):
    X=              0.6233    Y=             -0.0557    Z=              0.4762  Tot=              0.7864
 Quadrupole moment (field-independent basis, Debye-Ang):
   XX=            -51.3419   YY=            -76.5845   ZZ=            -68.9393
   XY=             -1.8025   XZ=              2.7094   YZ=             -6.3333

 Normal termination of Gaussian 16 at Fri Dec  8 06:32:18 2023.
