 Gaussian 16, Revision B.01,
 Gaussian 16:  ES64L-G16RevB.01 20-Dec-2017

 -------------------------
 #P B3LYP/6-311+g(d) force
 -------------------------

 -----
 DPGEN
 -----
 Symbolic Z-matrix:
 Charge =  0 Multiplicity = 2

                         Standard orientation:
 ---------------------------------------------------------------------
 Center     Atomic      Atomic             Coordinates (Angstroms)
 Number     Number       Type             X           Y           Z
 ---------------------------------------------------------------------
      1         11           0       -3.341792    0.422714    0.119797
      2         11           0       -0.541175    2.739204   -0.218062
      3         11           0        2.332946   -1.738209   -0.175869
      4         11           0        2.736445    1.443342    0.098374
      5         11           0        0.084331   -0.166198    1.797206
      6         11           0       -0.111199   -0.111834   -1.534107
      7         11           0       -1.159555   -2.589020   -0.087338
 ---------------------------------------------------------------------

 SCF Done:  E(UB3LYP) =  -1136.13597106     A.U. after   19 cycles

 The electronic state is 2-A.
 Alpha  occ. eigenvalues --  -38.44542 -38.43769 -38.43601 -38.43335 -38.43239
 Alpha  occ. eigenvalues --  -38.43093 -38.42843  -2.20333  -2.19634  -2.19510
 Alpha  occ. eigenvalues --   -2.19233  -2.19106  -2.19064  -2.18901  -1.14008
 Alpha  occ. eigenvalues --   -1.13983  -1.13978  -1.13339  -1.13295  -1.13280
 Alpha  occ. eigenvalues --   -1.13197  -1.13170  -1.13126  -1.12982  -1.12911
 Alpha  occ. eigenvalues --   -1.12841  -1.12834  -1.12778  -1.12751  -1.12718
 Alpha  occ. eigenvalues --   -1.12678  -1.12667  -1.12572  -1.12520  -1.12498
 Alpha  occ. eigenvalues --   -0.19089  -0.13221  -0.12531  -0.10425
 Alpha virt. eigenvalues --   -0.05984  -0.05067  -0.04528  -0.03059  -0.02680
 Alpha virt. eigenvalues --   -0.02127  -0.01849  -0.01109  -0.00292  -0.00267
 Alpha virt. eigenvalues --    0.00028   0.00336   0.00786   0.00886   0.00911

  Beta  occ. eigenvalues --  -38.44541 -38.43764 -38.43592 -38.43326 -38.43231
  Beta  occ. eigenvalues --  -38.43010 -38.42774  -2.20335  -2.19629  -2.19497
  Beta  occ. eigenvalues --   -2.19222  -2.19096  -2.18910  -2.18775  -1.13994
  Beta  occ. eigenvalues --   -1.13985  -1.13980  -1.13340  -1.13283  -1.13261
  Beta  occ. eigenvalues --   -1.13188  -1.13132  -1.13119  -1.12968  -1.12871
  Beta  occ. eigenvalues --   -1.12831  -1.12822  -1.12742  -1.12716  -1.12660
  Beta  occ. eigenvalues --   -1.12572  -1.12555  -1.12483  -1.12432  -1.12408
  Beta  occ. eigenvalues --   -0.18362  -0.12984  -0.12246
  Beta virt. eigenvalues --   -0.06505  -0.05956  -0.05072  -0.04517  -0.02290
  Beta virt. eigenvalues --   -0.01887  -0.01761  -0.01100  -0.01036  -0.00338
  Beta virt. eigenvalues --   -0.00316   0.00162   0.00367   0.00820   0.00885

 Mulliken charges and spin densities:
               1          2
     1  Na   0.006882  -0.079779
     2  Na   0.094134  -0.099455
     3  Na   0.420349  -0.018563
     4  Na   0.136414  -0.019070
     5  Na  -0.487951   0.795273
     6  Na  -0.429159   0.528215
     7  Na   0.259332  -0.106620
 Sum of Mulliken charges =  -0.00000   1.00000

 Dipole moment (field-independent basis, Debye):
    X=             -0.3389    Y=              0.0362    Z=              0.1557  Tot=              0.3747
 Quadrupole moment (field-independent basis, Debye-Ang):
   XX=            -51.9997   YY=            -63.0049   ZZ=            -76.2904
   XY=              0.1629   XZ=             -0.5544   YZ=              0.2669

 Normal termination of Gaussian 16 at Thu Dec  7 12:53:10 2023.
