 Gaussian 16, Revision B.01,
 Gaussian 16:  ES64L-G16RevB.01 20-Dec-2017

 -------------------------
 #P B3LYP/6-311+g(d) force
 -------------------------

 -----
 DPGEN
 -----
 Symbolic Z-matrix:
 Charge =  0 Multiplicity = 2

                         Standard orientation:
 ---------------------------------------------------------------------
 Center     Atomic      Atomic             Coordinates (Angstroms)
 Number     Number       Type             X           Y           Z
 ---------------------------------------------------------------------
      1         11           0        2.300570    2.626877   -0.527211
      2         11           0       -4.373388    1.240450   -0.312148
      3         11           0       -1.213682    3.513689    0.067330
      4         11           0       -0.350217   -3.261384   -0.483476
      5         11           0        4.366892    0.592678    0.851094
      6         11           0        2.540142   -2.666733   -0.453311
      7         11           0       -3.270316   -2.045577    0.857723
 ---------------------------------------------------------------------

 SCF Done:  E(UB3LYP) =  -1136.10567231     A.U. after   20 cycles

 The electronic state is 2-A.
 Alpha  occ. eigenvalues --  -38.45365 -38.44960 -38.44805 -38.44788 -38.44153
 Alpha  occ. eigenvalues --  -38.44094 -38.43893  -2.21089  -2.20779  -2.20585
 Alpha  occ. eigenvalues --   -2.20566  -2.19928  -2.19909  -2.19732  -1.14778
 Alpha  occ. eigenvalues --   -1.14754  -1.14733  -1.14497  -1.14429  -1.14395
 Alpha  occ. eigenvalues --   -1.14253  -1.14250  -1.14243  -1.14238  -1.14217
 Alpha  occ. eigenvalues --   -1.14205  -1.13586  -1.13577  -1.13558  -1.13552
 Alpha  occ. eigenvalues --   -1.13543  -1.13536  -1.13417  -1.13379  -1.13370
 Alpha  occ. eigenvalues --   -0.15582  -0.13843  -0.13484  -0.10825
 Alpha virt. eigenvalues --   -0.07722  -0.04934  -0.04345  -0.03608  -0.03280
 Alpha virt. eigenvalues --   -0.02553  -0.02399  -0.01854  -0.01256  -0.00854
 Alpha virt. eigenvalues --   -0.00432  -0.00148   0.00046   0.00262   0.00588

  Beta  occ. eigenvalues --  -38.45377 -38.44920 -38.44779 -38.44764 -38.44079
  Beta  occ. eigenvalues --  -38.44033 -38.43877  -2.21114  -2.20710  -2.20558
  Beta  occ. eigenvalues --   -2.20508  -2.19797  -2.19790  -2.19710  -1.14798
  Beta  occ. eigenvalues --   -1.14774  -1.14728  -1.14435  -1.14385  -1.14339
  Beta  occ. eigenvalues --   -1.14251  -1.14240  -1.14200  -1.14193  -1.14164
  Beta  occ. eigenvalues --   -1.14152  -1.13493  -1.13485  -1.13482  -1.13474
  Beta  occ. eigenvalues --   -1.13462  -1.13451  -1.13384  -1.13368  -1.13346
  Beta  occ. eigenvalues --   -0.15057  -0.13200  -0.12692
  Beta virt. eigenvalues --   -0.07900  -0.07629  -0.04508  -0.03894  -0.03354
  Beta virt. eigenvalues --   -0.02981  -0.02281  -0.02213  -0.01704  -0.01091
  Beta virt. eigenvalues --   -0.00489  -0.00240   0.00007   0.00225   0.00368

 Mulliken charges and spin densities:
               1          2
     1  Na  -0.359448   0.044289
     2  Na   0.108413  -0.061389
     3  Na  -0.061267   0.342807
     4  Na  -0.112098  -0.011728
     5  Na   0.271653   0.283764
     6  Na   0.121295   0.139604
     7  Na   0.031451   0.262653
 Sum of Mulliken charges =  -0.00000   1.00000

 Dipole moment (field-independent basis, Debye):
    X=             -0.2439    Y=             -0.2455    Z=              0.0728  Tot=              0.3536
 Quadrupole moment (field-independent basis, Debye-Ang):
   XX=            -58.4591   YY=            -70.4112   ZZ=            -71.1336
   XY=             -3.7623   XZ=              1.2710   YZ=             -2.1166

 Normal termination of Gaussian 16 at Sun Dec  3 14:25:45 2023.
