 Gaussian 16, Revision B.01,
 Gaussian 16:  ES64L-G16RevB.01 20-Dec-2017

 -------------------------
 #P B3LYP/6-311+g(d) force
 -------------------------

 -----
 DPGEN
 -----
 Symbolic Z-matrix:
 Charge =  0 Multiplicity = 2

                         Standard orientation:
 ---------------------------------------------------------------------
 Center     Atomic      Atomic             Coordinates (Angstroms)
 Number     Number       Type             X           Y           Z
 ---------------------------------------------------------------------
      1         11           0        2.762169    1.066143    0.052038
      2         11           0       -0.053487   -0.200881    1.799485
      3         11           0       -2.881156    0.912027   -0.127666
      4         11           0       -1.708885   -2.114019    0.132209
      5         11           0        0.086834    2.800217    0.023881
      6         11           0        1.834232   -2.284763   -0.142004
      7         11           0       -0.039707   -0.178724   -1.737942
 ---------------------------------------------------------------------

 SCF Done:  E(UB3LYP) =  -1136.13835722     A.U. after   19 cycles

 The electronic state is 2-A.
 Alpha  occ. eigenvalues --  -38.43663 -38.43650 -38.43429 -38.43414 -38.43235
 Alpha  occ. eigenvalues --  -38.43206 -38.43131  -2.19538  -2.19527  -2.19385
 Alpha  occ. eigenvalues --   -2.19300  -2.19239  -2.19148  -2.19093  -1.13238
 Alpha  occ. eigenvalues --   -1.13216  -1.13201  -1.13190  -1.13189  -1.13179
 Alpha  occ. eigenvalues --   -1.13152  -1.13077  -1.13007  -1.12981  -1.12966
 Alpha  occ. eigenvalues --   -1.12920  -1.12901  -1.12850  -1.12834  -1.12817
 Alpha  occ. eigenvalues --   -1.12788  -1.12755  -1.12751  -1.12737  -1.12723
 Alpha  occ. eigenvalues --   -0.19376  -0.13183  -0.12745  -0.10859
 Alpha virt. eigenvalues --   -0.05274  -0.05120  -0.04669  -0.03168  -0.02921
 Alpha virt. eigenvalues --   -0.02445  -0.01357  -0.01051  -0.00103  -0.00090
 Alpha virt. eigenvalues --    0.00023   0.00366   0.00865   0.00939   0.00953

  Beta  occ. eigenvalues --  -38.43659 -38.43646 -38.43416 -38.43407 -38.43202
  Beta  occ. eigenvalues --  -38.43151 -38.43052  -2.19533  -2.19524  -2.19368
  Beta  occ. eigenvalues --   -2.19292  -2.19089  -2.19084  -2.19005  -1.13234
  Beta  occ. eigenvalues --   -1.13216  -1.13190  -1.13182  -1.13169  -1.13161
  Beta  occ. eigenvalues --   -1.13126  -1.13023  -1.12996  -1.12968  -1.12937
  Beta  occ. eigenvalues --   -1.12918  -1.12813  -1.12774  -1.12746  -1.12731
  Beta  occ. eigenvalues --   -1.12726  -1.12717  -1.12710  -1.12660  -1.12646
  Beta  occ. eigenvalues --   -0.18628  -0.12911  -0.12472
  Beta virt. eigenvalues --   -0.06896  -0.05262  -0.05120  -0.04658  -0.02328
  Beta virt. eigenvalues --   -0.02109  -0.01376  -0.01279  -0.00988  -0.00155
  Beta virt. eigenvalues --   -0.00144   0.00141   0.00388   0.00918   0.00935

 Mulliken charges and spin densities:
               1          2
     1  Na   0.037023  -0.084676
     2  Na  -0.463922   0.693746
     3  Na   0.094281  -0.072744
     4  Na   0.506480  -0.046918
     5  Na   0.042902  -0.094469
     6  Na   0.271275  -0.096238
     7  Na  -0.488039   0.701298
 Sum of Mulliken charges =  -0.00000   1.00000

 Dipole moment (field-independent basis, Debye):
    X=              0.0312    Y=             -0.0061    Z=              0.0085  Tot=              0.0329
 Quadrupole moment (field-independent basis, Debye-Ang):
   XX=            -57.2537   YY=            -62.3026   ZZ=            -74.0313
   XY=             -0.8996   XZ=              0.1358   YZ=              0.0558

 Normal termination of Gaussian 16 at Tue Dec  5 20:18:04 2023.
