 Gaussian 16, Revision B.01,
 Gaussian 16:  ES64L-G16RevB.01 20-Dec-2017

 -------------------------
 #P B3LYP/6-311+g(d) force
 -------------------------

 -----
 DPGEN
 -----
 Symbolic Z-matrix:
 Charge =  0 Multiplicity = 2

                         Standard orientation:
 ---------------------------------------------------------------------
 Center     Atomic      Atomic             Coordinates (Angstroms)
 Number     Number       Type             X           Y           Z
 ---------------------------------------------------------------------
      1         11           0       -0.418837    2.948953    0.015501
      2         11           0        3.120503    1.409378    0.562062
      3         11           0       -2.846735   -2.330558    0.800898
      4         11           0        0.398738   -0.466985   -1.165696
      5         11           0       -0.659062    0.064033    1.516911
      6         11           0        3.466681   -2.227792   -0.505206
      7         11           0       -3.061287    0.602972   -1.224469
 ---------------------------------------------------------------------

 SCF Done:  E(UB3LYP) =  -1136.12207091     A.U. after   22 cycles

 The electronic state is 2-A.
 Alpha  occ. eigenvalues --  -38.45129 -38.44408 -38.44141 -38.43887 -38.43830
 Alpha  occ. eigenvalues --  -38.43767 -38.42940  -2.20893  -2.20304  -2.19986
 Alpha  occ. eigenvalues --   -2.19847  -2.19602  -2.19586  -2.18780  -1.14590
 Alpha  occ. eigenvalues --   -1.14549  -1.14504  -1.14137  -1.13932  -1.13892
 Alpha  occ. eigenvalues --   -1.13658  -1.13627  -1.13604  -1.13565  -1.13479
 Alpha  occ. eigenvalues --   -1.13430  -1.13269  -1.13264  -1.13244  -1.13242
 Alpha  occ. eigenvalues --   -1.13227  -1.13209  -1.12476  -1.12445  -1.12409
 Alpha  occ. eigenvalues --   -0.18033  -0.13582  -0.11756  -0.10339
 Alpha virt. eigenvalues --   -0.06508  -0.05765  -0.04594  -0.03046  -0.02520
 Alpha virt. eigenvalues --   -0.02456  -0.01983  -0.01540  -0.00857  -0.00386
 Alpha virt. eigenvalues --   -0.00251   0.00127   0.00554   0.00576   0.00646

  Beta  occ. eigenvalues --  -38.45120 -38.44386 -38.44084 -38.43835 -38.43814
  Beta  occ. eigenvalues --  -38.43739 -38.42942  -2.20877  -2.20265  -2.19882
  Beta  occ. eigenvalues --   -2.19753  -2.19572  -2.19536  -2.18788  -1.14578
  Beta  occ. eigenvalues --   -1.14539  -1.14488  -1.14094  -1.13910  -1.13855
  Beta  occ. eigenvalues --   -1.13580  -1.13560  -1.13528  -1.13502  -1.13413
  Beta  occ. eigenvalues --   -1.13355  -1.13246  -1.13244  -1.13210  -1.13209
  Beta  occ. eigenvalues --   -1.13190  -1.13179  -1.12483  -1.12452  -1.12388
  Beta  occ. eigenvalues --   -0.17470  -0.13292  -0.11389
  Beta virt. eigenvalues --   -0.06840  -0.06308  -0.05455  -0.04355  -0.02698
  Beta virt. eigenvalues --   -0.02297  -0.01910  -0.01613  -0.01101  -0.00732
  Beta virt. eigenvalues --   -0.00220  -0.00071   0.00208   0.00655   0.00680

 Mulliken charges and spin densities:
               1          2
     1  Na  -0.084130  -0.007379
     2  Na  -0.016394   0.030350
     3  Na  -0.103222   0.103845
     4  Na  -0.588726   0.177040
     5  Na  -0.040636   0.380188
     6  Na   0.210906   0.057148
     7  Na   0.622202   0.258807
 Sum of Mulliken charges =  -0.00000   1.00000

 Dipole moment (field-independent basis, Debye):
    X=              0.3212    Y=              0.2926    Z=              0.1964  Tot=              0.4769
 Quadrupole moment (field-independent basis, Debye-Ang):
   XX=            -53.4799   YY=            -64.9125   ZZ=            -74.5290
   XY=              3.0040   XZ=              3.2144   YZ=             -0.0219

 Normal termination of Gaussian 16 at Thu Dec  7 09:21:01 2023.
