 Gaussian 16, Revision B.01,
 Gaussian 16:  ES64L-G16RevB.01 20-Dec-2017

 -------------------------
 #P B3LYP/6-311+g(d) force
 -------------------------

 -----
 DPGEN
 -----
 Symbolic Z-matrix:
 Charge =  0 Multiplicity = 2

                         Standard orientation:
 ---------------------------------------------------------------------
 Center     Atomic      Atomic             Coordinates (Angstroms)
 Number     Number       Type             X           Y           Z
 ---------------------------------------------------------------------
      1         11           0       -1.300804   -1.252633    1.663236
      2         11           0        2.249618    1.609622   -1.000405
      3         11           0        1.591103    0.517104    1.688582
      4         11           0       -0.932901    2.022451    0.231510
      5         11           0       -3.874783   -0.040191   -0.852644
      6         11           0        2.606100   -1.802932   -0.660867
      7         11           0       -0.338333   -1.053421   -1.069413
 ---------------------------------------------------------------------

 SCF Done:  E(UB3LYP) =  -1136.12403201     A.U. after   23 cycles

 The electronic state is 2-A.
 Alpha  occ. eigenvalues --  -38.45053 -38.44151 -38.43711 -38.43590 -38.43380
 Alpha  occ. eigenvalues --  -38.43130 -38.42663  -2.20837  -2.20075  -2.19703
 Alpha  occ. eigenvalues --   -2.19512  -2.19381  -2.19014  -2.18568  -1.14507
 Alpha  occ. eigenvalues --   -1.14491  -1.14448  -1.13852  -1.13713  -1.13652
 Alpha  occ. eigenvalues --   -1.13467  -1.13384  -1.13300  -1.13177  -1.13142
 Alpha  occ. eigenvalues --   -1.13101  -1.13097  -1.13033  -1.13018  -1.12679
 Alpha  occ. eigenvalues --   -1.12658  -1.12637  -1.12288  -1.12254  -1.12154
 Alpha  occ. eigenvalues --   -0.19135  -0.13881  -0.11501  -0.11248
 Alpha virt. eigenvalues --   -0.06478  -0.04757  -0.04327  -0.03130  -0.02678
 Alpha virt. eigenvalues --   -0.02414  -0.02238  -0.00778  -0.00720   0.00045
 Alpha virt. eigenvalues --    0.00206   0.00367   0.00487   0.00760   0.00834

  Beta  occ. eigenvalues --  -38.45023 -38.44085 -38.43662 -38.43566 -38.43364
  Beta  occ. eigenvalues --  -38.43123 -38.42655  -2.20781  -2.19958  -2.19618
  Beta  occ. eigenvalues --   -2.19466  -2.19355  -2.19002  -2.18558  -1.14464
  Beta  occ. eigenvalues --   -1.14451  -1.14414  -1.13779  -1.13612  -1.13564
  Beta  occ. eigenvalues --   -1.13409  -1.13309  -1.13247  -1.13140  -1.13103
  Beta  occ. eigenvalues --   -1.13061  -1.13056  -1.13009  -1.13001  -1.12664
  Beta  occ. eigenvalues --   -1.12654  -1.12618  -1.12285  -1.12213  -1.12152
  Beta  occ. eigenvalues --   -0.18383  -0.13579  -0.11086
  Beta virt. eigenvalues --   -0.07547  -0.06185  -0.04591  -0.03887  -0.02999
  Beta virt. eigenvalues --   -0.02183  -0.01887  -0.01586  -0.00691  -0.00371
  Beta virt. eigenvalues --    0.00146   0.00275   0.00402   0.00606   0.00811

 Mulliken charges and spin densities:
               1          2
     1  Na  -0.224868   0.059544
     2  Na   0.026487   0.143756
     3  Na   0.606427   0.220693
     4  Na  -0.581485   0.064336
     5  Na   0.663616   0.101837
     6  Na   0.119002   0.024502
     7  Na  -0.609179   0.385331
 Sum of Mulliken charges =  -0.00000   1.00000

 Dipole moment (field-independent basis, Debye):
    X=             -0.9205    Y=              0.0141    Z=              0.0407  Tot=              0.9215
 Quadrupole moment (field-independent basis, Debye-Ang):
   XX=            -49.0866   YY=            -76.3874   ZZ=            -66.8483
   XY=              0.1997   XZ=              1.1239   YZ=             -3.1014

 Normal termination of Gaussian 16 at Tue Dec  5 21:23:13 2023.
