 Gaussian 16, Revision B.01,
 Gaussian 16:  ES64L-G16RevB.01 20-Dec-2017

 -------------------------
 #P B3LYP/6-311+g(d) force
 -------------------------

 -----
 DPGEN
 -----
 Symbolic Z-matrix:
 Charge =  0 Multiplicity = 2

                         Standard orientation:
 ---------------------------------------------------------------------
 Center     Atomic      Atomic             Coordinates (Angstroms)
 Number     Number       Type             X           Y           Z
 ---------------------------------------------------------------------
      1         11           0        2.491150   -1.734992   -0.447113
      2         11           0       -0.819436    2.958054   -0.452312
      3         11           0        0.009096    0.221036    2.028890
      4         11           0       -3.249019    0.195379    0.085001
      5         11           0       -0.461136   -0.298281   -1.593348
      6         11           0        3.040060    1.452987    0.160239
      7         11           0       -1.010715   -2.794183    0.218643
 ---------------------------------------------------------------------

 SCF Done:  E(UB3LYP) =  -1136.13512013     A.U. after   19 cycles

 The electronic state is 2-A.
 Alpha  occ. eigenvalues --  -38.44546 -38.44133 -38.43707 -38.43643 -38.43611
 Alpha  occ. eigenvalues --  -38.43341 -38.43192  -2.20365  -2.19922  -2.19543
 Alpha  occ. eigenvalues --   -2.19475  -2.19442  -2.19199  -2.19161  -1.14054
 Alpha  occ. eigenvalues --   -1.14025  -1.13991  -1.13600  -1.13591  -1.13563
 Alpha  occ. eigenvalues --   -1.13226  -1.13200  -1.13176  -1.13150  -1.13130
 Alpha  occ. eigenvalues --   -1.13114  -1.13092  -1.13089  -1.13071  -1.12957
 Alpha  occ. eigenvalues --   -1.12861  -1.12826  -1.12822  -1.12789  -1.12755
 Alpha  occ. eigenvalues --   -0.18304  -0.13081  -0.12229  -0.10556
 Alpha virt. eigenvalues --   -0.06028  -0.05156  -0.04781  -0.03168  -0.02853
 Alpha virt. eigenvalues --   -0.02414  -0.01736  -0.01154  -0.00679  -0.00416
 Alpha virt. eigenvalues --   -0.00020   0.00345   0.00780   0.00804   0.00848

  Beta  occ. eigenvalues --  -38.44541 -38.44134 -38.43698 -38.43634 -38.43518
  Beta  occ. eigenvalues --  -38.43334 -38.43134  -2.20361  -2.19926  -2.19528
  Beta  occ. eigenvalues --   -2.19428  -2.19304  -2.19190  -2.19057  -1.14044
  Beta  occ. eigenvalues --   -1.14012  -1.13986  -1.13604  -1.13579  -1.13567
  Beta  occ. eigenvalues --   -1.13209  -1.13181  -1.13168  -1.13114  -1.13088
  Beta  occ. eigenvalues --   -1.13062  -1.13034  -1.12984  -1.12964  -1.12932
  Beta  occ. eigenvalues --   -1.12837  -1.12810  -1.12757  -1.12719  -1.12687
  Beta  occ. eigenvalues --   -0.17592  -0.12880  -0.11991
  Beta virt. eigenvalues --   -0.06686  -0.05976  -0.05133  -0.04694  -0.02448
  Beta virt. eigenvalues --   -0.02111  -0.01658  -0.01393  -0.01067  -0.00707
  Beta virt. eigenvalues --   -0.00455   0.00127   0.00381   0.00808   0.00837

 Mulliken charges and spin densities:
               1          2
     1  Na   0.067626  -0.023900
     2  Na  -0.102840  -0.076770
     3  Na  -0.372154   0.759523
     4  Na   0.248659  -0.016862
     5  Na   0.051172   0.396063
     6  Na  -0.013805  -0.055473
     7  Na   0.121342   0.017418
 Sum of Mulliken charges =  -0.00000   1.00000

 Dipole moment (field-independent basis, Debye):
    X=             -0.2869    Y=              0.1442    Z=              0.1439  Tot=              0.3519
 Quadrupole moment (field-independent basis, Debye-Ang):
   XX=            -54.8599   YY=            -62.6442   ZZ=            -75.4313
   XY=              0.8263   XZ=             -1.1094   YZ=             -0.9069

 Normal termination of Gaussian 16 at Thu Dec  7 10:49:10 2023.
