 Gaussian 16, Revision B.01,
 Gaussian 16:  ES64L-G16RevB.01 20-Dec-2017

 -------------------------
 #P B3LYP/6-311+g(d) force
 -------------------------

 -----
 DPGEN
 -----
 Symbolic Z-matrix:
 Charge =  0 Multiplicity = 2

                         Standard orientation:
 ---------------------------------------------------------------------
 Center     Atomic      Atomic             Coordinates (Angstroms)
 Number     Number       Type             X           Y           Z
 ---------------------------------------------------------------------
      1         11           0        2.674663    1.374864   -1.658714
      2         11           0        3.224698   -1.773426    0.289867
      3         11           0        0.525577    2.035680    1.143232
      4         11           0        0.218177   -1.180845    1.789880
      5         11           0       -3.857713   -1.325410   -0.805057
      6         11           0       -2.487291    1.655761    0.375304
      7         11           0       -0.298111   -0.786626   -1.134512
 ---------------------------------------------------------------------

 SCF Done:  E(UB3LYP) =  -1136.12120264     A.U. after   22 cycles

 The electronic state is 2-A.
 Alpha  occ. eigenvalues --  -38.44512 -38.44432 -38.44414 -38.44411 -38.44026
 Alpha  occ. eigenvalues --  -38.43914 -38.42344  -2.20340  -2.20330  -2.20319
 Alpha  occ. eigenvalues --   -2.20199  -2.19878  -2.19706  -2.18252  -1.14212
 Alpha  occ. eigenvalues --   -1.13999  -1.13985  -1.13968  -1.13957  -1.13947
 Alpha  occ. eigenvalues --   -1.13942  -1.13929  -1.13891  -1.13869  -1.13850
 Alpha  occ. eigenvalues --   -1.13827  -1.13567  -1.13555  -1.13510  -1.13371
 Alpha  occ. eigenvalues --   -1.13363  -1.13330  -1.11941  -1.11914  -1.11886
 Alpha  occ. eigenvalues --   -0.18276  -0.13696  -0.11522  -0.11270
 Alpha virt. eigenvalues --   -0.06530  -0.05459  -0.04207  -0.03249  -0.02994
 Alpha virt. eigenvalues --   -0.02503  -0.02310  -0.01359  -0.00622  -0.00189
 Alpha virt. eigenvalues --    0.00076   0.00185   0.00473   0.00571   0.00629

  Beta  occ. eigenvalues --  -38.44430 -38.44422 -38.44407 -38.44332 -38.44026
  Beta  occ. eigenvalues --  -38.43896 -38.42330  -2.20310  -2.20196  -2.20185
  Beta  occ. eigenvalues --   -2.20176  -2.19881  -2.19673  -2.18231  -1.14153
  Beta  occ. eigenvalues --   -1.13972  -1.13915  -1.13887  -1.13876  -1.13868
  Beta  occ. eigenvalues --   -1.13858  -1.13854  -1.13847  -1.13843  -1.13823
  Beta  occ. eigenvalues --   -1.13776  -1.13572  -1.13544  -1.13509  -1.13348
  Beta  occ. eigenvalues --   -1.13339  -1.13310  -1.11920  -1.11901  -1.11851
  Beta  occ. eigenvalues --   -0.17615  -0.13249  -0.11107
  Beta virt. eigenvalues --   -0.07765  -0.06369  -0.05187  -0.03585  -0.03018
  Beta virt. eigenvalues --   -0.02455  -0.02367  -0.01641  -0.01199  -0.00340
  Beta virt. eigenvalues --   -0.00138   0.00139   0.00283   0.00592   0.00653

 Mulliken charges and spin densities:
               1          2
     1  Na   0.380169   0.319838
     2  Na  -0.054995  -0.070870
     3  Na  -0.391285   0.006007
     4  Na   0.408577   0.490906
     5  Na   0.267336   0.081730
     6  Na   0.180475  -0.071098
     7  Na  -0.790277   0.243487
 Sum of Mulliken charges =  -0.00000   1.00000

 Dipole moment (field-independent basis, Debye):
    X=              0.2524    Y=             -0.2390    Z=              0.1062  Tot=              0.3634
 Quadrupole moment (field-independent basis, Debye-Ang):
   XX=            -52.4153   YY=            -73.5936   ZZ=            -69.1114
   XY=             -1.1353   XZ=             -1.1891   YZ=             -1.9229

 Normal termination of Gaussian 16 at Thu Dec  7 23:05:25 2023.
