 Gaussian 16, Revision B.01,
 Gaussian 16:  ES64L-G16RevB.01 20-Dec-2017

 -------------------------
 #P B3LYP/6-311+g(d) force
 -------------------------

 -----
 DPGEN
 -----
 Symbolic Z-matrix:
 Charge =  0 Multiplicity = 2

                         Standard orientation:
 ---------------------------------------------------------------------
 Center     Atomic      Atomic             Coordinates (Angstroms)
 Number     Number       Type             X           Y           Z
 ---------------------------------------------------------------------
      1         11           0       -0.595829    2.657516    0.243051
      2         11           0        0.463774    0.069024    1.731025
      3         11           0       -3.227240    0.627230   -0.774277
      4         11           0       -2.611317   -2.127556    0.557051
      5         11           0        2.435527    1.348333   -0.433352
      6         11           0        0.087840   -1.074924   -1.165604
      7         11           0        3.447246   -1.499623   -0.157894
 ---------------------------------------------------------------------

 SCF Done:  E(UB3LYP) =  -1136.12377532     A.U. after   22 cycles

 The electronic state is 2-A.
 Alpha  occ. eigenvalues --  -38.44446 -38.44258 -38.44210 -38.44058 -38.43986
 Alpha  occ. eigenvalues --  -38.43252 -38.42436  -2.20354  -2.20111  -2.20069
 Alpha  occ. eigenvalues --   -2.20013  -2.19834  -2.19239  -2.18323  -1.14103
 Alpha  occ. eigenvalues --   -1.14029  -1.13956  -1.13869  -1.13762  -1.13759
 Alpha  occ. eigenvalues --   -1.13745  -1.13720  -1.13705  -1.13690  -1.13684
 Alpha  occ. eigenvalues --   -1.13581  -1.13496  -1.13472  -1.13469  -1.12936
 Alpha  occ. eigenvalues --   -1.12858  -1.12841  -1.12004  -1.11983  -1.11965
 Alpha  occ. eigenvalues --   -0.18771  -0.14301  -0.11898  -0.10272
 Alpha virt. eigenvalues --   -0.06615  -0.05703  -0.04202  -0.03411  -0.02580
 Alpha virt. eigenvalues --   -0.02350  -0.01983  -0.01287  -0.00619  -0.00206
 Alpha virt. eigenvalues --    0.00058   0.00178   0.00547   0.00702   0.00789

  Beta  occ. eigenvalues --  -38.44432 -38.44250 -38.44169 -38.44045 -38.43978
  Beta  occ. eigenvalues --  -38.43161 -38.42431  -2.20333  -2.20098  -2.19992
  Beta  occ. eigenvalues --   -2.19991  -2.19821  -2.19072  -2.18317  -1.14074
  Beta  occ. eigenvalues --   -1.13996  -1.13946  -1.13860  -1.13743  -1.13728
  Beta  occ. eigenvalues --   -1.13712  -1.13679  -1.13666  -1.13653  -1.13651
  Beta  occ. eigenvalues --   -1.13561  -1.13488  -1.13462  -1.13434  -1.12827
  Beta  occ. eigenvalues --   -1.12748  -1.12713  -1.11995  -1.11983  -1.11938
  Beta  occ. eigenvalues --   -0.18160  -0.13939  -0.11666
  Beta virt. eigenvalues --   -0.06685  -0.06352  -0.05512  -0.03970  -0.02965
  Beta virt. eigenvalues --   -0.02391  -0.01768  -0.01374  -0.01011  -0.00527
  Beta virt. eigenvalues --   -0.00039   0.00165   0.00272   0.00657   0.00750

 Mulliken charges and spin densities:
               1          2
     1  Na  -0.281694   0.088748
     2  Na  -0.209117   0.341970
     3  Na   0.137983   0.089116
     4  Na   0.254427   0.031569
     5  Na   0.285554   0.102530
     6  Na  -0.633082   0.271845
     7  Na   0.445930   0.074221
 Sum of Mulliken charges =  -0.00000   1.00000

 Dipole moment (field-independent basis, Debye):
    X=              0.3367    Y=             -0.5921    Z=              0.3012  Tot=              0.7448
 Quadrupole moment (field-independent basis, Debye-Ang):
   XX=            -54.4956   YY=            -68.3589   ZZ=            -72.9035
   XY=              0.2509   XZ=             -0.3111   YZ=             -2.0173

 Normal termination of Gaussian 16 at Fri Dec  8 01:18:29 2023.
