 Gaussian 16, Revision B.01,
 Gaussian 16:  ES64L-G16RevB.01 20-Dec-2017

 -------------------------
 #P B3LYP/6-311+g(d) force
 -------------------------

 -----
 DPGEN
 -----
 Symbolic Z-matrix:
 Charge =  0 Multiplicity = 2

                         Standard orientation:
 ---------------------------------------------------------------------
 Center     Atomic      Atomic             Coordinates (Angstroms)
 Number     Number       Type             X           Y           Z
 ---------------------------------------------------------------------
      1         11           0        1.169586    1.044169    1.028296
      2         11           0        2.417880   -1.887246    0.988157
      3         11           0       -1.575787    2.904308   -0.165454
      4         11           0       -3.689401   -1.764211   -0.896581
      5         11           0       -2.212078   -0.271914    1.313958
      6         11           0        0.046270   -0.238218   -1.175756
      7         11           0        3.843529    0.213112   -1.092619
 ---------------------------------------------------------------------

 SCF Done:  E(UB3LYP) =  -1136.11555441     A.U. after   23 cycles

 The electronic state is 2-A.
 Alpha  occ. eigenvalues --  -38.45161 -38.44507 -38.44259 -38.43816 -38.43494
 Alpha  occ. eigenvalues --  -38.43434 -38.42952  -2.21093  -2.20356  -2.20143
 Alpha  occ. eigenvalues --   -2.19725  -2.19456  -2.19306  -2.18775  -1.14918
 Alpha  occ. eigenvalues --   -1.14727  -1.14678  -1.14016  -1.14009  -1.13984
 Alpha  occ. eigenvalues --   -1.13822  -1.13798  -1.13751  -1.13418  -1.13408
 Alpha  occ. eigenvalues --   -1.13349  -1.13225  -1.13099  -1.13013  -1.12980
 Alpha  occ. eigenvalues --   -1.12969  -1.12922  -1.12452  -1.12419  -1.12405
 Alpha  occ. eigenvalues --   -0.18556  -0.14301  -0.11242  -0.10459
 Alpha virt. eigenvalues --   -0.06667  -0.05582  -0.04834  -0.03001  -0.02712
 Alpha virt. eigenvalues --   -0.02140  -0.01723  -0.01549  -0.00996  -0.00200
 Alpha virt. eigenvalues --    0.00024   0.00083   0.00330   0.00475   0.00650

  Beta  occ. eigenvalues --  -38.45143 -38.44452 -38.44218 -38.43807 -38.43495
  Beta  occ. eigenvalues --  -38.43399 -38.42938  -2.21062  -2.20253  -2.20071
  Beta  occ. eigenvalues --   -2.19710  -2.19400  -2.19308  -2.18750  -1.14883
  Beta  occ. eigenvalues --   -1.14689  -1.14658  -1.13945  -1.13936  -1.13915
  Beta  occ. eigenvalues --   -1.13763  -1.13752  -1.13683  -1.13411  -1.13372
  Beta  occ. eigenvalues --   -1.13342  -1.13194  -1.13007  -1.12984  -1.12976
  Beta  occ. eigenvalues --   -1.12969  -1.12918  -1.12438  -1.12401  -1.12388
  Beta  occ. eigenvalues --   -0.17862  -0.14043  -0.11116
  Beta virt. eigenvalues --   -0.06739  -0.06427  -0.05305  -0.04317  -0.02840
  Beta virt. eigenvalues --   -0.02466  -0.01796  -0.01389  -0.01175  -0.00565
  Beta virt. eigenvalues --   -0.00016   0.00144   0.00182   0.00455   0.00584

 Mulliken charges and spin densities:
               1          2
     1  Na  -0.002024   0.438521
     2  Na   0.230849   0.130645
     3  Na  -0.004594  -0.022929
     4  Na   0.045010   0.105235
     5  Na   0.185426   0.025753
     6  Na  -0.877441   0.123968
     7  Na   0.422775   0.198807
 Sum of Mulliken charges =  -0.00000   1.00000

 Dipole moment (field-independent basis, Debye):
    X=              1.0604    Y=              0.3737    Z=              0.1225  Tot=              1.1309
 Quadrupole moment (field-independent basis, Debye-Ang):
   XX=            -58.0855   YY=            -69.4214   ZZ=            -69.1918
   XY=             -5.8216   XZ=              0.5378   YZ=              0.0507

 Normal termination of Gaussian 16 at Tue Dec  5 12:09:41 2023.
