 Gaussian 16, Revision B.01,
 Gaussian 16:  ES64L-G16RevB.01 20-Dec-2017

 -------------------------
 #P B3LYP/6-311+g(d) force
 -------------------------

 -----
 DPGEN
 -----
 Symbolic Z-matrix:
 Charge =  0 Multiplicity = 2

                         Standard orientation:
 ---------------------------------------------------------------------
 Center     Atomic      Atomic             Coordinates (Angstroms)
 Number     Number       Type             X           Y           Z
 ---------------------------------------------------------------------
      1         11           0        0.145228   -0.230901    1.629235
      2         11           0       -0.171965   -0.059457   -1.626076
      3         11           0       -2.814354   -1.445351    0.168628
      4         11           0        0.779572   -2.913276   -0.158100
      5         11           0        3.297276   -0.058322   -0.023068
      6         11           0        1.045372    2.752732    0.053827
      7         11           0       -2.281130    1.954575   -0.044445
 ---------------------------------------------------------------------

 SCF Done:  E(UB3LYP) =  -1136.13867734     A.U. after   21 cycles

 The electronic state is 2-A.
 Alpha  occ. eigenvalues --  -38.44345 -38.44008 -38.43689 -38.43581 -38.43382
 Alpha  occ. eigenvalues --  -38.42847 -38.42793  -2.20144  -2.19844  -2.19536
 Alpha  occ. eigenvalues --   -2.19451  -2.19238  -2.18831  -2.18787  -1.13820
 Alpha  occ. eigenvalues --   -1.13800  -1.13786  -1.13514  -1.13513  -1.13482
 Alpha  occ. eigenvalues --   -1.13227  -1.13213  -1.13151  -1.13138  -1.13112
 Alpha  occ. eigenvalues --   -1.13092  -1.12917  -1.12907  -1.12868  -1.12574
 Alpha  occ. eigenvalues --   -1.12459  -1.12453  -1.12436  -1.12408  -1.12396
 Alpha  occ. eigenvalues --   -0.18792  -0.13032  -0.12653  -0.10115
 Alpha virt. eigenvalues --   -0.05878  -0.05189  -0.04916  -0.02897  -0.02702
 Alpha virt. eigenvalues --   -0.01925  -0.01752  -0.01274  -0.00579  -0.00436
 Alpha virt. eigenvalues --    0.00041   0.00347   0.00792   0.00825   0.00888

  Beta  occ. eigenvalues --  -38.44343 -38.44002 -38.43682 -38.43576 -38.43377
  Beta  occ. eigenvalues --  -38.42776 -38.42718  -2.20144  -2.19835  -2.19525
  Beta  occ. eigenvalues --   -2.19444  -2.19232  -2.18700  -2.18651  -1.13802
  Beta  occ. eigenvalues --   -1.13801  -1.13787  -1.13510  -1.13480  -1.13480
  Beta  occ. eigenvalues --   -1.13222  -1.13176  -1.13148  -1.13132  -1.13096
  Beta  occ. eigenvalues --   -1.13078  -1.12914  -1.12880  -1.12865  -1.12482
  Beta  occ. eigenvalues --   -1.12366  -1.12356  -1.12339  -1.12307  -1.12300
  Beta  occ. eigenvalues --   -0.18085  -0.12795  -0.12390
  Beta virt. eigenvalues --   -0.06249  -0.05862  -0.05185  -0.04894  -0.02141
  Beta virt. eigenvalues --   -0.01929  -0.01667  -0.01198  -0.00933  -0.00641
  Beta virt. eigenvalues --   -0.00487   0.00178   0.00384   0.00817   0.00838

 Mulliken charges and spin densities:
               1          2
     1  Na  -0.357643   0.731061
     2  Na  -0.311823   0.702434
     3  Na   0.225548  -0.060999
     4  Na   0.090114  -0.146646
     5  Na   0.077576  -0.099972
     6  Na   0.072247  -0.093863
     7  Na   0.203980  -0.032016
 Sum of Mulliken charges =  -0.00000   1.00000

 Dipole moment (field-independent basis, Debye):
    X=              0.1624    Y=             -0.2160    Z=              0.0037  Tot=              0.2702
 Quadrupole moment (field-independent basis, Debye-Ang):
   XX=            -53.0990   YY=            -59.6483   ZZ=            -77.7518
   XY=              0.1843   XZ=             -0.7517   YZ=              0.3371

 Normal termination of Gaussian 16 at Fri Dec  8 05:50:55 2023.
