 Gaussian 16, Revision B.01,
 Gaussian 16:  ES64L-G16RevB.01 20-Dec-2017

 -------------------------
 #P B3LYP/6-311+g(d) force
 -------------------------

 -----
 DPGEN
 -----
 Symbolic Z-matrix:
 Charge =  0 Multiplicity = 2

                         Standard orientation:
 ---------------------------------------------------------------------
 Center     Atomic      Atomic             Coordinates (Angstroms)
 Number     Number       Type             X           Y           Z
 ---------------------------------------------------------------------
      1         11           0        0.799493    2.329090   -1.115062
      2         11           0       -0.248432   -0.865641   -1.901096
      3         11           0       -0.121843   -2.387935    1.435892
      4         11           0       -3.270013   -0.497563   -0.560762
      5         11           0        1.629122    0.883537    1.658661
      6         11           0       -1.600242    1.574915    1.200794
      7         11           0        2.811917   -1.036404   -0.718426
 ---------------------------------------------------------------------

 SCF Done:  E(UB3LYP) =  -1136.13216056     A.U. after   20 cycles

 The electronic state is 2-A.
 Alpha  occ. eigenvalues --  -38.44363 -38.43855 -38.43803 -38.43666 -38.43603
 Alpha  occ. eigenvalues --  -38.43555 -38.43219  -2.20157  -2.19703  -2.19633
 Alpha  occ. eigenvalues --   -2.19574  -2.19479  -2.19474  -2.19102  -1.13834
 Alpha  occ. eigenvalues --   -1.13801  -1.13774  -1.13409  -1.13389  -1.13325
 Alpha  occ. eigenvalues --   -1.13322  -1.13319  -1.13264  -1.13252  -1.13210
 Alpha  occ. eigenvalues --   -1.13198  -1.13183  -1.13159  -1.13143  -1.13105
 Alpha  occ. eigenvalues --   -1.13094  -1.13056  -1.12781  -1.12761  -1.12723
 Alpha  occ. eigenvalues --   -0.18572  -0.12915  -0.11979  -0.11829
 Alpha virt. eigenvalues --   -0.05707  -0.04666  -0.04431  -0.03515  -0.03427
 Alpha virt. eigenvalues --   -0.03117  -0.01355  -0.00696  -0.00570   0.00173
 Alpha virt. eigenvalues --    0.00273   0.00401   0.00451   0.00798   0.00895

  Beta  occ. eigenvalues --  -38.44315 -38.43850 -38.43802 -38.43607 -38.43574
  Beta  occ. eigenvalues --  -38.43516 -38.43203  -2.20068  -2.19696  -2.19633
  Beta  occ. eigenvalues --   -2.19467  -2.19427  -2.19404  -2.19073  -1.13766
  Beta  occ. eigenvalues --   -1.13738  -1.13714  -1.13387  -1.13384  -1.13320
  Beta  occ. eigenvalues --   -1.13310  -1.13308  -1.13261  -1.13186  -1.13159
  Beta  occ. eigenvalues --   -1.13134  -1.13114  -1.13100  -1.13092  -1.13061
  Beta  occ. eigenvalues --   -1.13051  -1.13004  -1.12756  -1.12731  -1.12707
  Beta  occ. eigenvalues --   -0.17755  -0.12766  -0.11653
  Beta virt. eigenvalues --   -0.07953  -0.05545  -0.04498  -0.03960  -0.03142
  Beta virt. eigenvalues --   -0.02895  -0.02129  -0.01295  -0.00623  -0.00275
  Beta virt. eigenvalues --    0.00235   0.00300   0.00460   0.00541   0.00908

 Mulliken charges and spin densities:
               1          2
     1  Na  -0.297394   0.143358
     2  Na   0.086028   0.341476
     3  Na  -0.527783   0.237273
     4  Na   0.134854  -0.116617
     5  Na   0.211413   0.321963
     6  Na   0.009701   0.144462
     7  Na   0.383181  -0.071915
 Sum of Mulliken charges =  -0.00000   1.00000

 Dipole moment (field-independent basis, Debye):
    X=              0.1138    Y=             -0.3144    Z=              0.0181  Tot=              0.3349
 Quadrupole moment (field-independent basis, Debye-Ang):
   XX=            -59.8710   YY=            -71.1199   ZZ=            -65.1285
   XY=              0.4149   XZ=             -0.7949   YZ=             -3.3827

 Normal termination of Gaussian 16 at Thu Dec  7 13:23:52 2023.
