 Gaussian 16, Revision B.01,
 Gaussian 16:  ES64L-G16RevB.01 20-Dec-2017

 -------------------------
 #P B3LYP/6-311+g(d) force
 -------------------------

 -----
 DPGEN
 -----
 Symbolic Z-matrix:
 Charge =  0 Multiplicity = 2

                         Standard orientation:
 ---------------------------------------------------------------------
 Center     Atomic      Atomic             Coordinates (Angstroms)
 Number     Number       Type             X           Y           Z
 ---------------------------------------------------------------------
      1         11           0        0.749579    2.553023    0.120903
      2         11           0       -2.690286    1.417033   -0.004600
      3         11           0        0.016916    0.143479   -1.658822
      4         11           0       -2.264048   -1.920341   -0.657700
      5         11           0        3.359059    0.152101   -0.356376
      6         11           0        1.321583   -2.269815    0.492166
      7         11           0       -0.492803   -0.075479    2.064429
 ---------------------------------------------------------------------

 SCF Done:  E(UB3LYP) =  -1136.13613180     A.U. after   19 cycles

 The electronic state is 2-A.
 Alpha  occ. eigenvalues --  -38.44248 -38.43907 -38.43729 -38.43529 -38.43426
 Alpha  occ. eigenvalues --  -38.43065 -38.42992  -2.20072  -2.19777  -2.19657
 Alpha  occ. eigenvalues --   -2.19430  -2.19392  -2.18950  -2.18877  -1.13742
 Alpha  occ. eigenvalues --   -1.13738  -1.13712  -1.13468  -1.13454  -1.13406
 Alpha  occ. eigenvalues --   -1.13329  -1.13280  -1.13271  -1.13152  -1.13131
 Alpha  occ. eigenvalues --   -1.13056  -1.13039  -1.13015  -1.13007  -1.12642
 Alpha  occ. eigenvalues --   -1.12610  -1.12576  -1.12570  -1.12546  -1.12476
 Alpha  occ. eigenvalues --   -0.18952  -0.13320  -0.12116  -0.11199
 Alpha virt. eigenvalues --   -0.05875  -0.04973  -0.04089  -0.03366  -0.02940
 Alpha virt. eigenvalues --   -0.02783  -0.01743  -0.00954  -0.00233  -0.00020
 Alpha virt. eigenvalues --    0.00095   0.00342   0.00774   0.00875   0.00941

  Beta  occ. eigenvalues --  -38.44246 -38.43900 -38.43631 -38.43510 -38.43365
  Beta  occ. eigenvalues --  -38.43053 -38.42986  -2.20071  -2.19769  -2.19478
  Beta  occ. eigenvalues --   -2.19361  -2.19319  -2.18930  -2.18871  -1.13742
  Beta  occ. eigenvalues --   -1.13726  -1.13711  -1.13459  -1.13428  -1.13397
  Beta  occ. eigenvalues --   -1.13210  -1.13158  -1.13143  -1.13096  -1.13056
  Beta  occ. eigenvalues --   -1.13016  -1.12991  -1.12983  -1.12940  -1.12623
  Beta  occ. eigenvalues --   -1.12574  -1.12570  -1.12562  -1.12521  -1.12470
  Beta  occ. eigenvalues --   -0.18214  -0.13071  -0.11845
  Beta virt. eigenvalues --   -0.07235  -0.05803  -0.04954  -0.04035  -0.02663
  Beta virt. eigenvalues --   -0.02134  -0.01717  -0.01652  -0.00891  -0.00172
  Beta virt. eigenvalues --    0.00010   0.00118   0.00375   0.00866   0.00898

 Mulliken charges and spin densities:
               1          2
     1  Na   0.111905  -0.030735
     2  Na   0.294926  -0.015563
     3  Na  -0.398690   0.432389
     4  Na   0.133160   0.046295
     5  Na  -0.013328  -0.061655
     6  Na   0.218087   0.052996
     7  Na  -0.346060   0.576273
 Sum of Mulliken charges =  -0.00000   1.00000

 Dipole moment (field-independent basis, Debye):
    X=             -0.0240    Y=              0.1018    Z=              0.0527  Tot=              0.1172
 Quadrupole moment (field-independent basis, Debye-Ang):
   XX=            -53.7856   YY=            -67.8738   ZZ=            -72.0537
   XY=              0.0774   XZ=              0.1964   YZ=              0.7994

 Normal termination of Gaussian 16 at Wed Dec  6 00:57:58 2023.
