 Gaussian 16, Revision B.01,
 Gaussian 16:  ES64L-G16RevB.01 20-Dec-2017

 -------------------------
 #P B3LYP/6-311+g(d) force
 -------------------------

 -----
 DPGEN
 -----
 Symbolic Z-matrix:
 Charge =  0 Multiplicity = 2

                         Standard orientation:
 ---------------------------------------------------------------------
 Center     Atomic      Atomic             Coordinates (Angstroms)
 Number     Number       Type             X           Y           Z
 ---------------------------------------------------------------------
      1         11           0       -0.492227   -2.624744   -1.150951
      2         11           0       -2.904319   -1.484411    1.150469
      3         11           0        3.102194    1.451423    0.824321
      4         11           0       -3.043814    1.831012   -1.130291
      5         11           0       -0.032576    2.714078   -0.447060
      6         11           0        0.300508   -0.487605    2.004107
      7         11           0        3.070233   -1.399752   -1.250594
 ---------------------------------------------------------------------

 SCF Done:  E(UB3LYP) =  -1136.12345694     A.U. after   20 cycles

 The electronic state is 2-A.
 Alpha  occ. eigenvalues --  -38.44667 -38.44498 -38.44422 -38.44380 -38.44147
 Alpha  occ. eigenvalues --  -38.43706 -38.43556  -2.20486  -2.20279  -2.20195
 Alpha  occ. eigenvalues --   -2.20180  -2.19958  -2.19502  -2.19353  -1.14159
 Alpha  occ. eigenvalues --   -1.14141  -1.14100  -1.13948  -1.13925  -1.13912
 Alpha  occ. eigenvalues --   -1.13876  -1.13862  -1.13856  -1.13843  -1.13819
 Alpha  occ. eigenvalues --   -1.13792  -1.13626  -1.13611  -1.13600  -1.13193
 Alpha  occ. eigenvalues --   -1.13159  -1.13132  -1.13032  -1.13024  -1.12971
 Alpha  occ. eigenvalues --   -0.17008  -0.13284  -0.12415  -0.11006
 Alpha virt. eigenvalues --   -0.06261  -0.05841  -0.04691  -0.03686  -0.03200
 Alpha virt. eigenvalues --   -0.02180  -0.01921  -0.01415  -0.00702  -0.00597
 Alpha virt. eigenvalues --   -0.00232   0.00143   0.00260   0.00352   0.00563

  Beta  occ. eigenvalues --  -38.44598 -38.44451 -38.44401 -38.44363 -38.44136
  Beta  occ. eigenvalues --  -38.43673 -38.43556  -2.20360  -2.20192  -2.20158
  Beta  occ. eigenvalues --   -2.20151  -2.19938  -2.19442  -2.19356  -1.14078
  Beta  occ. eigenvalues --   -1.14055  -1.14003  -1.13889  -1.13868  -1.13853
  Beta  occ. eigenvalues --   -1.13848  -1.13838  -1.13828  -1.13815  -1.13795
  Beta  occ. eigenvalues --   -1.13761  -1.13608  -1.13594  -1.13586  -1.13157
  Beta  occ. eigenvalues --   -1.13118  -1.13091  -1.13034  -1.13025  -1.12954
  Beta  occ. eigenvalues --   -0.16432  -0.13087  -0.11842
  Beta virt. eigenvalues --   -0.07585  -0.06152  -0.05561  -0.04078  -0.03466
  Beta virt. eigenvalues --   -0.02645  -0.01845  -0.01640  -0.01210  -0.00511
  Beta virt. eigenvalues --   -0.00388  -0.00160   0.00302   0.00394   0.00428

 Mulliken charges and spin densities:
               1          2
     1  Na  -0.264886   0.224403
     2  Na   0.413283   0.134419
     3  Na   0.272863   0.121902
     4  Na   0.209903   0.034814
     5  Na  -0.339640   0.098141
     6  Na  -0.422347   0.254139
     7  Na   0.130824   0.132182
 Sum of Mulliken charges =  -0.00000   1.00000

 Dipole moment (field-independent basis, Debye):
    X=              0.1591    Y=             -0.5818    Z=              0.2482  Tot=              0.6523
 Quadrupole moment (field-independent basis, Debye-Ang):
   XX=            -54.7506   YY=            -73.4938   ZZ=            -70.2420
   XY=              6.0279   XZ=             -0.3411   YZ=              1.6675

 Normal termination of Gaussian 16 at Sun Dec  3 23:55:18 2023.
