 Gaussian 16, Revision B.01,
 Gaussian 16:  ES64L-G16RevB.01 20-Dec-2017

 -------------------------
 #P B3LYP/6-311+g(d) force
 -------------------------

 -----
 DPGEN
 -----
 Symbolic Z-matrix:
 Charge =  0 Multiplicity = 2

                         Standard orientation:
 ---------------------------------------------------------------------
 Center     Atomic      Atomic             Coordinates (Angstroms)
 Number     Number       Type             X           Y           Z
 ---------------------------------------------------------------------
      1         11           0       -0.093607    1.038296    0.529299
      2         11           0        6.841233    0.372893    0.392880
      3         11           0        3.641374    0.048627   -0.416394
      4         11           0        0.779185   -2.032605   -0.105861
      5         11           0       -2.685713   -0.994560   -0.854102
      6         11           0       -3.249740    2.260861   -0.482496
      7         11           0       -5.232732   -0.693511    0.936674
 ---------------------------------------------------------------------

 SCF Done:  E(UB3LYP) =  -1136.11756538     A.U. after   20 cycles

 The electronic state is 2-A.
 Alpha  occ. eigenvalues --  -38.44829 -38.44823 -38.44677 -38.44676 -38.44041
 Alpha  occ. eigenvalues --  -38.43125 -38.43075  -2.20676  -2.20646  -2.20579
 Alpha  occ. eigenvalues --   -2.20534  -2.19888  -2.18886  -2.18884  -1.14379
 Alpha  occ. eigenvalues --   -1.14371  -1.14336  -1.14294  -1.14290  -1.14262
 Alpha  occ. eigenvalues --   -1.14245  -1.14238  -1.14215  -1.14194  -1.14155
 Alpha  occ. eigenvalues --   -1.14145  -1.13553  -1.13533  -1.13523  -1.12585
 Alpha  occ. eigenvalues --   -1.12577  -1.12560  -1.12551  -1.12549  -1.12452
 Alpha  occ. eigenvalues --   -0.17610  -0.14131  -0.11759  -0.11198
 Alpha virt. eigenvalues --   -0.06732  -0.05736  -0.04865  -0.03376  -0.02901
 Alpha virt. eigenvalues --   -0.02704  -0.01966  -0.01448  -0.01036  -0.00762
 Alpha virt. eigenvalues --   -0.00628  -0.00322   0.00190   0.00342   0.00492

  Beta  occ. eigenvalues --  -38.44772 -38.44760 -38.44648 -38.44642 -38.44016
  Beta  occ. eigenvalues --  -38.43141 -38.43070  -2.20554  -2.20549  -2.20529
  Beta  occ. eigenvalues --   -2.20476  -2.19841  -2.18913  -2.18875  -1.14318
  Beta  occ. eigenvalues --   -1.14293  -1.14252  -1.14231  -1.14215  -1.14205
  Beta  occ. eigenvalues --   -1.14183  -1.14177  -1.14168  -1.14150  -1.14100
  Beta  occ. eigenvalues --   -1.14084  -1.13522  -1.13497  -1.13491  -1.12583
  Beta  occ. eigenvalues --   -1.12579  -1.12573  -1.12566  -1.12556  -1.12460
  Beta  occ. eigenvalues --   -0.16855  -0.13949  -0.11190
  Beta virt. eigenvalues --   -0.07719  -0.06449  -0.05398  -0.04498  -0.02887
  Beta virt. eigenvalues --   -0.02737  -0.02257  -0.01611  -0.01007  -0.00962
  Beta virt. eigenvalues --   -0.00660  -0.00362  -0.00160   0.00355   0.00440

 Mulliken charges and spin densities:
               1          2
     1  Na  -0.323439   0.313199
     2  Na   0.192387  -0.057342
     3  Na  -0.579438  -0.088730
     4  Na   0.290679   0.122189
     5  Na  -0.359021   0.426513
     6  Na   0.445943   0.244740
     7  Na   0.332889   0.039432
 Sum of Mulliken charges =  -0.00000   1.00000

 Dipole moment (field-independent basis, Debye):
    X=             -3.4211    Y=             -0.0526    Z=              0.4112  Tot=              3.4461
 Quadrupole moment (field-independent basis, Debye-Ang):
   XX=            -70.0305   YY=            -66.8373   ZZ=            -68.3303
   XY=             -3.2028   XZ=             -0.5520   YZ=              0.4045

 Normal termination of Gaussian 16 at Tue Nov 28 19:04:38 2023.
