 Gaussian 16, Revision B.01,
 Gaussian 16:  ES64L-G16RevB.01 20-Dec-2017

 -------------------------
 #P B3LYP/6-311+g(d) force
 -------------------------

 -----
 DPGEN
 -----
 Symbolic Z-matrix:
 Charge =  0 Multiplicity = 2

                         Standard orientation:
 ---------------------------------------------------------------------
 Center     Atomic      Atomic             Coordinates (Angstroms)
 Number     Number       Type             X           Y           Z
 ---------------------------------------------------------------------
      1         11           0       -0.228244    0.311521    2.238624
      2         11           0       -2.784644   -1.202058   -0.207438
      3         11           0       -1.965066    1.992270   -0.391311
      4         11           0        3.363962   -0.958083   -0.095643
      5         11           0        0.334729   -0.019319   -1.797983
      6         11           0       -0.087395   -2.777120    0.178024
      7         11           0        1.366659    2.652789    0.075728
 ---------------------------------------------------------------------

 SCF Done:  E(UB3LYP) =  -1136.13634301     A.U. after   19 cycles

 The electronic state is 2-A.
 Alpha  occ. eigenvalues --  -38.44205 -38.44071 -38.43721 -38.43559 -38.43493
 Alpha  occ. eigenvalues --  -38.43447 -38.43356  -2.19964  -2.19929  -2.19554
 Alpha  occ. eigenvalues --   -2.19486  -2.19369  -2.19305  -2.19246  -1.13642
 Alpha  occ. eigenvalues --   -1.13614  -1.13610  -1.13583  -1.13559  -1.13549
 Alpha  occ. eigenvalues --   -1.13249  -1.13225  -1.13184  -1.13174  -1.13134
 Alpha  occ. eigenvalues --   -1.13110  -1.13095  -1.13044  -1.13018  -1.12969
 Alpha  occ. eigenvalues --   -1.12963  -1.12915  -1.12904  -1.12899  -1.12866
 Alpha  occ. eigenvalues --   -0.18508  -0.12701  -0.12476  -0.11124
 Alpha virt. eigenvalues --   -0.05755  -0.05082  -0.04525  -0.03234  -0.03093
 Alpha virt. eigenvalues --   -0.02943  -0.01537  -0.01090  -0.00273  -0.00209
 Alpha virt. eigenvalues --   -0.00084   0.00352   0.00779   0.00861   0.00925

  Beta  occ. eigenvalues --  -38.44209 -38.43969 -38.43717 -38.43496 -38.43489
  Beta  occ. eigenvalues --  -38.43441 -38.43343  -2.19971  -2.19740  -2.19549
  Beta  occ. eigenvalues --   -2.19371  -2.19363  -2.19297  -2.19228  -1.13637
  Beta  occ. eigenvalues --   -1.13621  -1.13616  -1.13459  -1.13428  -1.13413
  Beta  occ. eigenvalues --   -1.13239  -1.13199  -1.13185  -1.13116  -1.13093
  Beta  occ. eigenvalues --   -1.13053  -1.13046  -1.13015  -1.12989  -1.12956
  Beta  occ. eigenvalues --   -1.12939  -1.12902  -1.12898  -1.12868  -1.12851
  Beta  occ. eigenvalues --   -0.17741  -0.12494  -0.12276
  Beta virt. eigenvalues --   -0.07148  -0.05743  -0.04995  -0.04477  -0.02425
  Beta virt. eigenvalues --   -0.02364  -0.01900  -0.01444  -0.01019  -0.00322
  Beta virt. eigenvalues --   -0.00246   0.00081   0.00379   0.00839   0.00873

 Mulliken charges and spin densities:
               1          2
     1  Na  -0.555674   0.678336
     2  Na   0.110958   0.001526
     3  Na   0.367047   0.068189
     4  Na   0.018153  -0.110744
     5  Na  -0.175495   0.439716
     6  Na   0.078014  -0.010775
     7  Na   0.156997  -0.066247
 Sum of Mulliken charges =  -0.00000   1.00000

 Dipole moment (field-independent basis, Debye):
    X=              0.3676    Y=              0.1132    Z=              0.1852  Tot=              0.4269
 Quadrupole moment (field-independent basis, Debye-Ang):
   XX=            -58.3602   YY=            -64.4085   ZZ=            -72.0987
   XY=              0.3130   XZ=              1.3309   YZ=             -0.6261

 Normal termination of Gaussian 16 at Tue Dec  5 23:12:15 2023.
