 Gaussian 16, Revision B.01,
 Gaussian 16:  ES64L-G16RevB.01 20-Dec-2017

 -------------------------
 #P B3LYP/6-311+g(d) force
 -------------------------

 -----
 DPGEN
 -----
 Symbolic Z-matrix:
 Charge =  0 Multiplicity = 2

                         Standard orientation:
 ---------------------------------------------------------------------
 Center     Atomic      Atomic             Coordinates (Angstroms)
 Number     Number       Type             X           Y           Z
 ---------------------------------------------------------------------
      1         11           0       -0.006302    0.247006    1.858254
      2         11           0        0.005801    0.127706   -1.851876
      3         11           0        2.400797   -0.903833   -0.004276
      4         11           0       -1.378935    1.554170   -0.039576
      5         11           0        1.385565    1.551741   -0.029576
      6         11           0       -0.001953   -1.678434    0.075024
      7         11           0       -2.404973   -0.898356   -0.007976
 ---------------------------------------------------------------------

 SCF Done:  E(UB3LYP) =  -1136.02680836     A.U. after   23 cycles

 The electronic state is 2-A.
 Alpha  occ. eigenvalues --  -38.45305 -38.45257 -38.44534 -38.44530 -38.44394
 Alpha  occ. eigenvalues --  -38.43930 -38.43929  -2.21633  -2.21591  -2.20888
 Alpha  occ. eigenvalues --   -2.20699  -2.20640  -2.20267  -2.20213  -1.15629
 Alpha  occ. eigenvalues --   -1.15469  -1.15395  -1.15348  -1.15344  -1.15225
 Alpha  occ. eigenvalues --   -1.15130  -1.14641  -1.14541  -1.14534  -1.14368
 Alpha  occ. eigenvalues --   -1.14230  -1.14194  -1.14181  -1.14084  -1.13848
 Alpha  occ. eigenvalues --   -1.13838  -1.13825  -1.13769  -1.13721  -1.13570
 Alpha  occ. eigenvalues --   -0.22674  -0.14380  -0.13115  -0.12646
 Alpha virt. eigenvalues --   -0.05387  -0.04155  -0.03954  -0.03886  -0.03236
 Alpha virt. eigenvalues --   -0.02905  -0.01126  -0.00260  -0.00208   0.00287
 Alpha virt. eigenvalues --    0.00855   0.01008   0.01119   0.01170   0.01283

  Beta  occ. eigenvalues --  -38.45198 -38.45150 -38.44525 -38.44520 -38.44366
  Beta  occ. eigenvalues --  -38.43910 -38.43909  -2.21443  -2.21400  -2.20856
  Beta  occ. eigenvalues --   -2.20688  -2.20623  -2.20241  -2.20187  -1.15533
  Beta  occ. eigenvalues --   -1.15345  -1.15300  -1.15259  -1.15210  -1.15085
  Beta  occ. eigenvalues --   -1.15032  -1.14622  -1.14536  -1.14531  -1.14266
  Beta  occ. eigenvalues --   -1.14179  -1.14172  -1.14099  -1.14070  -1.13830
  Beta  occ. eigenvalues --   -1.13760  -1.13749  -1.13726  -1.13713  -1.13562
  Beta  occ. eigenvalues --   -0.21770  -0.13944  -0.12250
  Beta virt. eigenvalues --   -0.08791  -0.05418  -0.03943  -0.03630  -0.03102
  Beta virt. eigenvalues --   -0.02283  -0.02058  -0.01039  -0.00237  -0.00032
  Beta virt. eigenvalues --    0.00314   0.00898   0.01013   0.01134   0.01223

 Mulliken charges and spin densities:
               1          2
     1  Na   0.257701   0.529331
     2  Na   0.260175   0.531485
     3  Na  -0.193407  -0.035407
     4  Na  -0.099257  -0.031916
     5  Na  -0.098000  -0.031155
     6  Na   0.070994   0.073514
     7  Na  -0.198206  -0.035852
 Sum of Mulliken charges =  -0.00000   1.00000

 Dipole moment (field-independent basis, Debye):
    X=             -0.0022    Y=              0.0398    Z=             -0.0005  Tot=              0.0399
 Quadrupole moment (field-independent basis, Debye-Ang):
   XX=            -59.6475   YY=            -74.5790   ZZ=            -65.4687
   XY=              0.0053   XZ=              0.0175   YZ=             -0.1827

 Normal termination of Gaussian 16 at Fri Dec  8 06:19:16 2023.
