 Gaussian 16, Revision B.01,
 Gaussian 16:  ES64L-G16RevB.01 20-Dec-2017

 -------------------------
 #P B3LYP/6-311+g(d) force
 -------------------------

 -----
 DPGEN
 -----
 Symbolic Z-matrix:
 Charge =  0 Multiplicity = 2

                         Standard orientation:
 ---------------------------------------------------------------------
 Center     Atomic      Atomic             Coordinates (Angstroms)
 Number     Number       Type             X           Y           Z
 ---------------------------------------------------------------------
      1         11           0       -2.652289   -2.099830   -0.405177
      2         11           0        3.327311    0.002503   -0.651141
      3         11           0        1.839285   -2.512701    0.518484
      4         11           0       -0.410900   -0.094737   -1.556074
      5         11           0        0.995298    3.143760    0.062119
      6         11           0       -0.326831    0.082980    2.073136
      7         11           0       -2.771874    1.478024   -0.041347
 ---------------------------------------------------------------------

 SCF Done:  E(UB3LYP) =  -1136.12957121     A.U. after   20 cycles

 The electronic state is 2-A.
 Alpha  occ. eigenvalues --  -38.44558 -38.44171 -38.44082 -38.43711 -38.43655
 Alpha  occ. eigenvalues --  -38.43633 -38.43572  -2.20395  -2.19981  -2.19898
 Alpha  occ. eigenvalues --   -2.19581  -2.19571  -2.19454  -2.19332  -1.14100
 Alpha  occ. eigenvalues --   -1.14070  -1.13998  -1.13664  -1.13649  -1.13613
 Alpha  occ. eigenvalues --   -1.13597  -1.13544  -1.13534  -1.13281  -1.13230
 Alpha  occ. eigenvalues --   -1.13226  -1.13205  -1.13193  -1.13180  -1.13118
 Alpha  occ. eigenvalues --   -1.13110  -1.13096  -1.13013  -1.12992  -1.12974
 Alpha  occ. eigenvalues --   -0.18004  -0.13309  -0.11848  -0.10627
 Alpha virt. eigenvalues --   -0.05942  -0.05587  -0.04755  -0.03283  -0.02708
 Alpha virt. eigenvalues --   -0.02522  -0.01780  -0.01386  -0.00720  -0.00450
 Alpha virt. eigenvalues --   -0.00060   0.00315   0.00695   0.00737   0.00746

  Beta  occ. eigenvalues --  -38.44551 -38.44160 -38.44073 -38.43625 -38.43610
  Beta  occ. eigenvalues --  -38.43607 -38.43576  -2.20385  -2.19960  -2.19884
  Beta  occ. eigenvalues --   -2.19494  -2.19442  -2.19386  -2.19340  -1.14089
  Beta  occ. eigenvalues --   -1.14047  -1.13990  -1.13652  -1.13625  -1.13600
  Beta  occ. eigenvalues --   -1.13580  -1.13533  -1.13518  -1.13212  -1.13168
  Beta  occ. eigenvalues --   -1.13128  -1.13116  -1.13108  -1.13091  -1.13086
  Beta  occ. eigenvalues --   -1.13073  -1.13041  -1.13012  -1.12996  -1.12977
  Beta  occ. eigenvalues --   -0.17310  -0.13078  -0.11651
  Beta virt. eigenvalues --   -0.06807  -0.05895  -0.05449  -0.04607  -0.02642
  Beta virt. eigenvalues --   -0.02047  -0.01672  -0.01535  -0.01349  -0.00679
  Beta virt. eigenvalues --   -0.00450   0.00094   0.00370   0.00751   0.00802

 Mulliken charges and spin densities:
               1          2
     1  Na   0.134540   0.006824
     2  Na  -0.010810   0.028002
     3  Na  -0.035334   0.058362
     4  Na   0.093868   0.311222
     5  Na  -0.233367  -0.049193
     6  Na  -0.112882   0.690095
     7  Na   0.163985  -0.045313
 Sum of Mulliken charges =  -0.00000   1.00000

 Dipole moment (field-independent basis, Debye):
    X=             -0.5382    Y=             -0.0253    Z=              0.0223  Tot=              0.5392
 Quadrupole moment (field-independent basis, Debye-Ang):
   XX=            -55.5580   YY=            -63.2390   ZZ=            -75.1005
   XY=              0.5495   XZ=             -0.9602   YZ=             -0.6653

 Normal termination of Gaussian 16 at Tue Dec  5 16:55:17 2023.
