 Gaussian 16, Revision B.01,
 Gaussian 16:  ES64L-G16RevB.01 20-Dec-2017

 -------------------------
 #P B3LYP/6-311+g(d) force
 -------------------------

 -----
 DPGEN
 -----
 Symbolic Z-matrix:
 Charge =  0 Multiplicity = 2

                         Standard orientation:
 ---------------------------------------------------------------------
 Center     Atomic      Atomic             Coordinates (Angstroms)
 Number     Number       Type             X           Y           Z
 ---------------------------------------------------------------------
      1         11           0       -2.516736    1.305589   -0.007270
      2         11           0        1.675537   -2.447432    0.075335
      3         11           0       -2.367637   -1.929887   -0.281268
      4         11           0       -0.163857   -0.456412    2.049335
      5         11           0        3.109047    0.581680   -0.192573
      6         11           0       -0.040790   -0.107314   -1.808703
      7         11           0        0.304436    3.053776    0.165144
 ---------------------------------------------------------------------

 SCF Done:  E(UB3LYP) =  -1136.13863791     A.U. after   19 cycles

 The electronic state is 2-A.
 Alpha  occ. eigenvalues --  -38.44063 -38.43728 -38.43638 -38.43608 -38.43520
 Alpha  occ. eigenvalues --  -38.43500 -38.43256  -2.19875  -2.19618  -2.19506
 Alpha  occ. eigenvalues --   -2.19464  -2.19440  -2.19418  -2.19073  -1.13551
 Alpha  occ. eigenvalues --   -1.13537  -1.13518  -1.13294  -1.13264  -1.13244
 Alpha  occ. eigenvalues --   -1.13220  -1.13179  -1.13152  -1.13140  -1.13131
 Alpha  occ. eigenvalues --   -1.13127  -1.13089  -1.13086  -1.13080  -1.13051
 Alpha  occ. eigenvalues --   -1.13044  -1.13036  -1.12739  -1.12736  -1.12719
 Alpha  occ. eigenvalues --   -0.18638  -0.13121  -0.12358  -0.10937
 Alpha virt. eigenvalues --   -0.05539  -0.05129  -0.04764  -0.03330  -0.02938
 Alpha virt. eigenvalues --   -0.02713  -0.01416  -0.01069  -0.00397  -0.00249
 Alpha virt. eigenvalues --   -0.00037   0.00373   0.00801   0.00877   0.00912

  Beta  occ. eigenvalues --  -38.44061 -38.43636 -38.43629 -38.43602 -38.43514
  Beta  occ. eigenvalues --  -38.43427 -38.43256  -2.19873  -2.19494  -2.19457
  Beta  occ. eigenvalues --   -2.19448  -2.19410  -2.19307  -2.19074  -1.13541
  Beta  occ. eigenvalues --   -1.13529  -1.13521  -1.13223  -1.13191  -1.13158
  Beta  occ. eigenvalues --   -1.13152  -1.13136  -1.13122  -1.13104  -1.13101
  Beta  occ. eigenvalues --   -1.13093  -1.13077  -1.13046  -1.13035  -1.13016
  Beta  occ. eigenvalues --   -1.12967  -1.12952  -1.12738  -1.12728  -1.12718
  Beta  occ. eigenvalues --   -0.17890  -0.12884  -0.12138
  Beta virt. eigenvalues --   -0.07012  -0.05512  -0.05117  -0.04682  -0.02510
  Beta virt. eigenvalues --   -0.02181  -0.01676  -0.01325  -0.00997  -0.00451
  Beta virt. eigenvalues --   -0.00304   0.00114   0.00400   0.00852   0.00893

 Mulliken charges and spin densities:
               1          2
     1  Na   0.122302   0.013310
     2  Na   0.210831  -0.104857
     3  Na   0.415675  -0.048278
     4  Na  -0.390967   0.728738
     5  Na  -0.036668  -0.069785
     6  Na  -0.175855   0.560749
     7  Na  -0.145318  -0.079878
 Sum of Mulliken charges =  -0.00000   1.00000

 Dipole moment (field-independent basis, Debye):
    X=              0.1837    Y=             -0.2456    Z=              0.0589  Tot=              0.3123
 Quadrupole moment (field-independent basis, Debye-Ang):
   XX=            -58.3635   YY=            -63.0795   ZZ=            -73.2392
   XY=              1.0457   XZ=              0.1356   YZ=              0.8077

 Normal termination of Gaussian 16 at Tue Dec  5 10:24:09 2023.
