 Gaussian 16, Revision B.01,
 Gaussian 16:  ES64L-G16RevB.01 20-Dec-2017

 -------------------------
 #P B3LYP/6-311+g(d) force
 -------------------------

 -----
 DPGEN
 -----
 Symbolic Z-matrix:
 Charge =  0 Multiplicity = 2

                         Standard orientation:
 ---------------------------------------------------------------------
 Center     Atomic      Atomic             Coordinates (Angstroms)
 Number     Number       Type             X           Y           Z
 ---------------------------------------------------------------------
      1         11           0       -0.002645    2.289671    1.167906
      2         11           0       -1.532999    1.815837   -1.529882
      3         11           0        3.702298    0.037009   -0.626560
      4         11           0        1.044008   -0.216485   -0.636611
      5         11           0       -1.351607   -2.223699   -1.472853
      6         11           0       -2.349426   -0.249290    1.009849
      7         11           0        0.490371   -1.453041    2.088151
 ---------------------------------------------------------------------

 SCF Done:  E(UB3LYP) =  -1136.11775865     A.U. after   21 cycles

 The electronic state is 2-A.
 Alpha  occ. eigenvalues --  -38.44470 -38.44443 -38.43768 -38.43742 -38.43519
 Alpha  occ. eigenvalues --  -38.43387 -38.42635  -2.20354  -2.20291  -2.19702
 Alpha  occ. eigenvalues --   -2.19596  -2.19415  -2.19289  -2.18778  -1.14139
 Alpha  occ. eigenvalues --   -1.14069  -1.13993  -1.13944  -1.13890  -1.13885
 Alpha  occ. eigenvalues --   -1.13403  -1.13385  -1.13324  -1.13289  -1.13224
 Alpha  occ. eigenvalues --   -1.13200  -1.13123  -1.13072  -1.13047  -1.12974
 Alpha  occ. eigenvalues --   -1.12927  -1.12883  -1.12473  -1.12435  -1.12362
 Alpha  occ. eigenvalues --   -0.19072  -0.12726  -0.12122  -0.11849
 Alpha virt. eigenvalues --   -0.05725  -0.04544  -0.04225  -0.03276  -0.03122
 Alpha virt. eigenvalues --   -0.02903  -0.01469  -0.00787  -0.00649   0.00249
 Alpha virt. eigenvalues --    0.00345   0.00450   0.00526   0.00868   0.00916

  Beta  occ. eigenvalues --  -38.44436 -38.44402 -38.43747 -38.43701 -38.43492
  Beta  occ. eigenvalues --  -38.43364 -38.42609  -2.20279  -2.20231  -2.19670
  Beta  occ. eigenvalues --   -2.19523  -2.19366  -2.19250  -2.18736  -1.14127
  Beta  occ. eigenvalues --   -1.13989  -1.13891  -1.13879  -1.13877  -1.13862
  Beta  occ. eigenvalues --   -1.13372  -1.13330  -1.13308  -1.13232  -1.13175
  Beta  occ. eigenvalues --   -1.13148  -1.13096  -1.13030  -1.13009  -1.12946
  Beta  occ. eigenvalues --   -1.12884  -1.12855  -1.12432  -1.12377  -1.12338
  Beta  occ. eigenvalues --   -0.18207  -0.12515  -0.11694
  Beta virt. eigenvalues --   -0.08045  -0.05518  -0.04131  -0.03947  -0.02854
  Beta virt. eigenvalues --   -0.02730  -0.01992  -0.01407  -0.00643  -0.00369
  Beta virt. eigenvalues --    0.00320   0.00429   0.00529   0.00585   0.00915

 Mulliken charges and spin densities:
               1          2
     1  Na   0.106726   0.264033
     2  Na  -0.049409   0.273094
     3  Na   0.044981  -0.227087
     4  Na  -0.602701  -0.140337
     5  Na   0.284691   0.278068
     6  Na   0.362564   0.092491
     7  Na  -0.146853   0.459739
 Sum of Mulliken charges =  -0.00000   1.00000

 Dipole moment (field-independent basis, Debye):
    X=             -0.1829    Y=             -0.0982    Z=              0.2744  Tot=              0.3441
 Quadrupole moment (field-independent basis, Debye-Ang):
   XX=            -60.5740   YY=            -70.7065   ZZ=            -61.8961
   XY=              0.5974   XZ=              1.7185   YZ=              0.6823

 Normal termination of Gaussian 16 at Fri Dec  8 19:57:55 2023.
