 Gaussian 16, Revision B.01,
 Gaussian 16:  ES64L-G16RevB.01 20-Dec-2017

 -------------------------
 #P B3LYP/6-311+g(d) force
 -------------------------

 -----
 DPGEN
 -----
 Symbolic Z-matrix:
 Charge =  0 Multiplicity = 2

                         Standard orientation:
 ---------------------------------------------------------------------
 Center     Atomic      Atomic             Coordinates (Angstroms)
 Number     Number       Type             X           Y           Z
 ---------------------------------------------------------------------
      1         11           0       -0.071153   -0.039471    1.874503
      2         11           0        2.533397    1.690188    0.296277
      3         11           0       -0.869219    2.605405   -0.090176
      4         11           0        2.466905   -1.702167   -0.475198
      5         11           0       -0.098608    0.004064   -1.840146
      6         11           0       -0.722288   -2.426181    0.419411
      7         11           0       -3.239035   -0.131838   -0.184671
 ---------------------------------------------------------------------

 SCF Done:  E(UB3LYP) =  -1136.13635148     A.U. after   19 cycles

 The electronic state is 2-A.
 Alpha  occ. eigenvalues --  -38.44129 -38.43695 -38.43632 -38.43519 -38.43507
 Alpha  occ. eigenvalues --  -38.43157 -38.43054  -2.19957  -2.19619  -2.19532
 Alpha  occ. eigenvalues --   -2.19473  -2.19381  -2.19037  -2.19008  -1.13631
 Alpha  occ. eigenvalues --   -1.13611  -1.13604  -1.13388  -1.13271  -1.13225
 Alpha  occ. eigenvalues --   -1.13198  -1.13184  -1.13174  -1.13156  -1.13139
 Alpha  occ. eigenvalues --   -1.13095  -1.13035  -1.13028  -1.13019  -1.12726
 Alpha  occ. eigenvalues --   -1.12714  -1.12703  -1.12650  -1.12643  -1.12592
 Alpha  occ. eigenvalues --   -0.19074  -0.13052  -0.12452  -0.11125
 Alpha virt. eigenvalues --   -0.05671  -0.04906  -0.04287  -0.03279  -0.03036
 Alpha virt. eigenvalues --   -0.02725  -0.01654  -0.00941  -0.00129  -0.00047
 Alpha virt. eigenvalues --    0.00096   0.00349   0.00827   0.00917   0.00950

  Beta  occ. eigenvalues --  -38.44127 -38.43691 -38.43544 -38.43509 -38.43429
  Beta  occ. eigenvalues --  -38.43151 -38.43038  -2.19955  -2.19526  -2.19459
  Beta  occ. eigenvalues --   -2.19365  -2.19331  -2.19030  -2.18983  -1.13622
  Beta  occ. eigenvalues --   -1.13607  -1.13596  -1.13281  -1.13212  -1.13180
  Beta  occ. eigenvalues --   -1.13175  -1.13140  -1.13093  -1.13076  -1.13052
  Beta  occ. eigenvalues --   -1.13018  -1.13012  -1.13006  -1.12961  -1.12719
  Beta  occ. eigenvalues --   -1.12685  -1.12674  -1.12637  -1.12604  -1.12579
  Beta  occ. eigenvalues --   -0.18326  -0.12802  -0.12160
  Beta virt. eigenvalues --   -0.07179  -0.05638  -0.04889  -0.04272  -0.02511
  Beta virt. eigenvalues --   -0.02199  -0.01658  -0.01564  -0.00870  -0.00118
  Beta virt. eigenvalues --   -0.00044   0.00130   0.00367   0.00889   0.00908

 Mulliken charges and spin densities:
               1          2
     1  Na  -0.271436   0.558974
     2  Na   0.020347  -0.058688
     3  Na   0.051820  -0.110171
     4  Na   0.070615  -0.001517
     5  Na  -0.348138   0.675022
     6  Na   0.420855   0.033884
     7  Na   0.055937  -0.097504
 Sum of Mulliken charges =  -0.00000   1.00000

 Dipole moment (field-independent basis, Debye):
    X=             -0.1352    Y=              0.1469    Z=             -0.1037  Tot=              0.2250
 Quadrupole moment (field-independent basis, Debye-Ang):
   XX=            -54.8373   YY=            -66.2241   ZZ=            -72.5762
   XY=             -0.0794   XZ=              0.1498   YZ=              0.6299

 Normal termination of Gaussian 16 at Thu Dec  7 19:01:13 2023.
