 Gaussian 16, Revision B.01,
 Gaussian 16:  ES64L-G16RevB.01 20-Dec-2017

 -------------------------
 #P B3LYP/6-311+g(d) force
 -------------------------

 -----
 DPGEN
 -----
 Symbolic Z-matrix:
 Charge =  0 Multiplicity = 2

                         Standard orientation:
 ---------------------------------------------------------------------
 Center     Atomic      Atomic             Coordinates (Angstroms)
 Number     Number       Type             X           Y           Z
 ---------------------------------------------------------------------
      1         11           0        2.961847    0.114316   -0.228898
      2         11           0        1.150903    2.638528   -0.109268
      3         11           0        0.157047    0.060803    2.221005
      4         11           0        1.041793   -2.831896   -0.035119
      5         11           0       -2.347497    2.049273   -0.305324
      6         11           0       -0.070372   -0.531685   -1.660619
      7         11           0       -2.893722   -1.499339    0.118224
 ---------------------------------------------------------------------

 SCF Done:  E(UB3LYP) =  -1136.13573838     A.U. after   18 cycles

 The electronic state is 2-A.
 Alpha  occ. eigenvalues --  -38.44258 -38.43898 -38.43833 -38.43768 -38.43625
 Alpha  occ. eigenvalues --  -38.43344 -38.43200  -2.20046  -2.19750  -2.19653
 Alpha  occ. eigenvalues --   -2.19635  -2.19483  -2.19304  -2.19069  -1.13724
 Alpha  occ. eigenvalues --   -1.13706  -1.13684  -1.13408  -1.13377  -1.13373
 Alpha  occ. eigenvalues --   -1.13355  -1.13313  -1.13309  -1.13301  -1.13295
 Alpha  occ. eigenvalues --   -1.13273  -1.13245  -1.13132  -1.13099  -1.12970
 Alpha  occ. eigenvalues --   -1.12927  -1.12914  -1.12741  -1.12724  -1.12712
 Alpha  occ. eigenvalues --   -0.18477  -0.12918  -0.12459  -0.10874
 Alpha virt. eigenvalues --   -0.05754  -0.05178  -0.04681  -0.03186  -0.03018
 Alpha virt. eigenvalues --   -0.02754  -0.01467  -0.01163  -0.00453  -0.00316
 Alpha virt. eigenvalues --   -0.00039   0.00359   0.00795   0.00842   0.00902

  Beta  occ. eigenvalues --  -38.44258 -38.43829 -38.43793 -38.43761 -38.43620
  Beta  occ. eigenvalues --  -38.43288 -38.43196  -2.20047  -2.19643  -2.19630
  Beta  occ. eigenvalues --   -2.19555  -2.19477  -2.19202  -2.19064  -1.13715
  Beta  occ. eigenvalues --   -1.13703  -1.13687  -1.13354  -1.13304  -1.13300
  Beta  occ. eigenvalues --   -1.13289  -1.13281  -1.13273  -1.13267  -1.13238
  Beta  occ. eigenvalues --   -1.13230  -1.13226  -1.13111  -1.13095  -1.12904
  Beta  occ. eigenvalues --   -1.12857  -1.12840  -1.12740  -1.12713  -1.12694
  Beta  occ. eigenvalues --   -0.17743  -0.12721  -0.12244
  Beta virt. eigenvalues --   -0.06918  -0.05747  -0.05123  -0.04622  -0.02434
  Beta virt. eigenvalues --   -0.02226  -0.01686  -0.01376  -0.01095  -0.00505
  Beta virt. eigenvalues --   -0.00361   0.00123   0.00392   0.00817   0.00897

 Mulliken charges and spin densities:
               1          2
     1  Na   0.316742   0.034418
     2  Na   0.038590   0.001024
     3  Na  -0.586869   0.765829
     4  Na   0.295624  -0.033706
     5  Na   0.014162  -0.043225
     6  Na  -0.130791   0.337538
     7  Na   0.052541  -0.061878
 Sum of Mulliken charges =  -0.00000   1.00000

 Dipole moment (field-independent basis, Debye):
    X=             -0.3214    Y=             -0.2933    Z=              0.1737  Tot=              0.4685
 Quadrupole moment (field-independent basis, Debye-Ang):
   XX=            -58.1419   YY=            -62.6227   ZZ=            -73.7400
   XY=              0.0219   XZ=             -0.5654   YZ=             -1.4280

 Normal termination of Gaussian 16 at Thu Dec  7 16:28:37 2023.
