 Gaussian 16, Revision B.01,
 Gaussian 16:  ES64L-G16RevB.01 20-Dec-2017

 -------------------------
 #P B3LYP/6-311+g(d) force
 -------------------------

 -----
 DPGEN
 -----
 Symbolic Z-matrix:
 Charge =  0 Multiplicity = 2

                         Standard orientation:
 ---------------------------------------------------------------------
 Center     Atomic      Atomic             Coordinates (Angstroms)
 Number     Number       Type             X           Y           Z
 ---------------------------------------------------------------------
      1         11           0       -3.968914   -0.570632   -0.357046
      2         11           0        2.605852   -1.814205   -0.055418
      3         11           0        2.947526    1.335088   -0.934344
      4         11           0        0.775257    0.511966    2.211607
      5         11           0       -1.292143    2.921791    0.230510
      6         11           0       -0.258167   -0.042848   -1.491058
      7         11           0       -0.809411   -2.341159    0.395749
 ---------------------------------------------------------------------

 SCF Done:  E(UB3LYP) =  -1136.12528074     A.U. after   22 cycles

 The electronic state is 2-A.
 Alpha  occ. eigenvalues --  -38.45146 -38.44266 -38.44037 -38.43941 -38.43752
 Alpha  occ. eigenvalues --  -38.43556 -38.43079  -2.20886  -2.20093  -2.19951
 Alpha  occ. eigenvalues --   -2.19783  -2.19608  -2.19319  -2.18958  -1.14566
 Alpha  occ. eigenvalues --   -1.14537  -1.14512  -1.13763  -1.13755  -1.13716
 Alpha  occ. eigenvalues --   -1.13697  -1.13601  -1.13551  -1.13448  -1.13421
 Alpha  occ. eigenvalues --   -1.13388  -1.13274  -1.13266  -1.13258  -1.12996
 Alpha  occ. eigenvalues --   -1.12984  -1.12957  -1.12688  -1.12618  -1.12544
 Alpha  occ. eigenvalues --   -0.18041  -0.13107  -0.11686  -0.10911
 Alpha virt. eigenvalues --   -0.06698  -0.05292  -0.04147  -0.03105  -0.02843
 Alpha virt. eigenvalues --   -0.02590  -0.02438  -0.01217  -0.00695  -0.00257
 Alpha virt. eigenvalues --   -0.00078   0.00188   0.00544   0.00676   0.00757

  Beta  occ. eigenvalues --  -38.45140 -38.44227 -38.44007 -38.43844 -38.43746
  Beta  occ. eigenvalues --  -38.43557 -38.43068  -2.20874  -2.20022  -2.19897
  Beta  occ. eigenvalues --   -2.19605  -2.19600  -2.19322  -2.18941  -1.14555
  Beta  occ. eigenvalues --   -1.14530  -1.14504  -1.13714  -1.13703  -1.13663
  Beta  occ. eigenvalues --   -1.13654  -1.13567  -1.13508  -1.13325  -1.13304
  Beta  occ. eigenvalues --   -1.13270  -1.13267  -1.13251  -1.13221  -1.12993
  Beta  occ. eigenvalues --   -1.12982  -1.12959  -1.12678  -1.12593  -1.12524
  Beta  occ. eigenvalues --   -0.17356  -0.12825  -0.11480
  Beta virt. eigenvalues --   -0.07135  -0.06449  -0.05231  -0.03977  -0.02649
  Beta virt. eigenvalues --   -0.02291  -0.02113  -0.01663  -0.01182  -0.00596
  Beta virt. eigenvalues --   -0.00086  -0.00036   0.00249   0.00653   0.00734

 Mulliken charges and spin densities:
               1          2
     1  Na   0.207513   0.021983
     2  Na   0.195086   0.106806
     3  Na   0.284996   0.185522
     4  Na  -0.306450   0.523260
     5  Na  -0.209010  -0.039252
     6  Na   0.030729   0.050625
     7  Na  -0.202863   0.151056
 Sum of Mulliken charges =  -0.00000   1.00000

 Dipole moment (field-independent basis, Debye):
    X=             -0.3844    Y=              0.0617    Z=              0.1291  Tot=              0.4101
 Quadrupole moment (field-independent basis, Debye-Ang):
   XX=            -50.6428   YY=            -69.5610   ZZ=            -72.6082
   XY=             -0.6478   XZ=             -0.3009   YZ=             -1.2500

 Normal termination of Gaussian 16 at Sun Dec  3 19:24:16 2023.
