 Gaussian 16, Revision B.01,
 Gaussian 16:  ES64L-G16RevB.01 20-Dec-2017

 -------------------------
 #P B3LYP/6-311+g(d) force
 -------------------------

 -----
 DPGEN
 -----
 Symbolic Z-matrix:
 Charge =  0 Multiplicity = 2

                         Standard orientation:
 ---------------------------------------------------------------------
 Center     Atomic      Atomic             Coordinates (Angstroms)
 Number     Number       Type             X           Y           Z
 ---------------------------------------------------------------------
      1         11           0       -2.971819   -1.017128   -0.082747
      2         11           0        0.272415   -0.393037    2.361886
      3         11           0       -1.576253    2.415477    0.062415
      4         11           0        1.641779    2.261218    0.061158
      5         11           0       -0.136437    0.347242   -1.716207
      6         11           0        2.861483   -1.050835   -0.402381
      7         11           0       -0.091167   -2.562939   -0.284124
 ---------------------------------------------------------------------

 SCF Done:  E(UB3LYP) =  -1136.13670599     A.U. after   18 cycles

 The electronic state is 2-A.
 Alpha  occ. eigenvalues --  -38.44302 -38.43618 -38.43541 -38.43455 -38.43440
 Alpha  occ. eigenvalues --  -38.43377 -38.43128  -2.20148  -2.19453  -2.19449
 Alpha  occ. eigenvalues --   -2.19389  -2.19336  -2.19271  -2.19049  -1.13797
 Alpha  occ. eigenvalues --   -1.13780  -1.13763  -1.13217  -1.13148  -1.13135
 Alpha  occ. eigenvalues --   -1.13111  -1.13109  -1.13079  -1.13060  -1.13043
 Alpha  occ. eigenvalues --   -1.13038  -1.13013  -1.12978  -1.12960  -1.12928
 Alpha  occ. eigenvalues --   -1.12918  -1.12867  -1.12735  -1.12713  -1.12663
 Alpha  occ. eigenvalues --   -0.18853  -0.12750  -0.12681  -0.11337
 Alpha virt. eigenvalues --   -0.05190  -0.05014  -0.04586  -0.03400  -0.03169
 Alpha virt. eigenvalues --   -0.03014  -0.01285  -0.00949  -0.00110  -0.00064
 Alpha virt. eigenvalues --    0.00023   0.00367   0.00820   0.00938   0.00961

  Beta  occ. eigenvalues --  -38.44195 -38.43618 -38.43534 -38.43452 -38.43380
  Beta  occ. eigenvalues --  -38.43371 -38.43118  -2.19949  -2.19452  -2.19380
  Beta  occ. eigenvalues --   -2.19346  -2.19331  -2.19264  -2.19036  -1.13665
  Beta  occ. eigenvalues --   -1.13637  -1.13624  -1.13169  -1.13137  -1.13106
  Beta  occ. eigenvalues --   -1.13097  -1.13084  -1.13051  -1.13035  -1.13027
  Beta  occ. eigenvalues --   -1.13016  -1.12997  -1.12961  -1.12927  -1.12910
  Beta  occ. eigenvalues --   -1.12889  -1.12868  -1.12724  -1.12670  -1.12659
  Beta  occ. eigenvalues --   -0.18101  -0.12524  -0.12480
  Beta virt. eigenvalues --   -0.07313  -0.05156  -0.05015  -0.04500  -0.02542
  Beta virt. eigenvalues --   -0.02384  -0.01963  -0.01213  -0.00888  -0.00120
  Beta virt. eigenvalues --   -0.00032   0.00087   0.00390   0.00912   0.00922

 Mulliken charges and spin densities:
               1          2
     1  Na   0.108403  -0.034276
     2  Na  -0.784067   0.656564
     3  Na   0.210558   0.033968
     4  Na   0.208919   0.071748
     5  Na  -0.260193   0.215186
     6  Na   0.224775  -0.003509
     7  Na   0.291605   0.060319
 Sum of Mulliken charges =  -0.00000   1.00000

 Dipole moment (field-independent basis, Debye):
    X=             -0.0190    Y=              0.0566    Z=              0.3331  Tot=              0.3384
 Quadrupole moment (field-independent basis, Debye-Ang):
   XX=            -59.2627   YY=            -65.4980   ZZ=            -70.6751
   XY=             -0.2636   XZ=             -0.9437   YZ=              1.2416

 Normal termination of Gaussian 16 at Fri Dec  8 07:37:06 2023.
