 Gaussian 16, Revision B.01,
 Gaussian 16:  ES64L-G16RevB.01 20-Dec-2017

 -------------------------
 #P B3LYP/6-311+g(d) force
 -------------------------

 -----
 DPGEN
 -----
 Symbolic Z-matrix:
 Charge =  0 Multiplicity = 2

                         Standard orientation:
 ---------------------------------------------------------------------
 Center     Atomic      Atomic             Coordinates (Angstroms)
 Number     Number       Type             X           Y           Z
 ---------------------------------------------------------------------
      1         11           0       -1.404825   -1.791240   -0.495231
      2         11           0        0.652442   -0.318950    1.522313
      3         11           0        1.087255    3.464021   -0.237609
      4         11           0       -1.662033    1.865158   -0.421266
      5         11           0       -4.219914   -0.541521    0.221056
      6         11           0        3.710805   -0.183098   -0.061809
      7         11           0        1.836270   -2.494369   -0.527454
 ---------------------------------------------------------------------

 SCF Done:  E(UB3LYP) =  -1136.12124921     A.U. after   21 cycles

 The electronic state is 2-A.
 Alpha  occ. eigenvalues --  -38.45159 -38.44133 -38.43772 -38.43757 -38.43574
 Alpha  occ. eigenvalues --  -38.43398 -38.43359  -2.21055  -2.20059  -2.19625
 Alpha  occ. eigenvalues --   -2.19547  -2.19458  -2.19297  -2.19255  -1.14753
 Alpha  occ. eigenvalues --   -1.14720  -1.14669  -1.13769  -1.13721  -1.13707
 Alpha  occ. eigenvalues --   -1.13331  -1.13318  -1.13297  -1.13212  -1.13185
 Alpha  occ. eigenvalues --   -1.13153  -1.13112  -1.13090  -1.13064  -1.13015
 Alpha  occ. eigenvalues --   -1.12983  -1.12953  -1.12891  -1.12887  -1.12829
 Alpha  occ. eigenvalues --   -0.17993  -0.14153  -0.12657  -0.10069
 Alpha virt. eigenvalues --   -0.06759  -0.05393  -0.04784  -0.03142  -0.02913
 Alpha virt. eigenvalues --   -0.02344  -0.01700  -0.01174  -0.00910  -0.00735
 Alpha virt. eigenvalues --   -0.00131  -0.00033   0.00496   0.00522   0.00761

  Beta  occ. eigenvalues --  -38.45133 -38.44115 -38.43768 -38.43761 -38.43492
  Beta  occ. eigenvalues --  -38.43334 -38.43330  -2.21012  -2.20036  -2.19621
  Beta  occ. eigenvalues --   -2.19555  -2.19307  -2.19259  -2.19128  -1.14716
  Beta  occ. eigenvalues --   -1.14689  -1.14633  -1.13744  -1.13711  -1.13639
  Beta  occ. eigenvalues --   -1.13327  -1.13305  -1.13299  -1.13218  -1.13191
  Beta  occ. eigenvalues --   -1.13145  -1.13011  -1.12993  -1.12976  -1.12956
  Beta  occ. eigenvalues --   -1.12949  -1.12904  -1.12803  -1.12799  -1.12756
  Beta  occ. eigenvalues --   -0.17453  -0.13444  -0.12386
  Beta virt. eigenvalues --   -0.06612  -0.06509  -0.05265  -0.04547  -0.02726
  Beta virt. eigenvalues --   -0.02381  -0.02219  -0.01305  -0.00962  -0.00731
  Beta virt. eigenvalues --   -0.00576   0.00181   0.00229   0.00617   0.00719

 Mulliken charges and spin densities:
               1          2
     1  Na  -0.687870  -0.018522
     2  Na   0.116524   0.060903
     3  Na   0.130361  -0.048493
     4  Na  -0.532245   0.036090
     5  Na   0.953312   0.386302
     6  Na  -0.103861   0.553886
     7  Na   0.123778   0.029835
 Sum of Mulliken charges =  -0.00000   1.00000

 Dipole moment (field-independent basis, Debye):
    X=              0.2762    Y=             -0.2577    Z=              0.2852  Tot=              0.4733
 Quadrupole moment (field-independent basis, Debye-Ang):
   XX=            -75.1818   YY=            -65.0419   ZZ=            -65.3246
   XY=              2.0502   XZ=             -1.2941   YZ=              1.0873

 Normal termination of Gaussian 16 at Wed Nov 29 02:14:48 2023.
