 Gaussian 16, Revision B.01,
 Gaussian 16:  ES64L-G16RevB.01 20-Dec-2017

 -------------------------
 #P B3LYP/6-311+g(d) force
 -------------------------

 -----
 DPGEN
 -----
 Symbolic Z-matrix:
 Charge =  0 Multiplicity = 2

                         Standard orientation:
 ---------------------------------------------------------------------
 Center     Atomic      Atomic             Coordinates (Angstroms)
 Number     Number       Type             X           Y           Z
 ---------------------------------------------------------------------
      1         11           0        1.838198    2.364152    0.148289
      2         11           0       -0.367461   -0.069583    2.111244
      3         11           0       -0.775101   -2.679693    0.076645
      4         11           0        2.233753   -1.853286    0.319436
      5         11           0        3.942966    0.248249   -1.467748
      6         11           0       -4.571883   -0.568319   -1.278374
      7         11           0       -2.300474    2.558481    0.090509
 ---------------------------------------------------------------------

 SCF Done:  E(UB3LYP) =  -1136.11732092     A.U. after   21 cycles

 The electronic state is 2-A.
 Alpha  occ. eigenvalues --  -38.45196 -38.44660 -38.44460 -38.44204 -38.43756
 Alpha  occ. eigenvalues --  -38.43740 -38.43720  -2.20959  -2.20492  -2.20181
 Alpha  occ. eigenvalues --   -2.19979  -2.19632  -2.19575  -2.19552  -1.14604
 Alpha  occ. eigenvalues --   -1.14590  -1.14564  -1.14172  -1.14163  -1.14086
 Alpha  occ. eigenvalues --   -1.13877  -1.13852  -1.13821  -1.13678  -1.13660
 Alpha  occ. eigenvalues --   -1.13595  -1.13364  -1.13331  -1.13303  -1.13223
 Alpha  occ. eigenvalues --   -1.13218  -1.13212  -1.13205  -1.13195  -1.13138
 Alpha  occ. eigenvalues --   -0.16870  -0.13525  -0.12098  -0.11417
 Alpha virt. eigenvalues --   -0.06160  -0.05679  -0.04893  -0.03638  -0.03159
 Alpha virt. eigenvalues --   -0.02320  -0.01947  -0.01222  -0.01037  -0.00720
 Alpha virt. eigenvalues --   -0.00470   0.00109   0.00167   0.00290   0.00525

  Beta  occ. eigenvalues --  -38.45078 -38.44609 -38.44478 -38.44199 -38.43747
  Beta  occ. eigenvalues --  -38.43723 -38.43704  -2.20739  -2.20398  -2.20219
  Beta  occ. eigenvalues --   -2.19972  -2.19618  -2.19559  -2.19506  -1.14454
  Beta  occ. eigenvalues --   -1.14439  -1.14419  -1.14111  -1.14102  -1.14013
  Beta  occ. eigenvalues --   -1.13905  -1.13881  -1.13825  -1.13673  -1.13656
  Beta  occ. eigenvalues --   -1.13577  -1.13359  -1.13300  -1.13292  -1.13217
  Beta  occ. eigenvalues --   -1.13213  -1.13179  -1.13174  -1.13157  -1.13119
  Beta  occ. eigenvalues --   -0.16415  -0.12703  -0.12013
  Beta virt. eigenvalues --   -0.07898  -0.05920  -0.05309  -0.04414  -0.03582
  Beta virt. eigenvalues --   -0.02591  -0.01944  -0.01539  -0.01047  -0.00916
  Beta virt. eigenvalues --   -0.00537  -0.00273   0.00328   0.00389   0.00459

 Mulliken charges and spin densities:
               1          2
     1  Na  -0.438212  -0.027303
     2  Na   0.568655   0.070098
     3  Na  -0.090550   0.063023
     4  Na  -0.369181   0.072392
     5  Na   0.462431   0.221167
     6  Na  -0.009440   0.633445
     7  Na  -0.123702  -0.032823
 Sum of Mulliken charges =  -0.00000   1.00000

 Dipole moment (field-independent basis, Debye):
    X=             -0.0925    Y=             -0.0647    Z=             -0.0142  Tot=              0.1138
 Quadrupole moment (field-independent basis, Debye-Ang):
   XX=            -65.0031   YY=            -68.5364   ZZ=            -67.5387
   XY=              0.1652   XZ=             -0.2571   YZ=              1.3823

 Normal termination of Gaussian 16 at Tue Nov 28 23:43:26 2023.
