 Gaussian 16, Revision B.01,
 Gaussian 16:  ES64L-G16RevB.01 20-Dec-2017

 -------------------------
 #P B3LYP/6-311+g(d) force
 -------------------------

 -----
 DPGEN
 -----
 Symbolic Z-matrix:
 Charge =  0 Multiplicity = 2

                         Standard orientation:
 ---------------------------------------------------------------------
 Center     Atomic      Atomic             Coordinates (Angstroms)
 Number     Number       Type             X           Y           Z
 ---------------------------------------------------------------------
      1         11           0        0.419263   -0.083367   -1.733431
      2         11           0       -0.431065    0.321849    1.836869
      3         11           0        0.654761    2.598193   -0.122037
      4         11           0        3.096606    0.068370    0.257210
      5         11           0       -2.569243    1.291956   -0.269983
      6         11           0       -2.188971   -1.825465   -0.023815
      7         11           0        1.018648   -2.371537    0.055188
 ---------------------------------------------------------------------

 SCF Done:  E(UB3LYP) =  -1136.13402314     A.U. after   20 cycles

 The electronic state is 2-A.
 Alpha  occ. eigenvalues --  -38.44088 -38.43751 -38.43355 -38.43333 -38.43262
 Alpha  occ. eigenvalues --  -38.43100 -38.43080  -2.19957  -2.19667  -2.19330
 Alpha  occ. eigenvalues --   -2.19303  -2.19275  -2.19037  -2.19020  -1.13640
 Alpha  occ. eigenvalues --   -1.13619  -1.13596  -1.13385  -1.13332  -1.13306
 Alpha  occ. eigenvalues --   -1.13071  -1.13022  -1.13000  -1.12976  -1.12947
 Alpha  occ. eigenvalues --   -1.12937  -1.12932  -1.12904  -1.12889  -1.12705
 Alpha  occ. eigenvalues --   -1.12687  -1.12683  -1.12671  -1.12646  -1.12624
 Alpha  occ. eigenvalues --   -0.19552  -0.13426  -0.12609  -0.10974
 Alpha virt. eigenvalues --   -0.05642  -0.04878  -0.04368  -0.03393  -0.02906
 Alpha virt. eigenvalues --   -0.02456  -0.01509  -0.00854  -0.00024  -0.00005
 Alpha virt. eigenvalues --    0.00095   0.00368   0.00869   0.00955   0.00987

  Beta  occ. eigenvalues --  -38.44083 -38.43743 -38.43350 -38.43254 -38.43186
  Beta  occ. eigenvalues --  -38.43091 -38.43071  -2.19951  -2.19656  -2.19269
  Beta  occ. eigenvalues --   -2.19184  -2.19164  -2.19025  -2.19008  -1.13639
  Beta  occ. eigenvalues --   -1.13603  -1.13584  -1.13376  -1.13314  -1.13282
  Beta  occ. eigenvalues --   -1.13003  -1.12952  -1.12933  -1.12928  -1.12896
  Beta  occ. eigenvalues --   -1.12883  -1.12848  -1.12833  -1.12797  -1.12683
  Beta  occ. eigenvalues --   -1.12668  -1.12645  -1.12639  -1.12620  -1.12618
  Beta  occ. eigenvalues --   -0.18794  -0.13182  -0.12322
  Beta virt. eigenvalues --   -0.07007  -0.05590  -0.04882  -0.04362  -0.02571
  Beta virt. eigenvalues --   -0.02078  -0.01420  -0.01394  -0.00799  -0.00067
  Beta virt. eigenvalues --    0.00041   0.00132   0.00391   0.00920   0.00949

 Mulliken charges and spin densities:
               1          2
     1  Na  -0.582034   0.550180
     2  Na  -0.675669   0.658114
     3  Na   0.285490  -0.096576
     4  Na   0.101466  -0.038472
     5  Na   0.345484  -0.028492
     6  Na   0.182476  -0.035703
     7  Na   0.342787  -0.009052
 Sum of Mulliken charges =  -0.00000   1.00000

 Dipole moment (field-independent basis, Debye):
    X=              0.1409    Y=              0.1679    Z=              0.1007  Tot=              0.2412
 Quadrupole moment (field-independent basis, Debye-Ang):
   XX=            -55.6000   YY=            -65.5327   ZZ=            -72.9381
   XY=              0.3337   XZ=              1.9304   YZ=             -0.8248

 Normal termination of Gaussian 16 at Fri Dec  8 05:33:16 2023.
