 Gaussian 16, Revision B.01,
 Gaussian 16:  ES64L-G16RevB.01 20-Dec-2017

 -------------------------
 #P B3LYP/6-311+g(d) force
 -------------------------

 -----
 DPGEN
 -----
 Symbolic Z-matrix:
 Charge =  0 Multiplicity = 2

                         Standard orientation:
 ---------------------------------------------------------------------
 Center     Atomic      Atomic             Coordinates (Angstroms)
 Number     Number       Type             X           Y           Z
 ---------------------------------------------------------------------
      1         11           0       -0.352198   -0.150800   -1.795049
      2         11           0       -2.677494   -1.668105    0.134656
      3         11           0        3.470276    0.059721   -0.397429
      4         11           0        1.127344   -2.563035    0.137182
      5         11           0       -2.594488    1.586986   -0.184722
      6         11           0        0.856548    2.643873    0.168487
      7         11           0        0.170011    0.091361    1.936875
 ---------------------------------------------------------------------

 SCF Done:  E(UB3LYP) =  -1136.13586182     A.U. after   20 cycles

 The electronic state is 2-A.
 Alpha  occ. eigenvalues --  -38.44725 -38.43928 -38.43787 -38.43608 -38.43430
 Alpha  occ. eigenvalues --  -38.43207 -38.42978  -2.20502  -2.19771  -2.19658
 Alpha  occ. eigenvalues --   -2.19542  -2.19357  -2.19057  -2.18838  -1.14175
 Alpha  occ. eigenvalues --   -1.14155  -1.14141  -1.13474  -1.13443  -1.13410
 Alpha  occ. eigenvalues --   -1.13360  -1.13311  -1.13276  -1.13219  -1.13174
 Alpha  occ. eigenvalues --   -1.13153  -1.13036  -1.13009  -1.12969  -1.12740
 Alpha  occ. eigenvalues --   -1.12732  -1.12671  -1.12532  -1.12501  -1.12453
 Alpha  occ. eigenvalues --   -0.18616  -0.13257  -0.12112  -0.10752
 Alpha virt. eigenvalues --   -0.06173  -0.05138  -0.04239  -0.03362  -0.02777
 Alpha virt. eigenvalues --   -0.02539  -0.01932  -0.01067  -0.00358  -0.00211
 Alpha virt. eigenvalues --   -0.00040   0.00324   0.00751   0.00843   0.00876

  Beta  occ. eigenvalues --  -38.44717 -38.43925 -38.43781 -38.43542 -38.43339
  Beta  occ. eigenvalues --  -38.43200 -38.42972  -2.20489  -2.19769  -2.19650
  Beta  occ. eigenvalues --   -2.19421  -2.19190  -2.19048  -2.18829  -1.14155
  Beta  occ. eigenvalues --   -1.14146  -1.14134  -1.13473  -1.13430  -1.13398
  Beta  occ. eigenvalues --   -1.13340  -1.13295  -1.13269  -1.13139  -1.13091
  Beta  occ. eigenvalues --   -1.13065  -1.12927  -1.12889  -1.12854  -1.12733
  Beta  occ. eigenvalues --   -1.12701  -1.12665  -1.12519  -1.12474  -1.12452
  Beta  occ. eigenvalues --   -0.17886  -0.13023  -0.11855
  Beta virt. eigenvalues --   -0.06901  -0.06057  -0.05148  -0.04211  -0.02614
  Beta virt. eigenvalues --   -0.01994  -0.01814  -0.01508  -0.01014  -0.00401
  Beta virt. eigenvalues --   -0.00239   0.00094   0.00356   0.00815   0.00867

 Mulliken charges and spin densities:
               1          2
     1  Na  -0.295324   0.619327
     2  Na   0.169938  -0.082195
     3  Na  -0.056163   0.000191
     4  Na   0.071381  -0.089433
     5  Na   0.252658  -0.047849
     6  Na   0.105366  -0.079510
     7  Na  -0.247857   0.679468
 Sum of Mulliken charges =  -0.00000   1.00000

 Dipole moment (field-independent basis, Debye):
    X=              0.1424    Y=             -0.0857    Z=             -0.0732  Tot=              0.1816
 Quadrupole moment (field-independent basis, Debye-Ang):
   XX=            -52.4585   YY=            -66.6289   ZZ=            -73.9933
   XY=              0.5238   XZ=             -1.5952   YZ=             -0.8205

 Normal termination of Gaussian 16 at Fri Dec  8 04:39:57 2023.
