 Gaussian 16, Revision B.01,
 Gaussian 16:  ES64L-G16RevB.01 20-Dec-2017

 -------------------------
 #P B3LYP/6-311+g(d) force
 -------------------------

 -----
 DPGEN
 -----
 Symbolic Z-matrix:
 Charge =  0 Multiplicity = 2

                         Standard orientation:
 ---------------------------------------------------------------------
 Center     Atomic      Atomic             Coordinates (Angstroms)
 Number     Number       Type             X           Y           Z
 ---------------------------------------------------------------------
      1         11           0        0.234355   -0.172072    1.839388
      2         11           0        3.218443    0.913707    0.000323
      3         11           0       -2.912519    0.640003    0.500734
      4         11           0       -1.583762   -2.178847   -0.297147
      5         11           0       -0.431023    0.270722   -1.735428
      6         11           0       -0.166948    2.894632   -0.173095
      7         11           0        1.641454   -2.368144   -0.134776
 ---------------------------------------------------------------------

 SCF Done:  E(UB3LYP) =  -1136.13520017     A.U. after   19 cycles

 The electronic state is 2-A.
 Alpha  occ. eigenvalues --  -38.44314 -38.43814 -38.43493 -38.43438 -38.43392
 Alpha  occ. eigenvalues --  -38.43262 -38.43109  -2.20090  -2.19702  -2.19350
 Alpha  occ. eigenvalues --   -2.19336  -2.19315  -2.19266  -2.19068  -1.13771
 Alpha  occ. eigenvalues --   -1.13743  -1.13732  -1.13392  -1.13362  -1.13340
 Alpha  occ. eigenvalues --   -1.13130  -1.13074  -1.13022  -1.12994  -1.12989
 Alpha  occ. eigenvalues --   -1.12968  -1.12960  -1.12958  -1.12948  -1.12924
 Alpha  occ. eigenvalues --   -1.12886  -1.12857  -1.12719  -1.12706  -1.12687
 Alpha  occ. eigenvalues --   -0.19018  -0.13012  -0.12605  -0.10828
 Alpha virt. eigenvalues --   -0.05805  -0.04917  -0.04595  -0.03207  -0.02942
 Alpha virt. eigenvalues --   -0.02456  -0.01582  -0.01018  -0.00322  -0.00134
 Alpha virt. eigenvalues --    0.00021   0.00353   0.00823   0.00923   0.00935

  Beta  occ. eigenvalues --  -38.44316 -38.43798 -38.43486 -38.43433 -38.43314
  Beta  occ. eigenvalues --  -38.43186 -38.43095  -2.20096  -2.19677  -2.19340
  Beta  occ. eigenvalues --   -2.19309  -2.19195  -2.19130  -2.19048  -1.13764
  Beta  occ. eigenvalues --   -1.13747  -1.13737  -1.13379  -1.13330  -1.13310
  Beta  occ. eigenvalues --   -1.13097  -1.13039  -1.12986  -1.12956  -1.12955
  Beta  occ. eigenvalues --   -1.12954  -1.12924  -1.12893  -1.12860  -1.12835
  Beta  occ. eigenvalues --   -1.12800  -1.12766  -1.12694  -1.12680  -1.12645
  Beta  occ. eigenvalues --   -0.18271  -0.12794  -0.12327
  Beta virt. eigenvalues --   -0.06881  -0.05775  -0.04878  -0.04580  -0.02449
  Beta virt. eigenvalues --   -0.02151  -0.01557  -0.01344  -0.00944  -0.00350
  Beta virt. eigenvalues --   -0.00171   0.00136   0.00380   0.00837   0.00925

 Mulliken charges and spin densities:
               1          2
     1  Na  -0.334313   0.665679
     2  Na  -0.100772  -0.136434
     3  Na   0.187561   0.081995
     4  Na   0.422695   0.069274
     5  Na  -0.173744   0.555996
     6  Na  -0.021646  -0.135550
     7  Na   0.020219  -0.100959
 Sum of Mulliken charges =  -0.00000   1.00000

 Dipole moment (field-independent basis, Debye):
    X=              0.3244    Y=              0.2654    Z=              0.1327  Tot=              0.4397
 Quadrupole moment (field-independent basis, Debye-Ang):
   XX=            -55.9926   YY=            -63.4073   ZZ=            -73.9363
   XY=              0.0048   XZ=             -1.6277   YZ=              1.0920

 Normal termination of Gaussian 16 at Fri Dec  8 05:31:55 2023.
