 Gaussian 16, Revision B.01,
 Gaussian 16:  ES64L-G16RevB.01 20-Dec-2017

 -------------------------
 #P B3LYP/6-311+g(d) force
 -------------------------

 -----
 DPGEN
 -----
 Symbolic Z-matrix:
 Charge =  0 Multiplicity = 2

                         Standard orientation:
 ---------------------------------------------------------------------
 Center     Atomic      Atomic             Coordinates (Angstroms)
 Number     Number       Type             X           Y           Z
 ---------------------------------------------------------------------
      1         11           0       -3.428645    2.095423    0.110275
      2         11           0       -1.299644   -3.237878    0.008337
      3         11           0        2.709880   -2.747268    1.059010
      4         11           0        4.163963   -0.365473   -1.002001
      5         11           0       -4.067055   -1.967657   -0.521230
      6         11           0        2.764679    2.546488   -0.037980
      7         11           0       -0.843178    3.676365    0.383590
 ---------------------------------------------------------------------

 SCF Done:  E(UB3LYP) =  -1136.10668980     A.U. after   19 cycles

 The electronic state is 2-A.
 Alpha  occ. eigenvalues --  -38.44943 -38.44860 -38.44819 -38.44549 -38.44450
 Alpha  occ. eigenvalues --  -38.44101 -38.44041  -2.20717  -2.20634  -2.20622
 Alpha  occ. eigenvalues --   -2.20342  -2.20240  -2.19912  -2.19844  -1.14397
 Alpha  occ. eigenvalues --   -1.14392  -1.14374  -1.14313  -1.14311  -1.14306
 Alpha  occ. eigenvalues --   -1.14290  -1.14273  -1.14247  -1.13998  -1.13986
 Alpha  occ. eigenvalues --   -1.13959  -1.13889  -1.13877  -1.13861  -1.13567
 Alpha  occ. eigenvalues --   -1.13558  -1.13545  -1.13519  -1.13505  -1.13489
 Alpha  occ. eigenvalues --   -0.15423  -0.13951  -0.13457  -0.10956
 Alpha virt. eigenvalues --   -0.07577  -0.04956  -0.04437  -0.03549  -0.03389
 Alpha virt. eigenvalues --   -0.02496  -0.02156  -0.02049  -0.01336  -0.01053
 Alpha virt. eigenvalues --   -0.00589  -0.00222   0.00119   0.00371   0.00581

  Beta  occ. eigenvalues --  -38.44952 -38.44855 -38.44779 -38.44478 -38.44368
  Beta  occ. eigenvalues --  -38.44067 -38.44040  -2.20740  -2.20629  -2.20550
  Beta  occ. eigenvalues --   -2.20210  -2.20086  -2.19851  -2.19846  -1.14417
  Beta  occ. eigenvalues --   -1.14408  -1.14352  -1.14307  -1.14305  -1.14262
  Beta  occ. eigenvalues --   -1.14258  -1.14226  -1.14194  -1.13907  -1.13898
  Beta  occ. eigenvalues --   -1.13874  -1.13783  -1.13772  -1.13762  -1.13523
  Beta  occ. eigenvalues --   -1.13517  -1.13514  -1.13510  -1.13503  -1.13470
  Beta  occ. eigenvalues --   -0.14868  -0.13324  -0.12760
  Beta virt. eigenvalues --   -0.07812  -0.07555  -0.04528  -0.04036  -0.03324
  Beta virt. eigenvalues --   -0.03026  -0.02288  -0.01965  -0.01832  -0.01219
  Beta virt. eigenvalues --   -0.00719  -0.00301   0.00050   0.00260   0.00374

 Mulliken charges and spin densities:
               1          2
     1  Na  -0.213938   0.195434
     2  Na  -0.572327   0.059923
     3  Na  -0.105910   0.396420
     4  Na   0.033562  -0.076986
     5  Na   0.644300   0.139442
     6  Na  -0.262170   0.360904
     7  Na   0.476482  -0.075138
 Sum of Mulliken charges =  -0.00000   1.00000

 Dipole moment (field-independent basis, Debye):
    X=              0.0156    Y=             -0.1018    Z=             -0.1427  Tot=              0.1760
 Quadrupole moment (field-independent basis, Debye-Ang):
   XX=            -58.5686   YY=            -71.3189   ZZ=            -71.3826
   XY=             -1.0263   XZ=             -0.6112   YZ=              0.3437

 Normal termination of Gaussian 16 at Sun Dec  3 20:06:12 2023.
