 Gaussian 16, Revision B.01,
 Gaussian 16:  ES64L-G16RevB.01 20-Dec-2017

 -------------------------
 #P B3LYP/6-311+g(d) force
 -------------------------

 -----
 DPGEN
 -----
 Symbolic Z-matrix:
 Charge =  0 Multiplicity = 2

                         Standard orientation:
 ---------------------------------------------------------------------
 Center     Atomic      Atomic             Coordinates (Angstroms)
 Number     Number       Type             X           Y           Z
 ---------------------------------------------------------------------
      1         11           0        0.031773   -0.082066    1.934932
      2         11           0        0.147135   -0.012280   -1.815007
      3         11           0        0.973106    2.695262    0.099680
      4         11           0       -2.501111    1.823544   -0.034043
      5         11           0        0.743330   -2.651524    0.136158
      6         11           0        3.060641   -0.079567   -0.157296
      7         11           0       -2.454874   -1.693369   -0.164424
 ---------------------------------------------------------------------

 SCF Done:  E(UB3LYP) =  -1136.14166310     A.U. after   18 cycles

 The electronic state is 2-A.
 Alpha  occ. eigenvalues --  -38.43720 -38.43668 -38.43560 -38.43459 -38.43387
 Alpha  occ. eigenvalues --  -38.43336 -38.43168  -2.19581  -2.19489  -2.19418
 Alpha  occ. eigenvalues --   -2.19398  -2.19299  -2.19249  -2.19082  -1.13267
 Alpha  occ. eigenvalues --   -1.13241  -1.13226  -1.13162  -1.13162  -1.13139
 Alpha  occ. eigenvalues --   -1.13108  -1.13091  -1.13070  -1.13053  -1.13045
 Alpha  occ. eigenvalues --   -1.13007  -1.12981  -1.12961  -1.12917  -1.12914
 Alpha  occ. eigenvalues --   -1.12894  -1.12870  -1.12757  -1.12741  -1.12699
 Alpha  occ. eigenvalues --   -0.18950  -0.12920  -0.12647  -0.10914
 Alpha virt. eigenvalues --   -0.05347  -0.05130  -0.04694  -0.03136  -0.03026
 Alpha virt. eigenvalues --   -0.02647  -0.01379  -0.01060  -0.00245  -0.00178
 Alpha virt. eigenvalues --   -0.00009   0.00374   0.00843   0.00921   0.00930

  Beta  occ. eigenvalues --  -38.43715 -38.43667 -38.43556 -38.43381 -38.43370
  Beta  occ. eigenvalues --  -38.43260 -38.43159  -2.19575  -2.19490  -2.19413
  Beta  occ. eigenvalues --   -2.19243  -2.19235  -2.19159  -2.19070  -1.13257
  Beta  occ. eigenvalues --   -1.13226  -1.13215  -1.13162  -1.13148  -1.13138
  Beta  occ. eigenvalues --   -1.13096  -1.13059  -1.13053  -1.12982  -1.12953
  Beta  occ. eigenvalues --   -1.12918  -1.12897  -1.12885  -1.12877  -1.12869
  Beta  occ. eigenvalues --   -1.12827  -1.12808  -1.12740  -1.12698  -1.12692
  Beta  occ. eigenvalues --   -0.18193  -0.12677  -0.12390
  Beta virt. eigenvalues --   -0.06974  -0.05332  -0.05134  -0.04658  -0.02335
  Beta virt. eigenvalues --   -0.02203  -0.01578  -0.01296  -0.00993  -0.00303
  Beta virt. eigenvalues --   -0.00235   0.00117   0.00390   0.00896   0.00912

 Mulliken charges and spin densities:
               1          2
     1  Na  -0.396822   0.735702
     2  Na  -0.350211   0.696111
     3  Na   0.077790  -0.114528
     4  Na  -0.016825  -0.119955
     5  Na   0.345212  -0.040501
     6  Na   0.256698  -0.066156
     7  Na   0.084158  -0.090673
 Sum of Mulliken charges =  -0.00000   1.00000

 Dipole moment (field-independent basis, Debye):
    X=             -0.0056    Y=              0.1019    Z=              0.0187  Tot=              0.1038
 Quadrupole moment (field-independent basis, Debye-Ang):
   XX=            -57.6120   YY=            -62.7523   ZZ=            -73.4229
   XY=             -0.0295   XZ=              0.2234   YZ=              0.2249

 Normal termination of Gaussian 16 at Thu Dec  7 16:53:44 2023.
