 Gaussian 16, Revision B.01,
 Gaussian 16:  ES64L-G16RevB.01 20-Dec-2017

 -------------------------
 #P B3LYP/6-311+g(d) force
 -------------------------

 -----
 DPGEN
 -----
 Symbolic Z-matrix:
 Charge =  0 Multiplicity = 2

                         Standard orientation:
 ---------------------------------------------------------------------
 Center     Atomic      Atomic             Coordinates (Angstroms)
 Number     Number       Type             X           Y           Z
 ---------------------------------------------------------------------
      1         11           0       -1.613912   -2.345858   -0.794240
      2         11           0        0.094237   -0.623363    2.008541
      3         11           0       -0.330216    3.023253    0.363363
      4         11           0        2.869414    1.301144   -0.847208
      5         11           0        0.139198   -0.019224   -0.910345
      6         11           0       -3.644405    0.512070   -0.123887
      7         11           0        2.485682   -1.848022    0.303776
 ---------------------------------------------------------------------

 SCF Done:  E(UB3LYP) =  -1136.12142206     A.U. after   22 cycles

 The electronic state is 2-A.
 Alpha  occ. eigenvalues --  -38.45099 -38.43839 -38.43810 -38.43718 -38.43634
 Alpha  occ. eigenvalues --  -38.43307 -38.43012  -2.20848  -2.19729  -2.19681
 Alpha  occ. eigenvalues --   -2.19592  -2.19572  -2.19160  -2.19104  -1.14532
 Alpha  occ. eigenvalues --   -1.14497  -1.14485  -1.13464  -1.13439  -1.13402
 Alpha  occ. eigenvalues --   -1.13370  -1.13366  -1.13316  -1.13307  -1.13278
 Alpha  occ. eigenvalues --   -1.13226  -1.13177  -1.13169  -1.13146  -1.12861
 Alpha  occ. eigenvalues --   -1.12819  -1.12775  -1.12770  -1.12729  -1.12721
 Alpha  occ. eigenvalues --   -0.18562  -0.13325  -0.12057  -0.10529
 Alpha virt. eigenvalues --   -0.06391  -0.04916  -0.04513  -0.03115  -0.02659
 Alpha virt. eigenvalues --   -0.02179  -0.02047  -0.01163  -0.00476  -0.00328
 Alpha virt. eigenvalues --   -0.00048   0.00266   0.00715   0.00743   0.00827

  Beta  occ. eigenvalues --  -38.45102 -38.43828 -38.43776 -38.43694 -38.43535
  Beta  occ. eigenvalues --  -38.43301 -38.42985  -2.20855  -2.19715  -2.19620
  Beta  occ. eigenvalues --   -2.19549  -2.19391  -2.19117  -2.19094  -1.14533
  Beta  occ. eigenvalues --   -1.14495  -1.14491  -1.13444  -1.13398  -1.13365
  Beta  occ. eigenvalues --   -1.13352  -1.13327  -1.13267  -1.13235  -1.13212
  Beta  occ. eigenvalues --   -1.13182  -1.13144  -1.13049  -1.13017  -1.12815
  Beta  occ. eigenvalues --   -1.12777  -1.12755  -1.12747  -1.12720  -1.12698
  Beta  occ. eigenvalues --   -0.17882  -0.12970  -0.11834
  Beta virt. eigenvalues --   -0.06793  -0.06278  -0.04710  -0.04395  -0.02513
  Beta virt. eigenvalues --   -0.02082  -0.01996  -0.01194  -0.01090  -0.00387
  Beta virt. eigenvalues --   -0.00274   0.00115   0.00326   0.00767   0.00835

 Mulliken charges and spin densities:
               1          2
     1  Na   0.421208   0.122670
     2  Na  -0.248359   0.610690
     3  Na  -0.137212   0.097098
     4  Na   0.446425   0.161127
     5  Na  -0.828751  -0.115439
     6  Na   0.044331  -0.025012
     7  Na   0.302357   0.148866
 Sum of Mulliken charges =  -0.00000   1.00000

 Dipole moment (field-independent basis, Debye):
    X=             -0.5229    Y=             -0.1151    Z=              0.4003  Tot=              0.6685
 Quadrupole moment (field-independent basis, Debye-Ang):
   XX=            -51.4535   YY=            -64.6310   ZZ=            -74.5570
   XY=             -2.2879   XZ=             -0.7736   YZ=              0.9772

 Normal termination of Gaussian 16 at Fri Dec  8 05:41:25 2023.
