 Gaussian 16, Revision B.01,
 Gaussian 16:  ES64L-G16RevB.01 20-Dec-2017

 -------------------------
 #P B3LYP/6-311+g(d) force
 -------------------------

 -----
 DPGEN
 -----
 Symbolic Z-matrix:
 Charge =  0 Multiplicity = 2

                         Standard orientation:
 ---------------------------------------------------------------------
 Center     Atomic      Atomic             Coordinates (Angstroms)
 Number     Number       Type             X           Y           Z
 ---------------------------------------------------------------------
      1         11           0        0.166720   -0.618670    2.020568
      2         11           0       -1.596109   -2.580486   -0.139131
      3         11           0        2.799100    1.587006    0.020575
      4         11           0       -0.774909    2.890932    0.221107
      5         11           0        2.309805   -2.043910   -0.357093
      6         11           0        0.145403    0.261972   -1.566860
      7         11           0       -3.050011    0.503155   -0.199164
 ---------------------------------------------------------------------

 SCF Done:  E(UB3LYP) =  -1136.13842638     A.U. after   19 cycles

 The electronic state is 2-A.
 Alpha  occ. eigenvalues --  -38.44141 -38.43985 -38.43768 -38.43621 -38.43476
 Alpha  occ. eigenvalues --  -38.43383 -38.43042  -2.19948  -2.19813  -2.19617
 Alpha  occ. eigenvalues --   -2.19459  -2.19318  -2.19265  -2.19016  -1.13632
 Alpha  occ. eigenvalues --   -1.13609  -1.13585  -1.13497  -1.13480  -1.13437
 Alpha  occ. eigenvalues --   -1.13295  -1.13286  -1.13271  -1.13139  -1.13124
 Alpha  occ. eigenvalues --   -1.13092  -1.13007  -1.12978  -1.12948  -1.12929
 Alpha  occ. eigenvalues --   -1.12889  -1.12883  -1.12703  -1.12650  -1.12642
 Alpha  occ. eigenvalues --   -0.18471  -0.13014  -0.12519  -0.10450
 Alpha virt. eigenvalues --   -0.05691  -0.05390  -0.04792  -0.03068  -0.02926
 Alpha virt. eigenvalues --   -0.02322  -0.01518  -0.01290  -0.00536  -0.00463
 Alpha virt. eigenvalues --   -0.00000   0.00355   0.00785   0.00819   0.00877

  Beta  occ. eigenvalues --  -38.44139 -38.43975 -38.43764 -38.43616 -38.43472
  Beta  occ. eigenvalues --  -38.43292 -38.42985  -2.19947  -2.19799  -2.19612
  Beta  occ. eigenvalues --   -2.19454  -2.19312  -2.19096  -2.18912  -1.13624
  Beta  occ. eigenvalues --   -1.13598  -1.13585  -1.13481  -1.13452  -1.13430
  Beta  occ. eigenvalues --   -1.13291  -1.13279  -1.13256  -1.13130  -1.13099
  Beta  occ. eigenvalues --   -1.13091  -1.13001  -1.12961  -1.12944  -1.12817
  Beta  occ. eigenvalues --   -1.12771  -1.12762  -1.12628  -1.12574  -1.12564
  Beta  occ. eigenvalues --   -0.17768  -0.12783  -0.12306
  Beta virt. eigenvalues --   -0.06574  -0.05694  -0.05346  -0.04712  -0.02318
  Beta virt. eigenvalues --   -0.02171  -0.01433  -0.01293  -0.01217  -0.00587
  Beta virt. eigenvalues --   -0.00496   0.00155   0.00391   0.00817   0.00850

 Mulliken charges and spin densities:
               1          2
     1  Na  -0.519731   0.789995
     2  Na   0.254519  -0.055708
     3  Na   0.102018  -0.044322
     4  Na   0.030950  -0.010357
     5  Na   0.189317  -0.094081
     6  Na  -0.164295   0.433339
     7  Na   0.107222  -0.018866
 Sum of Mulliken charges =  -0.00000   1.00000

 Dipole moment (field-independent basis, Debye):
    X=              0.3039    Y=             -0.0575    Z=              0.0718  Tot=              0.3175
 Quadrupole moment (field-independent basis, Debye-Ang):
   XX=            -56.2584   YY=            -60.7931   ZZ=            -75.7314
   XY=              0.3999   XZ=              0.1252   YZ=              2.0711

 Normal termination of Gaussian 16 at Thu Dec  7 20:00:52 2023.
