 Gaussian 16, Revision B.01,
 Gaussian 16:  ES64L-G16RevB.01 20-Dec-2017

 -------------------------
 #P B3LYP/6-311+g(d) force
 -------------------------

 -----
 DPGEN
 -----
 Symbolic Z-matrix:
 Charge =  0 Multiplicity = 2

                         Standard orientation:
 ---------------------------------------------------------------------
 Center     Atomic      Atomic             Coordinates (Angstroms)
 Number     Number       Type             X           Y           Z
 ---------------------------------------------------------------------
      1         11           0       -2.008306    2.443729   -0.164649
      2         11           0       -0.071726   -0.073443   -1.572076
      3         11           0        2.188820    2.195152    0.101240
      4         11           0       -0.336489   -2.738160    0.528150
      5         11           0        0.356958    0.217347    2.065911
      6         11           0        2.785534   -1.203599   -0.705011
      7         11           0       -2.914791   -0.841026   -0.253564
 ---------------------------------------------------------------------

 SCF Done:  E(UB3LYP) =  -1136.13696719     A.U. after   19 cycles

 The electronic state is 2-A.
 Alpha  occ. eigenvalues --  -38.43883 -38.43830 -38.43771 -38.43730 -38.43655
 Alpha  occ. eigenvalues --  -38.43237 -38.42988  -2.19736  -2.19657  -2.19645
 Alpha  occ. eigenvalues --   -2.19625  -2.19465  -2.19236  -2.18874  -1.13446
 Alpha  occ. eigenvalues --   -1.13383  -1.13368  -1.13360  -1.13352  -1.13319
 Alpha  occ. eigenvalues --   -1.13304  -1.13286  -1.13284  -1.13282  -1.13243
 Alpha  occ. eigenvalues --   -1.13235  -1.13145  -1.13126  -1.13097  -1.12920
 Alpha  occ. eigenvalues --   -1.12872  -1.12858  -1.12554  -1.12530  -1.12507
 Alpha  occ. eigenvalues --   -0.18669  -0.13164  -0.12260  -0.10995
 Alpha virt. eigenvalues --   -0.05505  -0.05274  -0.04459  -0.03298  -0.02963
 Alpha virt. eigenvalues --   -0.02652  -0.01487  -0.01157  -0.00344  -0.00226
 Alpha virt. eigenvalues --    0.00039   0.00347   0.00797   0.00858   0.00924

  Beta  occ. eigenvalues --  -38.43860 -38.43826 -38.43767 -38.43655 -38.43634
  Beta  occ. eigenvalues --  -38.43181 -38.42974  -2.19695  -2.19652  -2.19641
  Beta  occ. eigenvalues --   -2.19468  -2.19449  -2.19135  -2.18853  -1.13407
  Beta  occ. eigenvalues --   -1.13356  -1.13344  -1.13338  -1.13329  -1.13307
  Beta  occ. eigenvalues --   -1.13294  -1.13277  -1.13274  -1.13171  -1.13137
  Beta  occ. eigenvalues --   -1.13132  -1.13122  -1.13113  -1.13093  -1.12849
  Beta  occ. eigenvalues --   -1.12800  -1.12784  -1.12538  -1.12504  -1.12482
  Beta  occ. eigenvalues --   -0.17960  -0.12885  -0.12021
  Beta virt. eigenvalues --   -0.07074  -0.05492  -0.05180  -0.04419  -0.02554
  Beta virt. eigenvalues --   -0.02210  -0.01634  -0.01365  -0.01077  -0.00375
  Beta virt. eigenvalues --   -0.00194   0.00134   0.00388   0.00840   0.00899

 Mulliken charges and spin densities:
               1          2
     1  Na  -0.038375  -0.067657
     2  Na  -0.147053   0.303174
     3  Na   0.049280  -0.043098
     4  Na   0.179163   0.113747
     5  Na  -0.333744   0.636165
     6  Na   0.161452   0.076739
     7  Na   0.129278  -0.019070
 Sum of Mulliken charges =  -0.00000   1.00000

 Dipole moment (field-independent basis, Debye):
    X=              0.1452    Y=              0.2270    Z=              0.1069  Tot=              0.2899
 Quadrupole moment (field-independent basis, Debye-Ang):
   XX=            -57.4515   YY=            -63.0064   ZZ=            -73.3088
   XY=              0.1064   XZ=             -0.9887   YZ=             -0.2596

 Normal termination of Gaussian 16 at Thu Dec  7 07:36:29 2023.
