 Gaussian 16, Revision B.01,
 Gaussian 16:  ES64L-G16RevB.01 20-Dec-2017

 -------------------------
 #P B3LYP/6-311+g(d) force
 -------------------------

 -----
 DPGEN
 -----
 Symbolic Z-matrix:
 Charge =  0 Multiplicity = 2

                         Standard orientation:
 ---------------------------------------------------------------------
 Center     Atomic      Atomic             Coordinates (Angstroms)
 Number     Number       Type             X           Y           Z
 ---------------------------------------------------------------------
      1         11           0       -4.978072    0.891571    0.305906
      2         11           0        0.566511   -0.792124    1.903085
      3         11           0        2.565208    1.981151    0.249126
      4         11           0        4.218396   -0.905234    0.260993
      5         11           0       -3.107826   -1.908859   -0.257969
      6         11           0       -0.684338    1.592062   -0.664335
      7         11           0        1.420121   -0.858569   -1.796806
 ---------------------------------------------------------------------

 SCF Done:  E(UB3LYP) =  -1136.10300629     A.U. after   29 cycles

 The electronic state is 2-A.
 Alpha  occ. eigenvalues --  -38.46840 -38.46359 -38.44289 -38.44100 -38.44069
 Alpha  occ. eigenvalues --  -38.42478 -38.42071  -2.22651  -2.22138  -2.20035
 Alpha  occ. eigenvalues --   -2.19985  -2.19857  -2.18325  -2.17935  -1.16330
 Alpha  occ. eigenvalues --   -1.16309  -1.16277  -1.15809  -1.15775  -1.15753
 Alpha  occ. eigenvalues --   -1.13730  -1.13702  -1.13689  -1.13680  -1.13635
 Alpha  occ. eigenvalues --   -1.13581  -1.13508  -1.13500  -1.13466  -1.11998
 Alpha  occ. eigenvalues --   -1.11996  -1.11957  -1.11635  -1.11613  -1.11547
 Alpha  occ. eigenvalues --   -0.17778  -0.13780  -0.10746  -0.10587
 Alpha virt. eigenvalues --   -0.08201  -0.05823  -0.04097  -0.03280  -0.02969
 Alpha virt. eigenvalues --   -0.02330  -0.02277  -0.02000  -0.01267  -0.00764
 Alpha virt. eigenvalues --   -0.00682   0.00056   0.00159   0.00485   0.00554

  Beta  occ. eigenvalues --  -38.46832 -38.46300 -38.44309 -38.44048 -38.43999
  Beta  occ. eigenvalues --  -38.42462 -38.42070  -2.22638  -2.22030  -2.20077
  Beta  occ. eigenvalues --   -2.19889  -2.19724  -2.18297  -2.17937  -1.16305
  Beta  occ. eigenvalues --   -1.16291  -1.16277  -1.15721  -1.15703  -1.15680
  Beta  occ. eigenvalues --   -1.13762  -1.13732  -1.13688  -1.13614  -1.13574
  Beta  occ. eigenvalues --   -1.13503  -1.13417  -1.13409  -1.13384  -1.11979
  Beta  occ. eigenvalues --   -1.11971  -1.11932  -1.11637  -1.11605  -1.11546
  Beta  occ. eigenvalues --   -0.17207  -0.13274  -0.10371
  Beta virt. eigenvalues --   -0.07971  -0.07317  -0.05345  -0.03867  -0.03053
  Beta virt. eigenvalues --   -0.02723  -0.02057  -0.01974  -0.01423  -0.00966
  Beta virt. eigenvalues --   -0.00566  -0.00394   0.00132   0.00220   0.00536

 Mulliken charges and spin densities:
               1          2
     1  Na   0.070937   0.341133
     2  Na  -0.038985   0.266289
     3  Na   0.073736   0.273909
     4  Na   0.119752   0.033967
     5  Na  -0.097479  -0.064029
     6  Na  -0.282708  -0.051565
     7  Na   0.154747   0.200296
 Sum of Mulliken charges =  -0.00000   1.00000

 Dipole moment (field-independent basis, Debye):
    X=              0.2642    Y=             -0.1941    Z=             -0.1023  Tot=              0.3434
 Quadrupole moment (field-independent basis, Debye-Ang):
   XX=            -79.3841   YY=            -73.1579   ZZ=            -58.9448
   XY=              0.3251   XZ=             -1.2701   YZ=              8.0932

 Normal termination of Gaussian 16 at Thu Dec  7 15:57:35 2023.
