 Gaussian 16, Revision B.01,
 Gaussian 16:  ES64L-G16RevB.01 20-Dec-2017

 -------------------------
 #P B3LYP/6-311+g(d) force
 -------------------------

 -----
 DPGEN
 -----
 Symbolic Z-matrix:
 Charge =  0 Multiplicity = 2

                         Standard orientation:
 ---------------------------------------------------------------------
 Center     Atomic      Atomic             Coordinates (Angstroms)
 Number     Number       Type             X           Y           Z
 ---------------------------------------------------------------------
      1         11           0       -2.993287   -1.273020    0.102764
      2         11           0       -2.004876    2.093731   -0.184266
      3         11           0        1.406060    2.749708    0.146512
      4         11           0        3.036903   -1.064689    0.069683
      5         11           0        0.067885    0.040637    1.614902
      6         11           0        0.363572    0.277676   -1.553529
      7         11           0        0.123743   -2.824042   -0.196067
 ---------------------------------------------------------------------

 SCF Done:  E(UB3LYP) =  -1136.13715011     A.U. after   20 cycles

 The electronic state is 2-A.
 Alpha  occ. eigenvalues --  -38.44014 -38.43813 -38.43734 -38.43704 -38.43552
 Alpha  occ. eigenvalues --  -38.42784 -38.42783  -2.19851  -2.19682  -2.19611
 Alpha  occ. eigenvalues --   -2.19520  -2.19429  -2.18812  -2.18789  -1.13522
 Alpha  occ. eigenvalues --   -1.13516  -1.13495  -1.13381  -1.13351  -1.13318
 Alpha  occ. eigenvalues --   -1.13300  -1.13280  -1.13230  -1.13187  -1.13186
 Alpha  occ. eigenvalues --   -1.13163  -1.13118  -1.13101  -1.13043  -1.12582
 Alpha  occ. eigenvalues --   -1.12439  -1.12436  -1.12424  -1.12409  -1.12390
 Alpha  occ. eigenvalues --   -0.18953  -0.13069  -0.12783  -0.10122
 Alpha virt. eigenvalues --   -0.05588  -0.05325  -0.04987  -0.02894  -0.02694
 Alpha virt. eigenvalues --   -0.01873  -0.01581  -0.01417  -0.00451  -0.00396
 Alpha virt. eigenvalues --    0.00055   0.00344   0.00812   0.00836   0.00895

  Beta  occ. eigenvalues --  -38.44010 -38.43805 -38.43726 -38.43704 -38.43544
  Beta  occ. eigenvalues --  -38.42714 -38.42709  -2.19847  -2.19672  -2.19599
  Beta  occ. eigenvalues --   -2.19522  -2.19419  -2.18686  -2.18652  -1.13517
  Beta  occ. eigenvalues --   -1.13501  -1.13484  -1.13375  -1.13322  -1.13305
  Beta  occ. eigenvalues --   -1.13293  -1.13242  -1.13229  -1.13190  -1.13170
  Beta  occ. eigenvalues --   -1.13164  -1.13113  -1.13065  -1.13040  -1.12490
  Beta  occ. eigenvalues --   -1.12347  -1.12343  -1.12330  -1.12311  -1.12289
  Beta  occ. eigenvalues --   -0.18245  -0.12795  -0.12553
  Beta virt. eigenvalues --   -0.06233  -0.05586  -0.05294  -0.04970  -0.02082
  Beta virt. eigenvalues --   -0.01979  -0.01510  -0.01353  -0.00896  -0.00492
  Beta virt. eigenvalues --   -0.00433   0.00192   0.00386   0.00834   0.00845

 Mulliken charges and spin densities:
               1          2
     1  Na  -0.027869  -0.058269
     2  Na   0.213130  -0.025383
     3  Na   0.246579  -0.099913
     4  Na   0.202631  -0.091597
     5  Na  -0.432828   0.748820
     6  Na  -0.305970   0.559112
     7  Na   0.104326  -0.032769
 Sum of Mulliken charges =  -0.00000   1.00000

 Dipole moment (field-independent basis, Debye):
    X=              0.2228    Y=              0.0918    Z=              0.0451  Tot=              0.2451
 Quadrupole moment (field-independent basis, Debye-Ang):
   XX=            -54.7059   YY=            -58.1698   ZZ=            -77.7514
   XY=              0.2392   XZ=              0.6501   YZ=              0.4902

 Normal termination of Gaussian 16 at Sun Dec  3 21:26:35 2023.
