 Gaussian 16, Revision B.01,
 Gaussian 16:  ES64L-G16RevB.01 20-Dec-2017

 -------------------------
 #P B3LYP/6-311+g(d) force
 -------------------------

 -----
 DPGEN
 -----
 Symbolic Z-matrix:
 Charge =  0 Multiplicity = 2

                         Standard orientation:
 ---------------------------------------------------------------------
 Center     Atomic      Atomic             Coordinates (Angstroms)
 Number     Number       Type             X           Y           Z
 ---------------------------------------------------------------------
      1         11           0       -2.764109    1.887869   -0.598394
      2         11           0        3.433778   -0.015171   -0.613213
      3         11           0        1.277886   -1.976936    0.808534
      4         11           0        1.194921    2.410409    0.609883
      5         11           0        0.278729   -0.221588   -1.715267
      6         11           0       -0.999464   -0.049314    1.983313
      7         11           0       -2.421741   -2.035269   -0.474856
 ---------------------------------------------------------------------

 SCF Done:  E(UB3LYP) =  -1136.13233398     A.U. after   20 cycles

 The electronic state is 2-A.
 Alpha  occ. eigenvalues --  -38.44170 -38.44135 -38.43877 -38.43812 -38.43591
 Alpha  occ. eigenvalues --  -38.43426 -38.43233  -2.19992  -2.19940  -2.19741
 Alpha  occ. eigenvalues --   -2.19694  -2.19508  -2.19239  -2.19147  -1.13666
 Alpha  occ. eigenvalues --   -1.13663  -1.13626  -1.13621  -1.13590  -1.13577
 Alpha  occ. eigenvalues --   -1.13448  -1.13397  -1.13372  -1.13366  -1.13332
 Alpha  occ. eigenvalues --   -1.13319  -1.13214  -1.13131  -1.13120  -1.12922
 Alpha  occ. eigenvalues --   -1.12911  -1.12859  -1.12837  -1.12810  -1.12751
 Alpha  occ. eigenvalues --   -0.18496  -0.13384  -0.11604  -0.11209
 Alpha virt. eigenvalues --   -0.05898  -0.05463  -0.04162  -0.03338  -0.02873
 Alpha virt. eigenvalues --   -0.02735  -0.01845  -0.01096  -0.00535  -0.00023
 Alpha virt. eigenvalues --    0.00137   0.00318   0.00614   0.00739   0.00831

  Beta  occ. eigenvalues --  -38.44161 -38.44127 -38.43868 -38.43757 -38.43510
  Beta  occ. eigenvalues --  -38.43414 -38.43209  -2.19979  -2.19926  -2.19680
  Beta  occ. eigenvalues --   -2.19641  -2.19361  -2.19219  -2.19108  -1.13658
  Beta  occ. eigenvalues --   -1.13642  -1.13618  -1.13605  -1.13581  -1.13564
  Beta  occ. eigenvalues --   -1.13386  -1.13358  -1.13350  -1.13307  -1.13303
  Beta  occ. eigenvalues --   -1.13272  -1.13112  -1.13026  -1.13013  -1.12906
  Beta  occ. eigenvalues --   -1.12880  -1.12848  -1.12812  -1.12745  -1.12730
  Beta  occ. eigenvalues --   -0.17757  -0.13152  -0.11389
  Beta virt. eigenvalues --   -0.07282  -0.05765  -0.05419  -0.03843  -0.02944
  Beta virt. eigenvalues --   -0.02188  -0.01733  -0.01711  -0.01057  -0.00360
  Beta virt. eigenvalues --    0.00064   0.00121   0.00350   0.00770   0.00792

 Mulliken charges and spin densities:
               1          2
     1  Na  -0.140980  -0.029479
     2  Na   0.435720   0.035493
     3  Na  -0.013405   0.054376
     4  Na  -0.310878  -0.026385
     5  Na  -0.278452   0.508051
     6  Na   0.223006   0.485559
     7  Na   0.084989  -0.027614
 Sum of Mulliken charges =  -0.00000   1.00000

 Dipole moment (field-independent basis, Debye):
    X=             -0.0722    Y=             -0.0207    Z=             -0.2524  Tot=              0.2633
 Quadrupole moment (field-independent basis, Debye-Ang):
   XX=            -52.6033   YY=            -70.0376   ZZ=            -70.7783
   XY=              0.6450   XZ=              0.9331   YZ=             -0.2475

 Normal termination of Gaussian 16 at Tue Dec  5 18:03:02 2023.
