 Gaussian 16, Revision B.01,
 Gaussian 16:  ES64L-G16RevB.01 20-Dec-2017

 -------------------------
 #P B3LYP/6-311+g(d) force
 -------------------------

 -----
 DPGEN
 -----
 Symbolic Z-matrix:
 Charge =  0 Multiplicity = 2

                         Standard orientation:
 ---------------------------------------------------------------------
 Center     Atomic      Atomic             Coordinates (Angstroms)
 Number     Number       Type             X           Y           Z
 ---------------------------------------------------------------------
      1         11           0        4.057739    0.068917   -0.929057
      2         11           0        2.233370   -2.029723    0.815209
      3         11           0        1.347136    2.685578   -0.543212
      4         11           0       -1.561556   -2.555223   -1.083266
      5         11           0       -0.412427   -0.251787    2.102989
      6         11           0       -3.708708   -0.349995   -0.654552
      7         11           0       -1.955554    2.432232    0.291889
 ---------------------------------------------------------------------

 SCF Done:  E(UB3LYP) =  -1136.11952839     A.U. after   20 cycles

 The electronic state is 2-A.
 Alpha  occ. eigenvalues --  -38.44672 -38.44513 -38.44462 -38.44317 -38.44286
 Alpha  occ. eigenvalues --  -38.43973 -38.43610  -2.20498  -2.20303  -2.20218
 Alpha  occ. eigenvalues --   -2.20127  -2.20116  -2.19782  -2.19436  -1.14162
 Alpha  occ. eigenvalues --   -1.14133  -1.14114  -1.14021  -1.13971  -1.13936
 Alpha  occ. eigenvalues --   -1.13911  -1.13888  -1.13850  -1.13781  -1.13777
 Alpha  occ. eigenvalues --   -1.13771  -1.13762  -1.13752  -1.13746  -1.13459
 Alpha  occ. eigenvalues --   -1.13443  -1.13422  -1.13107  -1.13098  -1.13079
 Alpha  occ. eigenvalues --   -0.17001  -0.13803  -0.12265  -0.11067
 Alpha virt. eigenvalues --   -0.06816  -0.05622  -0.04328  -0.03703  -0.03292
 Alpha virt. eigenvalues --   -0.02235  -0.01960  -0.01573  -0.00846  -0.00553
 Alpha virt. eigenvalues --   -0.00436   0.00263   0.00272   0.00495   0.00699

  Beta  occ. eigenvalues --  -38.44578 -38.44497 -38.44461 -38.44271 -38.44251
  Beta  occ. eigenvalues --  -38.43960 -38.43606  -2.20325  -2.20277  -2.20217
  Beta  occ. eigenvalues --   -2.20063  -2.20029  -2.19763  -2.19430  -1.14046
  Beta  occ. eigenvalues --   -1.14020  -1.13994  -1.13982  -1.13955  -1.13912
  Beta  occ. eigenvalues --   -1.13905  -1.13887  -1.13838  -1.13737  -1.13724
  Beta  occ. eigenvalues --   -1.13718  -1.13712  -1.13708  -1.13685  -1.13437
  Beta  occ. eigenvalues --   -1.13435  -1.13388  -1.13099  -1.13090  -1.13078
  Beta  occ. eigenvalues --   -0.16391  -0.13263  -0.12041
  Beta virt. eigenvalues --   -0.07539  -0.06751  -0.05252  -0.03737  -0.03529
  Beta virt. eigenvalues --   -0.02743  -0.01872  -0.01679  -0.01343  -0.00738
  Beta virt. eigenvalues --   -0.00527  -0.00176   0.00350   0.00430   0.00690

 Mulliken charges and spin densities:
               1          2
     1  Na   0.162709   0.202549
     2  Na  -0.142667   0.080786
     3  Na  -0.193333  -0.004305
     4  Na  -0.058781   0.105406
     5  Na  -0.065485   0.416346
     6  Na   0.204423   0.103277
     7  Na   0.093135   0.095941
 Sum of Mulliken charges =  -0.00000   1.00000

 Dipole moment (field-independent basis, Debye):
    X=             -0.1731    Y=             -0.1258    Z=             -0.1278  Tot=              0.2492
 Quadrupole moment (field-independent basis, Debye-Ang):
   XX=            -61.0681   YY=            -68.8524   ZZ=            -70.6293
   XY=             -3.8265   XZ=             -2.3671   YZ=              0.2185

 Normal termination of Gaussian 16 at Sun Dec  3 18:07:38 2023.
