 Gaussian 16, Revision B.01,
 Gaussian 16:  ES64L-G16RevB.01 20-Dec-2017

 -------------------------
 #P B3LYP/6-311+g(d) force
 -------------------------

 -----
 DPGEN
 -----
 Symbolic Z-matrix:
 Charge =  0 Multiplicity = 2

                         Standard orientation:
 ---------------------------------------------------------------------
 Center     Atomic      Atomic             Coordinates (Angstroms)
 Number     Number       Type             X           Y           Z
 ---------------------------------------------------------------------
      1         11           0       -0.158910   -1.019318   -2.242575
      2         11           0        1.501953    0.588590    2.483533
      3         11           0       -0.329978    2.718532   -0.297023
      4         11           0       -2.070820   -2.041580    0.296767
      5         11           0        1.919276   -2.012504    0.710642
      6         11           0       -3.639972    0.844705    0.356884
      7         11           0        2.778452    0.921575   -1.308228
 ---------------------------------------------------------------------

 SCF Done:  E(UB3LYP) =  -1136.12367796     A.U. after   21 cycles

 The electronic state is 2-A.
 Alpha  occ. eigenvalues --  -38.45014 -38.44648 -38.44646 -38.44169 -38.43695
 Alpha  occ. eigenvalues --  -38.43461 -38.43259  -2.20834  -2.20473  -2.20450
 Alpha  occ. eigenvalues --   -2.19943  -2.19537  -2.19282  -2.19022  -1.14508
 Alpha  occ. eigenvalues --   -1.14470  -1.14436  -1.14145  -1.14131  -1.14105
 Alpha  occ. eigenvalues --   -1.14101  -1.14089  -1.14081  -1.13625  -1.13602
 Alpha  occ. eigenvalues --   -1.13579  -1.13239  -1.13186  -1.13161  -1.12965
 Alpha  occ. eigenvalues --   -1.12951  -1.12909  -1.12710  -1.12701  -1.12649
 Alpha  occ. eigenvalues --   -0.17516  -0.13116  -0.11996  -0.11452
 Alpha virt. eigenvalues --   -0.06092  -0.05138  -0.04670  -0.03562  -0.03323
 Alpha virt. eigenvalues --   -0.03174  -0.01560  -0.00920  -0.00502  -0.00254
 Alpha virt. eigenvalues --   -0.00133   0.00067   0.00377   0.00535   0.00793

  Beta  occ. eigenvalues --  -38.44929 -38.44612 -38.44588 -38.44166 -38.43674
  Beta  occ. eigenvalues --  -38.43460 -38.43258  -2.20677  -2.20389  -2.20364
  Beta  occ. eigenvalues --   -2.19938  -2.19502  -2.19282  -2.19021  -1.14397
  Beta  occ. eigenvalues --   -1.14365  -1.14325  -1.14080  -1.14062  -1.14055
  Beta  occ. eigenvalues --   -1.14038  -1.14031  -1.14014  -1.13620  -1.13599
  Beta  occ. eigenvalues --   -1.13577  -1.13202  -1.13162  -1.13124  -1.12961
  Beta  occ. eigenvalues --   -1.12948  -1.12911  -1.12705  -1.12696  -1.12648
  Beta  occ. eigenvalues --   -0.16752  -0.12848  -0.11354
  Beta virt. eigenvalues --   -0.08037  -0.05890  -0.05076  -0.04026  -0.03319
  Beta virt. eigenvalues --   -0.02741  -0.02365  -0.01462  -0.00822  -0.00266
  Beta virt. eigenvalues --   -0.00203  -0.00059   0.00245   0.00450   0.00670

 Mulliken charges and spin densities:
               1          2
     1  Na   0.045389   0.334526
     2  Na  -0.058697   0.309282
     3  Na  -0.388450   0.081181
     4  Na   0.075900   0.051375
     5  Na   0.090798   0.139955
     6  Na   0.086300  -0.090752
     7  Na   0.148761   0.174433
 Sum of Mulliken charges =  -0.00000   1.00000

 Dipole moment (field-independent basis, Debye):
    X=              0.4838    Y=             -0.0869    Z=              0.0546  Tot=              0.4946
 Quadrupole moment (field-independent basis, Debye-Ang):
   XX=            -60.0135   YY=            -74.0479   ZZ=            -64.3309
   XY=              0.1051   XZ=             -2.0241   YZ=             -0.8868

 Normal termination of Gaussian 16 at Mon Dec  4 05:01:23 2023.
