 Gaussian 16, Revision B.01,
 Gaussian 16:  ES64L-G16RevB.01 20-Dec-2017

 -------------------------
 #P B3LYP/6-311+g(d) force
 -------------------------

 -----
 DPGEN
 -----
 Symbolic Z-matrix:
 Charge =  0 Multiplicity = 2

                         Standard orientation:
 ---------------------------------------------------------------------
 Center     Atomic      Atomic             Coordinates (Angstroms)
 Number     Number       Type             X           Y           Z
 ---------------------------------------------------------------------
      1         11           0       -0.127351   -0.263824   -1.319691
      2         11           0       -1.302417    1.850273    1.310117
      3         11           0        1.204415   -0.453456    1.753843
      4         11           0       -3.267418    0.350909   -1.307057
      5         11           0        2.073546    1.919527   -0.452381
      6         11           0       -2.093634   -2.148309    0.706335
      7         11           0        3.512858   -1.255120   -0.691165
 ---------------------------------------------------------------------

 SCF Done:  E(UB3LYP) =  -1136.12633571     A.U. after   25 cycles

 The electronic state is 2-A.
 Alpha  occ. eigenvalues --  -38.44493 -38.44016 -38.43828 -38.43818 -38.43817
 Alpha  occ. eigenvalues --  -38.43767 -38.42668  -2.20352  -2.19826  -2.19796
 Alpha  occ. eigenvalues --   -2.19752  -2.19709  -2.19598  -2.18524  -1.14045
 Alpha  occ. eigenvalues --   -1.13992  -1.13966  -1.13550  -1.13509  -1.13506
 Alpha  occ. eigenvalues --   -1.13487  -1.13470  -1.13432  -1.13414  -1.13410
 Alpha  occ. eigenvalues --   -1.13371  -1.13355  -1.13333  -1.13289  -1.13267
 Alpha  occ. eigenvalues --   -1.13251  -1.13228  -1.12211  -1.12184  -1.12148
 Alpha  occ. eigenvalues --   -0.18644  -0.14093  -0.11329  -0.10852
 Alpha virt. eigenvalues --   -0.06322  -0.05326  -0.04668  -0.03010  -0.02617
 Alpha virt. eigenvalues --   -0.02390  -0.02202  -0.01004  -0.00854  -0.00152
 Alpha virt. eigenvalues --    0.00214   0.00312   0.00403   0.00600   0.00771

  Beta  occ. eigenvalues --  -38.44455 -38.44016 -38.43813 -38.43784 -38.43752
  Beta  occ. eigenvalues --  -38.43743 -38.42651  -2.20282  -2.19828  -2.19741
  Beta  occ. eigenvalues --   -2.19682  -2.19632  -2.19555  -2.18495  -1.13988
  Beta  occ. eigenvalues --   -1.13949  -1.13919  -1.13509  -1.13498  -1.13485
  Beta  occ. eigenvalues --   -1.13465  -1.13455  -1.13380  -1.13369  -1.13347
  Beta  occ. eigenvalues --   -1.13342  -1.13272  -1.13268  -1.13261  -1.13237
  Beta  occ. eigenvalues --   -1.13220  -1.13183  -1.12184  -1.12146  -1.12134
  Beta  occ. eigenvalues --   -0.17911  -0.13843  -0.10666
  Beta virt. eigenvalues --   -0.07451  -0.06112  -0.05123  -0.04188  -0.02769
  Beta virt. eigenvalues --   -0.02194  -0.01891  -0.01599  -0.00915  -0.00487
  Beta virt. eigenvalues --   -0.00042   0.00247   0.00350   0.00494   0.00696

 Mulliken charges and spin densities:
               1          2
     1  Na  -0.944382   0.279507
     2  Na  -0.301321   0.068495
     3  Na   0.133082   0.399333
     4  Na   0.924338  -0.008032
     5  Na   0.287013   0.061705
     6  Na  -0.248306   0.176798
     7  Na   0.149575   0.022192
 Sum of Mulliken charges =  -0.00000   1.00000

 Dipole moment (field-independent basis, Debye):
    X=              0.0073    Y=              0.1935    Z=             -0.0998  Tot=              0.2179
 Quadrupole moment (field-independent basis, Debye-Ang):
   XX=            -51.3305   YY=            -73.3576   ZZ=            -68.7320
   XY=             -0.7032   XZ=             -0.6440   YZ=             -3.5371

 Normal termination of Gaussian 16 at Tue Dec  5 10:39:46 2023.
