 Gaussian 16, Revision B.01,
 Gaussian 16:  ES64L-G16RevB.01 20-Dec-2017

 -------------------------
 #P B3LYP/6-311+g(d) force
 -------------------------

 -----
 DPGEN
 -----
 Symbolic Z-matrix:
 Charge =  0 Multiplicity = 2

                         Standard orientation:
 ---------------------------------------------------------------------
 Center     Atomic      Atomic             Coordinates (Angstroms)
 Number     Number       Type             X           Y           Z
 ---------------------------------------------------------------------
      1         11           0        0.641363   -1.898471   -0.072128
      2         11           0        2.870845    0.937790    0.271158
      3         11           0       -1.252125    0.881780   -1.071209
      4         11           0       -2.912457   -2.365868   -0.381999
      5         11           0       -3.426106    0.407256    1.146259
      6         11           0        0.361158    4.004517   -0.101307
      7         11           0        3.717322   -1.967005    0.209226
 ---------------------------------------------------------------------

 SCF Done:  E(UB3LYP) =  -1136.12068784     A.U. after   26 cycles

 The electronic state is 2-A.
 Alpha  occ. eigenvalues --  -38.44651 -38.44573 -38.44183 -38.43744 -38.43741
 Alpha  occ. eigenvalues --  -38.43710 -38.43452  -2.20483  -2.20410  -2.20048
 Alpha  occ. eigenvalues --   -2.19628  -2.19607  -2.19499  -2.19354  -1.14168
 Alpha  occ. eigenvalues --   -1.14148  -1.14121  -1.14098  -1.14088  -1.14049
 Alpha  occ. eigenvalues --   -1.13789  -1.13749  -1.13624  -1.13296  -1.13276
 Alpha  occ. eigenvalues --   -1.13261  -1.13253  -1.13239  -1.13234  -1.13174
 Alpha  occ. eigenvalues --   -1.13164  -1.13132  -1.13041  -1.13027  -1.12935
 Alpha  occ. eigenvalues --   -0.17392  -0.14503  -0.12299  -0.09986
 Alpha virt. eigenvalues --   -0.06330  -0.05558  -0.05128  -0.03379  -0.02419
 Alpha virt. eigenvalues --   -0.02237  -0.01880  -0.01452  -0.01372  -0.00809
 Alpha virt. eigenvalues --    0.00115   0.00201   0.00425   0.00594   0.00625

  Beta  occ. eigenvalues --  -38.44640 -38.44556 -38.44165 -38.43748 -38.43685
  Beta  occ. eigenvalues --  -38.43654 -38.43409  -2.20470  -2.20382  -2.20020
  Beta  occ. eigenvalues --   -2.19562  -2.19506  -2.19465  -2.19279  -1.14162
  Beta  occ. eigenvalues --   -1.14134  -1.14082  -1.14076  -1.14071  -1.14002
  Beta  occ. eigenvalues --   -1.13756  -1.13707  -1.13610  -1.13267  -1.13222
  Beta  occ. eigenvalues --   -1.13203  -1.13178  -1.13169  -1.13167  -1.13139
  Beta  occ. eigenvalues --   -1.13135  -1.13133  -1.12989  -1.12975  -1.12870
  Beta  occ. eigenvalues --   -0.16796  -0.13959  -0.12136
  Beta virt. eigenvalues --   -0.06317  -0.06162  -0.05458  -0.04852  -0.02867
  Beta virt. eigenvalues --   -0.02226  -0.01958  -0.01657  -0.01294  -0.01103
  Beta virt. eigenvalues --   -0.00350   0.00335   0.00410   0.00506   0.00692

 Mulliken charges and spin densities:
               1          2
     1  Na  -2.232678  -0.126056
     2  Na  -0.447949   0.121469
     3  Na  -0.617594   0.227363
     4  Na   0.790636  -0.080872
     5  Na   0.264170   0.411640
     6  Na   0.253941  -0.071763
     7  Na   1.989474   0.518219
 Sum of Mulliken charges =  -0.00000   1.00000

 Dipole moment (field-independent basis, Debye):
    X=              0.2673    Y=             -0.7239    Z=             -0.0752  Tot=              0.7753
 Quadrupole moment (field-independent basis, Debye-Ang):
   XX=            -67.5247   YY=            -59.4917   ZZ=            -70.9754
   XY=              3.9529   XZ=              2.5090   YZ=              1.5284

 Normal termination of Gaussian 16 at Tue Nov 28 23:59:14 2023.
