 Gaussian 16, Revision B.01,
 Gaussian 16:  ES64L-G16RevB.01 20-Dec-2017

 -------------------------
 #P B3LYP/6-311+g(d) force
 -------------------------

 -----
 DPGEN
 -----
 Symbolic Z-matrix:
 Charge =  0 Multiplicity = 2

                         Standard orientation:
 ---------------------------------------------------------------------
 Center     Atomic      Atomic             Coordinates (Angstroms)
 Number     Number       Type             X           Y           Z
 ---------------------------------------------------------------------
      1         11           0       -2.402485    1.525940    0.072001
      2         11           0       -2.420218   -1.641852   -0.122079
      3         11           0        1.016470   -2.571330    0.023784
      4         11           0       -0.009141   -0.027448    1.794322
      5         11           0        3.023436    0.014085   -0.077886
      6         11           0       -0.075102    0.083085   -1.667109
      7         11           0        0.867039    2.617520   -0.023033
 ---------------------------------------------------------------------

 SCF Done:  E(UB3LYP) =  -1136.13827524     A.U. after   19 cycles

 The electronic state is 2-A.
 Alpha  occ. eigenvalues --  -38.43865 -38.43550 -38.43530 -38.43173 -38.43106
 Alpha  occ. eigenvalues --  -38.43095 -38.43003  -2.19745  -2.19460  -2.19450
 Alpha  occ. eigenvalues --   -2.19117  -2.19080  -2.19056  -2.19014  -1.13418
 Alpha  occ. eigenvalues --   -1.13406  -1.13397  -1.13218  -1.13133  -1.13128
 Alpha  occ. eigenvalues --   -1.13116  -1.13099  -1.13034  -1.12847  -1.12811
 Alpha  occ. eigenvalues --   -1.12777  -1.12759  -1.12738  -1.12705  -1.12702
 Alpha  occ. eigenvalues --   -1.12697  -1.12662  -1.12655  -1.12631  -1.12620
 Alpha  occ. eigenvalues --   -0.19535  -0.13364  -0.12660  -0.10819
 Alpha virt. eigenvalues --   -0.05465  -0.05004  -0.04532  -0.03207  -0.02829
 Alpha virt. eigenvalues --   -0.02353  -0.01442  -0.00993  -0.00082  -0.00039
 Alpha virt. eigenvalues --    0.00027   0.00369   0.00856   0.00954   0.00964

  Beta  occ. eigenvalues --  -38.43862 -38.43543 -38.43522 -38.43166 -38.43088
  Beta  occ. eigenvalues --  -38.43020 -38.42927  -2.19741  -2.19450  -2.19442
  Beta  occ. eigenvalues --   -2.19072  -2.19005  -2.18961  -2.18918  -1.13418
  Beta  occ. eigenvalues --   -1.13400  -1.13377  -1.13215  -1.13126  -1.13108
  Beta  occ. eigenvalues --   -1.13087  -1.13065  -1.13033  -1.12799  -1.12765
  Beta  occ. eigenvalues --   -1.12723  -1.12703  -1.12686  -1.12657  -1.12633
  Beta  occ. eigenvalues --   -1.12617  -1.12609  -1.12591  -1.12564  -1.12546
  Beta  occ. eigenvalues --   -0.18786  -0.13087  -0.12374
  Beta virt. eigenvalues --   -0.06851  -0.05450  -0.05009  -0.04538  -0.02359
  Beta virt. eigenvalues --   -0.02004  -0.01361  -0.01285  -0.00934  -0.00136
  Beta virt. eigenvalues --   -0.00098   0.00148   0.00390   0.00906   0.00949

 Mulliken charges and spin densities:
               1          2
     1  Na   0.319828  -0.039881
     2  Na   0.205474  -0.067109
     3  Na   0.187975  -0.096667
     4  Na  -0.525706   0.728328
     5  Na   0.101738  -0.075475
     6  Na  -0.539086   0.640344
     7  Na   0.249776  -0.089540
 Sum of Mulliken charges =  -0.00000   1.00000

 Dipole moment (field-independent basis, Debye):
    X=              0.0688    Y=             -0.0364    Z=              0.0608  Tot=              0.0987
 Quadrupole moment (field-independent basis, Debye-Ang):
   XX=            -56.0316   YY=            -62.8844   ZZ=            -74.2682
   XY=              0.2620   XZ=             -0.1766   YZ=              0.3121

 Normal termination of Gaussian 16 at Wed Nov 29 03:07:07 2023.
