 Gaussian 16, Revision B.01,
 Gaussian 16:  ES64L-G16RevB.01 20-Dec-2017

 -------------------------
 #P B3LYP/6-311+g(d) force
 -------------------------

 -----
 DPGEN
 -----
 Symbolic Z-matrix:
 Charge =  0 Multiplicity = 2

                         Standard orientation:
 ---------------------------------------------------------------------
 Center     Atomic      Atomic             Coordinates (Angstroms)
 Number     Number       Type             X           Y           Z
 ---------------------------------------------------------------------
      1         11           0       -0.075153    0.001342    1.811357
      2         11           0       -0.075153    0.000242   -1.811143
      3         11           0       -2.012677    1.431508   -0.000543
      4         11           0       -2.029529   -1.415492    0.000657
      5         11           0        0.776814    1.964856   -0.000443
      6         11           0        0.753681   -1.970044   -0.000243
      7         11           0        2.662017   -0.012412    0.000357
 ---------------------------------------------------------------------

 SCF Done:  E(UB3LYP) =  -1136.07792736     A.U. after   17 cycles

 The electronic state is 2-A.
 Alpha  occ. eigenvalues --  -38.44283 -38.44282 -38.44149 -38.43575 -38.43567
 Alpha  occ. eigenvalues --  -38.43466 -38.43465  -2.20526  -2.20524  -2.20237
 Alpha  occ. eigenvalues --   -2.19716  -2.19696  -2.19662  -2.19650  -1.14394
 Alpha  occ. eigenvalues --   -1.14265  -1.14249  -1.14246  -1.14198  -1.14139
 Alpha  occ. eigenvalues --   -1.14060  -1.14002  -1.13810  -1.13574  -1.13522
 Alpha  occ. eigenvalues --   -1.13504  -1.13336  -1.13283  -1.13274  -1.13268
 Alpha  occ. eigenvalues --   -1.13260  -1.13251  -1.13189  -1.13141  -1.13075
 Alpha  occ. eigenvalues --   -0.21827  -0.14008  -0.12872  -0.12430
 Alpha virt. eigenvalues --   -0.05229  -0.04256  -0.03973  -0.03798  -0.03215
 Alpha virt. eigenvalues --   -0.02911  -0.01102  -0.00432  -0.00110   0.00339
 Alpha virt. eigenvalues --    0.00798   0.00842   0.01041   0.01171   0.01236

  Beta  occ. eigenvalues --  -38.44185 -38.44184 -38.44141 -38.43563 -38.43555
  Beta  occ. eigenvalues --  -38.43448 -38.43447  -2.20350  -2.20347  -2.20228
  Beta  occ. eigenvalues --   -2.19700  -2.19676  -2.19639  -2.19631  -1.14308
  Beta  occ. eigenvalues --   -1.14146  -1.14139  -1.14114  -1.14114  -1.14060
  Beta  occ. eigenvalues --   -1.14009  -1.13949  -1.13757  -1.13571  -1.13506
  Beta  occ. eigenvalues --   -1.13492  -1.13267  -1.13264  -1.13239  -1.13217
  Beta  occ. eigenvalues --   -1.13185  -1.13184  -1.13172  -1.13135  -1.13071
  Beta  occ. eigenvalues --   -0.20978  -0.13622  -0.12488
  Beta virt. eigenvalues --   -0.08215  -0.05266  -0.04246  -0.03919  -0.02806
  Beta virt. eigenvalues --   -0.02267  -0.01856  -0.01026  -0.00396   0.00037
  Beta virt. eigenvalues --    0.00360   0.00797   0.00809   0.01072   0.01165

 Mulliken charges and spin densities:
               1          2
     1  Na  -0.222190   0.481057
     2  Na  -0.222061   0.480794
     3  Na   0.104773  -0.004753
     4  Na   0.102500  -0.005928
     5  Na   0.195577   0.061245
     6  Na   0.195963   0.061677
     7  Na  -0.154562  -0.074092
 Sum of Mulliken charges =  -0.00000   1.00000

 Dipole moment (field-independent basis, Debye):
    X=             -0.0230    Y=              0.0001    Z=              0.0006  Tot=              0.0230
 Quadrupole moment (field-independent basis, Debye-Ang):
   XX=            -59.6442   YY=            -70.7400   ZZ=            -67.8692
   XY=             -0.0041   XZ=              0.0004   YZ=             -0.0022

 Normal termination of Gaussian 16 at Thu Dec  7 04:14:31 2023.
