 Gaussian 16, Revision B.01,
 Gaussian 16:  ES64L-G16RevB.01 20-Dec-2017

 -------------------------
 #P B3LYP/6-311+g(d) force
 -------------------------

 -----
 DPGEN
 -----
 Symbolic Z-matrix:
 Charge =  0 Multiplicity = 2

                         Standard orientation:
 ---------------------------------------------------------------------
 Center     Atomic      Atomic             Coordinates (Angstroms)
 Number     Number       Type             X           Y           Z
 ---------------------------------------------------------------------
      1         11           0        2.886435   -0.182940   -1.386067
      2         11           0        1.447292   -2.421564    1.642095
      3         11           0       -0.776534   -1.690646   -1.428405
      4         11           0        1.652109    1.051568    1.705469
      5         11           0       -3.509016   -1.171622   -0.464404
      6         11           0       -2.041887    1.945416    1.639934
      7         11           0        0.341601    2.469787   -1.708622
 ---------------------------------------------------------------------

 SCF Done:  E(UB3LYP) =  -1136.11913954     A.U. after   20 cycles

 The electronic state is 2-A.
 Alpha  occ. eigenvalues --  -38.44736 -38.44611 -38.44392 -38.44291 -38.44272
 Alpha  occ. eigenvalues --  -38.43698 -38.43473  -2.20533  -2.20373  -2.20177
 Alpha  occ. eigenvalues --   -2.20095  -2.20042  -2.19510  -2.19313  -1.14212
 Alpha  occ. eigenvalues --   -1.14195  -1.14150  -1.14049  -1.14020  -1.14000
 Alpha  occ. eigenvalues --   -1.13860  -1.13819  -1.13804  -1.13778  -1.13751
 Alpha  occ. eigenvalues --   -1.13720  -1.13702  -1.13683  -1.13671  -1.13303
 Alpha  occ. eigenvalues --   -1.13158  -1.13132  -1.12963  -1.12962  -1.12915
 Alpha  occ. eigenvalues --   -0.17161  -0.12690  -0.11917  -0.11720
 Alpha virt. eigenvalues --   -0.05764  -0.05536  -0.04927  -0.03439  -0.03270
 Alpha virt. eigenvalues --   -0.03074  -0.01369  -0.01055  -0.00900  -0.00305
 Alpha virt. eigenvalues --    0.00033   0.00045   0.00286   0.00465   0.00694

  Beta  occ. eigenvalues --  -38.44705 -38.44578 -38.44351 -38.44256 -38.44233
  Beta  occ. eigenvalues --  -38.43700 -38.43455  -2.20478  -2.20314  -2.20100
  Beta  occ. eigenvalues --   -2.20024  -2.19977  -2.19515  -2.19280  -1.14170
  Beta  occ. eigenvalues --   -1.14160  -1.14099  -1.14007  -1.13984  -1.13947
  Beta  occ. eigenvalues --   -1.13798  -1.13765  -1.13756  -1.13726  -1.13696
  Beta  occ. eigenvalues --   -1.13669  -1.13650  -1.13641  -1.13627  -1.13298
  Beta  occ. eigenvalues --   -1.13160  -1.13135  -1.12943  -1.12932  -1.12898
  Beta  occ. eigenvalues --   -0.16437  -0.12491  -0.11515
  Beta virt. eigenvalues --   -0.08117  -0.05644  -0.05135  -0.04422  -0.03221
  Beta virt. eigenvalues --   -0.02882  -0.02279  -0.01292  -0.00901  -0.00596
  Beta virt. eigenvalues --   -0.00127   0.00076   0.00142   0.00377   0.00559

 Mulliken charges and spin densities:
               1          2
     1  Na   0.387917   0.233670
     2  Na  -0.137048   0.054095
     3  Na  -0.043353   0.234190
     4  Na   0.266334   0.403301
     5  Na   0.015617  -0.138090
     6  Na  -0.067191   0.125060
     7  Na  -0.422276   0.087775
 Sum of Mulliken charges =  -0.00000   1.00000

 Dipole moment (field-independent basis, Debye):
    X=              0.6312    Y=              0.1791    Z=              0.0729  Tot=              0.6602
 Quadrupole moment (field-independent basis, Debye-Ang):
   XX=            -61.6254   YY=            -71.2875   ZZ=            -64.9358
   XY=             -2.2964   XZ=             -3.3626   YZ=             -3.3442

 Normal termination of Gaussian 16 at Sun Dec  3 14:43:59 2023.
