 Gaussian 16, Revision B.01,
 Gaussian 16:  ES64L-G16RevB.01 20-Dec-2017

 -------------------------
 #P B3LYP/6-311+g(d) force
 -------------------------

 -----
 DPGEN
 -----
 Symbolic Z-matrix:
 Charge =  0 Multiplicity = 2

                         Standard orientation:
 ---------------------------------------------------------------------
 Center     Atomic      Atomic             Coordinates (Angstroms)
 Number     Number       Type             X           Y           Z
 ---------------------------------------------------------------------
      1         11           0       -1.261622   -1.051691    2.256330
      2         11           0       -0.778226    0.771947   -2.123881
      3         11           0       -3.409463   -0.155307   -0.094313
      4         11           0       -0.561647   -2.248007   -1.003627
      5         11           0       -1.276265    2.462979    0.699878
      6         11           0        2.293374    0.175456    0.046165
      7         11           0        4.993849    0.044623    0.219448
 ---------------------------------------------------------------------

 SCF Done:  E(UB3LYP) =  -1136.10921739     A.U. after   31 cycles

 The electronic state is 2-A.
 Alpha  occ. eigenvalues --  -38.45762 -38.45090 -38.44287 -38.43938 -38.43725
 Alpha  occ. eigenvalues --  -38.43288 -38.43044  -2.21616  -2.20928  -2.20132
 Alpha  occ. eigenvalues --   -2.19855  -2.19602  -2.19161  -2.18891  -1.15320
 Alpha  occ. eigenvalues --   -1.15283  -1.15217  -1.14742  -1.14541  -1.14538
 Alpha  occ. eigenvalues --   -1.13794  -1.13787  -1.13737  -1.13530  -1.13512
 Alpha  occ. eigenvalues --   -1.13461  -1.13288  -1.13244  -1.13209  -1.12850
 Alpha  occ. eigenvalues --   -1.12811  -1.12770  -1.12563  -1.12539  -1.12530
 Alpha  occ. eigenvalues --   -0.18373  -0.13602  -0.12057  -0.11062
 Alpha virt. eigenvalues --   -0.07668  -0.04029  -0.03826  -0.03583  -0.03130
 Alpha virt. eigenvalues --   -0.03025  -0.02717  -0.00933  -0.00742  -0.00548
 Alpha virt. eigenvalues --   -0.00327  -0.00166   0.00240   0.00684   0.01027

  Beta  occ. eigenvalues --  -38.45751 -38.45084 -38.44227 -38.43865 -38.43722
  Beta  occ. eigenvalues --  -38.43248 -38.43022  -2.21602  -2.20918  -2.20020
  Beta  occ. eigenvalues --   -2.19723  -2.19599  -2.19090  -2.18852  -1.15281
  Beta  occ. eigenvalues --   -1.15266  -1.15215  -1.14736  -1.14534  -1.14531
  Beta  occ. eigenvalues --   -1.13716  -1.13709  -1.13657  -1.13441  -1.13424
  Beta  occ. eigenvalues --   -1.13354  -1.13283  -1.13229  -1.13209  -1.12794
  Beta  occ. eigenvalues --   -1.12762  -1.12712  -1.12538  -1.12511  -1.12490
  Beta  occ. eigenvalues --   -0.17511  -0.13387  -0.10953
  Beta virt. eigenvalues --   -0.08019  -0.07413  -0.03620  -0.03352  -0.03155
  Beta virt. eigenvalues --   -0.03024  -0.02816  -0.01914  -0.00746  -0.00572
  Beta virt. eigenvalues --   -0.00442  -0.00196   0.00008   0.00251   0.00752

 Mulliken charges and spin densities:
               1          2
     1  Na   0.474570   0.327853
     2  Na   1.316544   0.335213
     3  Na  -0.121909   0.170018
     4  Na   0.474491   0.040788
     5  Na   0.421454   0.079574
     6  Na  -0.423500  -0.197699
     7  Na  -2.141651   0.244253
 Sum of Mulliken charges =  -0.00000   1.00000

 Dipole moment (field-independent basis, Debye):
    X=             -0.2755    Y=             -0.2441    Z=              0.1173  Tot=              0.3863
 Quadrupole moment (field-independent basis, Debye-Ang):
   XX=            -49.0221   YY=            -79.1236   ZZ=            -66.3302
   XY=              0.3626   XZ=              1.9318   YZ=              3.4651

 Normal termination of Gaussian 16 at Thu Dec  7 04:45:30 2023.
