 Gaussian 16, Revision B.01,
 Gaussian 16:  ES64L-G16RevB.01 20-Dec-2017

 -------------------------
 #P B3LYP/6-311+g(d) force
 -------------------------

 -----
 DPGEN
 -----
 Symbolic Z-matrix:
 Charge =  0 Multiplicity = 2

                         Standard orientation:
 ---------------------------------------------------------------------
 Center     Atomic      Atomic             Coordinates (Angstroms)
 Number     Number       Type             X           Y           Z
 ---------------------------------------------------------------------
      1         11           0       -3.322298   -0.810539    0.134953
      2         11           0       -0.057912   -2.691285   -0.206556
      3         11           0       -1.602854    2.569296   -0.310094
      4         11           0        0.055175    0.101928    2.160093
      5         11           0       -0.253891   -0.048261   -1.566574
      6         11           0        2.907059   -1.182186   -0.151393
      7         11           0        2.274721    2.061046   -0.060429
 ---------------------------------------------------------------------

 SCF Done:  E(UB3LYP) =  -1136.13442008     A.U. after   20 cycles

 The electronic state is 2-A.
 Alpha  occ. eigenvalues --  -38.44662 -38.43859 -38.43766 -38.43704 -38.43654
 Alpha  occ. eigenvalues --  -38.43198 -38.43076  -2.20440  -2.19713  -2.19624
 Alpha  occ. eigenvalues --   -2.19530  -2.19476  -2.19198  -2.18975  -1.14115
 Alpha  occ. eigenvalues --   -1.14087  -1.14086  -1.13392  -1.13375  -1.13371
 Alpha  occ. eigenvalues --   -1.13289  -1.13253  -1.13241  -1.13202  -1.13195
 Alpha  occ. eigenvalues --   -1.13186  -1.13163  -1.13132  -1.13092  -1.12967
 Alpha  occ. eigenvalues --   -1.12855  -1.12794  -1.12638  -1.12623  -1.12577
 Alpha  occ. eigenvalues --   -0.18528  -0.13071  -0.12246  -0.10709
 Alpha virt. eigenvalues --   -0.06054  -0.05269  -0.04350  -0.03186  -0.02792
 Alpha virt. eigenvalues --   -0.02604  -0.01868  -0.01139  -0.00457  -0.00259
 Alpha virt. eigenvalues --   -0.00037   0.00325   0.00743   0.00833   0.00899

  Beta  occ. eigenvalues --  -38.44662 -38.43856 -38.43701 -38.43664 -38.43647
  Beta  occ. eigenvalues --  -38.43139 -38.43067  -2.20441  -2.19710  -2.19528
  Beta  occ. eigenvalues --   -2.19466  -2.19435  -2.19092  -2.18963  -1.14101
  Beta  occ. eigenvalues --   -1.14090  -1.14089  -1.13393  -1.13375  -1.13347
  Beta  occ. eigenvalues --   -1.13198  -1.13181  -1.13177  -1.13164  -1.13159
  Beta  occ. eigenvalues --   -1.13123  -1.13107  -1.13100  -1.13088  -1.12905
  Beta  occ. eigenvalues --   -1.12780  -1.12719  -1.12616  -1.12586  -1.12568
  Beta  occ. eigenvalues --   -0.17803  -0.12882  -0.11996
  Beta virt. eigenvalues --   -0.06770  -0.05996  -0.05269  -0.04329  -0.02449
  Beta virt. eigenvalues --   -0.02000  -0.01759  -0.01519  -0.01073  -0.00514
  Beta virt. eigenvalues --   -0.00300   0.00119   0.00353   0.00804   0.00829

 Mulliken charges and spin densities:
               1          2
     1  Na   0.115479  -0.022171
     2  Na   0.366886   0.021284
     3  Na   0.098965  -0.085069
     4  Na  -0.627081   0.802268
     5  Na  -0.286526   0.320585
     6  Na   0.154688   0.000268
     7  Na   0.177589  -0.037165
 Sum of Mulliken charges =  -0.00000   1.00000

 Dipole moment (field-independent basis, Debye):
    X=             -0.3940    Y=              0.0823    Z=              0.2367  Tot=              0.4670
 Quadrupole moment (field-independent basis, Debye-Ang):
   XX=            -52.9497   YY=            -64.8847   ZZ=            -74.9339
   XY=              0.4245   XZ=             -0.9150   YZ=             -0.4155

 Normal termination of Gaussian 16 at Thu Dec  7 09:29:15 2023.
