 Gaussian 16, Revision B.01,
 Gaussian 16:  ES64L-G16RevB.01 20-Dec-2017

 -------------------------
 #P B3LYP/6-311+g(d) force
 -------------------------

 -----
 DPGEN
 -----
 Symbolic Z-matrix:
 Charge =  0 Multiplicity = 2

                         Standard orientation:
 ---------------------------------------------------------------------
 Center     Atomic      Atomic             Coordinates (Angstroms)
 Number     Number       Type             X           Y           Z
 ---------------------------------------------------------------------
      1         11           0        3.329850   -0.580683   -0.769548
      2         11           0        1.078312   -1.692500    1.674671
      3         11           0       -0.509370    1.367966    1.245151
      4         11           0        1.655109    2.799120   -0.166509
      5         11           0       -0.027713   -0.818531   -1.448298
      6         11           0       -1.914284   -2.405865   -0.181254
      7         11           0       -3.611904    1.330492   -0.354213
 ---------------------------------------------------------------------

 SCF Done:  E(UB3LYP) =  -1136.11741050     A.U. after   21 cycles

 The electronic state is 2-A.
 Alpha  occ. eigenvalues --  -38.45008 -38.44439 -38.44275 -38.44231 -38.43819
 Alpha  occ. eigenvalues --  -38.43452 -38.42963  -2.20752  -2.20251  -2.20144
 Alpha  occ. eigenvalues --   -2.20046  -2.19788  -2.19341  -2.18897  -1.14432
 Alpha  occ. eigenvalues --   -1.14409  -1.14383  -1.14046  -1.13925  -1.13905
 Alpha  occ. eigenvalues --   -1.13876  -1.13788  -1.13774  -1.13729  -1.13697
 Alpha  occ. eigenvalues --   -1.13655  -1.13455  -1.13400  -1.13372  -1.13017
 Alpha  occ. eigenvalues --   -1.12975  -1.12957  -1.12587  -1.12548  -1.12511
 Alpha  occ. eigenvalues --   -0.18239  -0.13063  -0.12199  -0.10636
 Alpha virt. eigenvalues --   -0.06826  -0.05345  -0.03854  -0.03436  -0.03031
 Alpha virt. eigenvalues --   -0.02266  -0.02144  -0.01296  -0.00596  -0.00344
 Alpha virt. eigenvalues --    0.00104   0.00227   0.00315   0.00633   0.00762

  Beta  occ. eigenvalues --  -38.45005 -38.44408 -38.44269 -38.44231 -38.43783
  Beta  occ. eigenvalues --  -38.43382 -38.42923  -2.20748  -2.20195  -2.20136
  Beta  occ. eigenvalues --   -2.20049  -2.19723  -2.19214  -2.18825  -1.14427
  Beta  occ. eigenvalues --   -1.14406  -1.14379  -1.14031  -1.13875  -1.13866
  Beta  occ. eigenvalues --   -1.13840  -1.13784  -1.13752  -1.13718  -1.13694
  Beta  occ. eigenvalues --   -1.13655  -1.13399  -1.13360  -1.13324  -1.12926
  Beta  occ. eigenvalues --   -1.12884  -1.12865  -1.12543  -1.12500  -1.12442
  Beta  occ. eigenvalues --   -0.17570  -0.12744  -0.12065
  Beta virt. eigenvalues --   -0.06928  -0.06622  -0.05203  -0.03668  -0.02961
  Beta virt. eigenvalues --   -0.02409  -0.02009  -0.01306  -0.01237  -0.00494
  Beta virt. eigenvalues --   -0.00135   0.00112   0.00281   0.00431   0.00666

 Mulliken charges and spin densities:
               1          2
     1  Na   0.221941   0.214094
     2  Na  -0.242532   0.233344
     3  Na   0.124294   0.098695
     4  Na  -0.130004   0.018800
     5  Na  -0.379534   0.326897
     6  Na   0.429030   0.091912
     7  Na  -0.023195   0.016259
 Sum of Mulliken charges =  -0.00000   1.00000

 Dipole moment (field-independent basis, Debye):
    X=             -0.2449    Y=             -0.0308    Z=             -0.1457  Tot=              0.2867
 Quadrupole moment (field-independent basis, Debye-Ang):
   XX=            -52.2200   YY=            -66.2625   ZZ=            -73.8340
   XY=              0.1864   XZ=              0.5081   YZ=             -3.1994

 Normal termination of Gaussian 16 at Tue Dec  5 10:39:22 2023.
