 Gaussian 16, Revision B.01,
 Gaussian 16:  ES64L-G16RevB.01 20-Dec-2017

 -------------------------
 #P B3LYP/6-311+g(d) force
 -------------------------

 -----
 DPGEN
 -----
 Symbolic Z-matrix:
 Charge =  0 Multiplicity = 2

                         Standard orientation:
 ---------------------------------------------------------------------
 Center     Atomic      Atomic             Coordinates (Angstroms)
 Number     Number       Type             X           Y           Z
 ---------------------------------------------------------------------
      1         11           0       -0.552654   -0.873360   -1.384769
      2         11           0        3.179672    0.197652   -0.631160
      3         11           0       -0.043441   -0.307266    1.604129
      4         11           0       -3.766167   -1.393597    0.114600
      5         11           0       -2.145999    2.085076   -0.333714
      6         11           0        2.066349   -2.818488    0.286476
      7         11           0        1.262240    3.109983    0.344438
 ---------------------------------------------------------------------

 SCF Done:  E(UB3LYP) =  -1136.12541901     A.U. after   24 cycles

 The electronic state is 2-A.
 Alpha  occ. eigenvalues --  -38.45012 -38.44535 -38.44304 -38.43973 -38.43961
 Alpha  occ. eigenvalues --  -38.43289 -38.43029  -2.20769  -2.20336  -2.20184
 Alpha  occ. eigenvalues --   -2.19797  -2.19786  -2.19076  -2.18948  -1.14444
 Alpha  occ. eigenvalues --   -1.14434  -1.14394  -1.14043  -1.14012  -1.13941
 Alpha  occ. eigenvalues --   -1.13934  -1.13843  -1.13761  -1.13493  -1.13461
 Alpha  occ. eigenvalues --   -1.13452  -1.13450  -1.13433  -1.13386  -1.12750
 Alpha  occ. eigenvalues --   -1.12740  -1.12722  -1.12668  -1.12559  -1.12537
 Alpha  occ. eigenvalues --   -0.17903  -0.13472  -0.12137  -0.09655
 Alpha virt. eigenvalues --   -0.06654  -0.05846  -0.04828  -0.03112  -0.02556
 Alpha virt. eigenvalues --   -0.02359  -0.01786  -0.01562  -0.01048  -0.00515
 Alpha virt. eigenvalues --   -0.00068   0.00173   0.00599   0.00608   0.00644

  Beta  occ. eigenvalues --  -38.45011 -38.44531 -38.44279 -38.43966 -38.43922
  Beta  occ. eigenvalues --  -38.43288 -38.42940  -2.20768  -2.20331  -2.20140
  Beta  occ. eigenvalues --   -2.19788  -2.19715  -2.19077  -2.18785  -1.14443
  Beta  occ. eigenvalues --   -1.14424  -1.14395  -1.14038  -1.13998  -1.13934
  Beta  occ. eigenvalues --   -1.13889  -1.13808  -1.13731  -1.13480  -1.13449
  Beta  occ. eigenvalues --   -1.13419  -1.13399  -1.13384  -1.13349  -1.12751
  Beta  occ. eigenvalues --   -1.12735  -1.12714  -1.12557  -1.12451  -1.12414
  Beta  occ. eigenvalues --   -0.17292  -0.13166  -0.11943
  Beta virt. eigenvalues --   -0.06516  -0.06011  -0.05777  -0.04707  -0.02531
  Beta virt. eigenvalues --   -0.02288  -0.01847  -0.01555  -0.01095  -0.00919
  Beta virt. eigenvalues --   -0.00412   0.00112   0.00276   0.00641   0.00689

 Mulliken charges and spin densities:
               1          2
     1  Na  -0.101589   0.321030
     2  Na  -0.083408   0.229850
     3  Na  -0.093566   0.438393
     4  Na   0.130469   0.009775
     5  Na   0.003359  -0.068955
     6  Na   0.291516   0.075174
     7  Na  -0.146781  -0.005267
 Sum of Mulliken charges =  -0.00000   1.00000

 Dipole moment (field-independent basis, Debye):
    X=             -1.0766    Y=             -0.6179    Z=              0.2570  Tot=              1.2676
 Quadrupole moment (field-independent basis, Debye-Ang):
   XX=            -54.0148   YY=            -61.4263   ZZ=            -77.0314
   XY=             -0.9605   XZ=             -0.5129   YZ=             -0.9587

 Normal termination of Gaussian 16 at Thu Dec  7 05:23:41 2023.
