 Gaussian 16, Revision B.01,
 Gaussian 16:  ES64L-G16RevB.01 20-Dec-2017

 -------------------------
 #P B3LYP/6-311+g(d) force
 -------------------------

 -----
 DPGEN
 -----
 Symbolic Z-matrix:
 Charge =  0 Multiplicity = 2

                         Standard orientation:
 ---------------------------------------------------------------------
 Center     Atomic      Atomic             Coordinates (Angstroms)
 Number     Number       Type             X           Y           Z
 ---------------------------------------------------------------------
      1         11           0       -1.891762   -1.631983    0.867052
      2         11           0       -4.842055   -2.094986   -0.703559
      3         11           0       -3.758859    1.314999   -0.935455
      4         11           0       -0.796695    2.740228   -0.188257
      5         11           0        0.943838    1.246499    1.799014
      6         11           0        4.176802   -1.221144    0.982123
      7         11           0        6.168731   -0.353614   -1.820918
 ---------------------------------------------------------------------

 SCF Done:  E(UB3LYP) =  -1136.11074195     A.U. after   21 cycles

 The electronic state is 2-A.
 Alpha  occ. eigenvalues --  -38.45358 -38.44698 -38.44456 -38.44293 -38.44276
 Alpha  occ. eigenvalues --  -38.44006 -38.43726  -2.21139  -2.20523  -2.20210
 Alpha  occ. eigenvalues --   -2.20088  -2.20003  -2.19824  -2.19574  -1.14825
 Alpha  occ. eigenvalues --   -1.14795  -1.14741  -1.14195  -1.14187  -1.14122
 Alpha  occ. eigenvalues --   -1.13869  -1.13868  -1.13826  -1.13755  -1.13753
 Alpha  occ. eigenvalues --   -1.13723  -1.13693  -1.13680  -1.13635  -1.13550
 Alpha  occ. eigenvalues --   -1.13470  -1.13466  -1.13230  -1.13227  -1.13199
 Alpha  occ. eigenvalues --   -0.16365  -0.13437  -0.12316  -0.11198
 Alpha virt. eigenvalues --   -0.06580  -0.05949  -0.04593  -0.03759  -0.02958
 Alpha virt. eigenvalues --   -0.02425  -0.02215  -0.01566  -0.01094  -0.01016
 Alpha virt. eigenvalues --   -0.00617  -0.00408  -0.00029   0.00237   0.00567

  Beta  occ. eigenvalues --  -38.45305 -38.44624 -38.44411 -38.44298 -38.44293
  Beta  occ. eigenvalues --  -38.43984 -38.43709  -2.21041  -2.20388  -2.20124
  Beta  occ. eigenvalues --   -2.20089  -2.20046  -2.19782  -2.19546  -1.14759
  Beta  occ. eigenvalues --   -1.14728  -1.14665  -1.14105  -1.14098  -1.14015
  Beta  occ. eigenvalues --   -1.13810  -1.13809  -1.13773  -1.13757  -1.13741
  Beta  occ. eigenvalues --   -1.13726  -1.13725  -1.13710  -1.13647  -1.13530
  Beta  occ. eigenvalues --   -1.13440  -1.13432  -1.13212  -1.13204  -1.13165
  Beta  occ. eigenvalues --   -0.15677  -0.13295  -0.11940
  Beta virt. eigenvalues --   -0.07740  -0.06076  -0.05685  -0.04109  -0.03508
  Beta virt. eigenvalues --   -0.02402  -0.02252  -0.02175  -0.01420  -0.00996
  Beta virt. eigenvalues --   -0.00650  -0.00243  -0.00172   0.00134   0.00322

 Mulliken charges and spin densities:
               1          2
     1  Na  -0.386561   0.348158
     2  Na   0.814305  -0.019563
     3  Na  -0.095092   0.336490
     4  Na   0.209463   0.117921
     5  Na  -0.591026   0.111750
     6  Na  -0.090711  -0.122152
     7  Na   0.139622   0.227395
 Sum of Mulliken charges =  -0.00000   1.00000

 Dipole moment (field-independent basis, Debye):
    X=             -1.4063    Y=             -0.4282    Z=             -0.4458  Tot=              1.5362
 Quadrupole moment (field-independent basis, Debye-Ang):
   XX=            -62.4514   YY=            -69.0440   ZZ=            -66.1857
   XY=              6.4517   XZ=             -0.3299   YZ=             -1.9810

 Normal termination of Gaussian 16 at Wed Nov 29 02:01:28 2023.
