 Gaussian 16, Revision B.01,
 Gaussian 16:  ES64L-G16RevB.01 20-Dec-2017

 -------------------------
 #P B3LYP/6-311+g(d) force
 -------------------------

 -----
 DPGEN
 -----
 Symbolic Z-matrix:
 Charge =  0 Multiplicity = 2

                         Standard orientation:
 ---------------------------------------------------------------------
 Center     Atomic      Atomic             Coordinates (Angstroms)
 Number     Number       Type             X           Y           Z
 ---------------------------------------------------------------------
      1         11           0        4.749213   -0.305201    0.022282
      2         11           0       -3.693144   -1.409453   -0.801310
      3         11           0        2.025827   -2.393418    0.376261
      4         11           0       -3.383142    1.307243    0.913878
      5         11           0       -0.880082   -3.796722   -0.008667
      6         11           0       -0.769770    3.932017   -0.087126
      7         11           0        1.951097    2.665533   -0.415319
 ---------------------------------------------------------------------

 SCF Done:  E(UB3LYP) =  -1136.11123418     A.U. after   20 cycles

 The electronic state is 2-A.
 Alpha  occ. eigenvalues --  -38.44969 -38.44961 -38.44752 -38.44402 -38.44093
 Alpha  occ. eigenvalues --  -38.44071 -38.43927  -2.20759  -2.20747  -2.20533
 Alpha  occ. eigenvalues --   -2.20192  -2.19906  -2.19868  -2.19752  -1.14448
 Alpha  occ. eigenvalues --   -1.14429  -1.14428  -1.14410  -1.14399  -1.14379
 Alpha  occ. eigenvalues --   -1.14202  -1.14189  -1.14167  -1.13878  -1.13877
 Alpha  occ. eigenvalues --   -1.13848  -1.13556  -1.13554  -1.13523  -1.13516
 Alpha  occ. eigenvalues --   -1.13508  -1.13490  -1.13429  -1.13398  -1.13378
 Alpha  occ. eigenvalues --   -0.15620  -0.13778  -0.13699  -0.11081
 Alpha virt. eigenvalues --   -0.07194  -0.04774  -0.04403  -0.03502  -0.03395
 Alpha virt. eigenvalues --   -0.02422  -0.02246  -0.01778  -0.01712  -0.00767
 Alpha virt. eigenvalues --   -0.00456  -0.00183   0.00337   0.00388   0.00638

  Beta  occ. eigenvalues --  -38.44947 -38.44923 -38.44740 -38.44389 -38.44028
  Beta  occ. eigenvalues --  -38.44001 -38.43899  -2.20724  -2.20679  -2.20517
  Beta  occ. eigenvalues --   -2.20177  -2.19789  -2.19737  -2.19704  -1.14416
  Beta  occ. eigenvalues --   -1.14409  -1.14378  -1.14365  -1.14355  -1.14328
  Beta  occ. eigenvalues --   -1.14194  -1.14178  -1.14133  -1.13875  -1.13868
  Beta  occ. eigenvalues --   -1.13789  -1.13476  -1.13474  -1.13445  -1.13427
  Beta  occ. eigenvalues --   -1.13420  -1.13404  -1.13387  -1.13367  -1.13345
  Beta  occ. eigenvalues --   -0.15094  -0.12939  -0.12926
  Beta virt. eigenvalues --   -0.07938  -0.07339  -0.04416  -0.04043  -0.03210
  Beta virt. eigenvalues --   -0.03021  -0.02216  -0.01926  -0.01568  -0.01518
  Beta virt. eigenvalues --   -0.00367  -0.00272   0.00042   0.00336   0.00430

 Mulliken charges and spin densities:
               1          2
     1  Na   0.780985   0.388800
     2  Na  -0.023090   0.036115
     3  Na  -0.507290   0.180989
     4  Na  -0.291442   0.164473
     5  Na   0.077881   0.080621
     6  Na   0.149310  -0.013801
     7  Na  -0.186355   0.162803
 Sum of Mulliken charges =  -0.00000   1.00000

 Dipole moment (field-independent basis, Debye):
    X=             -0.6534    Y=              0.2976    Z=             -0.0578  Tot=              0.7203
 Quadrupole moment (field-independent basis, Debye-Ang):
   XX=            -61.9347   YY=            -66.7768   ZZ=            -71.0287
   XY=              1.7124   XZ=             -0.0056   YZ=              1.7333

 Normal termination of Gaussian 16 at Mon Dec  4 05:32:13 2023.
