 Gaussian 16, Revision B.01,
 Gaussian 16:  ES64L-G16RevB.01 20-Dec-2017

 -------------------------
 #P B3LYP/6-311+g(d) force
 -------------------------

 -----
 DPGEN
 -----
 Symbolic Z-matrix:
 Charge =  0 Multiplicity = 2

                         Standard orientation:
 ---------------------------------------------------------------------
 Center     Atomic      Atomic             Coordinates (Angstroms)
 Number     Number       Type             X           Y           Z
 ---------------------------------------------------------------------
      1         11           0       -2.984174   -1.356657   -0.218383
      2         11           0        3.258859   -1.001602    0.024509
      3         11           0        0.068630    0.329391   -1.616738
      4         11           0        0.235714   -0.398066    2.057799
      5         11           0       -1.938391    2.518444    0.370720
      6         11           0       -0.088416   -2.799789   -0.330385
      7         11           0        1.447779    2.708278   -0.287522
 ---------------------------------------------------------------------

 SCF Done:  E(UB3LYP) =  -1136.13456294     A.U. after   19 cycles

 The electronic state is 2-A.
 Alpha  occ. eigenvalues --  -38.43998 -38.43953 -38.43950 -38.43774 -38.43683
 Alpha  occ. eigenvalues --  -38.43572 -38.43307  -2.19796  -2.19774  -2.19755
 Alpha  occ. eigenvalues --   -2.19585  -2.19544  -2.19453  -2.19258  -1.13538
 Alpha  occ. eigenvalues --   -1.13455  -1.13451  -1.13431  -1.13426  -1.13425
 Alpha  occ. eigenvalues --   -1.13419  -1.13410  -1.13371  -1.13281  -1.13250
 Alpha  occ. eigenvalues --   -1.13233  -1.13220  -1.13190  -1.13150  -1.13140
 Alpha  occ. eigenvalues --   -1.13109  -1.13052  -1.12936  -1.12902  -1.12865
 Alpha  occ. eigenvalues --   -0.18235  -0.12946  -0.12368  -0.10554
 Alpha virt. eigenvalues --   -0.05604  -0.05310  -0.05028  -0.03161  -0.02854
 Alpha virt. eigenvalues --   -0.02470  -0.01594  -0.01331  -0.00600  -0.00409
 Alpha virt. eigenvalues --   -0.00026   0.00336   0.00772   0.00817   0.00854

  Beta  occ. eigenvalues --  -38.44000 -38.43945 -38.43942 -38.43772 -38.43591
  Beta  occ. eigenvalues --  -38.43560 -38.43247  -2.19784  -2.19778  -2.19742
  Beta  occ. eigenvalues --   -2.19584  -2.19436  -2.19375  -2.19149  -1.13520
  Beta  occ. eigenvalues --   -1.13444  -1.13436  -1.13428  -1.13426  -1.13416
  Beta  occ. eigenvalues --   -1.13408  -1.13395  -1.13364  -1.13280  -1.13240
  Beta  occ. eigenvalues --   -1.13224  -1.13147  -1.13104  -1.13086  -1.13055
  Beta  occ. eigenvalues --   -1.13040  -1.13022  -1.12860  -1.12821  -1.12788
  Beta  occ. eigenvalues --   -0.17528  -0.12704  -0.12174
  Beta virt. eigenvalues --   -0.06707  -0.05548  -0.05268  -0.04937  -0.02400
  Beta virt. eigenvalues --   -0.02177  -0.01538  -0.01414  -0.01240  -0.00637
  Beta virt. eigenvalues --   -0.00432   0.00122   0.00368   0.00803   0.00840

 Mulliken charges and spin densities:
               1          2
     1  Na  -0.020786  -0.037220
     2  Na   0.085585  -0.109426
     3  Na  -0.004057   0.409665
     4  Na  -0.461574   0.803631
     5  Na  -0.055674   0.035101
     6  Na   0.257919  -0.023829
     7  Na   0.198586  -0.077921
 Sum of Mulliken charges =  -0.00000   1.00000

 Dipole moment (field-independent basis, Debye):
    X=              0.0928    Y=              0.1964    Z=              0.1275  Tot=              0.2518
 Quadrupole moment (field-independent basis, Debye-Ang):
   XX=            -56.7204   YY=            -61.0878   ZZ=            -75.3873
   XY=             -0.5442   XZ=             -0.6472   YZ=              1.5207

 Normal termination of Gaussian 16 at Thu Dec  7 15:30:52 2023.
