 Gaussian 16, Revision B.01,
 Gaussian 16:  ES64L-G16RevB.01 20-Dec-2017

 -------------------------
 #P B3LYP/6-311+g(d) force
 -------------------------

 -----
 DPGEN
 -----
 Symbolic Z-matrix:
 Charge =  0 Multiplicity = 2

                         Standard orientation:
 ---------------------------------------------------------------------
 Center     Atomic      Atomic             Coordinates (Angstroms)
 Number     Number       Type             X           Y           Z
 ---------------------------------------------------------------------
      1         11           0        2.610063    2.047284    0.201048
      2         11           0       -3.733444    0.354821    0.314379
      3         11           0        0.801556   -0.537662   -1.671823
      4         11           0        3.187462   -1.474267    0.206763
      5         11           0       -1.213468    1.930340   -0.693469
      6         11           0       -0.009666   -0.219094    1.951988
      7         11           0       -1.642502   -2.101422   -0.308885
 ---------------------------------------------------------------------

 SCF Done:  E(UB3LYP) =  -1136.12181329     A.U. after   25 cycles

 The electronic state is 2-A.
 Alpha  occ. eigenvalues --  -38.45373 -38.45010 -38.44439 -38.43909 -38.43246
 Alpha  occ. eigenvalues --  -38.43152 -38.42931  -2.21202  -2.20820  -2.20296
 Alpha  occ. eigenvalues --   -2.19705  -2.19131  -2.19123  -2.18814  -1.14881
 Alpha  occ. eigenvalues --   -1.14861  -1.14837  -1.14517  -1.14465  -1.14454
 Alpha  occ. eigenvalues --   -1.13990  -1.13931  -1.13904  -1.13381  -1.13361
 Alpha  occ. eigenvalues --   -1.13351  -1.12887  -1.12801  -1.12790  -1.12765
 Alpha  occ. eigenvalues --   -1.12755  -1.12702  -1.12501  -1.12480  -1.12438
 Alpha  occ. eigenvalues --   -0.18607  -0.14056  -0.11162  -0.10793
 Alpha virt. eigenvalues --   -0.07154  -0.05603  -0.03950  -0.03155  -0.02802
 Alpha virt. eigenvalues --   -0.02408  -0.02322  -0.01368  -0.00594  -0.00254
 Alpha virt. eigenvalues --    0.00116   0.00158   0.00439   0.00618   0.00742

  Beta  occ. eigenvalues --  -38.45373 -38.45006 -38.44367 -38.43907 -38.43235
  Beta  occ. eigenvalues --  -38.43077 -38.42909  -2.21202  -2.20816  -2.20162
  Beta  occ. eigenvalues --   -2.19704  -2.19114  -2.18986  -2.18777  -1.14882
  Beta  occ. eigenvalues --   -1.14861  -1.14830  -1.14505  -1.14457  -1.14450
  Beta  occ. eigenvalues --   -1.13898  -1.13838  -1.13805  -1.13372  -1.13361
  Beta  occ. eigenvalues --   -1.13345  -1.12845  -1.12763  -1.12752  -1.12707
  Beta  occ. eigenvalues --   -1.12663  -1.12614  -1.12476  -1.12431  -1.12414
  Beta  occ. eigenvalues --   -0.17867  -0.13885  -0.10925
  Beta virt. eigenvalues --   -0.07029  -0.06852  -0.05621  -0.03390  -0.02970
  Beta virt. eigenvalues --   -0.02556  -0.01717  -0.01439  -0.01284  -0.00532
  Beta virt. eigenvalues --   -0.00075   0.00118   0.00169   0.00614   0.00684

 Mulliken charges and spin densities:
               1          2
     1  Na  -0.182961   0.023186
     2  Na   0.240444   0.019830
     3  Na   0.399684   0.211718
     4  Na   0.154155  -0.013308
     5  Na  -0.329801   0.077283
     6  Na  -0.324211   0.547623
     7  Na   0.042691   0.133668
 Sum of Mulliken charges =  -0.00000   1.00000

 Dipole moment (field-independent basis, Debye):
    X=              0.0164    Y=             -0.2559    Z=              0.5065  Tot=              0.5678
 Quadrupole moment (field-independent basis, Debye-Ang):
   XX=            -43.9261   YY=            -74.2869   ZZ=            -73.6978
   XY=             -0.7029   XZ=              0.1325   YZ=             -0.0431

 Normal termination of Gaussian 16 at Tue Dec  5 11:09:12 2023.
