 Gaussian 16, Revision B.01,
 Gaussian 16:  ES64L-G16RevB.01 20-Dec-2017

 -------------------------
 #P B3LYP/6-311+g(d) force
 -------------------------

 -----
 DPGEN
 -----
 Symbolic Z-matrix:
 Charge =  0 Multiplicity = 2

                         Standard orientation:
 ---------------------------------------------------------------------
 Center     Atomic      Atomic             Coordinates (Angstroms)
 Number     Number       Type             X           Y           Z
 ---------------------------------------------------------------------
      1         11           0       -0.038837    3.102939   -0.090821
      2         11           0       -0.250505   -0.354809   -1.653916
      3         11           0       -0.176822   -0.119699    2.031498
      4         11           0       -3.200882    0.919310    0.104198
      5         11           0        2.996217    1.106618   -0.377303
      6         11           0        2.259981   -2.015801    0.359478
      7         11           0       -1.589152   -2.638558   -0.373134
 ---------------------------------------------------------------------

 SCF Done:  E(UB3LYP) =  -1136.13445794     A.U. after   20 cycles

 The electronic state is 2-A.
 Alpha  occ. eigenvalues --  -38.44489 -38.43800 -38.43776 -38.43716 -38.43693
 Alpha  occ. eigenvalues --  -38.43613 -38.43397  -2.20269  -2.19633  -2.19617
 Alpha  occ. eigenvalues --   -2.19562  -2.19557  -2.19400  -2.19347  -1.13950
 Alpha  occ. eigenvalues --   -1.13924  -1.13905  -1.13430  -1.13315  -1.13286
 Alpha  occ. eigenvalues --   -1.13277  -1.13265  -1.13247  -1.13240  -1.13222
 Alpha  occ. eigenvalues --   -1.13207  -1.13189  -1.13177  -1.13167  -1.13081
 Alpha  occ. eigenvalues --   -1.13068  -1.13033  -1.13011  -1.12966  -1.12952
 Alpha  occ. eigenvalues --   -0.18246  -0.12932  -0.12353  -0.10653
 Alpha virt. eigenvalues --   -0.05907  -0.05187  -0.04848  -0.03172  -0.02874
 Alpha virt. eigenvalues --   -0.02522  -0.01672  -0.01226  -0.00587  -0.00498
 Alpha virt. eigenvalues --   -0.00017   0.00341   0.00768   0.00825   0.00873

  Beta  occ. eigenvalues --  -38.44487 -38.43795 -38.43763 -38.43707 -38.43613
  Beta  occ. eigenvalues --  -38.43600 -38.43334  -2.20267  -2.19613  -2.19609
  Beta  occ. eigenvalues --   -2.19544  -2.19402  -2.19390  -2.19234  -1.13932
  Beta  occ. eigenvalues --   -1.13924  -1.13904  -1.13398  -1.13312  -1.13266
  Beta  occ. eigenvalues --   -1.13261  -1.13244  -1.13232  -1.13211  -1.13188
  Beta  occ. eigenvalues --   -1.13172  -1.13115  -1.13079  -1.13070  -1.13066
  Beta  occ. eigenvalues --   -1.13046  -1.13031  -1.12935  -1.12884  -1.12874
  Beta  occ. eigenvalues --   -0.17545  -0.12712  -0.12106
  Beta virt. eigenvalues --   -0.06791  -0.05880  -0.05126  -0.04770  -0.02442
  Beta virt. eigenvalues --   -0.02141  -0.01582  -0.01496  -0.01135  -0.00622
  Beta virt. eigenvalues --   -0.00532   0.00122   0.00380   0.00794   0.00856

 Mulliken charges and spin densities:
               1          2
     1  Na  -0.108581  -0.076570
     2  Na  -0.077355   0.514535
     3  Na  -0.233474   0.722889
     4  Na   0.016444  -0.095957
     5  Na  -0.086000  -0.042175
     6  Na   0.206707   0.044230
     7  Na   0.282259  -0.066952
 Sum of Mulliken charges =  -0.00000   1.00000

 Dipole moment (field-independent basis, Debye):
    X=             -0.3905    Y=             -0.0399    Z=              0.1386  Tot=              0.4163
 Quadrupole moment (field-independent basis, Debye-Ang):
   XX=            -56.0604   YY=            -62.2561   ZZ=            -75.1739
   XY=             -0.4679   XZ=             -0.4622   YZ=             -0.7782

 Normal termination of Gaussian 16 at Fri Dec  8 05:52:33 2023.
