 Gaussian 16, Revision B.01,
 Gaussian 16:  ES64L-G16RevB.01 20-Dec-2017

 -------------------------
 #P B3LYP/6-311+g(d) force
 -------------------------

 -----
 DPGEN
 -----
 Symbolic Z-matrix:
 Charge =  0 Multiplicity = 2

                         Standard orientation:
 ---------------------------------------------------------------------
 Center     Atomic      Atomic             Coordinates (Angstroms)
 Number     Number       Type             X           Y           Z
 ---------------------------------------------------------------------
      1         11           0       -0.002391    0.065814   -1.683986
      2         11           0        0.004392   -1.946386   -0.053486
      3         11           0       -2.430158   -0.809665    0.056214
      4         11           0       -1.406977    1.681926   -0.033886
      5         11           0       -0.000390    0.124814    1.694714
      6         11           0        1.399723    1.683702   -0.034686
      7         11           0        2.435802   -0.800207    0.055114
 ---------------------------------------------------------------------

 SCF Done:  E(UB3LYP) =  -1136.04287462     A.U. after   20 cycles

 The electronic state is 2-A.
 Alpha  occ. eigenvalues --  -38.44776 -38.44562 -38.44239 -38.44234 -38.44003
 Alpha  occ. eigenvalues --  -38.43947 -38.43944  -2.21173  -2.20937  -2.20417
 Alpha  occ. eigenvalues --   -2.20397  -2.20294  -2.20219  -2.20179  -1.15144
 Alpha  occ. eigenvalues --   -1.15045  -1.14845  -1.14777  -1.14743  -1.14648
 Alpha  occ. eigenvalues --   -1.14440  -1.14331  -1.14229  -1.14157  -1.13983
 Alpha  occ. eigenvalues --   -1.13952  -1.13948  -1.13832  -1.13793  -1.13763
 Alpha  occ. eigenvalues --   -1.13752  -1.13742  -1.13651  -1.13629  -1.13526
 Alpha  occ. eigenvalues --   -0.22440  -0.14341  -0.12982  -0.12536
 Alpha virt. eigenvalues --   -0.05372  -0.04207  -0.03969  -0.03872  -0.03143
 Alpha virt. eigenvalues --   -0.02671  -0.01164  -0.00383  -0.00070   0.00312
 Alpha virt. eigenvalues --    0.00826   0.00902   0.01077   0.01193   0.01291

  Beta  occ. eigenvalues --  -38.44676 -38.44465 -38.44228 -38.44223 -38.43982
  Beta  occ. eigenvalues --  -38.43929 -38.43926  -2.20995  -2.20762  -2.20399
  Beta  occ. eigenvalues --   -2.20383  -2.20267  -2.20193  -2.20155  -1.15057
  Beta  occ. eigenvalues --   -1.14925  -1.14736  -1.14669  -1.14629  -1.14534
  Beta  occ. eigenvalues --   -1.14428  -1.14327  -1.14198  -1.14137  -1.13926
  Beta  occ. eigenvalues --   -1.13914  -1.13885  -1.13775  -1.13736  -1.13733
  Beta  occ. eigenvalues --   -1.13668  -1.13659  -1.13641  -1.13622  -1.13520
  Beta  occ. eigenvalues --   -0.21605  -0.13920  -0.12583
  Beta virt. eigenvalues --   -0.08252  -0.05422  -0.04184  -0.03893  -0.02844
  Beta virt. eigenvalues --   -0.02187  -0.01626  -0.01083  -0.00350   0.00069
  Beta virt. eigenvalues --    0.00342   0.00833   0.00897   0.01088   0.01218

 Mulliken charges and spin densities:
               1          2
     1  Na  -0.317779   0.453181
     2  Na   0.421279   0.107492
     3  Na  -0.114858  -0.052261
     4  Na   0.204784   0.029904
     5  Na  -0.278741   0.484520
     6  Na   0.205163   0.030442
     7  Na  -0.119847  -0.053278
 Sum of Mulliken charges =  -0.00000   1.00000

 Dipole moment (field-independent basis, Debye):
    X=              0.0012    Y=             -0.0682    Z=              0.0784  Tot=              0.1039
 Quadrupole moment (field-independent basis, Debye-Ang):
   XX=            -58.8546   YY=            -71.2105   ZZ=            -68.7778
   XY=             -0.0048   XZ=             -0.0035   YZ=             -0.1829

 Normal termination of Gaussian 16 at Thu Dec  7 19:45:04 2023.
