 Gaussian 16, Revision B.01,
 Gaussian 16:  ES64L-G16RevB.01 20-Dec-2017

 -------------------------
 #P B3LYP/6-311+g(d) force
 -------------------------

 -----
 DPGEN
 -----
 Symbolic Z-matrix:
 Charge =  0 Multiplicity = 2

                         Standard orientation:
 ---------------------------------------------------------------------
 Center     Atomic      Atomic             Coordinates (Angstroms)
 Number     Number       Type             X           Y           Z
 ---------------------------------------------------------------------
      1         11           0       -2.845646   -1.389799   -0.169171
      2         11           0        3.230245    0.015869   -0.305983
      3         11           0        0.717950   -3.001388   -0.308616
      4         11           0        0.154313   -0.325321    2.179367
      5         11           0        0.194414   -0.075163   -1.121051
      6         11           0       -2.395168    1.885055   -0.260360
      7         11           0        0.943891    2.890747   -0.014187
 ---------------------------------------------------------------------

 SCF Done:  E(UB3LYP) =  -1136.13414018     A.U. after   19 cycles

 The electronic state is 2-A.
 Alpha  occ. eigenvalues --  -38.44284 -38.43954 -38.43878 -38.43587 -38.43553
 Alpha  occ. eigenvalues --  -38.43385 -38.42647  -2.20109  -2.19780  -2.19714
 Alpha  occ. eigenvalues --   -2.19426  -2.19405  -2.19260  -2.18745  -1.13811
 Alpha  occ. eigenvalues --   -1.13761  -1.13729  -1.13462  -1.13446  -1.13437
 Alpha  occ. eigenvalues --   -1.13415  -1.13367  -1.13327  -1.13131  -1.13090
 Alpha  occ. eigenvalues --   -1.13083  -1.13068  -1.13057  -1.13022  -1.12938
 Alpha  occ. eigenvalues --   -1.12873  -1.12866  -1.12441  -1.12393  -1.12375
 Alpha  occ. eigenvalues --   -0.18561  -0.12976  -0.12590  -0.10350
 Alpha virt. eigenvalues --   -0.05850  -0.05110  -0.04984  -0.02802  -0.02691
 Alpha virt. eigenvalues --   -0.02303  -0.01668  -0.01320  -0.00626  -0.00518
 Alpha virt. eigenvalues --   -0.00008   0.00317   0.00784   0.00809   0.00868

  Beta  occ. eigenvalues --  -38.44275 -38.43950 -38.43870 -38.43585 -38.43548
  Beta  occ. eigenvalues --  -38.43271 -38.42612  -2.20095  -2.19775  -2.19703
  Beta  occ. eigenvalues --   -2.19424  -2.19399  -2.19050  -2.18684  -1.13797
  Beta  occ. eigenvalues --   -1.13738  -1.13723  -1.13458  -1.13433  -1.13424
  Beta  occ. eigenvalues --   -1.13409  -1.13341  -1.13322  -1.13129  -1.13083
  Beta  occ. eigenvalues --   -1.13068  -1.13065  -1.13044  -1.13021  -1.12798
  Beta  occ. eigenvalues --   -1.12727  -1.12717  -1.12373  -1.12349  -1.12331
  Beta  occ. eigenvalues --   -0.17875  -0.12735  -0.12388
  Beta virt. eigenvalues --   -0.06404  -0.05810  -0.05092  -0.04913  -0.02109
  Beta virt. eigenvalues --   -0.01962  -0.01588  -0.01265  -0.01187  -0.00663
  Beta virt. eigenvalues --   -0.00540   0.00174   0.00382   0.00798   0.00852

 Mulliken charges and spin densities:
               1          2
     1  Na   0.358743   0.064278
     2  Na   0.440510   0.080492
     3  Na   0.371588   0.063818
     4  Na  -0.449862   0.718680
     5  Na  -1.304392  -0.075236
     6  Na   0.226585   0.059663
     7  Na   0.356829   0.088305
 Sum of Mulliken charges =  -0.00000   1.00000

 Dipole moment (field-independent basis, Debye):
    X=              0.2289    Y=             -0.1909    Z=              0.2028  Tot=              0.3605
 Quadrupole moment (field-independent basis, Debye-Ang):
   XX=            -55.6325   YY=            -58.9416   ZZ=            -76.8440
   XY=              0.5399   XZ=             -0.0147   YZ=              0.6405

 Normal termination of Gaussian 16 at Thu Dec  7 17:50:05 2023.
