 Gaussian 16, Revision B.01,
 Gaussian 16:  ES64L-G16RevB.01 20-Dec-2017

 -------------------------
 #P B3LYP/6-311+g(d) force
 -------------------------

 -----
 DPGEN
 -----
 Symbolic Z-matrix:
 Charge =  0 Multiplicity = 2

                         Standard orientation:
 ---------------------------------------------------------------------
 Center     Atomic      Atomic             Coordinates (Angstroms)
 Number     Number       Type             X           Y           Z
 ---------------------------------------------------------------------
      1         11           0       -0.079022    0.063370   -1.547606
      2         11           0        0.017085    0.051336    1.695996
      3         11           0       -2.988415   -0.772133   -0.025512
      4         11           0       -1.625507    2.274536    0.052638
      5         11           0        1.940951    2.037459   -0.140864
      6         11           0       -0.144971   -2.632875   -0.076453
      7         11           0        2.879879   -1.021692    0.041801
 ---------------------------------------------------------------------

 SCF Done:  E(UB3LYP) =  -1136.13456071     A.U. after   23 cycles

 The electronic state is 2-A.
 Alpha  occ. eigenvalues --  -38.44017 -38.43896 -38.43405 -38.43293 -38.42999
 Alpha  occ. eigenvalues --  -38.42909 -38.42832  -2.19895  -2.19781  -2.19330
 Alpha  occ. eigenvalues --   -2.19218  -2.18960  -2.18943  -2.18931  -1.13569
 Alpha  occ. eigenvalues --   -1.13555  -1.13544  -1.13464  -1.13439  -1.13431
 Alpha  occ. eigenvalues --   -1.13048  -1.12994  -1.12963  -1.12934  -1.12896
 Alpha  occ. eigenvalues --   -1.12828  -1.12769  -1.12666  -1.12634  -1.12576
 Alpha  occ. eigenvalues --   -1.12563  -1.12544  -1.12537  -1.12523  -1.12506
 Alpha  occ. eigenvalues --   -0.19639  -0.13506  -0.12627  -0.10578
 Alpha virt. eigenvalues --   -0.05704  -0.05081  -0.04382  -0.03132  -0.02670
 Alpha virt. eigenvalues --   -0.02068  -0.01675  -0.01035  -0.00084  -0.00071
 Alpha virt. eigenvalues --    0.00045   0.00357   0.00816   0.00940   0.00952

  Beta  occ. eigenvalues --  -38.44013 -38.43892 -38.43396 -38.43284 -38.42990
  Beta  occ. eigenvalues --  -38.42827 -38.42759  -2.19891  -2.19777  -2.19318
  Beta  occ. eigenvalues --   -2.19207  -2.18925  -2.18811  -2.18804  -1.13566
  Beta  occ. eigenvalues --   -1.13546  -1.13525  -1.13465  -1.13433  -1.13408
  Beta  occ. eigenvalues --   -1.13037  -1.12958  -1.12952  -1.12927  -1.12849
  Beta  occ. eigenvalues --   -1.12826  -1.12722  -1.12594  -1.12566  -1.12542
  Beta  occ. eigenvalues --   -1.12480  -1.12450  -1.12449  -1.12434  -1.12431
  Beta  occ. eigenvalues --   -0.18904  -0.13229  -0.12328
  Beta virt. eigenvalues --   -0.06615  -0.05690  -0.05081  -0.04393  -0.02301
  Beta virt. eigenvalues --   -0.01850  -0.01593  -0.01032  -0.00982  -0.00140
  Beta virt. eigenvalues --   -0.00120   0.00173   0.00387   0.00854   0.00939

 Mulliken charges and spin densities:
               1          2
     1  Na  -0.655297   0.593774
     2  Na  -0.570349   0.731310
     3  Na   0.180697  -0.060652
     4  Na   0.310706  -0.075984
     5  Na   0.328758  -0.055014
     6  Na   0.245742  -0.090902
     7  Na   0.159743  -0.042532
 Sum of Mulliken charges =  -0.00000   1.00000

 Dipole moment (field-independent basis, Debye):
    X=             -0.0578    Y=             -0.0338    Z=              0.0949  Tot=              0.1161
 Quadrupole moment (field-independent basis, Debye-Ang):
   XX=            -52.8369   YY=            -63.3730   ZZ=            -75.6265
   XY=             -0.0933   XZ=             -0.1548   YZ=             -0.0280

 Normal termination of Gaussian 16 at Tue Dec  5 16:03:43 2023.
