 Gaussian 16, Revision B.01,
 Gaussian 16:  ES64L-G16RevB.01 20-Dec-2017

 -------------------------
 #P B3LYP/6-311+g(d) force
 -------------------------

 -----
 DPGEN
 -----
 Symbolic Z-matrix:
 Charge =  0 Multiplicity = 2

                         Standard orientation:
 ---------------------------------------------------------------------
 Center     Atomic      Atomic             Coordinates (Angstroms)
 Number     Number       Type             X           Y           Z
 ---------------------------------------------------------------------
      1         11           0       -1.483726   -0.711707    1.933172
      2         11           0        2.503375   -0.854597    1.570737
      3         11           0        0.094304    1.347324   -0.305952
      4         11           0       -2.506253    2.301781    0.034691
      5         11           0        0.849160   -2.195862   -1.306838
      6         11           0        3.451311    1.402414   -0.855245
      7         11           0       -2.908170   -1.289354   -1.070564
 ---------------------------------------------------------------------

 SCF Done:  E(UB3LYP) =  -1136.12049011     A.U. after   22 cycles

 The electronic state is 2-A.
 Alpha  occ. eigenvalues --  -38.44490 -38.44461 -38.44410 -38.44174 -38.43944
 Alpha  occ. eigenvalues --  -38.43665 -38.43196  -2.20293  -2.20266  -2.20234
 Alpha  occ. eigenvalues --   -2.20029  -2.19730  -2.19541  -2.19160  -1.13964
 Alpha  occ. eigenvalues --   -1.13954  -1.13952  -1.13932  -1.13917  -1.13902
 Alpha  occ. eigenvalues --   -1.13890  -1.13889  -1.13848  -1.13720  -1.13669
 Alpha  occ. eigenvalues --   -1.13635  -1.13422  -1.13405  -1.13388  -1.13343
 Alpha  occ. eigenvalues --   -1.13173  -1.13140  -1.12838  -1.12798  -1.12753
 Alpha  occ. eigenvalues --   -0.18036  -0.13879  -0.11383  -0.10803
 Alpha virt. eigenvalues --   -0.06510  -0.05657  -0.04675  -0.03410  -0.02623
 Alpha virt. eigenvalues --   -0.02208  -0.02175  -0.01168  -0.00772  -0.00308
 Alpha virt. eigenvalues --   -0.00016   0.00220   0.00284   0.00443   0.00659

  Beta  occ. eigenvalues --  -38.44472 -38.44436 -38.44375 -38.44116 -38.43918
  Beta  occ. eigenvalues --  -38.43668 -38.43185  -2.20259  -2.20220  -2.20171
  Beta  occ. eigenvalues --   -2.19922  -2.19682  -2.19549  -2.19144  -1.13935
  Beta  occ. eigenvalues --   -1.13929  -1.13919  -1.13908  -1.13885  -1.13854
  Beta  occ. eigenvalues --   -1.13853  -1.13851  -1.13795  -1.13645  -1.13588
  Beta  occ. eigenvalues --   -1.13557  -1.13411  -1.13386  -1.13347  -1.13310
  Beta  occ. eigenvalues --   -1.13165  -1.13148  -1.12800  -1.12784  -1.12748
  Beta  occ. eigenvalues --   -0.17410  -0.13713  -0.11121
  Beta virt. eigenvalues --   -0.07102  -0.06392  -0.05399  -0.04108  -0.03170
  Beta virt. eigenvalues --   -0.02134  -0.02033  -0.01509  -0.01012  -0.00404
  Beta virt. eigenvalues --   -0.00237   0.00096   0.00268   0.00349   0.00564

 Mulliken charges and spin densities:
               1          2
     1  Na   0.131549   0.322508
     2  Na   0.354118   0.166376
     3  Na  -0.895864   0.238937
     4  Na  -0.066714  -0.053042
     5  Na  -0.131205   0.165555
     6  Na   0.554485  -0.005679
     7  Na   0.053632   0.165344
 Sum of Mulliken charges =  -0.00000   1.00000

 Dipole moment (field-independent basis, Debye):
    X=              0.2520    Y=             -0.3265    Z=              0.0449  Tot=              0.4149
 Quadrupole moment (field-independent basis, Debye-Ang):
   XX=            -48.9873   YY=            -74.9391   ZZ=            -69.3334
   XY=             -0.4243   XZ=             -0.1556   YZ=             -0.8715

 Normal termination of Gaussian 16 at Thu Dec  7 01:48:59 2023.
