 Gaussian 16, Revision B.01,
 Gaussian 16:  ES64L-G16RevB.01 20-Dec-2017

 -------------------------
 #P B3LYP/6-311+g(d) force
 -------------------------

 -----
 DPGEN
 -----
 Symbolic Z-matrix:
 Charge =  0 Multiplicity = 2

                         Standard orientation:
 ---------------------------------------------------------------------
 Center     Atomic      Atomic             Coordinates (Angstroms)
 Number     Number       Type             X           Y           Z
 ---------------------------------------------------------------------
      1         11           0       -1.388344   -2.022282    2.098006
      2         11           0       -3.150702    0.030754   -0.472727
      3         11           0        2.032635   -2.524710   -0.039070
      4         11           0        1.717114    3.057714   -0.089113
      5         11           0        3.817266    0.956743    0.157418
      6         11           0       -0.574052   -2.792848   -1.598616
      7         11           0       -2.453916    3.294629   -0.055898
 ---------------------------------------------------------------------

 SCF Done:  E(UB3LYP) =  -1136.10898337     A.U. after   20 cycles

 The electronic state is 2-A.
 Alpha  occ. eigenvalues --  -38.44782 -38.44692 -38.44615 -38.44543 -38.44384
 Alpha  occ. eigenvalues --  -38.44090 -38.44046  -2.20610  -2.20479  -2.20429
 Alpha  occ. eigenvalues --   -2.20315  -2.20189  -2.19865  -2.19862  -1.14352
 Alpha  occ. eigenvalues --   -1.14267  -1.14226  -1.14193  -1.14145  -1.14119
 Alpha  occ. eigenvalues --   -1.14087  -1.14072  -1.14045  -1.14005  -1.13992
 Alpha  occ. eigenvalues --   -1.13953  -1.13840  -1.13821  -1.13796  -1.13529
 Alpha  occ. eigenvalues --   -1.13525  -1.13509  -1.13509  -1.13507  -1.13491
 Alpha  occ. eigenvalues --   -0.16355  -0.13514  -0.13132  -0.10353
 Alpha virt. eigenvalues --   -0.07044  -0.06541  -0.04010  -0.02994  -0.02881
 Alpha virt. eigenvalues --   -0.02751  -0.02195  -0.02120  -0.01374  -0.01142
 Alpha virt. eigenvalues --   -0.00251  -0.00044   0.00371   0.00488   0.00501

  Beta  occ. eigenvalues --  -38.44748 -38.44688 -38.44590 -38.44545 -38.44280
  Beta  occ. eigenvalues --  -38.44057 -38.44036  -2.20550  -2.20474  -2.20386
  Beta  occ. eigenvalues --   -2.20323  -2.19995  -2.19844  -2.19804  -1.14305
  Beta  occ. eigenvalues --   -1.14229  -1.14182  -1.14170  -1.14142  -1.14112
  Beta  occ. eigenvalues --   -1.14051  -1.14040  -1.14012  -1.14008  -1.14001
  Beta  occ. eigenvalues --   -1.13933  -1.13709  -1.13686  -1.13668  -1.13515
  Beta  occ. eigenvalues --   -1.13497  -1.13483  -1.13478  -1.13469  -1.13466
  Beta  occ. eigenvalues --   -0.15859  -0.13161  -0.12650
  Beta virt. eigenvalues --   -0.07053  -0.06606  -0.06434  -0.03769  -0.02745
  Beta virt. eigenvalues --   -0.02554  -0.02343  -0.01934  -0.01628  -0.01307
  Beta virt. eigenvalues --   -0.00981   0.00111   0.00212   0.00430   0.00548

 Mulliken charges and spin densities:
               1          2
     1  Na   0.085930   0.489003
     2  Na  -0.464339   0.044490
     3  Na  -0.497347   0.236758
     4  Na  -0.637699   0.045786
     5  Na   0.658357  -0.048089
     6  Na   0.471777   0.092247
     7  Na   0.383321   0.139804
 Sum of Mulliken charges =  -0.00000   1.00000

 Dipole moment (field-independent basis, Debye):
    X=              0.2140    Y=             -0.4004    Z=             -0.1096  Tot=              0.4670
 Quadrupole moment (field-independent basis, Debye-Ang):
   XX=            -66.4012   YY=            -66.0657   ZZ=            -71.4735
   XY=             -0.9114   XZ=              4.9927   YZ=              1.0126

 Normal termination of Gaussian 16 at Sun Dec  3 21:09:01 2023.
