 Gaussian 16, Revision B.01,
 Gaussian 16:  ES64L-G16RevB.01 20-Dec-2017

 -------------------------
 #P B3LYP/6-311+g(d) force
 -------------------------

 -----
 DPGEN
 -----
 Symbolic Z-matrix:
 Charge =  0 Multiplicity = 2

                         Standard orientation:
 ---------------------------------------------------------------------
 Center     Atomic      Atomic             Coordinates (Angstroms)
 Number     Number       Type             X           Y           Z
 ---------------------------------------------------------------------
      1         11           0        3.064978   -1.055409    0.324575
      2         11           0       -1.428645    2.480034   -0.221022
      3         11           0       -0.000919   -0.128552   -1.710112
      4         11           0       -3.307644   -0.581269    0.152292
      5         11           0       -0.037308   -3.014046   -0.480330
      6         11           0        1.942196    2.426661   -0.172996
      7         11           0       -0.232658   -0.127420    2.107593
 ---------------------------------------------------------------------

 SCF Done:  E(UB3LYP) =  -1136.13684549     A.U. after   19 cycles

 The electronic state is 2-A.
 Alpha  occ. eigenvalues --  -38.44199 -38.44128 -38.43950 -38.43651 -38.43459
 Alpha  occ. eigenvalues --  -38.43388 -38.43337  -2.19985  -2.19915  -2.19797
 Alpha  occ. eigenvalues --   -2.19479  -2.19285  -2.19282  -2.19252  -1.13660
 Alpha  occ. eigenvalues --   -1.13640  -1.13631  -1.13591  -1.13573  -1.13555
 Alpha  occ. eigenvalues --   -1.13463  -1.13433  -1.13408  -1.13219  -1.13129
 Alpha  occ. eigenvalues --   -1.13093  -1.13007  -1.12960  -1.12958  -1.12945
 Alpha  occ. eigenvalues --   -1.12930  -1.12911  -1.12891  -1.12882  -1.12855
 Alpha  occ. eigenvalues --   -0.18241  -0.12698  -0.12462  -0.10798
 Alpha virt. eigenvalues --   -0.05820  -0.05057  -0.04842  -0.03142  -0.02961
 Alpha virt. eigenvalues --   -0.02685  -0.01661  -0.01161  -0.00556  -0.00354
 Alpha virt. eigenvalues --   -0.00040   0.00347   0.00783   0.00824   0.00881

  Beta  occ. eigenvalues --  -38.44198 -38.44123 -38.43860 -38.43637 -38.43458
  Beta  occ. eigenvalues --  -38.43381 -38.43269  -2.19985  -2.19907  -2.19630
  Beta  occ. eigenvalues --   -2.19457  -2.19284  -2.19242  -2.19160  -1.13647
  Beta  occ. eigenvalues --   -1.13639  -1.13630  -1.13572  -1.13568  -1.13551
  Beta  occ. eigenvalues --   -1.13351  -1.13319  -1.13284  -1.13186  -1.13102
  Beta  occ. eigenvalues --   -1.13081  -1.12986  -1.12953  -1.12939  -1.12923
  Beta  occ. eigenvalues --   -1.12892  -1.12867  -1.12850  -1.12811  -1.12807
  Beta  occ. eigenvalues --   -0.17523  -0.12494  -0.12201
  Beta virt. eigenvalues --   -0.06935  -0.05726  -0.05074  -0.04751  -0.02416
  Beta virt. eigenvalues --   -0.02222  -0.01655  -0.01529  -0.01079  -0.00592
  Beta virt. eigenvalues --   -0.00399   0.00100   0.00373   0.00818   0.00838

 Mulliken charges and spin densities:
               1          2
     1  Na   0.024416   0.010047
     2  Na   0.167069  -0.047783
     3  Na   0.002668   0.449365
     4  Na   0.142714  -0.059761
     5  Na   0.107517  -0.071320
     6  Na   0.003458  -0.057313
     7  Na  -0.447842   0.776765
 Sum of Mulliken charges =  -0.00000   1.00000

 Dipole moment (field-independent basis, Debye):
    X=             -0.0982    Y=             -0.2330    Z=              0.2054  Tot=              0.3258
 Quadrupole moment (field-independent basis, Debye-Ang):
   XX=            -56.2258   YY=            -63.0325   ZZ=            -74.2649
   XY=              0.4329   XZ=              0.6839   YZ=             -0.1986

 Normal termination of Gaussian 16 at Thu Dec  7 19:49:54 2023.
