 Gaussian 16, Revision B.01,
 Gaussian 16:  ES64L-G16RevB.01 20-Dec-2017

 -------------------------
 #P B3LYP/6-311+g(d) force
 -------------------------

 -----
 DPGEN
 -----
 Symbolic Z-matrix:
 Charge =  0 Multiplicity = 2

                         Standard orientation:
 ---------------------------------------------------------------------
 Center     Atomic      Atomic             Coordinates (Angstroms)
 Number     Number       Type             X           Y           Z
 ---------------------------------------------------------------------
      1         11           0        4.471666   -1.696660   -1.031080
      2         11           0       -4.925782   -1.079808   -0.862071
      3         11           0        1.861014   -1.814285    0.578673
      4         11           0       -2.497195    1.441720   -0.719242
      5         11           0       -0.119954    3.109747    0.649998
      6         11           0       -1.830820   -1.949595    1.362667
      7         11           0        3.041072    1.988882    0.021056
 ---------------------------------------------------------------------

 SCF Done:  E(UB3LYP) =  -1136.11564742     A.U. after   21 cycles

 The electronic state is 2-A.
 Alpha  occ. eigenvalues --  -38.45627 -38.44846 -38.44350 -38.44251 -38.44152
 Alpha  occ. eigenvalues --  -38.43974 -38.43155  -2.21372  -2.20646  -2.20132
 Alpha  occ. eigenvalues --   -2.20041  -2.19968  -2.19798  -2.18973  -1.15071
 Alpha  occ. eigenvalues --   -1.15051  -1.14977  -1.14342  -1.14323  -1.14267
 Alpha  occ. eigenvalues --   -1.13805  -1.13797  -1.13733  -1.13699  -1.13694
 Alpha  occ. eigenvalues --   -1.13693  -1.13654  -1.13618  -1.13592  -1.13481
 Alpha  occ. eigenvalues --   -1.13467  -1.13394  -1.12655  -1.12624  -1.12617
 Alpha  occ. eigenvalues --   -0.16145  -0.14058  -0.12460  -0.10815
 Alpha virt. eigenvalues --   -0.07230  -0.04954  -0.04541  -0.03761  -0.03100
 Alpha virt. eigenvalues --   -0.02332  -0.01893  -0.01849  -0.01289  -0.00702
 Alpha virt. eigenvalues --   -0.00321   0.00020   0.00145   0.00322   0.00572

  Beta  occ. eigenvalues --  -38.45627 -38.44833 -38.44280 -38.44199 -38.44127
  Beta  occ. eigenvalues --  -38.43950 -38.43151  -2.21371  -2.20625  -2.20007
  Beta  occ. eigenvalues --   -2.19944  -2.19922  -2.19758  -2.18966  -1.15071
  Beta  occ. eigenvalues --   -1.15051  -1.14973  -1.14328  -1.14300  -1.14244
  Beta  occ. eigenvalues --   -1.13723  -1.13712  -1.13664  -1.13633  -1.13629
  Beta  occ. eigenvalues --   -1.13618  -1.13594  -1.13586  -1.13556  -1.13460
  Beta  occ. eigenvalues --   -1.13445  -1.13327  -1.12650  -1.12617  -1.12614
  Beta  occ. eigenvalues --   -0.15648  -0.13685  -0.12093
  Beta virt. eigenvalues --   -0.07185  -0.07092  -0.04495  -0.04276  -0.03624
  Beta virt. eigenvalues --   -0.02641  -0.02192  -0.01695  -0.01336  -0.01180
  Beta virt. eigenvalues --   -0.00360  -0.00221   0.00227   0.00322   0.00420

 Mulliken charges and spin densities:
               1          2
     1  Na   1.275553   0.348550
     2  Na   0.582573   0.202135
     3  Na  -1.361666   0.066404
     4  Na  -0.721310   0.136229
     5  Na  -0.006972   0.043675
     6  Na  -0.035466   0.136882
     7  Na   0.267287   0.066125
 Sum of Mulliken charges =  -0.00000   1.00000

 Dipole moment (field-independent basis, Debye):
    X=              0.4996    Y=             -0.0056    Z=             -0.3904  Tot=              0.6341
 Quadrupole moment (field-independent basis, Debye-Ang):
   XX=            -55.6518   YY=            -69.4272   ZZ=            -70.4377
   XY=              4.2835   XZ=             -2.4937   YZ=              1.5067

 Normal termination of Gaussian 16 at Sun Dec  3 17:33:09 2023.
