 Gaussian 16, Revision B.01,
 Gaussian 16:  ES64L-G16RevB.01 20-Dec-2017

 -------------------------
 #P B3LYP/6-311+g(d) force
 -------------------------

 -----
 DPGEN
 -----
 Symbolic Z-matrix:
 Charge =  0 Multiplicity = 2

                         Standard orientation:
 ---------------------------------------------------------------------
 Center     Atomic      Atomic             Coordinates (Angstroms)
 Number     Number       Type             X           Y           Z
 ---------------------------------------------------------------------
      1         11           0        0.788546    0.112167    1.621061
      2         11           0        4.020100   -2.114976    0.177886
      3         11           0       -2.931041    1.094676   -0.269320
      4         11           0       -4.747750   -1.660259    0.184139
      5         11           0       -0.473091    2.858973   -0.027023
      6         11           0       -0.327143   -1.540732   -1.068076
      7         11           0        3.670379    1.250151   -0.618667
 ---------------------------------------------------------------------

 SCF Done:  E(UB3LYP) =  -1136.11102546     A.U. after   23 cycles

 The electronic state is 2-A.
 Alpha  occ. eigenvalues --  -38.45152 -38.44929 -38.44922 -38.44838 -38.43650
 Alpha  occ. eigenvalues --  -38.43600 -38.42976  -2.20984  -2.20713  -2.20676
 Alpha  occ. eigenvalues --   -2.20626  -2.19525  -2.19386  -2.18832  -1.14683
 Alpha  occ. eigenvalues --   -1.14643  -1.14590  -1.14387  -1.14370  -1.14362
 Alpha  occ. eigenvalues --   -1.14343  -1.14320  -1.14301  -1.14300  -1.14262
 Alpha  occ. eigenvalues --   -1.14229  -1.13228  -1.13198  -1.13177  -1.13043
 Alpha  occ. eigenvalues --   -1.13034  -1.13002  -1.12509  -1.12484  -1.12459
 Alpha  occ. eigenvalues --   -0.17198  -0.13901  -0.11501  -0.10574
 Alpha virt. eigenvalues --   -0.06708  -0.06505  -0.04238  -0.03250  -0.02940
 Alpha virt. eigenvalues --   -0.02632  -0.01934  -0.01539  -0.01191  -0.00623
 Alpha virt. eigenvalues --   -0.00424  -0.00306   0.00349   0.00419   0.00517

  Beta  occ. eigenvalues --  -38.45120 -38.44936 -38.44857 -38.44779 -38.43633
  Beta  occ. eigenvalues --  -38.43557 -38.42968  -2.20928  -2.20692  -2.20597
  Beta  occ. eigenvalues --   -2.20515  -2.19496  -2.19306  -2.18817  -1.14632
  Beta  occ. eigenvalues --   -1.14598  -1.14557  -1.14375  -1.14338  -1.14322
  Beta  occ. eigenvalues --   -1.14300  -1.14289  -1.14226  -1.14225  -1.14188
  Beta  occ. eigenvalues --   -1.14155  -1.13198  -1.13173  -1.13154  -1.12989
  Beta  occ. eigenvalues --   -1.12973  -1.12954  -1.12498  -1.12474  -1.12447
  Beta  occ. eigenvalues --   -0.16614  -0.13395  -0.11170
  Beta virt. eigenvalues --   -0.07158  -0.06503  -0.06190  -0.03907  -0.02942
  Beta virt. eigenvalues --   -0.02814  -0.02175  -0.01728  -0.01231  -0.00989
  Beta virt. eigenvalues --   -0.00362  -0.00234  -0.00027   0.00391   0.00543

 Mulliken charges and spin densities:
               1          2
     1  Na  -0.151496   0.142173
     2  Na   0.144598  -0.037210
     3  Na  -0.311608   0.287117
     4  Na   0.293058   0.143792
     5  Na   0.109841  -0.008577
     6  Na  -0.117024   0.059595
     7  Na   0.032631   0.413111
 Sum of Mulliken charges =  -0.00000   1.00000

 Dipole moment (field-independent basis, Debye):
    X=              1.6307    Y=             -0.8466    Z=              0.2760  Tot=              1.8579
 Quadrupole moment (field-independent basis, Debye-Ang):
   XX=            -72.6287   YY=            -67.4844   ZZ=            -65.1057
   XY=             -2.4965   XZ=             -0.7635   YZ=             -2.5483

 Normal termination of Gaussian 16 at Mon Dec  4 00:24:28 2023.
