 Gaussian 16, Revision B.01,
 Gaussian 16:  ES64L-G16RevB.01 20-Dec-2017

 -------------------------
 #P B3LYP/6-311+g(d) force
 -------------------------

 -----
 DPGEN
 -----
 Symbolic Z-matrix:
 Charge =  0 Multiplicity = 2

                         Standard orientation:
 ---------------------------------------------------------------------
 Center     Atomic      Atomic             Coordinates (Angstroms)
 Number     Number       Type             X           Y           Z
 ---------------------------------------------------------------------
      1         11           0       -0.243563    0.110597    2.260235
      2         11           0        1.388387    2.836888   -0.106132
      3         11           0        1.028822   -2.597896   -0.278764
      4         11           0       -2.905006    1.680184   -0.234229
      5         11           0        3.337464   -0.271850    0.068992
      6         11           0       -2.477480   -1.840527    0.062154
      7         11           0       -0.128624    0.082603   -1.772256
 ---------------------------------------------------------------------

 SCF Done:  E(UB3LYP) =  -1136.13381300     A.U. after   20 cycles

 The electronic state is 2-A.
 Alpha  occ. eigenvalues --  -38.44411 -38.44386 -38.44123 -38.43881 -38.43647
 Alpha  occ. eigenvalues --  -38.43611 -38.42939  -2.20209  -2.20169  -2.19947
 Alpha  occ. eigenvalues --   -2.19710  -2.19521  -2.19427  -2.18806  -1.13882
 Alpha  occ. eigenvalues --   -1.13878  -1.13848  -1.13845  -1.13823  -1.13813
 Alpha  occ. eigenvalues --   -1.13602  -1.13574  -1.13569  -1.13384  -1.13378
 Alpha  occ. eigenvalues --   -1.13346  -1.13208  -1.13170  -1.13144  -1.13101
 Alpha  occ. eigenvalues --   -1.13087  -1.13064  -1.12497  -1.12463  -1.12438
 Alpha  occ. eigenvalues --   -0.18084  -0.13040  -0.11980  -0.10865
 Alpha virt. eigenvalues --   -0.06107  -0.05445  -0.04375  -0.03323  -0.02899
 Alpha virt. eigenvalues --   -0.02782  -0.01769  -0.01216  -0.00663  -0.00313
 Alpha virt. eigenvalues --   -0.00072   0.00339   0.00700   0.00786   0.00796

  Beta  occ. eigenvalues --  -38.44412 -38.44382 -38.44019 -38.43877 -38.43647
  Beta  occ. eigenvalues --  -38.43547 -38.42933  -2.20213  -2.20165  -2.19756
  Beta  occ. eigenvalues --   -2.19705  -2.19430  -2.19403  -2.18798  -1.13886
  Beta  occ. eigenvalues --   -1.13867  -1.13853  -1.13829  -1.13817  -1.13813
  Beta  occ. eigenvalues --   -1.13474  -1.13439  -1.13433  -1.13378  -1.13350
  Beta  occ. eigenvalues --   -1.13347  -1.13132  -1.13112  -1.13086  -1.13073
  Beta  occ. eigenvalues --   -1.13065  -1.13050  -1.12488  -1.12445  -1.12431
  Beta  occ. eigenvalues --   -0.17351  -0.12876  -0.11772
  Beta virt. eigenvalues --   -0.06922  -0.06073  -0.05372  -0.04338  -0.02576
  Beta virt. eigenvalues --   -0.02070  -0.01814  -0.01660  -0.01136  -0.00723
  Beta virt. eigenvalues --   -0.00352   0.00090   0.00373   0.00774   0.00810

 Mulliken charges and spin densities:
               1          2
     1  Na  -0.483025   0.747088
     2  Na  -0.019053  -0.115460
     3  Na   0.125310   0.003464
     4  Na   0.092011  -0.106301
     5  Na   0.016936  -0.027660
     6  Na   0.218563   0.043153
     7  Na   0.049258   0.455716
 Sum of Mulliken charges =  -0.00000   1.00000

 Dipole moment (field-independent basis, Debye):
    X=             -0.2076    Y=              0.2432    Z=              0.1404  Tot=              0.3492
 Quadrupole moment (field-independent basis, Debye-Ang):
   XX=            -54.6116   YY=            -65.6174   ZZ=            -73.9650
   XY=             -0.3214   XZ=              0.4987   YZ=             -0.1647

 Normal termination of Gaussian 16 at Thu Dec  7 20:48:36 2023.
