 Gaussian 16, Revision B.01,
 Gaussian 16:  ES64L-G16RevB.01 20-Dec-2017

 -------------------------
 #P B3LYP/6-311+g(d) force
 -------------------------

 -----
 DPGEN
 -----
 Symbolic Z-matrix:
 Charge =  0 Multiplicity = 2

                         Standard orientation:
 ---------------------------------------------------------------------
 Center     Atomic      Atomic             Coordinates (Angstroms)
 Number     Number       Type             X           Y           Z
 ---------------------------------------------------------------------
      1         11           0       -0.705530    2.503302   -0.389471
      2         11           0       -3.183962   -0.083730   -0.195224
      3         11           0       -0.351099    0.633673    1.760438
      4         11           0        2.830249    1.545686   -0.065464
      5         11           0       -0.269814   -0.676442   -1.669049
      6         11           0       -0.779000   -2.103317    0.592139
      7         11           0        2.459156   -1.819172   -0.033369
 ---------------------------------------------------------------------

 SCF Done:  E(UB3LYP) =  -1136.12425197     A.U. after   21 cycles

 The electronic state is 2-A.
 Alpha  occ. eigenvalues --  -38.44343 -38.44178 -38.43618 -38.43554 -38.43429
 Alpha  occ. eigenvalues --  -38.43295 -38.43185  -2.20230  -2.19977  -2.19595
 Alpha  occ. eigenvalues --   -2.19477  -2.19451  -2.19236  -2.19208  -1.13913
 Alpha  occ. eigenvalues --   -1.13894  -1.13864  -1.13654  -1.13641  -1.13616
 Alpha  occ. eigenvalues --   -1.13522  -1.13270  -1.13233  -1.13202  -1.13167
 Alpha  occ. eigenvalues --   -1.13143  -1.13121  -1.13115  -1.13021  -1.12873
 Alpha  occ. eigenvalues --   -1.12859  -1.12835  -1.12819  -1.12792  -1.12786
 Alpha  occ. eigenvalues --   -0.19404  -0.13386  -0.12414  -0.10922
 Alpha virt. eigenvalues --   -0.06013  -0.05108  -0.04102  -0.03185  -0.02930
 Alpha virt. eigenvalues --   -0.02364  -0.01865  -0.00906  -0.00126  -0.00068
 Alpha virt. eigenvalues --    0.00102   0.00330   0.00816   0.00903   0.00949

  Beta  occ. eigenvalues --  -38.44333 -38.44180 -38.43617 -38.43488 -38.43349
  Beta  occ. eigenvalues --  -38.43283 -38.43158  -2.20216  -2.19981  -2.19478
  Beta  occ. eigenvalues --   -2.19474  -2.19306  -2.19192  -2.19188  -1.13907
  Beta  occ. eigenvalues --   -1.13862  -1.13846  -1.13653  -1.13639  -1.13621
  Beta  occ. eigenvalues --   -1.13452  -1.13187  -1.13169  -1.13145  -1.13131
  Beta  occ. eigenvalues --   -1.13119  -1.13076  -1.13056  -1.12920  -1.12835
  Beta  occ. eigenvalues --   -1.12820  -1.12787  -1.12776  -1.12769  -1.12733
  Beta  occ. eigenvalues --   -0.18635  -0.13159  -0.12188
  Beta virt. eigenvalues --   -0.06868  -0.05961  -0.05093  -0.04072  -0.02455
  Beta virt. eigenvalues --   -0.02177  -0.01785  -0.01270  -0.00874  -0.00162
  Beta virt. eigenvalues --    0.00040   0.00139   0.00364   0.00855   0.00904

 Mulliken charges and spin densities:
               1          2
     1  Na  -0.014317  -0.044925
     2  Na   0.477261   0.016186
     3  Na  -0.302791   0.456126
     4  Na  -0.104650  -0.102839
     5  Na  -0.579405   0.683986
     6  Na   0.480195   0.081605
     7  Na   0.043707  -0.090139
 Sum of Mulliken charges =  -0.00000   1.00000

 Dipole moment (field-independent basis, Debye):
    X=              0.0050    Y=              0.2468    Z=             -0.1139  Tot=              0.2718
 Quadrupole moment (field-independent basis, Debye-Ang):
   XX=            -51.8747   YY=            -67.9946   ZZ=            -73.4039
   XY=             -0.2536   XZ=              0.3940   YZ=             -1.9080

 Normal termination of Gaussian 16 at Thu Dec  7 23:15:14 2023.
