 Gaussian 16, Revision B.01,
 Gaussian 16:  ES64L-G16RevB.01 20-Dec-2017

 -------------------------
 #P B3LYP/6-311+g(d) force
 -------------------------

 -----
 DPGEN
 -----
 Symbolic Z-matrix:
 Charge =  0 Multiplicity = 2

                         Standard orientation:
 ---------------------------------------------------------------------
 Center     Atomic      Atomic             Coordinates (Angstroms)
 Number     Number       Type             X           Y           Z
 ---------------------------------------------------------------------
      1         11           0       -3.305211   -1.447112   -0.965901
      2         11           0        0.975094   -0.515165    2.397436
      3         11           0        1.705361    1.327294   -1.396528
      4         11           0        0.033213    3.245420    1.091816
      5         11           0        3.311246   -1.343765   -1.366262
      6         11           0       -0.398753   -2.675236    0.985771
      7         11           0       -2.320950    1.408563   -0.746332
 ---------------------------------------------------------------------

 SCF Done:  E(UB3LYP) =  -1136.11745508     A.U. after   20 cycles

 The electronic state is 2-A.
 Alpha  occ. eigenvalues --  -38.44920 -38.44661 -38.44238 -38.44025 -38.43925
 Alpha  occ. eigenvalues --  -38.43743 -38.43651  -2.20761  -2.20468  -2.20067
 Alpha  occ. eigenvalues --   -2.19850  -2.19733  -2.19575  -2.19476  -1.14497
 Alpha  occ. eigenvalues --   -1.14376  -1.14364  -1.14168  -1.14112  -1.14072
 Alpha  occ. eigenvalues --   -1.13748  -1.13727  -1.13689  -1.13565  -1.13489
 Alpha  occ. eigenvalues --   -1.13455  -1.13399  -1.13385  -1.13369  -1.13329
 Alpha  occ. eigenvalues --   -1.13254  -1.13224  -1.13122  -1.13093  -1.13078
 Alpha  occ. eigenvalues --   -0.17007  -0.13174  -0.12608  -0.11818
 Alpha virt. eigenvalues --   -0.05492  -0.05146  -0.05076  -0.03705  -0.03508
 Alpha virt. eigenvalues --   -0.02622  -0.01484  -0.01135  -0.00600  -0.00424
 Alpha virt. eigenvalues --   -0.00234   0.00113   0.00378   0.00431   0.00816

  Beta  occ. eigenvalues --  -38.44842 -38.44600 -38.44211 -38.44010 -38.43897
  Beta  occ. eigenvalues --  -38.43735 -38.43628  -2.20619  -2.20358  -2.20021
  Beta  occ. eigenvalues --   -2.19827  -2.19680  -2.19562  -2.19435  -1.14396
  Beta  occ. eigenvalues --   -1.14278  -1.14266  -1.14083  -1.14040  -1.13999
  Beta  occ. eigenvalues --   -1.13718  -1.13703  -1.13628  -1.13530  -1.13472
  Beta  occ. eigenvalues --   -1.13442  -1.13363  -1.13343  -1.13338  -1.13305
  Beta  occ. eigenvalues --   -1.13246  -1.13211  -1.13094  -1.13070  -1.13050
  Beta  occ. eigenvalues --   -0.16412  -0.12431  -0.12315
  Beta virt. eigenvalues --   -0.08338  -0.05326  -0.04823  -0.04745  -0.03294
  Beta virt. eigenvalues --   -0.03035  -0.02106  -0.01260  -0.01019  -0.00391
  Beta virt. eigenvalues --   -0.00294  -0.00059   0.00304   0.00507   0.00548

 Mulliken charges and spin densities:
               1          2
     1  Na   0.406528  -0.053215
     2  Na  -0.093644   0.160305
     3  Na  -0.365335   0.208602
     4  Na   0.532465   0.288907
     5  Na   0.229168   0.114882
     6  Na  -0.228483   0.249904
     7  Na  -0.480699   0.030615
 Sum of Mulliken charges =  -0.00000   1.00000

 Dipole moment (field-independent basis, Debye):
    X=              0.7451    Y=             -0.1163    Z=              0.2069  Tot=              0.7820
 Quadrupole moment (field-independent basis, Debye-Ang):
   XX=            -67.6232   YY=            -63.6127   ZZ=            -67.9514
   XY=             -0.9664   XZ=              0.6533   YZ=              4.6953

 Normal termination of Gaussian 16 at Sun Dec  3 16:18:15 2023.
