 Gaussian 16, Revision B.01,
 Gaussian 16:  ES64L-G16RevB.01 20-Dec-2017

 -------------------------
 #P B3LYP/6-311+g(d) force
 -------------------------

 -----
 DPGEN
 -----
 Symbolic Z-matrix:
 Charge =  0 Multiplicity = 2

                         Standard orientation:
 ---------------------------------------------------------------------
 Center     Atomic      Atomic             Coordinates (Angstroms)
 Number     Number       Type             X           Y           Z
 ---------------------------------------------------------------------
      1         11           0       -2.993168    1.903415    0.087587
      2         11           0        6.269212   -0.736737   -0.539433
      3         11           0        0.358459    0.006664   -0.064328
      4         11           0       -7.045639    0.821001    0.012342
      5         11           0        9.027510    0.416042   -0.486897
      6         11           0        3.276744   -0.747220    1.393618
      7         11           0       -8.893117   -1.663165   -0.402889
 ---------------------------------------------------------------------

 SCF Done:  E(UB3LYP) =  -1136.10382765     A.U. after   18 cycles

 The electronic state is 2-A.
 Alpha  occ. eigenvalues --  -38.45367 -38.44752 -38.44745 -38.44675 -38.44511
 Alpha  occ. eigenvalues --  -38.44225 -38.44041  -2.21134  -2.20553  -2.20548
 Alpha  occ. eigenvalues --   -2.20491  -2.20257  -2.19997  -2.19858  -1.14783
 Alpha  occ. eigenvalues --   -1.14775  -1.14736  -1.14208  -1.14203  -1.14201
 Alpha  occ. eigenvalues --   -1.14190  -1.14190  -1.14188  -1.14182  -1.14124
 Alpha  occ. eigenvalues --   -1.14123  -1.13947  -1.13944  -1.13899  -1.13670
 Alpha  occ. eigenvalues --   -1.13667  -1.13646  -1.13525  -1.13519  -1.13512
 Alpha  occ. eigenvalues --   -0.15054  -0.14198  -0.13039  -0.11790
 Alpha virt. eigenvalues --   -0.07086  -0.05278  -0.04306  -0.03330  -0.02982
 Alpha virt. eigenvalues --   -0.02813  -0.02678  -0.02175  -0.01660  -0.01405
 Alpha virt. eigenvalues --   -0.01080  -0.00784  -0.00285   0.00246   0.00518

  Beta  occ. eigenvalues --  -38.45262 -38.44706 -38.44684 -38.44628 -38.44535
  Beta  occ. eigenvalues --  -38.44237 -38.44047  -2.20938  -2.20463  -2.20438
  Beta  occ. eigenvalues --   -2.20404  -2.20307  -2.20023  -2.19875  -1.14649
  Beta  occ. eigenvalues --   -1.14642  -1.14608  -1.14154  -1.14133  -1.14132
  Beta  occ. eigenvalues --   -1.14132  -1.14125  -1.14120  -1.14117  -1.14065
  Beta  occ. eigenvalues --   -1.14063  -1.13986  -1.13983  -1.13893  -1.13691
  Beta  occ. eigenvalues --   -1.13688  -1.13635  -1.13536  -1.13535  -1.13492
  Beta  occ. eigenvalues --   -0.14482  -0.13484  -0.12485
  Beta virt. eigenvalues --   -0.08706  -0.06654  -0.04870  -0.04019  -0.03174
  Beta virt. eigenvalues --   -0.02765  -0.02578  -0.02372  -0.01997  -0.01525
  Beta virt. eigenvalues --   -0.00993  -0.00672  -0.00407  -0.00155   0.00357

 Mulliken charges and spin densities:
               1          2
     1  Na  -0.021321   0.524064
     2  Na  -0.348654   0.045503
     3  Na  -0.261696  -0.125219
     4  Na  -0.180381   0.004917
     5  Na   0.395159   0.156549
     6  Na   0.055183   0.229473
     7  Na   0.361709   0.164712
 Sum of Mulliken charges =  -0.00000   1.00000

 Dipole moment (field-independent basis, Debye):
    X=              0.1638    Y=             -0.1547    Z=              0.0865  Tot=              0.2414
 Quadrupole moment (field-independent basis, Debye-Ang):
   XX=            -46.8794   YY=            -66.6474   ZZ=            -72.6365
   XY=              9.0889   XZ=              2.4876   YZ=              0.7709

 Normal termination of Gaussian 16 at Sun Dec  3 18:13:41 2023.
