 Gaussian 16, Revision B.01,
 Gaussian 16:  ES64L-G16RevB.01 20-Dec-2017

 -------------------------
 #P B3LYP/6-311+g(d) force
 -------------------------

 -----
 DPGEN
 -----
 Symbolic Z-matrix:
 Charge =  0 Multiplicity = 2

                         Standard orientation:
 ---------------------------------------------------------------------
 Center     Atomic      Atomic             Coordinates (Angstroms)
 Number     Number       Type             X           Y           Z
 ---------------------------------------------------------------------
      1         11           0        3.200469   -2.480129   -0.340366
      2         11           0        4.689638    0.237185   -0.531349
      3         11           0        1.958766    1.725630    0.957984
      4         11           0       -0.689133    2.442338   -0.948871
      5         11           0        0.170306   -0.907634    0.641742
      6         11           0       -3.756497   -0.213338    1.195610
      7         11           0       -5.573550   -0.804052   -0.974749
 ---------------------------------------------------------------------

 SCF Done:  E(UB3LYP) =  -1136.11168392     A.U. after   21 cycles

 The electronic state is 2-A.
 Alpha  occ. eigenvalues --  -38.44867 -38.44305 -38.44240 -38.43990 -38.43926
 Alpha  occ. eigenvalues --  -38.43917 -38.43821  -2.20642  -2.20176  -2.20104
 Alpha  occ. eigenvalues --   -2.19819  -2.19754  -2.19742  -2.19669  -1.14319
 Alpha  occ. eigenvalues --   -1.14300  -1.14272  -1.13913  -1.13848  -1.13784
 Alpha  occ. eigenvalues --   -1.13777  -1.13740  -1.13683  -1.13661  -1.13477
 Alpha  occ. eigenvalues --   -1.13476  -1.13455  -1.13418  -1.13399  -1.13372
 Alpha  occ. eigenvalues --   -1.13369  -1.13318  -1.13311  -1.13295  -1.13259
 Alpha  occ. eigenvalues --   -0.16985  -0.13925  -0.11978  -0.10889
 Alpha virt. eigenvalues --   -0.06629  -0.05722  -0.04331  -0.03376  -0.03036
 Alpha virt. eigenvalues --   -0.02624  -0.02006  -0.01757  -0.00806  -0.00511
 Alpha virt. eigenvalues --   -0.00357  -0.00190   0.00284   0.00444   0.00567

  Beta  occ. eigenvalues --  -38.44863 -38.44276 -38.44161 -38.43993 -38.43911
  Beta  occ. eigenvalues --  -38.43896 -38.43774  -2.20635  -2.20126  -2.19959
  Beta  occ. eigenvalues --   -2.19827  -2.19728  -2.19703  -2.19582  -1.14314
  Beta  occ. eigenvalues --   -1.14290  -1.14267  -1.13856  -1.13811  -1.13738
  Beta  occ. eigenvalues --   -1.13686  -1.13653  -1.13649  -1.13570  -1.13480
  Beta  occ. eigenvalues --   -1.13457  -1.13449  -1.13402  -1.13366  -1.13346
  Beta  occ. eigenvalues --   -1.13343  -1.13278  -1.13257  -1.13248  -1.13210
  Beta  occ. eigenvalues --   -0.16293  -0.13674  -0.11797
  Beta virt. eigenvalues --   -0.07257  -0.06369  -0.05265  -0.04013  -0.03123
  Beta virt. eigenvalues --   -0.02672  -0.02359  -0.01646  -0.01428  -0.00737
  Beta virt. eigenvalues --   -0.00372  -0.00094   0.00047   0.00390   0.00504

 Mulliken charges and spin densities:
               1          2
     1  Na   1.482652  -0.138026
     2  Na  -0.514420   0.106116
     3  Na   0.610832   0.509743
     4  Na   0.270171  -0.060890
     5  Na  -1.679961   0.488172
     6  Na  -0.387058   0.012170
     7  Na   0.217785   0.082716
 Sum of Mulliken charges =  -0.00000   1.00000

 Dipole moment (field-independent basis, Debye):
    X=             -0.0922    Y=              0.6852    Z=             -0.7701  Tot=              1.0349
 Quadrupole moment (field-independent basis, Debye-Ang):
   XX=            -71.4041   YY=            -68.9835   ZZ=            -63.4180
   XY=             -2.1053   XZ=              4.4756   YZ=             -0.0010

 Normal termination of Gaussian 16 at Tue Nov 28 22:49:13 2023.
