 Gaussian 16, Revision B.01,
 Gaussian 16:  ES64L-G16RevB.01 20-Dec-2017

 -------------------------
 #P B3LYP/6-311+g(d) force
 -------------------------

 -----
 DPGEN
 -----
 Symbolic Z-matrix:
 Charge =  0 Multiplicity = 2

                         Standard orientation:
 ---------------------------------------------------------------------
 Center     Atomic      Atomic             Coordinates (Angstroms)
 Number     Number       Type             X           Y           Z
 ---------------------------------------------------------------------
      1         11           0       -1.288993   -2.636029   -0.476558
      2         11           0       -3.059067    0.037089    0.106824
      3         11           0       -0.754585    3.024399    0.067730
      4         11           0        2.758340    1.531097   -0.109526
      5         11           0        2.499280   -2.056261   -0.097317
      6         11           0        0.017323   -0.364586    2.091620
      7         11           0       -0.172298    0.464291   -1.582773
 ---------------------------------------------------------------------

 SCF Done:  E(UB3LYP) =  -1136.13738345     A.U. after   19 cycles

 The electronic state is 2-A.
 Alpha  occ. eigenvalues --  -38.44103 -38.43885 -38.43877 -38.43660 -38.43578
 Alpha  occ. eigenvalues --  -38.43508 -38.43140  -2.19906  -2.19735  -2.19674
 Alpha  occ. eigenvalues --   -2.19494  -2.19440  -2.19361  -2.19110  -1.13592
 Alpha  occ. eigenvalues --   -1.13570  -1.13535  -1.13423  -1.13397  -1.13379
 Alpha  occ. eigenvalues --   -1.13349  -1.13331  -1.13320  -1.13219  -1.13148
 Alpha  occ. eigenvalues --   -1.13116  -1.13106  -1.13070  -1.13056  -1.13040
 Alpha  occ. eigenvalues --   -1.13014  -1.12993  -1.12789  -1.12742  -1.12732
 Alpha  occ. eigenvalues --   -0.18382  -0.12917  -0.12478  -0.10558
 Alpha virt. eigenvalues --   -0.05593  -0.05367  -0.04908  -0.03093  -0.02941
 Alpha virt. eigenvalues --   -0.02443  -0.01453  -0.01269  -0.00573  -0.00507
 Alpha virt. eigenvalues --   -0.00010   0.00356   0.00804   0.00821   0.00871

  Beta  occ. eigenvalues --  -38.44101 -38.43884 -38.43871 -38.43658 -38.43495
  Beta  occ. eigenvalues --  -38.43482 -38.43085  -2.19904  -2.19729  -2.19675
  Beta  occ. eigenvalues --   -2.19492  -2.19341  -2.19261  -2.19010  -1.13582
  Beta  occ. eigenvalues --   -1.13561  -1.13537  -1.13419  -1.13381  -1.13363
  Beta  occ. eigenvalues --   -1.13333  -1.13331  -1.13324  -1.13211  -1.13132
  Beta  occ. eigenvalues --   -1.13116  -1.13026  -1.12993  -1.12986  -1.12975
  Beta  occ. eigenvalues --   -1.12938  -1.12927  -1.12719  -1.12672  -1.12657
  Beta  occ. eigenvalues --   -0.17665  -0.12705  -0.12274
  Beta virt. eigenvalues --   -0.06649  -0.05601  -0.05326  -0.04817  -0.02332
  Beta virt. eigenvalues --   -0.02199  -0.01425  -0.01349  -0.01196  -0.00608
  Beta virt. eigenvalues --   -0.00552   0.00142   0.00390   0.00815   0.00864

 Mulliken charges and spin densities:
               1          2
     1  Na   0.083010  -0.006427
     2  Na   0.282842   0.044773
     3  Na   0.140913  -0.053522
     4  Na   0.038343  -0.101060
     5  Na   0.014404  -0.069656
     6  Na  -0.489795   0.785047
     7  Na  -0.069718   0.400846
 Sum of Mulliken charges =  -0.00000   1.00000

 Dipole moment (field-independent basis, Debye):
    X=              0.1310    Y=              0.1196    Z=              0.1318  Tot=              0.2210
 Quadrupole moment (field-independent basis, Debye-Ang):
   XX=            -57.3490   YY=            -60.5119   ZZ=            -75.3416
   XY=             -0.2910   XZ=             -0.5465   YZ=              1.9279

 Normal termination of Gaussian 16 at Thu Dec  7 05:39:03 2023.
