 Gaussian 16, Revision B.01,
 Gaussian 16:  ES64L-G16RevB.01 20-Dec-2017

 -------------------------
 #P B3LYP/6-311+g(d) force
 -------------------------

 -----
 DPGEN
 -----
 Symbolic Z-matrix:
 Charge =  0 Multiplicity = 2

                         Standard orientation:
 ---------------------------------------------------------------------
 Center     Atomic      Atomic             Coordinates (Angstroms)
 Number     Number       Type             X           Y           Z
 ---------------------------------------------------------------------
      1         11           0        2.544556    1.730441   -0.073464
      2         11           0       -0.098557   -0.205351    2.170970
      3         11           0       -3.057166   -0.101521   -0.243749
      4         11           0       -0.936974   -3.038618   -0.204587
      5         11           0       -1.207784    2.987340   -0.169223
      6         11           0        2.900356   -1.369901   -0.313358
      7         11           0       -0.144431   -0.002390   -1.166589
 ---------------------------------------------------------------------

 SCF Done:  E(UB3LYP) =  -1136.13355321     A.U. after   19 cycles

 The electronic state is 2-A.
 Alpha  occ. eigenvalues --  -38.44187 -38.44009 -38.43885 -38.43670 -38.43572
 Alpha  occ. eigenvalues --  -38.43401 -38.42783  -2.20048  -2.19846  -2.19733
 Alpha  occ. eigenvalues --   -2.19491  -2.19385  -2.19273  -2.18850  -1.13776
 Alpha  occ. eigenvalues --   -1.13704  -1.13652  -1.13570  -1.13510  -1.13484
 Alpha  occ. eigenvalues --   -1.13404  -1.13383  -1.13345  -1.13180  -1.13147
 Alpha  occ. eigenvalues --   -1.13127  -1.13069  -1.13041  -1.13025  -1.12950
 Alpha  occ. eigenvalues --   -1.12888  -1.12877  -1.12551  -1.12505  -1.12469
 Alpha  occ. eigenvalues --   -0.18491  -0.13245  -0.12312  -0.10340
 Alpha virt. eigenvalues --   -0.05672  -0.05289  -0.05050  -0.02981  -0.02538
 Alpha virt. eigenvalues --   -0.02313  -0.01609  -0.01385  -0.00671  -0.00571
 Alpha virt. eigenvalues --   -0.00008   0.00320   0.00778   0.00810   0.00823

  Beta  occ. eigenvalues --  -38.44177 -38.44002 -38.43881 -38.43666 -38.43571
  Beta  occ. eigenvalues --  -38.43287 -38.42747  -2.20034  -2.19836  -2.19730
  Beta  occ. eigenvalues --   -2.19486  -2.19384  -2.19061  -2.18789  -1.13763
  Beta  occ. eigenvalues --   -1.13674  -1.13646  -1.13567  -1.13494  -1.13471
  Beta  occ. eigenvalues --   -1.13399  -1.13367  -1.13344  -1.13173  -1.13128
  Beta  occ. eigenvalues --   -1.13126  -1.13065  -1.13033  -1.13023  -1.12809
  Beta  occ. eigenvalues --   -1.12741  -1.12728  -1.12486  -1.12457  -1.12426
  Beta  occ. eigenvalues --   -0.17801  -0.13004  -0.12122
  Beta virt. eigenvalues --   -0.06391  -0.05623  -0.05274  -0.04992  -0.02248
  Beta virt. eigenvalues --   -0.01852  -0.01522  -0.01331  -0.01212  -0.00701
  Beta virt. eigenvalues --   -0.00590   0.00173   0.00381   0.00809   0.00837

 Mulliken charges and spin densities:
               1          2
     1  Na   0.299010   0.064394
     2  Na  -0.478912   0.739588
     3  Na   0.497783   0.087868
     4  Na   0.280104   0.042065
     5  Na   0.255649   0.050834
     6  Na   0.268233   0.048704
     7  Na  -1.121868  -0.033453
 Sum of Mulliken charges =  -0.00000   1.00000

 Dipole moment (field-independent basis, Debye):
    X=             -0.0255    Y=             -0.0946    Z=              0.1839  Tot=              0.2084
 Quadrupole moment (field-independent basis, Debye-Ang):
   XX=            -56.3840   YY=            -58.4672   ZZ=            -77.0213
   XY=             -0.1302   XZ=             -0.1260   YZ=              0.6383

 Normal termination of Gaussian 16 at Thu Dec  7 07:56:51 2023.
