 Gaussian 16, Revision B.01,
 Gaussian 16:  ES64L-G16RevB.01 20-Dec-2017

 -------------------------
 #P B3LYP/6-311+g(d) force
 -------------------------

 -----
 DPGEN
 -----
 Symbolic Z-matrix:
 Charge =  0 Multiplicity = 2

                         Standard orientation:
 ---------------------------------------------------------------------
 Center     Atomic      Atomic             Coordinates (Angstroms)
 Number     Number       Type             X           Y           Z
 ---------------------------------------------------------------------
      1         11           0       -2.503189    1.242613   -0.191721
      2         11           0        1.060689    0.763476    0.945641
      3         11           0        2.439858   -2.437893    0.195931
      4         11           0       -1.047576   -1.559350   -0.821848
      5         11           0       -4.346843   -1.555894    0.366290
      6         11           0        4.089421   -0.327672   -0.284963
      7         11           0        0.307641    3.874720   -0.209330
 ---------------------------------------------------------------------

 SCF Done:  E(UB3LYP) =  -1136.12090170     A.U. after   19 cycles

 The electronic state is 2-A.
 Alpha  occ. eigenvalues --  -38.44304 -38.44293 -38.44030 -38.44004 -38.43732
 Alpha  occ. eigenvalues --  -38.43725 -38.43414  -2.20218  -2.20143  -2.19943
 Alpha  occ. eigenvalues --   -2.19881  -2.19559  -2.19503  -2.19302  -1.14153
 Alpha  occ. eigenvalues --   -1.13870  -1.13860  -1.13845  -1.13829  -1.13719
 Alpha  occ. eigenvalues --   -1.13602  -1.13577  -1.13545  -1.13538  -1.13492
 Alpha  occ. eigenvalues --   -1.13470  -1.13216  -1.13209  -1.13174  -1.13173
 Alpha  occ. eigenvalues --   -1.13171  -1.13131  -1.12996  -1.12971  -1.12891
 Alpha  occ. eigenvalues --   -0.17468  -0.14413  -0.12371  -0.10098
 Alpha virt. eigenvalues --   -0.05922  -0.05621  -0.05183  -0.03269  -0.02862
 Alpha virt. eigenvalues --   -0.02059  -0.01925  -0.01339  -0.01098  -0.00499
 Alpha virt. eigenvalues --   -0.00113  -0.00032   0.00479   0.00601   0.00638

  Beta  occ. eigenvalues --  -38.44291 -38.44287 -38.43991 -38.43966 -38.43730
  Beta  occ. eigenvalues --  -38.43678 -38.43364  -2.20201  -2.20134  -2.19861
  Beta  occ. eigenvalues --   -2.19825  -2.19513  -2.19458  -2.19214  -1.14108
  Beta  occ. eigenvalues --   -1.13858  -1.13857  -1.13841  -1.13785  -1.13699
  Beta  occ. eigenvalues --   -1.13583  -1.13533  -1.13485  -1.13460  -1.13445
  Beta  occ. eigenvalues --   -1.13423  -1.13180  -1.13178  -1.13144  -1.13138
  Beta  occ. eigenvalues --   -1.13136  -1.13113  -1.12937  -1.12913  -1.12807
  Beta  occ. eigenvalues --   -0.16846  -0.13922  -0.12176
  Beta virt. eigenvalues --   -0.06518  -0.05756  -0.05336  -0.04871  -0.02771
  Beta virt. eigenvalues --   -0.02667  -0.01912  -0.01590  -0.01224  -0.00822
  Beta virt. eigenvalues --   -0.00233   0.00208   0.00242   0.00585   0.00690

 Mulliken charges and spin densities:
               1          2
     1  Na  -0.414062   0.192503
     2  Na  -0.448562   0.082309
     3  Na   0.440273   0.147617
     4  Na  -0.442850   0.029930
     5  Na   0.477272   0.299332
     6  Na   0.146173   0.316475
     7  Na   0.241756  -0.068167
 Sum of Mulliken charges =  -0.00000   1.00000

 Dipole moment (field-independent basis, Debye):
    X=             -0.0794    Y=             -0.2024    Z=             -0.1969  Tot=              0.2934
 Quadrupole moment (field-independent basis, Debye-Ang):
   XX=            -71.3880   YY=            -60.2555   ZZ=            -68.9982
   XY=              0.8665   XZ=             -1.8785   YZ=             -2.8950

 Normal termination of Gaussian 16 at Wed Nov 29 03:17:54 2023.
