 Gaussian 16, Revision B.01,
 Gaussian 16:  ES64L-G16RevB.01 20-Dec-2017

 -------------------------
 #P B3LYP/6-311+g(d) force
 -------------------------

 -----
 DPGEN
 -----
 Symbolic Z-matrix:
 Charge =  0 Multiplicity = 2

                         Standard orientation:
 ---------------------------------------------------------------------
 Center     Atomic      Atomic             Coordinates (Angstroms)
 Number     Number       Type             X           Y           Z
 ---------------------------------------------------------------------
      1         11           0       -0.203507   -3.175135    0.008081
      2         11           0       -3.229558   -0.737666   -0.421529
      3         11           0        1.576166    2.926090   -0.258620
      4         11           0       -2.151828    2.212139    0.243588
      5         11           0        3.520167   -0.787742   -0.175353
      6         11           0        0.255694   -0.238856    2.135245
      7         11           0        0.232867   -0.198830   -1.531412
 ---------------------------------------------------------------------

 SCF Done:  E(UB3LYP) =  -1136.12968721     A.U. after   21 cycles

 The electronic state is 2-A.
 Alpha  occ. eigenvalues --  -38.45124 -38.44133 -38.44041 -38.43927 -38.43619
 Alpha  occ. eigenvalues --  -38.43565 -38.43416  -2.20867  -2.19895  -2.19855
 Alpha  occ. eigenvalues --   -2.19722  -2.19438  -2.19405  -2.19316  -1.14548
 Alpha  occ. eigenvalues --   -1.14512  -1.14508  -1.13578  -1.13553  -1.13542
 Alpha  occ. eigenvalues --   -1.13531  -1.13522  -1.13487  -1.13408  -1.13391
 Alpha  occ. eigenvalues --   -1.13352  -1.13109  -1.13104  -1.13079  -1.13070
 Alpha  occ. eigenvalues --   -1.13029  -1.13019  -1.13011  -1.12956  -1.12935
 Alpha  occ. eigenvalues --   -0.17757  -0.12784  -0.12208  -0.10328
 Alpha virt. eigenvalues --   -0.06470  -0.05284  -0.04905  -0.03002  -0.02763
 Alpha virt. eigenvalues --   -0.02414  -0.02034  -0.01419  -0.00872  -0.00630
 Alpha virt. eigenvalues --   -0.00057   0.00289   0.00653   0.00708   0.00758

  Beta  occ. eigenvalues --  -38.45121 -38.44132 -38.44033 -38.43923 -38.43616
  Beta  occ. eigenvalues --  -38.43459 -38.43370  -2.20862  -2.19895  -2.19841
  Beta  occ. eigenvalues --   -2.19718  -2.19435  -2.19233  -2.19209  -1.14531
  Beta  occ. eigenvalues --   -1.14511  -1.14505  -1.13570  -1.13552  -1.13536
  Beta  occ. eigenvalues --   -1.13531  -1.13498  -1.13480  -1.13402  -1.13371
  Beta  occ. eigenvalues --   -1.13349  -1.13107  -1.13086  -1.13074  -1.12965
  Beta  occ. eigenvalues --   -1.12924  -1.12899  -1.12894  -1.12878  -1.12872
  Beta  occ. eigenvalues --   -0.17081  -0.12578  -0.12020
  Beta virt. eigenvalues --   -0.06520  -0.06402  -0.05195  -0.04833  -0.02335
  Beta virt. eigenvalues --   -0.02073  -0.01938  -0.01368  -0.01353  -0.00900
  Beta virt. eigenvalues --   -0.00649   0.00112   0.00348   0.00669   0.00779

 Mulliken charges and spin densities:
               1          2
     1  Na   0.112827  -0.061355
     2  Na   0.111087   0.040251
     3  Na  -0.003577  -0.042578
     4  Na   0.048105   0.020397
     5  Na   0.057077  -0.084615
     6  Na  -0.319210   0.769767
     7  Na  -0.006308   0.358132
 Sum of Mulliken charges =  -0.00000   1.00000

 Dipole moment (field-independent basis, Debye):
    X=              0.6619    Y=             -0.2728    Z=             -0.0087  Tot=              0.7159
 Quadrupole moment (field-independent basis, Debye-Ang):
   XX=            -54.3901   YY=            -60.8215   ZZ=            -77.0714
   XY=              0.0793   XZ=              0.2361   YZ=              0.3168

 Normal termination of Gaussian 16 at Fri Dec  8 05:41:46 2023.
