 Gaussian 16, Revision B.01,
 Gaussian 16:  ES64L-G16RevB.01 20-Dec-2017

 -------------------------
 #P B3LYP/6-311+g(d) force
 -------------------------

 -----
 DPGEN
 -----
 Symbolic Z-matrix:
 Charge =  0 Multiplicity = 2

                         Standard orientation:
 ---------------------------------------------------------------------
 Center     Atomic      Atomic             Coordinates (Angstroms)
 Number     Number       Type             X           Y           Z
 ---------------------------------------------------------------------
      1         11           0        0.679624    3.176632   -0.063960
      2         11           0       -4.462111   -0.111272    0.302081
      3         11           0       -2.545809    2.349354   -0.807698
      4         11           0        3.261962    1.030863    1.370984
      5         11           0        4.308707   -0.933377   -0.731517
      6         11           0        1.297982   -2.610075   -0.563422
      7         11           0       -2.540355   -2.902124    0.493533
 ---------------------------------------------------------------------

 SCF Done:  E(UB3LYP) =  -1136.10749356     A.U. after   32 cycles

 The electronic state is 2-A.
 Alpha  occ. eigenvalues --  -38.45838 -38.45153 -38.44606 -38.44557 -38.44330
 Alpha  occ. eigenvalues --  -38.43766 -38.43175  -2.21642  -2.20915  -2.20389
 Alpha  occ. eigenvalues --   -2.20308  -2.20183  -2.19592  -2.18973  -1.15336
 Alpha  occ. eigenvalues --   -1.15294  -1.15281  -1.14598  -1.14584  -1.14522
 Alpha  occ. eigenvalues --   -1.14074  -1.14063  -1.14038  -1.13996  -1.13980
 Alpha  occ. eigenvalues --   -1.13948  -1.13857  -1.13820  -1.13810  -1.13247
 Alpha  occ. eigenvalues --   -1.13245  -1.13222  -1.12631  -1.12626  -1.12611
 Alpha  occ. eigenvalues --   -0.16058  -0.14309  -0.12747  -0.10442
 Alpha virt. eigenvalues --   -0.07809  -0.05126  -0.04446  -0.03617  -0.03407
 Alpha virt. eigenvalues --   -0.02463  -0.02172  -0.01386  -0.00987  -0.00859
 Alpha virt. eigenvalues --   -0.00695  -0.00434   0.00319   0.00415   0.00667

  Beta  occ. eigenvalues --  -38.45813 -38.45106 -38.44604 -38.44558 -38.44290
  Beta  occ. eigenvalues --  -38.43719 -38.43133  -2.21602  -2.20829  -2.20390
  Beta  occ. eigenvalues --   -2.20314  -2.20111  -2.19505  -2.18895  -1.15303
  Beta  occ. eigenvalues --   -1.15274  -1.15223  -1.14542  -1.14528  -1.14444
  Beta  occ. eigenvalues --   -1.14078  -1.14069  -1.14003  -1.14002  -1.13986
  Beta  occ. eigenvalues --   -1.13930  -1.13799  -1.13770  -1.13765  -1.13186
  Beta  occ. eigenvalues --   -1.13184  -1.13169  -1.12578  -1.12575  -1.12560
  Beta  occ. eigenvalues --   -0.15514  -0.13845  -0.12121
  Beta virt. eigenvalues --   -0.07901  -0.07145  -0.04751  -0.03906  -0.03416
  Beta virt. eigenvalues --   -0.03017  -0.02314  -0.01893  -0.01201  -0.00826
  Beta virt. eigenvalues --   -0.00709  -0.00403  -0.00149   0.00330   0.00487

 Mulliken charges and spin densities:
               1          2
     1  Na  -0.369207   0.190358
     2  Na  -0.008055   0.230632
     3  Na   0.219141   0.044122
     4  Na  -0.100656   0.118947
     5  Na   0.512531   0.274894
     6  Na  -0.463349   0.267227
     7  Na   0.209596  -0.126180
 Sum of Mulliken charges =  -0.00000   1.00000

 Dipole moment (field-independent basis, Debye):
    X=              1.3054    Y=             -0.4608    Z=              0.1815  Tot=              1.3962
 Quadrupole moment (field-independent basis, Debye-Ang):
   XX=            -61.7851   YY=            -72.8462   ZZ=            -66.9081
   XY=              1.4794   XZ=             -0.3693   YZ=              0.5767

 Normal termination of Gaussian 16 at Sun Dec  3 19:26:33 2023.
