 Gaussian 16, Revision B.01,
 Gaussian 16:  ES64L-G16RevB.01 20-Dec-2017

 -------------------------
 #P B3LYP/6-311+g(d) force
 -------------------------

 -----
 DPGEN
 -----
 Symbolic Z-matrix:
 Charge =  0 Multiplicity = 2

                         Standard orientation:
 ---------------------------------------------------------------------
 Center     Atomic      Atomic             Coordinates (Angstroms)
 Number     Number       Type             X           Y           Z
 ---------------------------------------------------------------------
      1         11           0        0.146766    2.472374   -0.182113
      2         11           0        1.398185   -3.225995   -0.462341
      3         11           0        4.203549    1.808779   -0.259608
      4         11           0        3.750106   -1.137945    0.871822
      5         11           0       -2.591818    3.347767   -0.126528
      6         11           0       -4.473328   -0.756619    0.709145
      7         11           0       -2.433459   -2.508362   -0.550376
 ---------------------------------------------------------------------

 SCF Done:  E(UB3LYP) =  -1136.10575880     A.U. after   25 cycles

 The electronic state is 2-A.
 Alpha  occ. eigenvalues --  -38.44751 -38.44747 -38.44705 -38.44436 -38.44209
 Alpha  occ. eigenvalues --  -38.44168 -38.43983  -2.20573  -2.20547  -2.20518
 Alpha  occ. eigenvalues --   -2.20231  -2.20023  -2.19968  -2.19814  -1.14287
 Alpha  occ. eigenvalues --   -1.14273  -1.14222  -1.14216  -1.14207  -1.14186
 Alpha  occ. eigenvalues --   -1.14157  -1.14144  -1.14111  -1.13880  -1.13872
 Alpha  occ. eigenvalues --   -1.13850  -1.13825  -1.13682  -1.13672  -1.13641
 Alpha  occ. eigenvalues --   -1.13628  -1.13612  -1.13445  -1.13429  -1.13407
 Alpha  occ. eigenvalues --   -0.15670  -0.14074  -0.13168  -0.11239
 Alpha virt. eigenvalues --   -0.07003  -0.04866  -0.04327  -0.03681  -0.03389
 Alpha virt. eigenvalues --   -0.02386  -0.02227  -0.02013  -0.01255  -0.00797
 Alpha virt. eigenvalues --   -0.00469  -0.00343   0.00212   0.00399   0.00633

  Beta  occ. eigenvalues --  -38.44748 -38.44693 -38.44633 -38.44353 -38.44201
  Beta  occ. eigenvalues --  -38.44170 -38.43958  -2.20557  -2.20467  -2.20386
  Beta  occ. eigenvalues --   -2.20077  -2.20011  -2.19980  -2.19771  -1.14246
  Beta  occ. eigenvalues --   -1.14232  -1.14215  -1.14198  -1.14135  -1.14113
  Beta  occ. eigenvalues --   -1.14067  -1.14055  -1.14039  -1.13794  -1.13775
  Beta  occ. eigenvalues --   -1.13769  -1.13751  -1.13676  -1.13667  -1.13645
  Beta  occ. eigenvalues --   -1.13641  -1.13588  -1.13416  -1.13401  -1.13375
  Beta  occ. eigenvalues --   -0.15100  -0.13344  -0.12451
  Beta virt. eigenvalues --   -0.08135  -0.06936  -0.04470  -0.03898  -0.03473
  Beta virt. eigenvalues --   -0.03081  -0.02181  -0.01960  -0.01770  -0.00907
  Beta virt. eigenvalues --   -0.00562  -0.00239  -0.00083   0.00285   0.00393

 Mulliken charges and spin densities:
               1          2
     1  Na  -1.795808   0.245878
     2  Na   0.068917   0.392537
     3  Na   0.530390   0.376078
     4  Na  -0.178553   0.000318
     5  Na   1.364909  -0.201725
     6  Na   0.277953   0.197216
     7  Na  -0.267808  -0.010303
 Sum of Mulliken charges =  -0.00000   1.00000

 Dipole moment (field-independent basis, Debye):
    X=              0.0521    Y=              0.2763    Z=              0.1386  Tot=              0.3135
 Quadrupole moment (field-independent basis, Debye-Ang):
   XX=            -56.4485   YY=            -71.2932   ZZ=            -71.3053
   XY=             -4.0224   XZ=             -1.9365   YZ=              0.0680

 Normal termination of Gaussian 16 at Sun Dec  3 23:41:37 2023.
