 Gaussian 16, Revision B.01,
 Gaussian 16:  ES64L-G16RevB.01 20-Dec-2017

 -------------------------
 #P B3LYP/6-311+g(d) force
 -------------------------

 -----
 DPGEN
 -----
 Symbolic Z-matrix:
 Charge =  0 Multiplicity = 2

                         Standard orientation:
 ---------------------------------------------------------------------
 Center     Atomic      Atomic             Coordinates (Angstroms)
 Number     Number       Type             X           Y           Z
 ---------------------------------------------------------------------
      1         11           0       -0.559893    3.591635   -0.174181
      2         11           0        2.796382    2.132071    0.120742
      3         11           0       -2.963257    1.467801   -0.583439
      4         11           0       -0.337322   -0.397542    1.632940
      5         11           0        3.517943   -1.277755   -0.593809
      6         11           0       -3.028673   -2.200675   -0.196197
      7         11           0        0.574820   -3.315536   -0.206057
 ---------------------------------------------------------------------

 SCF Done:  E(UB3LYP) =  -1136.11784043     A.U. after   26 cycles

 The electronic state is 2-A.
 Alpha  occ. eigenvalues --  -38.45652 -38.44964 -38.44394 -38.44103 -38.43918
 Alpha  occ. eigenvalues --  -38.43885 -38.43527  -2.21423  -2.20742  -2.20189
 Alpha  occ. eigenvalues --   -2.19904  -2.19706  -2.19671  -2.19360  -1.15113
 Alpha  occ. eigenvalues --   -1.15086  -1.15029  -1.14419  -1.14398  -1.14372
 Alpha  occ. eigenvalues --   -1.13881  -1.13866  -1.13800  -1.13586  -1.13580
 Alpha  occ. eigenvalues --   -1.13543  -1.13382  -1.13362  -1.13350  -1.13338
 Alpha  occ. eigenvalues --   -1.13310  -1.13300  -1.13023  -1.13019  -1.12984
 Alpha  occ. eigenvalues --   -0.16764  -0.13375  -0.13265  -0.09645
 Alpha virt. eigenvalues --   -0.07159  -0.06546  -0.04009  -0.03247  -0.03072
 Alpha virt. eigenvalues --   -0.02575  -0.02089  -0.01534  -0.01330  -0.01193
 Alpha virt. eigenvalues --    0.00180   0.00292   0.00391   0.00481   0.00545

  Beta  occ. eigenvalues --  -38.45623 -38.44955 -38.44371 -38.44087 -38.43882
  Beta  occ. eigenvalues --  -38.43849 -38.43481  -2.21367  -2.20727  -2.20151
  Beta  occ. eigenvalues --   -2.19880  -2.19643  -2.19605  -2.19276  -1.15073
  Beta  occ. eigenvalues --   -1.15058  -1.14983  -1.14406  -1.14391  -1.14357
  Beta  occ. eigenvalues --   -1.13858  -1.13844  -1.13740  -1.13571  -1.13567
  Beta  occ. eigenvalues --   -1.13490  -1.13341  -1.13319  -1.13297  -1.13292
  Beta  occ. eigenvalues --   -1.13264  -1.13251  -1.12968  -1.12966  -1.12908
  Beta  occ. eigenvalues --   -0.16398  -0.12972  -0.12531
  Beta virt. eigenvalues --   -0.07121  -0.06470  -0.06350  -0.03818  -0.02726
  Beta virt. eigenvalues --   -0.02603  -0.02294  -0.01817  -0.01502  -0.01125
  Beta virt. eigenvalues --   -0.00920   0.00312   0.00427   0.00506   0.00625

 Mulliken charges and spin densities:
               1          2
     1  Na   0.177988   0.099641
     2  Na  -0.224317   0.118581
     3  Na  -0.262562   0.211187
     4  Na   0.266661   0.163474
     5  Na   0.029121   0.204803
     6  Na   0.236783   0.022422
     7  Na  -0.223674   0.179891
 Sum of Mulliken charges =  -0.00000   1.00000

 Dipole moment (field-independent basis, Debye):
    X=             -0.8135    Y=             -0.8308    Z=              0.2008  Tot=              1.1800
 Quadrupole moment (field-independent basis, Debye-Ang):
   XX=            -64.3964   YY=            -66.0811   ZZ=            -71.2372
   XY=             10.9009   XZ=              0.4865   YZ=              0.9882

 Normal termination of Gaussian 16 at Mon Dec  4 01:44:28 2023.
