 Gaussian 16, Revision B.01,
 Gaussian 16:  ES64L-G16RevB.01 20-Dec-2017

 -------------------------
 #P B3LYP/6-311+g(d) force
 -------------------------

 -----
 DPGEN
 -----
 Symbolic Z-matrix:
 Charge =  0 Multiplicity = 2

                         Standard orientation:
 ---------------------------------------------------------------------
 Center     Atomic      Atomic             Coordinates (Angstroms)
 Number     Number       Type             X           Y           Z
 ---------------------------------------------------------------------
      1         11           0       -2.935882    0.644768   -0.254569
      2         11           0       -1.419273   -2.472926    0.513987
      3         11           0        0.030067   -0.285669    1.875096
      4         11           0        2.794561    1.338367    0.160610
      5         11           0       -0.400606    3.182969    0.005510
      6         11           0        2.166404   -1.931841   -0.442264
      7         11           0       -0.235271   -0.475669   -1.858370
 ---------------------------------------------------------------------

 SCF Done:  E(UB3LYP) =  -1136.13574836     A.U. after   19 cycles

 The electronic state is 2-A.
 Alpha  occ. eigenvalues --  -38.43732 -38.43713 -38.43705 -38.43696 -38.43607
 Alpha  occ. eigenvalues --  -38.43576 -38.43529  -2.19645  -2.19557  -2.19549
 Alpha  occ. eigenvalues --   -2.19545  -2.19495  -2.19493  -2.19415  -1.13444
 Alpha  occ. eigenvalues --   -1.13300  -1.13285  -1.13260  -1.13257  -1.13220
 Alpha  occ. eigenvalues --   -1.13216  -1.13210  -1.13200  -1.13197  -1.13180
 Alpha  occ. eigenvalues --   -1.13175  -1.13172  -1.13145  -1.13128  -1.13121
 Alpha  occ. eigenvalues --   -1.13108  -1.13092  -1.13067  -1.13056  -1.13027
 Alpha  occ. eigenvalues --   -0.18725  -0.12914  -0.12558  -0.11062
 Alpha virt. eigenvalues --   -0.05377  -0.05096  -0.04927  -0.03237  -0.02996
 Alpha virt. eigenvalues --   -0.02752  -0.01253  -0.01126  -0.00405  -0.00321
 Alpha virt. eigenvalues --    0.00002   0.00360   0.00868   0.00893   0.00903

  Beta  occ. eigenvalues --  -38.43731 -38.43716 -38.43698 -38.43612 -38.43555
  Beta  occ. eigenvalues --  -38.43528 -38.43514  -2.19546  -2.19539  -2.19502
  Beta  occ. eigenvalues --   -2.19494  -2.19459  -2.19412  -2.19391  -1.13361
  Beta  occ. eigenvalues --   -1.13244  -1.13233  -1.13209  -1.13200  -1.13199
  Beta  occ. eigenvalues --   -1.13193  -1.13184  -1.13170  -1.13164  -1.13152
  Beta  occ. eigenvalues --   -1.13144  -1.13132  -1.13127  -1.13088  -1.13074
  Beta  occ. eigenvalues --   -1.13055  -1.13039  -1.13032  -1.13016  -1.13002
  Beta  occ. eigenvalues --   -0.17990  -0.12661  -0.12329
  Beta virt. eigenvalues --   -0.07094  -0.05376  -0.05080  -0.04806  -0.02456
  Beta virt. eigenvalues --   -0.02278  -0.01691  -0.01164  -0.01041  -0.00431
  Beta virt. eigenvalues --   -0.00352   0.00127   0.00405   0.00882   0.00904

 Mulliken charges and spin densities:
               1          2
     1  Na  -0.014159  -0.073025
     2  Na   0.396822  -0.002027
     3  Na  -0.159475   0.653270
     4  Na  -0.193426  -0.104618
     5  Na  -0.212330  -0.107039
     6  Na   0.215544  -0.016891
     7  Na  -0.032978   0.650329
 Sum of Mulliken charges =  -0.00000   1.00000

 Dipole moment (field-independent basis, Debye):
    X=             -0.0332    Y=             -0.0120    Z=             -0.0335  Tot=              0.0487
 Quadrupole moment (field-independent basis, Debye-Ang):
   XX=            -59.9430   YY=            -61.7300   ZZ=            -73.2184
   XY=              0.2005   XZ=             -0.2584   YZ=             -0.1493

 Normal termination of Gaussian 16 at Thu Dec  7 03:43:23 2023.
