 Gaussian 16, Revision B.01,
 Gaussian 16:  ES64L-G16RevB.01 20-Dec-2017

 -------------------------
 #P B3LYP/6-311+g(d) force
 -------------------------

 -----
 DPGEN
 -----
 Symbolic Z-matrix:
 Charge =  0 Multiplicity = 2

                         Standard orientation:
 ---------------------------------------------------------------------
 Center     Atomic      Atomic             Coordinates (Angstroms)
 Number     Number       Type             X           Y           Z
 ---------------------------------------------------------------------
      1         11           0       -0.080455   -2.746078   -0.196807
      2         11           0        0.144927    0.223802   -1.618671
      3         11           0       -0.268458   -0.375194    1.976695
      4         11           0       -1.794349    2.558329   -0.203263
      5         11           0       -3.054079   -0.961674   -0.103703
      6         11           0        3.105410   -1.064629   -0.186288
      7         11           0        1.947002    2.365443    0.332037
 ---------------------------------------------------------------------

 SCF Done:  E(UB3LYP) =  -1136.13848382     A.U. after   20 cycles

 The electronic state is 2-A.
 Alpha  occ. eigenvalues --  -38.44064 -38.44016 -38.43837 -38.43684 -38.43434
 Alpha  occ. eigenvalues --  -38.43246 -38.43078  -2.19889  -2.19823  -2.19649
 Alpha  occ. eigenvalues --   -2.19496  -2.19336  -2.19143  -2.19044  -1.13563
 Alpha  occ. eigenvalues --   -1.13550  -1.13531  -1.13497  -1.13477  -1.13472
 Alpha  occ. eigenvalues --   -1.13329  -1.13317  -1.13277  -1.13186  -1.13156
 Alpha  occ. eigenvalues --   -1.13126  -1.13033  -1.12973  -1.12945  -1.12850
 Alpha  occ. eigenvalues --   -1.12807  -1.12751  -1.12726  -1.12674  -1.12658
 Alpha  occ. eigenvalues --   -0.18511  -0.12897  -0.12508  -0.10503
 Alpha virt. eigenvalues --   -0.05632  -0.05461  -0.04708  -0.03080  -0.02843
 Alpha virt. eigenvalues --   -0.02364  -0.01639  -0.01240  -0.00528  -0.00375
 Alpha virt. eigenvalues --   -0.00008   0.00345   0.00765   0.00841   0.00871

  Beta  occ. eigenvalues --  -38.44061 -38.44014 -38.43830 -38.43680 -38.43344
  Beta  occ. eigenvalues --  -38.43236 -38.43016  -2.19886  -2.19821  -2.19639
  Beta  occ. eigenvalues --   -2.19492  -2.19170  -2.19129  -2.18931  -1.13551
  Beta  occ. eigenvalues --   -1.13545  -1.13523  -1.13484  -1.13475  -1.13469
  Beta  occ. eigenvalues --   -1.13320  -1.13295  -1.13274  -1.13174  -1.13144
  Beta  occ. eigenvalues --   -1.13125  -1.12937  -1.12861  -1.12829  -1.12819
  Beta  occ. eigenvalues --   -1.12762  -1.12739  -1.12650  -1.12594  -1.12575
  Beta  occ. eigenvalues --   -0.17790  -0.12684  -0.12264
  Beta virt. eigenvalues --   -0.06625  -0.05588  -0.05449  -0.04648  -0.02329
  Beta virt. eigenvalues --   -0.02100  -0.01554  -0.01325  -0.01170  -0.00561
  Beta virt. eigenvalues --   -0.00421   0.00137   0.00373   0.00823   0.00838

 Mulliken charges and spin densities:
               1          2
     1  Na   0.278252  -0.067818
     2  Na  -0.161801   0.540009
     3  Na  -0.435861   0.780330
     4  Na   0.044721  -0.091671
     5  Na   0.184523  -0.073142
     6  Na   0.106406  -0.060370
     7  Na  -0.016239  -0.027338
 Sum of Mulliken charges =  -0.00000   1.00000

 Dipole moment (field-independent basis, Debye):
    X=             -0.0043    Y=              0.0827    Z=              0.0977  Tot=              0.1281
 Quadrupole moment (field-independent basis, Debye-Ang):
   XX=            -54.5412   YY=            -62.2882   ZZ=            -75.5215
   XY=             -0.0423   XZ=              0.8713   YZ=              1.4275

 Normal termination of Gaussian 16 at Fri Dec  8 07:46:14 2023.
