 Gaussian 16, Revision B.01,
 Gaussian 16:  ES64L-G16RevB.01 20-Dec-2017

 -------------------------
 #P B3LYP/6-311+g(d) force
 -------------------------

 -----
 DPGEN
 -----
 Symbolic Z-matrix:
 Charge =  0 Multiplicity = 2

                         Standard orientation:
 ---------------------------------------------------------------------
 Center     Atomic      Atomic             Coordinates (Angstroms)
 Number     Number       Type             X           Y           Z
 ---------------------------------------------------------------------
      1         11           0       -0.985668    1.341000   -1.535880
      2         11           0        5.471751   -0.969074    0.031776
      3         11           0       -1.938447    0.671429    2.048950
      4         11           0       -4.846512   -0.224195   -0.124818
      5         11           0        1.783187   -1.153949    0.356568
      6         11           0        2.369818    2.253278   -0.093900
      7         11           0       -1.854129   -1.918490   -0.682695
 ---------------------------------------------------------------------

 SCF Done:  E(UB3LYP) =  -1136.10593935     A.U. after   30 cycles

 The electronic state is 2-A.
 Alpha  occ. eigenvalues --  -38.46398 -38.44865 -38.44715 -38.44187 -38.44062
 Alpha  occ. eigenvalues --  -38.44028 -38.43200  -2.22169  -2.20626  -2.20500
 Alpha  occ. eigenvalues --   -2.19992  -2.19894  -2.19857  -2.18945  -1.15859
 Alpha  occ. eigenvalues --   -1.15809  -1.15769  -1.14318  -1.14302  -1.14221
 Alpha  occ. eigenvalues --   -1.14174  -1.14161  -1.14128  -1.13680  -1.13661
 Alpha  occ. eigenvalues --   -1.13623  -1.13574  -1.13568  -1.13539  -1.13534
 Alpha  occ. eigenvalues --   -1.13495  -1.13455  -1.12620  -1.12615  -1.12570
 Alpha  occ. eigenvalues --   -0.17527  -0.13695  -0.11031  -0.10508
 Alpha virt. eigenvalues --   -0.07923  -0.05922  -0.04636  -0.03366  -0.02975
 Alpha virt. eigenvalues --   -0.02442  -0.02124  -0.01898  -0.01493  -0.00947
 Alpha virt. eigenvalues --   -0.00481   0.00069   0.00216   0.00354   0.00409

  Beta  occ. eigenvalues --  -38.46344 -38.44852 -38.44698 -38.44182 -38.44047
  Beta  occ. eigenvalues --  -38.43957 -38.43193  -2.22071  -2.20601  -2.20469
  Beta  occ. eigenvalues --   -2.19985  -2.19832  -2.19764  -2.18933  -1.15783
  Beta  occ. eigenvalues --   -1.15744  -1.15695  -1.14300  -1.14286  -1.14202
  Beta  occ. eigenvalues --   -1.14154  -1.14132  -1.14106  -1.13660  -1.13649
  Beta  occ. eigenvalues --   -1.13620  -1.13554  -1.13512  -1.13489  -1.13455
  Beta  occ. eigenvalues --   -1.13421  -1.13387  -1.12612  -1.12606  -1.12562
  Beta  occ. eigenvalues --   -0.16813  -0.13475  -0.10447
  Beta virt. eigenvalues --   -0.07603  -0.07220  -0.05722  -0.04322  -0.03041
  Beta virt. eigenvalues --   -0.02673  -0.01935  -0.01806  -0.01570  -0.01222
  Beta virt. eigenvalues --   -0.00730  -0.00310   0.00180   0.00312   0.00405

 Mulliken charges and spin densities:
               1          2
     1  Na  -0.028185   0.079202
     2  Na   0.286697   0.054463
     3  Na  -0.070995   0.329718
     4  Na   0.387105   0.172089
     5  Na  -0.564409   0.048600
     6  Na   0.060145   0.074729
     7  Na  -0.070359   0.241199
 Sum of Mulliken charges =  -0.00000   1.00000

 Dipole moment (field-independent basis, Debye):
    X=             -2.0132    Y=              1.1814    Z=              0.1127  Tot=              2.3370
 Quadrupole moment (field-independent basis, Debye-Ang):
   XX=            -67.1097   YY=            -73.3089   ZZ=            -65.3754
   XY=              4.3698   XZ=              2.4981   YZ=             -1.5255

 Normal termination of Gaussian 16 at Fri Dec  8 06:49:18 2023.
