 Gaussian 16, Revision B.01,
 Gaussian 16:  ES64L-G16RevB.01 20-Dec-2017

 -------------------------
 #P B3LYP/6-311+g(d) force
 -------------------------

 -----
 DPGEN
 -----
 Symbolic Z-matrix:
 Charge =  0 Multiplicity = 2

                         Standard orientation:
 ---------------------------------------------------------------------
 Center     Atomic      Atomic             Coordinates (Angstroms)
 Number     Number       Type             X           Y           Z
 ---------------------------------------------------------------------
      1         11           0       -3.519245   -1.958804    0.295293
      2         11           0        2.165093    0.343746    1.923828
      3         11           0       -0.175989   -2.186268    0.495463
      4         11           0        3.725403   -1.206926   -1.087073
      5         11           0        0.238413    0.612944   -1.807610
      6         11           0       -3.081163    1.748157   -0.355428
      7         11           0        0.647488    2.647151    0.535527
 ---------------------------------------------------------------------

 SCF Done:  E(UB3LYP) =  -1136.11797241     A.U. after   22 cycles

 The electronic state is 2-A.
 Alpha  occ. eigenvalues --  -38.45086 -38.44950 -38.44546 -38.44014 -38.43962
 Alpha  occ. eigenvalues --  -38.43838 -38.43403  -2.20849  -2.20694  -2.20393
 Alpha  occ. eigenvalues --   -2.19883  -2.19756  -2.19616  -2.19281  -1.14512
 Alpha  occ. eigenvalues --   -1.14503  -1.14463  -1.14386  -1.14350  -1.14319
 Alpha  occ. eigenvalues --   -1.14091  -1.14074  -1.13975  -1.13580  -1.13537
 Alpha  occ. eigenvalues --   -1.13483  -1.13460  -1.13441  -1.13377  -1.13286
 Alpha  occ. eigenvalues --   -1.13263  -1.13253  -1.12967  -1.12946  -1.12892
 Alpha  occ. eigenvalues --   -0.17468  -0.13274  -0.11991  -0.10905
 Alpha virt. eigenvalues --   -0.06992  -0.05675  -0.04350  -0.03306  -0.02841
 Alpha virt. eigenvalues --   -0.02562  -0.02395  -0.01490  -0.00689  -0.00501
 Alpha virt. eigenvalues --   -0.00105   0.00096   0.00342   0.00434   0.00680

  Beta  occ. eigenvalues --  -38.45039 -38.44950 -38.44499 -38.43954 -38.43941
  Beta  occ. eigenvalues --  -38.43838 -38.43382  -2.20760  -2.20695  -2.20305
  Beta  occ. eigenvalues --   -2.19750  -2.19741  -2.19617  -2.19247  -1.14450
  Beta  occ. eigenvalues --   -1.14434  -1.14407  -1.14383  -1.14351  -1.14323
  Beta  occ. eigenvalues --   -1.14035  -1.14015  -1.13905  -1.13485  -1.13450
  Beta  occ. eigenvalues --   -1.13445  -1.13421  -1.13386  -1.13368  -1.13286
  Beta  occ. eigenvalues --   -1.13262  -1.13252  -1.12950  -1.12905  -1.12850
  Beta  occ. eigenvalues --   -0.16876  -0.13007  -0.11702
  Beta virt. eigenvalues --   -0.07244  -0.06753  -0.05440  -0.04083  -0.02996
  Beta virt. eigenvalues --   -0.02413  -0.02157  -0.01679  -0.01344  -0.00522
  Beta virt. eigenvalues --   -0.00368  -0.00051   0.00165   0.00484   0.00606

 Mulliken charges and spin densities:
               1          2
     1  Na  -0.028992  -0.067979
     2  Na   0.209266   0.257884
     3  Na  -0.311296   0.196906
     4  Na   0.083297   0.186637
     5  Na  -0.059585   0.363425
     6  Na   0.057088   0.007212
     7  Na   0.050222   0.055915
 Sum of Mulliken charges =  -0.00000   1.00000

 Dipole moment (field-independent basis, Debye):
    X=              0.0371    Y=              0.2262    Z=             -0.2007  Tot=              0.3046
 Quadrupole moment (field-independent basis, Debye-Ang):
   XX=            -51.0366   YY=            -72.0491   ZZ=            -72.4535
   XY=             -4.1190   XZ=             -0.6029   YZ=              1.2173

 Normal termination of Gaussian 16 at Mon Dec  4 02:25:25 2023.
