 Gaussian 16, Revision B.01,
 Gaussian 16:  ES64L-G16RevB.01 20-Dec-2017

 -------------------------
 #P B3LYP/6-311+g(d) force
 -------------------------

 -----
 DPGEN
 -----
 Symbolic Z-matrix:
 Charge =  0 Multiplicity = 2

                         Standard orientation:
 ---------------------------------------------------------------------
 Center     Atomic      Atomic             Coordinates (Angstroms)
 Number     Number       Type             X           Y           Z
 ---------------------------------------------------------------------
      1         11           0       -2.315103    2.273750    0.035462
      2         11           0       -3.608604   -1.359592   -0.527257
      3         11           0        0.694299    1.768445   -1.074916
      4         11           0        0.290535   -2.106628   -0.734992
      5         11           0        2.555272    0.016618    1.789381
      6         11           0       -0.756965   -0.400399    1.806796
      7         11           0        3.140567   -0.192194   -1.294474
 ---------------------------------------------------------------------

 SCF Done:  E(UB3LYP) =  -1136.12257280     A.U. after   24 cycles

 The electronic state is 2-A.
 Alpha  occ. eigenvalues --  -38.45117 -38.44792 -38.44390 -38.43984 -38.43782
 Alpha  occ. eigenvalues --  -38.42997 -38.42996  -2.20866  -2.20668  -2.20297
 Alpha  occ. eigenvalues --   -2.19884  -2.19617  -2.18878  -2.18819  -1.14547
 Alpha  occ. eigenvalues --   -1.14515  -1.14489  -1.14355  -1.14318  -1.14288
 Alpha  occ. eigenvalues --   -1.13975  -1.13940  -1.13914  -1.13609  -1.13515
 Alpha  occ. eigenvalues --   -1.13505  -1.13316  -1.13292  -1.13210  -1.12580
 Alpha  occ. eigenvalues --   -1.12555  -1.12536  -1.12490  -1.12460  -1.12439
 Alpha  occ. eigenvalues --   -0.18403  -0.13801  -0.11633  -0.11137
 Alpha virt. eigenvalues --   -0.06863  -0.05178  -0.04595  -0.03312  -0.02796
 Alpha virt. eigenvalues --   -0.02428  -0.02356  -0.01132  -0.00776   0.00014
 Alpha virt. eigenvalues --    0.00126   0.00164   0.00384   0.00548   0.00749

  Beta  occ. eigenvalues --  -38.45104 -38.44729 -38.44354 -38.43928 -38.43763
  Beta  occ. eigenvalues --  -38.43000 -38.42978  -2.20840  -2.20556  -2.20233
  Beta  occ. eigenvalues --   -2.19785  -2.19584  -2.18848  -2.18827  -1.14527
  Beta  occ. eigenvalues --   -1.14497  -1.14474  -1.14255  -1.14247  -1.14213
  Beta  occ. eigenvalues --   -1.13920  -1.13892  -1.13871  -1.13550  -1.13449
  Beta  occ. eigenvalues --   -1.13404  -1.13294  -1.13249  -1.13187  -1.12567
  Beta  occ. eigenvalues --   -1.12535  -1.12508  -1.12488  -1.12463  -1.12432
  Beta  occ. eigenvalues --   -0.17674  -0.13628  -0.11033
  Beta virt. eigenvalues --   -0.07555  -0.06664  -0.04974  -0.04098  -0.03090
  Beta virt. eigenvalues --   -0.02278  -0.01971  -0.01795  -0.00927  -0.00502
  Beta virt. eigenvalues --    0.00093   0.00148   0.00223   0.00493   0.00717

 Mulliken charges and spin densities:
               1          2
     1  Na   0.277232  -0.149671
     2  Na   0.220600   0.040209
     3  Na  -0.905368   0.191417
     4  Na  -0.562956   0.190229
     5  Na   0.063782   0.056751
     6  Na  -0.179836   0.383094
     7  Na   1.086545   0.287970
 Sum of Mulliken charges =  -0.00000   1.00000

 Dipole moment (field-independent basis, Debye):
    X=              0.0862    Y=             -0.5794    Z=             -0.0069  Tot=              0.5859
 Quadrupole moment (field-independent basis, Debye-Ang):
   XX=            -47.2161   YY=            -78.5376   ZZ=            -68.5698
   XY=              0.4346   XZ=              1.3686   YZ=              2.9231

 Normal termination of Gaussian 16 at Tue Dec  5 22:24:01 2023.
