 Gaussian 16, Revision B.01,
 Gaussian 16:  ES64L-G16RevB.01 20-Dec-2017

 -------------------------
 #P B3LYP/6-311+g(d) force
 -------------------------

 -----
 DPGEN
 -----
 Symbolic Z-matrix:
 Charge =  0 Multiplicity = 2

                         Standard orientation:
 ---------------------------------------------------------------------
 Center     Atomic      Atomic             Coordinates (Angstroms)
 Number     Number       Type             X           Y           Z
 ---------------------------------------------------------------------
      1         11           0        0.550508   -1.066200    1.489810
      2         11           0       -2.948039    0.564372    1.100354
      3         11           0       -1.017883    2.651216   -0.639101
      4         11           0        2.754416    1.673275    0.397099
      5         11           0       -3.200867   -1.913483   -0.608217
      6         11           0        0.302270   -0.310555   -1.512317
      7         11           0        3.559595   -1.598625   -0.227629
 ---------------------------------------------------------------------

 SCF Done:  E(UB3LYP) =  -1136.11674651     A.U. after   27 cycles

 The electronic state is 2-A.
 Alpha  occ. eigenvalues --  -38.45033 -38.45000 -38.44890 -38.44506 -38.44039
 Alpha  occ. eigenvalues --  -38.43214 -38.42634  -2.20878  -2.20803  -2.20697
 Alpha  occ. eigenvalues --   -2.20308  -2.19916  -2.19148  -2.18463  -1.14627
 Alpha  occ. eigenvalues --   -1.14531  -1.14492  -1.14480  -1.14453  -1.14430
 Alpha  occ. eigenvalues --   -1.14364  -1.14357  -1.14322  -1.14047  -1.13957
 Alpha  occ. eigenvalues --   -1.13940  -1.13577  -1.13554  -1.13549  -1.12876
 Alpha  occ. eigenvalues --   -1.12763  -1.12745  -1.12140  -1.12133  -1.12095
 Alpha  occ. eigenvalues --   -0.18147  -0.14244  -0.11275  -0.10079
 Alpha virt. eigenvalues --   -0.07052  -0.06257  -0.04255  -0.03300  -0.02799
 Alpha virt. eigenvalues --   -0.02265  -0.02077  -0.01615  -0.00881  -0.00296
 Alpha virt. eigenvalues --    0.00011   0.00122   0.00438   0.00493   0.00557

  Beta  occ. eigenvalues --  -38.44999 -38.44985 -38.44893 -38.44509 -38.44010
  Beta  occ. eigenvalues --  -38.43129 -38.42627  -2.20817  -2.20777  -2.20706
  Beta  occ. eigenvalues --   -2.20316  -2.19861  -2.18993  -2.18455  -1.14574
  Beta  occ. eigenvalues --   -1.14480  -1.14465  -1.14457  -1.14422  -1.14408
  Beta  occ. eigenvalues --   -1.14366  -1.14345  -1.14326  -1.14049  -1.13957
  Beta  occ. eigenvalues --   -1.13937  -1.13534  -1.13518  -1.13512  -1.12768
  Beta  occ. eigenvalues --   -1.12651  -1.12633  -1.12137  -1.12104  -1.12093
  Beta  occ. eigenvalues --   -0.17488  -0.14029  -0.11096
  Beta virt. eigenvalues --   -0.06886  -0.06428  -0.06112  -0.03825  -0.03032
  Beta virt. eigenvalues --   -0.02634  -0.01701  -0.01589  -0.01079  -0.00869
  Beta virt. eigenvalues --   -0.00100   0.00063   0.00178   0.00569   0.00599

 Mulliken charges and spin densities:
               1          2
     1  Na  -0.367249   0.251902
     2  Na   0.300923   0.291796
     3  Na  -0.175483  -0.093312
     4  Na   0.058015   0.035432
     5  Na   0.016390  -0.152982
     6  Na  -0.476900   0.671354
     7  Na   0.644303  -0.004192
 Sum of Mulliken charges =  -0.00000   1.00000

 Dipole moment (field-independent basis, Debye):
    X=              1.3317    Y=             -0.5133    Z=              0.0034  Tot=              1.4271
 Quadrupole moment (field-independent basis, Debye-Ang):
   XX=            -48.2868   YY=            -69.7921   ZZ=            -75.1615
   XY=              0.0698   XZ=              0.1831   YZ=              2.0918

 Normal termination of Gaussian 16 at Sat Dec  9 06:25:27 2023.
