 Gaussian 16, Revision B.01,
 Gaussian 16:  ES64L-G16RevB.01 20-Dec-2017

 -------------------------
 #P B3LYP/6-311+g(d) force
 -------------------------

 -----
 DPGEN
 -----
 Symbolic Z-matrix:
 Charge =  0 Multiplicity = 2

                         Standard orientation:
 ---------------------------------------------------------------------
 Center     Atomic      Atomic             Coordinates (Angstroms)
 Number     Number       Type             X           Y           Z
 ---------------------------------------------------------------------
      1         11           0        0.851360   -0.284317    2.216580
      2         11           0        1.587357   -1.898477   -1.281358
      3         11           0        3.150180    0.069892    0.377377
      4         11           0        1.423926    2.127530   -0.921962
      5         11           0       -0.676937   -0.094139   -0.389826
      6         11           0       -3.234732   -1.413766   -0.033443
      7         11           0       -3.101154    1.493277    0.032633
 ---------------------------------------------------------------------

 SCF Done:  E(UB3LYP) =  -1136.09432326     A.U. after   31 cycles

 The electronic state is 2-A.
 Alpha  occ. eigenvalues --  -38.45142 -38.45115 -38.44948 -38.44533 -38.43522
 Alpha  occ. eigenvalues --  -38.43395 -38.42854  -2.21140  -2.21017  -2.20850
 Alpha  occ. eigenvalues --   -2.20466  -2.19729  -2.19313  -2.18756  -1.14869
 Alpha  occ. eigenvalues --   -1.14845  -1.14813  -1.14782  -1.14700  -1.14637
 Alpha  occ. eigenvalues --   -1.14547  -1.14473  -1.14412  -1.14169  -1.14098
 Alpha  occ. eigenvalues --   -1.14016  -1.13455  -1.13418  -1.13347  -1.12982
 Alpha  occ. eigenvalues --   -1.12967  -1.12898  -1.12441  -1.12427  -1.12363
 Alpha  occ. eigenvalues --   -0.19281  -0.15041  -0.11280  -0.10820
 Alpha virt. eigenvalues --   -0.07059  -0.05583  -0.04067  -0.03324  -0.02681
 Alpha virt. eigenvalues --   -0.02173  -0.02082  -0.01175  -0.00509  -0.00226
 Alpha virt. eigenvalues --    0.00188   0.00218   0.00353   0.00693   0.00788

  Beta  occ. eigenvalues --  -38.45125 -38.45122 -38.44948 -38.44423 -38.43499
  Beta  occ. eigenvalues --  -38.43347 -38.42833  -2.21113  -2.21037  -2.20851
  Beta  occ. eigenvalues --   -2.20263  -2.19693  -2.19225  -2.18721  -1.14856
  Beta  occ. eigenvalues --   -1.14820  -1.14770  -1.14760  -1.14711  -1.14646
  Beta  occ. eigenvalues --   -1.14550  -1.14466  -1.14422  -1.14032  -1.13963
  Beta  occ. eigenvalues --   -1.13874  -1.13416  -1.13353  -1.13330  -1.12921
  Beta  occ. eigenvalues --   -1.12914  -1.12823  -1.12420  -1.12403  -1.12321
  Beta  occ. eigenvalues --   -0.18555  -0.14835  -0.10621
  Beta virt. eigenvalues --   -0.07145  -0.06833  -0.05601  -0.03438  -0.02936
  Beta virt. eigenvalues --   -0.02622  -0.01509  -0.01343  -0.01129  -0.00381
  Beta virt. eigenvalues --    0.00034   0.00237   0.00254   0.00650   0.00723

 Mulliken charges and spin densities:
               1          2
     1  Na  -0.000417   0.298290
     2  Na   0.141228   0.271748
     3  Na   0.573815   0.171051
     4  Na   1.136785   0.116897
     5  Na  -2.429494   0.180754
     6  Na   0.027860   0.008868
     7  Na   0.550222  -0.047608
 Sum of Mulliken charges =  -0.00000   1.00000

 Dipole moment (field-independent basis, Debye):
    X=             -1.1006    Y=             -0.1809    Z=              0.3959  Tot=              1.1835
 Quadrupole moment (field-independent basis, Debye-Ang):
   XX=            -46.1493   YY=            -75.0361   ZZ=            -71.8589
   XY=             -0.1360   XZ=             -1.0944   YZ=              0.8278

 Normal termination of Gaussian 16 at Thu Dec  7 22:00:40 2023.
