 Gaussian 16, Revision B.01,
 Gaussian 16:  ES64L-G16RevB.01 20-Dec-2017

 -------------------------
 #P B3LYP/6-311+g(d) force
 -------------------------

 -----
 DPGEN
 -----
 Symbolic Z-matrix:
 Charge =  0 Multiplicity = 2

                         Standard orientation:
 ---------------------------------------------------------------------
 Center     Atomic      Atomic             Coordinates (Angstroms)
 Number     Number       Type             X           Y           Z
 ---------------------------------------------------------------------
      1         11           0       -2.236009    1.918015   -0.147497
      2         11           0       -0.933323   -0.631776   -1.466862
      3         11           0        0.910039    2.259703   -0.571721
      4         11           0        1.490325   -2.211065   -0.369173
      5         11           0       -3.443351   -1.473541    0.422179
      6         11           0        3.707783   -0.064324   -0.078322
      7         11           0        0.504535    0.202989    2.211397
 ---------------------------------------------------------------------

 SCF Done:  E(UB3LYP) =  -1136.12214965     A.U. after   22 cycles

 The electronic state is 2-A.
 Alpha  occ. eigenvalues --  -38.45461 -38.44638 -38.44138 -38.43737 -38.43635
 Alpha  occ. eigenvalues --  -38.43413 -38.42615  -2.21267  -2.20428  -2.19978
 Alpha  occ. eigenvalues --   -2.19621  -2.19515  -2.19381  -2.18501  -1.14953
 Alpha  occ. eigenvalues --   -1.14926  -1.14901  -1.14097  -1.14082  -1.14075
 Alpha  occ. eigenvalues --   -1.13644  -1.13608  -1.13588  -1.13355  -1.13275
 Alpha  occ. eigenvalues --   -1.13270  -1.13248  -1.13158  -1.13151  -1.13040
 Alpha  occ. eigenvalues --   -1.13009  -1.12990  -1.12187  -1.12158  -1.12138
 Alpha  occ. eigenvalues --   -0.18422  -0.13812  -0.11660  -0.10674
 Alpha virt. eigenvalues --   -0.07043  -0.05333  -0.03942  -0.03449  -0.02790
 Alpha virt. eigenvalues --   -0.02405  -0.02363  -0.01265  -0.00464  -0.00235
 Alpha virt. eigenvalues --    0.00035   0.00156   0.00506   0.00679   0.00770

  Beta  occ. eigenvalues --  -38.45465 -38.44633 -38.44040 -38.43731 -38.43620
  Beta  occ. eigenvalues --  -38.43368 -38.42601  -2.21276  -2.20420  -2.19796
  Beta  occ. eigenvalues --   -2.19614  -2.19492  -2.19301  -2.18480  -1.14961
  Beta  occ. eigenvalues --   -1.14923  -1.14902  -1.14089  -1.14078  -1.14065
  Beta  occ. eigenvalues --   -1.13522  -1.13482  -1.13460  -1.13339  -1.13261
  Beta  occ. eigenvalues --   -1.13242  -1.13240  -1.13140  -1.13116  -1.12992
  Beta  occ. eigenvalues --   -1.12954  -1.12921  -1.12175  -1.12129  -1.12113
  Beta  occ. eigenvalues --   -0.17712  -0.13665  -0.11428
  Beta virt. eigenvalues --   -0.06939  -0.06710  -0.05332  -0.03704  -0.02960
  Beta virt. eigenvalues --   -0.02412  -0.01844  -0.01436  -0.01186  -0.00448
  Beta virt. eigenvalues --   -0.00046   0.00038   0.00192   0.00657   0.00766

 Mulliken charges and spin densities:
               1          2
     1  Na   0.090060   0.005829
     2  Na   0.243638   0.078035
     3  Na  -0.121848   0.088939
     4  Na   0.124634   0.106865
     5  Na   0.061504   0.014926
     6  Na   0.203916  -0.020545
     7  Na  -0.601904   0.725951
 Sum of Mulliken charges =  -0.00000   1.00000

 Dipole moment (field-independent basis, Debye):
    X=              0.3158    Y=              0.0098    Z=              0.3887  Tot=              0.5009
 Quadrupole moment (field-independent basis, Debye-Ang):
   XX=            -46.4031   YY=            -72.4238   ZZ=            -74.2949
   XY=              1.2273   XZ=             -2.5317   YZ=             -1.6190

 Normal termination of Gaussian 16 at Thu Dec  7 07:33:45 2023.
