 Gaussian 16, Revision B.01,
 Gaussian 16:  ES64L-G16RevB.01 20-Dec-2017

 -------------------------
 #P B3LYP/6-311+g(d) force
 -------------------------

 -----
 DPGEN
 -----
 Symbolic Z-matrix:
 Charge =  0 Multiplicity = 2

                         Standard orientation:
 ---------------------------------------------------------------------
 Center     Atomic      Atomic             Coordinates (Angstroms)
 Number     Number       Type             X           Y           Z
 ---------------------------------------------------------------------
      1         11           0        2.520619    2.938454    0.578331
      2         11           0       -1.337668    2.939997   -0.419979
      3         11           0        5.047511    0.226591   -0.096188
      4         11           0       -4.116846   -1.803350    0.003130
      5         11           0       -4.745335    1.250014   -0.072125
      6         11           0       -0.530846   -3.099452    0.510372
      7         11           0        3.162565   -2.452254   -0.503540
 ---------------------------------------------------------------------

 SCF Done:  E(UB3LYP) =  -1136.10171295     A.U. after   25 cycles

 The electronic state is 2-A.
 Alpha  occ. eigenvalues --  -38.45218 -38.45213 -38.45117 -38.45089 -38.44491
 Alpha  occ. eigenvalues --  -38.44374 -38.43981  -2.21003  -2.20932  -2.20846
 Alpha  occ. eigenvalues --   -2.20841  -2.20306  -2.20176  -2.19747  -1.14687
 Alpha  occ. eigenvalues --   -1.14674  -1.14647  -1.14622  -1.14605  -1.14559
 Alpha  occ. eigenvalues --   -1.14528  -1.14527  -1.14519  -1.14516  -1.14488
 Alpha  occ. eigenvalues --   -1.14454  -1.13966  -1.13957  -1.13933  -1.13832
 Alpha  occ. eigenvalues --   -1.13825  -1.13804  -1.13405  -1.13400  -1.13362
 Alpha  occ. eigenvalues --   -0.15361  -0.14286  -0.12715  -0.10988
 Alpha virt. eigenvalues --   -0.07929  -0.05167  -0.04725  -0.03538  -0.03410
 Alpha virt. eigenvalues --   -0.02708  -0.02217  -0.01707  -0.01163  -0.01054
 Alpha virt. eigenvalues --   -0.00871  -0.00315  -0.00209   0.00414   0.00455

  Beta  occ. eigenvalues --  -38.45210 -38.45202 -38.45090 -38.45083 -38.44451
  Beta  occ. eigenvalues --  -38.44324 -38.43910  -2.20980  -2.20929  -2.20848
  Beta  occ. eigenvalues --   -2.20785  -2.20234  -2.20083  -2.19614  -1.14666
  Beta  occ. eigenvalues --   -1.14662  -1.14623  -1.14605  -1.14605  -1.14539
  Beta  occ. eigenvalues --   -1.14537  -1.14525  -1.14488  -1.14479  -1.14456
  Beta  occ. eigenvalues --   -1.14402  -1.13914  -1.13909  -1.13883  -1.13768
  Beta  occ. eigenvalues --   -1.13762  -1.13744  -1.13315  -1.13311  -1.13274
  Beta  occ. eigenvalues --   -0.14800  -0.13730  -0.11894
  Beta virt. eigenvalues --   -0.08175  -0.07891  -0.04539  -0.04211  -0.03328
  Beta virt. eigenvalues --   -0.03190  -0.02573  -0.02156  -0.01500  -0.00825
  Beta virt. eigenvalues --   -0.00760  -0.00625  -0.00127   0.00017   0.00469

 Mulliken charges and spin densities:
               1          2
     1  Na  -0.054474  -0.025544
     2  Na  -0.234232   0.161921
     3  Na   0.342667   0.222459
     4  Na   0.035290   0.106483
     5  Na   0.194178   0.184437
     6  Na  -0.204701   0.359819
     7  Na  -0.078728  -0.009575
 Sum of Mulliken charges =  -0.00000   1.00000

 Dipole moment (field-independent basis, Debye):
    X=             -0.1408    Y=              0.4055    Z=             -0.0738  Tot=              0.4355
 Quadrupole moment (field-independent basis, Debye-Ang):
   XX=            -55.8262   YY=            -68.7525   ZZ=            -73.8969
   XY=              1.3344   XZ=              0.6809   YZ=              1.2506

 Normal termination of Gaussian 16 at Mon Dec  4 03:11:48 2023.
