 Gaussian 16, Revision B.01,
 Gaussian 16:  ES64L-G16RevB.01 20-Dec-2017

 -------------------------
 #P B3LYP/6-311+g(d) force
 -------------------------

 -----
 DPGEN
 -----
 Symbolic Z-matrix:
 Charge =  0 Multiplicity = 2

                         Standard orientation:
 ---------------------------------------------------------------------
 Center     Atomic      Atomic             Coordinates (Angstroms)
 Number     Number       Type             X           Y           Z
 ---------------------------------------------------------------------
      1         11           0        1.861527    2.437737    0.082046
      2         11           0       -2.182406    2.464210   -0.459445
      3         11           0        0.001999   -3.004990   -0.568727
      4         11           0        3.120021   -0.723680   -0.330223
      5         11           0        0.458550   -0.204686    1.980386
      6         11           0       -0.268037    0.110171   -1.152265
      7         11           0       -2.991654   -1.078762    0.448228
 ---------------------------------------------------------------------

 SCF Done:  E(UB3LYP) =  -1136.13388533     A.U. after   19 cycles

 The electronic state is 2-A.
 Alpha  occ. eigenvalues --  -38.44277 -38.44172 -38.43855 -38.43702 -38.43410
 Alpha  occ. eigenvalues --  -38.43379 -38.42639  -2.20089  -2.20001  -2.19690
 Alpha  occ. eigenvalues --   -2.19520  -2.19284  -2.19250  -2.18707  -1.13763
 Alpha  occ. eigenvalues --   -1.13754  -1.13718  -1.13678  -1.13663  -1.13639
 Alpha  occ. eigenvalues --   -1.13372  -1.13362  -1.13314  -1.13230  -1.13167
 Alpha  occ. eigenvalues --   -1.13143  -1.12989  -1.12962  -1.12911  -1.12894
 Alpha  occ. eigenvalues --   -1.12877  -1.12870  -1.12415  -1.12346  -1.12329
 Alpha  occ. eigenvalues --   -0.18485  -0.13124  -0.12366  -0.10228
 Alpha virt. eigenvalues --   -0.05750  -0.05486  -0.04794  -0.03078  -0.02558
 Alpha virt. eigenvalues --   -0.02048  -0.01734  -0.01333  -0.00638  -0.00509
 Alpha virt. eigenvalues --    0.00007   0.00318   0.00771   0.00813   0.00823

  Beta  occ. eigenvalues --  -38.44269 -38.44164 -38.43850 -38.43693 -38.43395
  Beta  occ. eigenvalues --  -38.43286 -38.42600  -2.20076  -2.19989  -2.19686
  Beta  occ. eigenvalues --   -2.19505  -2.19226  -2.19112  -2.18639  -1.13753
  Beta  occ. eigenvalues --   -1.13732  -1.13712  -1.13663  -1.13652  -1.13621
  Beta  occ. eigenvalues --   -1.13370  -1.13341  -1.13309  -1.13215  -1.13150
  Beta  occ. eigenvalues --   -1.13134  -1.12943  -1.12882  -1.12868  -1.12847
  Beta  occ. eigenvalues --   -1.12787  -1.12751  -1.12345  -1.12296  -1.12281
  Beta  occ. eigenvalues --   -0.17813  -0.12923  -0.12072
  Beta virt. eigenvalues --   -0.06441  -0.05661  -0.05425  -0.04696  -0.02367
  Beta virt. eigenvalues --   -0.01937  -0.01637  -0.01265  -0.01033  -0.00621
  Beta virt. eigenvalues --   -0.00529   0.00165   0.00372   0.00805   0.00834

 Mulliken charges and spin densities:
               1          2
     1  Na   0.113439   0.028032
     2  Na   0.176516   0.028113
     3  Na   0.119433   0.046526
     4  Na   0.094743   0.016948
     5  Na  -0.261305   0.643347
     6  Na  -0.380705   0.128111
     7  Na   0.137878   0.108922
 Sum of Mulliken charges =  -0.00000   1.00000

 Dipole moment (field-independent basis, Debye):
    X=              0.0649    Y=             -0.0117    Z=              0.2757  Tot=              0.2835
 Quadrupole moment (field-independent basis, Debye-Ang):
   XX=            -53.4511   YY=            -60.4514   ZZ=            -76.7286
   XY=              0.8148   XZ=             -1.8215   YZ=              0.4098

 Normal termination of Gaussian 16 at Thu Dec  7 02:21:24 2023.
