 Gaussian 16, Revision B.01,
 Gaussian 16:  ES64L-G16RevB.01 20-Dec-2017

 -------------------------
 #P B3LYP/6-311+g(d) force
 -------------------------

 -----
 DPGEN
 -----
 Symbolic Z-matrix:
 Charge =  0 Multiplicity = 2

                         Standard orientation:
 ---------------------------------------------------------------------
 Center     Atomic      Atomic             Coordinates (Angstroms)
 Number     Number       Type             X           Y           Z
 ---------------------------------------------------------------------
      1         11           0       -0.037208    0.112954   -1.569420
      2         11           0        2.847907   -1.710936   -0.202349
      3         11           0        2.748050    1.723128   -0.074443
      4         11           0       -1.152409    2.815522    0.072966
      5         11           0        0.120617   -0.346573    2.049527
      6         11           0       -1.390473   -2.696635   -0.175960
      7         11           0       -3.136484    0.102540   -0.100322
 ---------------------------------------------------------------------

 SCF Done:  E(UB3LYP) =  -1136.13582529     A.U. after   19 cycles

 The electronic state is 2-A.
 Alpha  occ. eigenvalues --  -38.44359 -38.44308 -38.44156 -38.43457 -38.43338
 Alpha  occ. eigenvalues --  -38.43234 -38.43191  -2.20153  -2.20108  -2.20019
 Alpha  occ. eigenvalues --   -2.19323  -2.19186  -2.19184  -2.19023  -1.13827
 Alpha  occ. eigenvalues --   -1.13825  -1.13800  -1.13784  -1.13763  -1.13732
 Alpha  occ. eigenvalues --   -1.13695  -1.13678  -1.13666  -1.12998  -1.12948
 Alpha  occ. eigenvalues --   -1.12941  -1.12894  -1.12874  -1.12842  -1.12829
 Alpha  occ. eigenvalues --   -1.12817  -1.12801  -1.12690  -1.12683  -1.12663
 Alpha  occ. eigenvalues --   -0.18352  -0.13339  -0.12074  -0.10423
 Alpha virt. eigenvalues --   -0.05873  -0.05681  -0.04523  -0.03244  -0.02654
 Alpha virt. eigenvalues --   -0.02351  -0.01775  -0.01317  -0.00613  -0.00517
 Alpha virt. eigenvalues --   -0.00013   0.00335   0.00708   0.00787   0.00861

  Beta  occ. eigenvalues --  -38.44356 -38.44306 -38.44152 -38.43358 -38.43333
  Beta  occ. eigenvalues --  -38.43188 -38.43179  -2.20150  -2.20106  -2.20013
  Beta  occ. eigenvalues --   -2.19178  -2.19140  -2.19086  -2.19021  -1.13827
  Beta  occ. eigenvalues --   -1.13808  -1.13796  -1.13769  -1.13757  -1.13733
  Beta  occ. eigenvalues --   -1.13689  -1.13668  -1.13653  -1.12890  -1.12858
  Beta  occ. eigenvalues --   -1.12834  -1.12826  -1.12811  -1.12807  -1.12795
  Beta  occ. eigenvalues --   -1.12763  -1.12733  -1.12681  -1.12665  -1.12658
  Beta  occ. eigenvalues --   -0.17643  -0.13126  -0.11865
  Beta virt. eigenvalues --   -0.06525  -0.05809  -0.05683  -0.04493  -0.02478
  Beta virt. eigenvalues --   -0.01909  -0.01674  -0.01316  -0.01251  -0.00664
  Beta virt. eigenvalues --   -0.00554   0.00147   0.00374   0.00777   0.00793

 Mulliken charges and spin densities:
               1          2
     1  Na  -0.202014   0.403689
     2  Na   0.124898  -0.080096
     3  Na   0.075834  -0.040424
     4  Na   0.025504  -0.042469
     5  Na  -0.490231   0.786021
     6  Na   0.192948  -0.066857
     7  Na   0.273061   0.040136
 Sum of Mulliken charges =  -0.00000   1.00000

 Dipole moment (field-independent basis, Debye):
    X=              0.4131    Y=             -0.0849    Z=              0.0538  Tot=              0.4252
 Quadrupole moment (field-independent basis, Debye-Ang):
   XX=            -53.7629   YY=            -62.6692   ZZ=            -76.2967
   XY=             -0.0414   XZ=             -0.3517   YZ=              1.1914

 Normal termination of Gaussian 16 at Thu Dec  7 23:10:14 2023.
