 Gaussian 16, Revision B.01,
 Gaussian 16:  ES64L-G16RevB.01 20-Dec-2017

 -------------------------
 #P B3LYP/6-311+g(d) force
 -------------------------

 -----
 DPGEN
 -----
 Symbolic Z-matrix:
 Charge =  0 Multiplicity = 2

                         Standard orientation:
 ---------------------------------------------------------------------
 Center     Atomic      Atomic             Coordinates (Angstroms)
 Number     Number       Type             X           Y           Z
 ---------------------------------------------------------------------
      1         11           0       -0.090803    2.852157    0.012483
      2         11           0       -1.440744   -0.383194    1.972401
      3         11           0        3.613934   -1.833357   -0.821837
      4         11           0        3.094625    1.280520    0.940000
      5         11           0       -3.131334    1.324424   -1.457164
      6         11           0       -2.854690   -2.494379    0.310169
      7         11           0        0.809012   -0.746172   -0.956053
 ---------------------------------------------------------------------

 SCF Done:  E(UB3LYP) =  -1136.11952806     A.U. after   21 cycles

 The electronic state is 2-A.
 Alpha  occ. eigenvalues --  -38.44883 -38.44468 -38.44429 -38.44425 -38.43997
 Alpha  occ. eigenvalues --  -38.43708 -38.42893  -2.20680  -2.20337  -2.20280
 Alpha  occ. eigenvalues --   -2.20213  -2.19808  -2.19555  -2.18688  -1.14362
 Alpha  occ. eigenvalues --   -1.14339  -1.14294  -1.14034  -1.14020  -1.13972
 Alpha  occ. eigenvalues --   -1.13961  -1.13943  -1.13900  -1.13875  -1.13835
 Alpha  occ. eigenvalues --   -1.13831  -1.13478  -1.13455  -1.13444  -1.13233
 Alpha  occ. eigenvalues --   -1.13193  -1.13171  -1.12381  -1.12365  -1.12326
 Alpha  occ. eigenvalues --   -0.17251  -0.13922  -0.11847  -0.10631
 Alpha virt. eigenvalues --   -0.06469  -0.05736  -0.04599  -0.03305  -0.02819
 Alpha virt. eigenvalues --   -0.02494  -0.02217  -0.01465  -0.00925  -0.00451
 Alpha virt. eigenvalues --   -0.00280   0.00109   0.00394   0.00403   0.00634

  Beta  occ. eigenvalues --  -38.44856 -38.44452 -38.44382 -38.44337 -38.44000
  Beta  occ. eigenvalues --  -38.43682 -38.42901  -2.20631  -2.20309  -2.20193
  Beta  occ. eigenvalues --   -2.20048  -2.19816  -2.19508  -2.18707  -1.14328
  Beta  occ. eigenvalues --   -1.14307  -1.14253  -1.14006  -1.13988  -1.13956
  Beta  occ. eigenvalues --   -1.13908  -1.13882  -1.13839  -1.13760  -1.13725
  Beta  occ. eigenvalues --   -1.13721  -1.13471  -1.13457  -1.13448  -1.13195
  Beta  occ. eigenvalues --   -1.13161  -1.13144  -1.12398  -1.12383  -1.12307
  Beta  occ. eigenvalues --   -0.16808  -0.13549  -0.11393
  Beta virt. eigenvalues --   -0.07247  -0.06137  -0.05440  -0.04313  -0.03095
  Beta virt. eigenvalues --   -0.02351  -0.02065  -0.01903  -0.01129  -0.00679
  Beta virt. eigenvalues --   -0.00275  -0.00144   0.00205   0.00512   0.00540

 Mulliken charges and spin densities:
               1          2
     1  Na   0.089535  -0.017739
     2  Na   0.037422   0.252216
     3  Na   0.686117   0.036286
     4  Na   0.087175   0.120347
     5  Na   0.146018   0.420419
     6  Na   0.271445  -0.073919
     7  Na  -1.317713   0.262390
 Sum of Mulliken charges =  -0.00000   1.00000

 Dipole moment (field-independent basis, Debye):
    X=              0.4839    Y=             -0.4141    Z=              0.5063  Tot=              0.8136
 Quadrupole moment (field-independent basis, Debye-Ang):
   XX=            -54.6958   YY=            -71.3435   ZZ=            -70.8506
   XY=              3.2346   XZ=              3.9823   YZ=              3.3263

 Normal termination of Gaussian 16 at Sun Dec  3 16:07:28 2023.
