 Gaussian 16, Revision B.01,
 Gaussian 16:  ES64L-G16RevB.01 20-Dec-2017

 -------------------------
 #P B3LYP/6-311+g(d) force
 -------------------------

 -----
 DPGEN
 -----
 Symbolic Z-matrix:
 Charge =  0 Multiplicity = 2

                         Standard orientation:
 ---------------------------------------------------------------------
 Center     Atomic      Atomic             Coordinates (Angstroms)
 Number     Number       Type             X           Y           Z
 ---------------------------------------------------------------------
      1         11           0        0.225556    0.063654   -1.589591
      2         11           0        0.582452   -2.512654    0.326583
      3         11           0       -2.858868   -1.425090   -0.066285
      4         11           0        0.071781    0.244822    1.654303
      5         11           0       -2.179043    1.727495   -0.265624
      6         11           0        1.130898    2.444400    0.284209
      7         11           0        3.027224   -0.542628   -0.343596
 ---------------------------------------------------------------------

 SCF Done:  E(UB3LYP) =  -1136.12881976     A.U. after   19 cycles

 The electronic state is 2-A.
 Alpha  occ. eigenvalues --  -38.44004 -38.43882 -38.43511 -38.43221 -38.43178
 Alpha  occ. eigenvalues --  -38.43126 -38.43098  -2.19908  -2.19718  -2.19440
 Alpha  occ. eigenvalues --   -2.19283  -2.19191  -2.19182  -2.19063  -1.13614
 Alpha  occ. eigenvalues --   -1.13562  -1.13539  -1.13407  -1.13381  -1.13360
 Alpha  occ. eigenvalues --   -1.13230  -1.13144  -1.13108  -1.13053  -1.13011
 Alpha  occ. eigenvalues --   -1.12897  -1.12867  -1.12852  -1.12800  -1.12773
 Alpha  occ. eigenvalues --   -1.12762  -1.12750  -1.12702  -1.12697  -1.12665
 Alpha  occ. eigenvalues --   -0.19667  -0.13472  -0.12629  -0.10797
 Alpha virt. eigenvalues --   -0.05662  -0.05019  -0.04333  -0.03204  -0.02787
 Alpha virt. eigenvalues --   -0.02206  -0.01650  -0.01005  -0.00090   0.00020
 Alpha virt. eigenvalues --    0.00106   0.00341   0.00848   0.00933   0.00954

  Beta  occ. eigenvalues --  -38.43992 -38.43883 -38.43501 -38.43206 -38.43113
  Beta  occ. eigenvalues --  -38.43093 -38.43029  -2.19889  -2.19721  -2.19425
  Beta  occ. eigenvalues --   -2.19185  -2.19114  -2.19058  -2.19043  -1.13594
  Beta  occ. eigenvalues --   -1.13542  -1.13515  -1.13411  -1.13372  -1.13357
  Beta  occ. eigenvalues --   -1.13176  -1.13114  -1.13075  -1.13042  -1.12926
  Beta  occ. eigenvalues --   -1.12842  -1.12789  -1.12766  -1.12749  -1.12721
  Beta  occ. eigenvalues --   -1.12694  -1.12684  -1.12659  -1.12651  -1.12626
  Beta  occ. eigenvalues --   -0.18952  -0.13183  -0.12333
  Beta virt. eigenvalues --   -0.06828  -0.05609  -0.05011  -0.04332  -0.02412
  Beta virt. eigenvalues --   -0.01979  -0.01558  -0.01163  -0.00946  -0.00072
  Beta virt. eigenvalues --   -0.00001   0.00175   0.00370   0.00883   0.00928

 Mulliken charges and spin densities:
               1          2
     1  Na  -0.485397   0.603412
     2  Na   0.105597  -0.041852
     3  Na  -0.165375  -0.088037
     4  Na  -0.368860   0.563529
     5  Na   0.231640  -0.020159
     6  Na   0.438330  -0.020627
     7  Na   0.244064   0.003734
 Sum of Mulliken charges =  -0.00000   1.00000

 Dipole moment (field-independent basis, Debye):
    X=             -0.0230    Y=             -0.1150    Z=             -0.0783  Tot=              0.1410
 Quadrupole moment (field-independent basis, Debye-Ang):
   XX=            -53.8227   YY=            -64.1276   ZZ=            -74.7253
   XY=              0.5158   XZ=              0.0566   YZ=             -0.4496

 Normal termination of Gaussian 16 at Tue Dec  5 23:05:26 2023.
