 Gaussian 16, Revision B.01,
 Gaussian 16:  ES64L-G16RevB.01 20-Dec-2017

 -------------------------
 #P B3LYP/6-311+g(d) force
 -------------------------

 -----
 DPGEN
 -----
 Symbolic Z-matrix:
 Charge =  0 Multiplicity = 2

                         Standard orientation:
 ---------------------------------------------------------------------
 Center     Atomic      Atomic             Coordinates (Angstroms)
 Number     Number       Type             X           Y           Z
 ---------------------------------------------------------------------
      1         11           0        1.068333   -1.964167   -0.502344
      2         11           0        4.582225   -0.648167   -0.713719
      3         11           0        2.283933    1.949915   -0.488269
      4         11           0       -0.756922    2.465869    0.370175
      5         11           0       -2.256765   -0.808182   -0.489690
      6         11           0        0.465396   -0.803741    2.379000
      7         11           0       -5.386200   -0.191528   -0.555153
 ---------------------------------------------------------------------

 SCF Done:  E(UB3LYP) =  -1136.11287755     A.U. after   27 cycles

 The electronic state is 2-A.
 Alpha  occ. eigenvalues --  -38.46091 -38.45083 -38.44940 -38.43750 -38.43596
 Alpha  occ. eigenvalues --  -38.43002 -38.42739  -2.21896  -2.20887  -2.20739
 Alpha  occ. eigenvalues --   -2.19581  -2.19434  -2.18828  -2.18563  -1.15560
 Alpha  occ. eigenvalues --   -1.15531  -1.15512  -1.14532  -1.14520  -1.14510
 Alpha  occ. eigenvalues --   -1.14390  -1.14378  -1.14351  -1.13288  -1.13251
 Alpha  occ. eigenvalues --   -1.13227  -1.13135  -1.13113  -1.13048  -1.12523
 Alpha  occ. eigenvalues --   -1.12507  -1.12475  -1.12235  -1.12222  -1.12186
 Alpha  occ. eigenvalues --   -0.17205  -0.13919  -0.11966  -0.11172
 Alpha virt. eigenvalues --   -0.06908  -0.05191  -0.04525  -0.03171  -0.02933
 Alpha virt. eigenvalues --   -0.02457  -0.02202  -0.01823  -0.01312  -0.00599
 Alpha virt. eigenvalues --   -0.00383   0.00128   0.00404   0.00536   0.00648

  Beta  occ. eigenvalues --  -38.46030 -38.45000 -38.44861 -38.43757 -38.43602
  Beta  occ. eigenvalues --  -38.42998 -38.42727  -2.21783  -2.20732  -2.20592
  Beta  occ. eigenvalues --   -2.19600  -2.19450  -2.18824  -2.18542  -1.15487
  Beta  occ. eigenvalues --   -1.15452  -1.15429  -1.14426  -1.14414  -1.14406
  Beta  occ. eigenvalues --   -1.14290  -1.14274  -1.14256  -1.13303  -1.13263
  Beta  occ. eigenvalues --   -1.13209  -1.13140  -1.13124  -1.13047  -1.12521
  Beta  occ. eigenvalues --   -1.12502  -1.12457  -1.12222  -1.12200  -1.12177
  Beta  occ. eigenvalues --   -0.16710  -0.12810  -0.11065
  Beta virt. eigenvalues --   -0.08627  -0.06549  -0.04703  -0.04232  -0.03110
  Beta virt. eigenvalues --   -0.02571  -0.02115  -0.01778  -0.01331  -0.01117
  Beta virt. eigenvalues --   -0.00399  -0.00212   0.00178   0.00505   0.00662

 Mulliken charges and spin densities:
               1          2
     1  Na   1.213113   0.198681
     2  Na   0.095730   0.291977
     3  Na  -0.096481   0.110492
     4  Na   0.006159  -0.001816
     5  Na  -1.275967   0.428495
     6  Na   0.211851   0.164312
     7  Na  -0.154406  -0.192143
 Sum of Mulliken charges =  -0.00000   1.00000

 Dipole moment (field-independent basis, Debye):
    X=             -0.1170    Y=             -0.8073    Z=              1.1548  Tot=              1.4138
 Quadrupole moment (field-independent basis, Debye-Ang):
   XX=            -50.3294   YY=            -81.3633   ZZ=            -62.6813
   XY=             -4.4318   XZ=              0.0849   YZ=              1.4161

 Normal termination of Gaussian 16 at Wed Nov 29 00:55:07 2023.
