 Gaussian 16, Revision B.01,
 Gaussian 16:  ES64L-G16RevB.01 20-Dec-2017

 -------------------------
 #P B3LYP/6-311+g(d) force
 -------------------------

 -----
 DPGEN
 -----
 Symbolic Z-matrix:
 Charge =  0 Multiplicity = 2

                         Standard orientation:
 ---------------------------------------------------------------------
 Center     Atomic      Atomic             Coordinates (Angstroms)
 Number     Number       Type             X           Y           Z
 ---------------------------------------------------------------------
      1         11           0       -0.074482   -0.150482    1.997943
      2         11           0       -2.411810    1.796879   -0.055374
      3         11           0        3.735250    0.305406    0.858315
      4         11           0       -3.345866   -1.439466    0.629298
      5         11           0        0.828399    2.069592   -0.900117
      6         11           0        2.369618   -1.784047   -0.900514
      7         11           0       -1.101109   -0.797882   -1.629551
 ---------------------------------------------------------------------

 SCF Done:  E(UB3LYP) =  -1136.12303548     A.U. after   25 cycles

 The electronic state is 2-A.
 Alpha  occ. eigenvalues --  -38.45223 -38.45066 -38.44120 -38.43826 -38.43794
 Alpha  occ. eigenvalues --  -38.43627 -38.42324  -2.21033  -2.20885  -2.19957
 Alpha  occ. eigenvalues --   -2.19718  -2.19713  -2.19464  -2.18182  -1.14718
 Alpha  occ. eigenvalues --   -1.14679  -1.14641  -1.14583  -1.14536  -1.14512
 Alpha  occ. eigenvalues --   -1.13620  -1.13608  -1.13604  -1.13442  -1.13398
 Alpha  occ. eigenvalues --   -1.13383  -1.13360  -1.13329  -1.13318  -1.13127
 Alpha  occ. eigenvalues --   -1.13124  -1.13103  -1.11873  -1.11849  -1.11808
 Alpha  occ. eigenvalues --   -0.18373  -0.14193  -0.11300  -0.10933
 Alpha virt. eigenvalues --   -0.06951  -0.05410  -0.04616  -0.03192  -0.02747
 Alpha virt. eigenvalues --   -0.02512  -0.02354  -0.01115  -0.00841  -0.00279
 Alpha virt. eigenvalues --    0.00138   0.00189   0.00282   0.00603   0.00667

  Beta  occ. eigenvalues --  -38.45155 -38.45060 -38.44094 -38.43818 -38.43726
  Beta  occ. eigenvalues --  -38.43634 -38.42316  -2.20909  -2.20872  -2.19912
  Beta  occ. eigenvalues --   -2.19701  -2.19594  -2.19479  -2.18170  -1.14631
  Beta  occ. eigenvalues --   -1.14593  -1.14577  -1.14546  -1.14523  -1.14500
  Beta  occ. eigenvalues --   -1.13587  -1.13580  -1.13557  -1.13411  -1.13367
  Beta  occ. eigenvalues --   -1.13327  -1.13313  -1.13282  -1.13237  -1.13137
  Beta  occ. eigenvalues --   -1.13119  -1.13105  -1.11865  -1.11821  -1.11801
  Beta  occ. eigenvalues --   -0.17638  -0.14116  -0.10746
  Beta virt. eigenvalues --   -0.07414  -0.06646  -0.05255  -0.04104  -0.02934
  Beta virt. eigenvalues --   -0.02403  -0.01920  -0.01715  -0.00917  -0.00565
  Beta virt. eigenvalues --   -0.00259   0.00164   0.00252   0.00405   0.00692

 Mulliken charges and spin densities:
               1          2
     1  Na  -0.536380   0.477006
     2  Na   0.401000   0.052208
     3  Na   0.509925   0.095641
     4  Na   0.448335  -0.041925
     5  Na  -0.372001   0.025022
     6  Na  -0.184902   0.030591
     7  Na  -0.265976   0.361457
 Sum of Mulliken charges =  -0.00000   1.00000

 Dipole moment (field-independent basis, Debye):
    X=              0.4720    Y=              0.2577    Z=              0.6516  Tot=              0.8448
 Quadrupole moment (field-independent basis, Debye-Ang):
   XX=            -50.7147   YY=            -75.8851   ZZ=            -69.8037
   XY=              0.0998   XZ=              0.7149   YZ=              1.9450

 Normal termination of Gaussian 16 at Fri Dec  8 05:04:25 2023.
