 Gaussian 16, Revision B.01,
 Gaussian 16:  ES64L-G16RevB.01 20-Dec-2017

 -------------------------
 #P B3LYP/6-311+g(d) force
 -------------------------

 -----
 DPGEN
 -----
 Symbolic Z-matrix:
 Charge =  0 Multiplicity = 2

                         Standard orientation:
 ---------------------------------------------------------------------
 Center     Atomic      Atomic             Coordinates (Angstroms)
 Number     Number       Type             X           Y           Z
 ---------------------------------------------------------------------
      1         11           0        3.087506    0.033347   -0.599505
      2         11           0        0.154941    0.105641    2.136498
      3         11           0       -2.667407   -1.816517   -0.308993
      4         11           0       -2.579189    1.391059   -0.028854
      5         11           0        0.742598    2.630647    0.068636
      6         11           0       -0.097238    0.099715   -1.574828
      7         11           0        1.358789   -2.443892    0.307046
 ---------------------------------------------------------------------

 SCF Done:  E(UB3LYP) =  -1136.13517550     A.U. after   19 cycles

 The electronic state is 2-A.
 Alpha  occ. eigenvalues --  -38.44077 -38.43819 -38.43798 -38.43741 -38.43316
 Alpha  occ. eigenvalues --  -38.43249 -38.42807  -2.19953  -2.19726  -2.19689
 Alpha  occ. eigenvalues --   -2.19568  -2.19339  -2.19125  -2.18715  -1.13639
 Alpha  occ. eigenvalues --   -1.13611  -1.13587  -1.13413  -1.13388  -1.13366
 Alpha  occ. eigenvalues --   -1.13358  -1.13344  -1.13322  -1.13240  -1.13209
 Alpha  occ. eigenvalues --   -1.13197  -1.13032  -1.12985  -1.12962  -1.12801
 Alpha  occ. eigenvalues --   -1.12785  -1.12755  -1.12403  -1.12382  -1.12331
 Alpha  occ. eigenvalues --   -0.18971  -0.13427  -0.12150  -0.11136
 Alpha virt. eigenvalues --   -0.05618  -0.05155  -0.04225  -0.03398  -0.02869
 Alpha virt. eigenvalues --   -0.02789  -0.01616  -0.00978  -0.00244  -0.00043
 Alpha virt. eigenvalues --    0.00010   0.00348   0.00788   0.00910   0.00934

  Beta  occ. eigenvalues --  -38.44061 -38.43793 -38.43739 -38.43714 -38.43261
  Beta  occ. eigenvalues --  -38.43240 -38.42800  -2.19926  -2.19684  -2.19567
  Beta  occ. eigenvalues --   -2.19532  -2.19240  -2.19112  -2.18706  -1.13620
  Beta  occ. eigenvalues --   -1.13580  -1.13567  -1.13404  -1.13356  -1.13314
  Beta  occ. eigenvalues --   -1.13261  -1.13230  -1.13217  -1.13208  -1.13205
  Beta  occ. eigenvalues --   -1.13193  -1.12966  -1.12919  -1.12883  -1.12792
  Beta  occ. eigenvalues --   -1.12753  -1.12746  -1.12400  -1.12350  -1.12319
  Beta  occ. eigenvalues --   -0.18236  -0.13164  -0.11899
  Beta virt. eigenvalues --   -0.07169  -0.05536  -0.05157  -0.04192  -0.02641
  Beta virt. eigenvalues --   -0.02065  -0.01737  -0.01480  -0.00937  -0.00225
  Beta virt. eigenvalues --   -0.00069   0.00116   0.00381   0.00868   0.00900

 Mulliken charges and spin densities:
               1          2
     1  Na   0.221011   0.031832
     2  Na  -0.514582   0.635346
     3  Na   0.039327  -0.035774
     4  Na   0.265892   0.003040
     5  Na   0.296785   0.039869
     6  Na  -0.439470   0.282667
     7  Na   0.131038   0.043020
 Sum of Mulliken charges =  -0.00000   1.00000

 Dipole moment (field-independent basis, Debye):
    X=             -0.0480    Y=             -0.0336    Z=              0.1481  Tot=              0.1593
 Quadrupole moment (field-independent basis, Debye-Ang):
   XX=            -56.1926   YY=            -65.7038   ZZ=            -72.4760
   XY=              0.5735   XZ=             -1.1419   YZ=              0.0337

 Normal termination of Gaussian 16 at Tue Dec  5 14:42:51 2023.
