 Gaussian 16, Revision B.01,
 Gaussian 16:  ES64L-G16RevB.01 20-Dec-2017

 -------------------------
 #P B3LYP/6-311+g(d) force
 -------------------------

 -----
 DPGEN
 -----
 Symbolic Z-matrix:
 Charge =  0 Multiplicity = 2

                         Standard orientation:
 ---------------------------------------------------------------------
 Center     Atomic      Atomic             Coordinates (Angstroms)
 Number     Number       Type             X           Y           Z
 ---------------------------------------------------------------------
      1         11           0       -0.111234    0.355797    2.094460
      2         11           0       -0.367533    2.908235   -0.537237
      3         11           0       -1.365018   -2.393585   -0.687145
      4         11           0        2.671938    1.247900   -0.160731
      5         11           0        2.329934   -2.084184    0.513574
      6         11           0       -3.294995    0.184288    0.437700
      7         11           0        0.136907   -0.218451   -1.660620
 ---------------------------------------------------------------------

 SCF Done:  E(UB3LYP) =  -1136.13303507     A.U. after   19 cycles

 The electronic state is 2-A.
 Alpha  occ. eigenvalues --  -38.44195 -38.44091 -38.43771 -38.43581 -38.43493
 Alpha  occ. eigenvalues --  -38.43469 -38.43310  -2.19995  -2.19950  -2.19641
 Alpha  occ. eigenvalues --   -2.19487  -2.19403  -2.19382  -2.19147  -1.13674
 Alpha  occ. eigenvalues --   -1.13649  -1.13641  -1.13614  -1.13584  -1.13564
 Alpha  occ. eigenvalues --   -1.13416  -1.13338  -1.13306  -1.13268  -1.13132
 Alpha  occ. eigenvalues --   -1.13091  -1.13072  -1.13055  -1.13037  -1.13003
 Alpha  occ. eigenvalues --   -1.12968  -1.12951  -1.12828  -1.12801  -1.12774
 Alpha  occ. eigenvalues --   -0.18547  -0.13007  -0.12267  -0.11159
 Alpha virt. eigenvalues --   -0.05666  -0.04951  -0.04519  -0.03383  -0.03117
 Alpha virt. eigenvalues --   -0.02748  -0.01560  -0.01057  -0.00336  -0.00090
 Alpha virt. eigenvalues --    0.00032   0.00360   0.00783   0.00823   0.00889

  Beta  occ. eigenvalues --  -38.44189 -38.44007 -38.43765 -38.43572 -38.43474
  Beta  occ. eigenvalues --  -38.43400 -38.43300  -2.19985  -2.19794  -2.19634
  Beta  occ. eigenvalues --   -2.19390  -2.19377  -2.19336  -2.19131  -1.13657
  Beta  occ. eigenvalues --   -1.13636  -1.13635  -1.13514  -1.13479  -1.13448
  Beta  occ. eigenvalues --   -1.13358  -1.13317  -1.13290  -1.13257  -1.13061
  Beta  occ. eigenvalues --   -1.13056  -1.13045  -1.13030  -1.12997  -1.12967
  Beta  occ. eigenvalues --   -1.12943  -1.12895  -1.12805  -1.12789  -1.12757
  Beta  occ. eigenvalues --   -0.17832  -0.12755  -0.11993
  Beta virt. eigenvalues --   -0.07288  -0.05551  -0.04917  -0.04438  -0.02659
  Beta virt. eigenvalues --   -0.02369  -0.01762  -0.01425  -0.00979  -0.00314
  Beta virt. eigenvalues --   -0.00102   0.00115   0.00385   0.00848   0.00863

 Mulliken charges and spin densities:
               1          2
     1  Na  -0.424071   0.680208
     2  Na   0.033997  -0.033627
     3  Na   0.250459   0.012774
     4  Na   0.183871  -0.033067
     5  Na  -0.059643   0.093662
     6  Na  -0.052645   0.012283
     7  Na   0.068032   0.267767
 Sum of Mulliken charges =  -0.00000   1.00000

 Dipole moment (field-independent basis, Debye):
    X=             -0.0987    Y=              0.1663    Z=              0.3998  Tot=              0.4442
 Quadrupole moment (field-independent basis, Debye-Ang):
   XX=            -57.1550   YY=            -64.6889   ZZ=            -72.3793
   XY=             -0.9271   XZ=              0.2536   YZ=             -1.4111

 Normal termination of Gaussian 16 at Thu Dec  7 18:37:26 2023.
