 Gaussian 16, Revision B.01,
 Gaussian 16:  ES64L-G16RevB.01 20-Dec-2017

 -------------------------
 #P B3LYP/6-311+g(d) force
 -------------------------

 -----
 DPGEN
 -----
 Symbolic Z-matrix:
 Charge =  0 Multiplicity = 2

                         Standard orientation:
 ---------------------------------------------------------------------
 Center     Atomic      Atomic             Coordinates (Angstroms)
 Number     Number       Type             X           Y           Z
 ---------------------------------------------------------------------
      1         11           0        3.870986   -1.196880    0.402464
      2         11           0        0.566325   -1.311156   -1.430985
      3         11           0       -0.646117    1.605462   -0.931223
      4         11           0       -3.614312    1.088843    0.625472
      5         11           0        2.390937    2.204602   -0.198320
      6         11           0       -2.695728   -1.906453   -0.421293
      7         11           0        0.127910   -0.484419    1.953886
 ---------------------------------------------------------------------

 SCF Done:  E(UB3LYP) =  -1136.11639743     A.U. after   26 cycles

 The electronic state is 2-A.
 Alpha  occ. eigenvalues --  -38.46010 -38.44968 -38.44659 -38.44146 -38.43715
 Alpha  occ. eigenvalues --  -38.43371 -38.42435  -2.21783  -2.20726  -2.20483
 Alpha  occ. eigenvalues --   -2.19972  -2.19528  -2.19277  -2.18371  -1.15487
 Alpha  occ. eigenvalues --   -1.15435  -1.15388  -1.14399  -1.14387  -1.14351
 Alpha  occ. eigenvalues --   -1.14147  -1.14134  -1.14116  -1.13641  -1.13633
 Alpha  occ. eigenvalues --   -1.13621  -1.13212  -1.13200  -1.13162  -1.12989
 Alpha  occ. eigenvalues --   -1.12914  -1.12877  -1.12073  -1.12032  -1.11988
 Alpha  occ. eigenvalues --   -0.18187  -0.13906  -0.11110  -0.10792
 Alpha virt. eigenvalues --   -0.07477  -0.05795  -0.04003  -0.03133  -0.03049
 Alpha virt. eigenvalues --   -0.02482  -0.02290  -0.01569  -0.00785  -0.00562
 Alpha virt. eigenvalues --   -0.00062   0.00153   0.00313   0.00544   0.00567

  Beta  occ. eigenvalues --  -38.45978 -38.44951 -38.44622 -38.44135 -38.43717
  Beta  occ. eigenvalues --  -38.43299 -38.42405  -2.21723  -2.20695  -2.20413
  Beta  occ. eigenvalues --   -2.19956  -2.19534  -2.19150  -2.18322  -1.15439
  Beta  occ. eigenvalues --   -1.15395  -1.15342  -1.14374  -1.14366  -1.14331
  Beta  occ. eigenvalues --   -1.14102  -1.14085  -1.14066  -1.13630  -1.13615
  Beta  occ. eigenvalues --   -1.13590  -1.13215  -1.13194  -1.13166  -1.12902
  Beta  occ. eigenvalues --   -1.12815  -1.12781  -1.12038  -1.11969  -1.11958
  Beta  occ. eigenvalues --   -0.17513  -0.13577  -0.10856
  Beta virt. eigenvalues --   -0.07325  -0.07001  -0.05756  -0.03453  -0.02959
  Beta virt. eigenvalues --   -0.02763  -0.01900  -0.01649  -0.01442  -0.00525
  Beta virt. eigenvalues --   -0.00450   0.00007   0.00174   0.00457   0.00626

 Mulliken charges and spin densities:
               1          2
     1  Na   0.269977   0.198005
     2  Na  -0.062746   0.221580
     3  Na  -0.369926   0.098945
     4  Na   0.479353   0.293046
     5  Na  -0.066918  -0.113331
     6  Na   0.111955   0.027768
     7  Na  -0.361694   0.273987
 Sum of Mulliken charges =  -0.00000   1.00000

 Dipole moment (field-independent basis, Debye):
    X=              0.1519    Y=             -0.4084    Z=              0.5775  Tot=              0.7234
 Quadrupole moment (field-independent basis, Debye-Ang):
   XX=            -48.5108   YY=            -76.0672   ZZ=            -70.4901
   XY=              1.1521   XZ=             -0.6117   YZ=              1.8857

 Normal termination of Gaussian 16 at Fri Dec  8 02:12:18 2023.
