 Gaussian 16, Revision B.01,
 Gaussian 16:  ES64L-G16RevB.01 20-Dec-2017

 -------------------------
 #P B3LYP/6-311+g(d) force
 -------------------------

 -----
 DPGEN
 -----
 Symbolic Z-matrix:
 Charge =  0 Multiplicity = 2

                         Standard orientation:
 ---------------------------------------------------------------------
 Center     Atomic      Atomic             Coordinates (Angstroms)
 Number     Number       Type             X           Y           Z
 ---------------------------------------------------------------------
      1         11           0        0.971201    0.230503    2.308998
      2         11           0        2.543449    1.791686   -0.429844
      3         11           0       -3.699732    0.162018   -0.891782
      4         11           0        0.254541   -0.706094   -1.635320
      5         11           0       -2.190823   -2.134571    0.939643
      6         11           0        3.483306   -1.606561   -0.489344
      7         11           0       -1.361941    2.263019    0.197649
 ---------------------------------------------------------------------

 SCF Done:  E(UB3LYP) =  -1136.12232402     A.U. after   24 cycles

 The electronic state is 2-A.
 Alpha  occ. eigenvalues --  -38.44698 -38.44650 -38.44437 -38.44160 -38.44089
 Alpha  occ. eigenvalues --  -38.44079 -38.42927  -2.20510  -2.20475  -2.20256
 Alpha  occ. eigenvalues --   -2.19943  -2.19914  -2.19882  -2.18747  -1.14209
 Alpha  occ. eigenvalues --   -1.14183  -1.14147  -1.14134  -1.14120  -1.14108
 Alpha  occ. eigenvalues --   -1.13952  -1.13926  -1.13865  -1.13612  -1.13611
 Alpha  occ. eigenvalues --   -1.13585  -1.13573  -1.13552  -1.13541  -1.13533
 Alpha  occ. eigenvalues --   -1.13522  -1.13518  -1.12432  -1.12420  -1.12377
 Alpha  occ. eigenvalues --   -0.17704  -0.13960  -0.11058  -0.10993
 Alpha virt. eigenvalues --   -0.06661  -0.05868  -0.04587  -0.03076  -0.02936
 Alpha virt. eigenvalues --   -0.02616  -0.02335  -0.01310  -0.00841  -0.00383
 Alpha virt. eigenvalues --    0.00018   0.00152   0.00309   0.00540   0.00564

  Beta  occ. eigenvalues --  -38.44669 -38.44635 -38.44432 -38.44170 -38.44040
  Beta  occ. eigenvalues --  -38.43999 -38.42915  -2.20458  -2.20448  -2.20250
  Beta  occ. eigenvalues --   -2.19964  -2.19810  -2.19746  -2.18729  -1.14169
  Beta  occ. eigenvalues --   -1.14141  -1.14130  -1.14104  -1.14097  -1.14077
  Beta  occ. eigenvalues --   -1.13936  -1.13923  -1.13861  -1.13627  -1.13618
  Beta  occ. eigenvalues --   -1.13597  -1.13492  -1.13485  -1.13462  -1.13456
  Beta  occ. eigenvalues --   -1.13439  -1.13404  -1.12420  -1.12400  -1.12356
  Beta  occ. eigenvalues --   -0.17071  -0.13743  -0.10824
  Beta virt. eigenvalues --   -0.07260  -0.06466  -0.05676  -0.04056  -0.02932
  Beta virt. eigenvalues --   -0.02414  -0.02076  -0.01819  -0.01187  -0.00605
  Beta virt. eigenvalues --   -0.00212   0.00065   0.00200   0.00467   0.00618

 Mulliken charges and spin densities:
               1          2
     1  Na  -0.116405   0.616903
     2  Na   0.269753  -0.013227
     3  Na   0.631896   0.107846
     4  Na  -0.413104   0.371134
     5  Na  -0.169213   0.083874
     6  Na   0.142042  -0.154225
     7  Na  -0.344968  -0.012306
 Sum of Mulliken charges =  -0.00000   1.00000

 Dipole moment (field-independent basis, Debye):
    X=              0.2573    Y=             -0.0202    Z=             -0.2112  Tot=              0.3335
 Quadrupole moment (field-independent basis, Debye-Ang):
   XX=            -51.3340   YY=            -73.7501   ZZ=            -71.1180
   XY=              0.6549   XZ=              2.3588   YZ=             -3.9683

 Normal termination of Gaussian 16 at Thu Dec  7 16:04:05 2023.
