 Gaussian 16, Revision B.01,
 Gaussian 16:  ES64L-G16RevB.01 20-Dec-2017

 -------------------------
 #P B3LYP/6-311+g(d) force
 -------------------------

 -----
 DPGEN
 -----
 Symbolic Z-matrix:
 Charge =  0 Multiplicity = 2

                         Standard orientation:
 ---------------------------------------------------------------------
 Center     Atomic      Atomic             Coordinates (Angstroms)
 Number     Number       Type             X           Y           Z
 ---------------------------------------------------------------------
      1         11           0        0.207918   -0.457765   -1.567009
      2         11           0        0.512407    2.929780   -0.283306
      3         11           0        3.156028    0.848695    0.384146
      4         11           0        1.974085   -2.561422   -0.293367
      5         11           0       -0.542699   -0.160053    2.098519
      6         11           0       -2.846646    1.529595   -0.369153
      7         11           0       -2.461094   -2.128831    0.030170
 ---------------------------------------------------------------------

 SCF Done:  E(UB3LYP) =  -1136.13311083     A.U. after   19 cycles

 The electronic state is 2-A.
 Alpha  occ. eigenvalues --  -38.44248 -38.44237 -38.44192 -38.43888 -38.43807
 Alpha  occ. eigenvalues --  -38.43279 -38.43223  -2.20054  -2.20036  -2.19989
 Alpha  occ. eigenvalues --   -2.19715  -2.19655  -2.19219  -2.19041  -1.13733
 Alpha  occ. eigenvalues --   -1.13723  -1.13709  -1.13698  -1.13692  -1.13676
 Alpha  occ. eigenvalues --   -1.13665  -1.13646  -1.13622  -1.13455  -1.13359
 Alpha  occ. eigenvalues --   -1.13333  -1.13317  -1.13286  -1.13271  -1.12899
 Alpha  occ. eigenvalues --   -1.12859  -1.12838  -1.12719  -1.12705  -1.12681
 Alpha  occ. eigenvalues --   -0.18048  -0.13068  -0.12263  -0.10482
 Alpha virt. eigenvalues --   -0.05918  -0.05665  -0.04620  -0.03272  -0.02747
 Alpha virt. eigenvalues --   -0.02449  -0.01685  -0.01412  -0.00746  -0.00453
 Alpha virt. eigenvalues --   -0.00035   0.00324   0.00726   0.00752   0.00842

  Beta  occ. eigenvalues --  -38.44244 -38.44231 -38.44181 -38.43882 -38.43714
  Beta  occ. eigenvalues --  -38.43225 -38.43220  -2.20051  -2.20026  -2.19972
  Beta  occ. eigenvalues --   -2.19706  -2.19483  -2.19120  -2.19038  -1.13723
  Beta  occ. eigenvalues --   -1.13703  -1.13697  -1.13691  -1.13685  -1.13670
  Beta  occ. eigenvalues --   -1.13642  -1.13634  -1.13610  -1.13438  -1.13342
  Beta  occ. eigenvalues --   -1.13330  -1.13202  -1.13167  -1.13146  -1.12828
  Beta  occ. eigenvalues --   -1.12787  -1.12770  -1.12712  -1.12697  -1.12672
  Beta  occ. eigenvalues --   -0.17378  -0.12865  -0.12007
  Beta virt. eigenvalues --   -0.06706  -0.05833  -0.05554  -0.04564  -0.02555
  Beta virt. eigenvalues --   -0.02073  -0.01567  -0.01487  -0.01281  -0.00774
  Beta virt. eigenvalues --   -0.00479   0.00127   0.00372   0.00750   0.00821

 Mulliken charges and spin densities:
               1          2
     1  Na  -0.004468   0.371460
     2  Na  -0.073746  -0.020324
     3  Na  -0.019402   0.075717
     4  Na   0.224134  -0.057084
     5  Na  -0.387483   0.713801
     6  Na   0.065512  -0.003077
     7  Na   0.195453  -0.080493
 Sum of Mulliken charges =  -0.00000   1.00000

 Dipole moment (field-independent basis, Debye):
    X=             -0.1857    Y=             -0.3260    Z=              0.1568  Tot=              0.4066
 Quadrupole moment (field-independent basis, Debye-Ang):
   XX=            -54.6458   YY=            -63.0287   ZZ=            -75.7090
   XY=              0.1928   XZ=              2.2193   YZ=             -0.4862

 Normal termination of Gaussian 16 at Thu Dec  7 03:06:18 2023.
