 Gaussian 16, Revision B.01,
 Gaussian 16:  ES64L-G16RevB.01 20-Dec-2017

 -------------------------
 #P B3LYP/6-311+g(d) force
 -------------------------

 -----
 DPGEN
 -----
 Symbolic Z-matrix:
 Charge =  0 Multiplicity = 2

                         Standard orientation:
 ---------------------------------------------------------------------
 Center     Atomic      Atomic             Coordinates (Angstroms)
 Number     Number       Type             X           Y           Z
 ---------------------------------------------------------------------
      1         11           0        0.659872    1.766531    0.002069
      2         11           0       -0.090018   -0.023173   -1.707231
      3         11           0       -1.942312   -1.267583   -0.000231
      4         11           0       -1.888425    1.282617   -0.003431
      5         11           0       -0.094918   -0.022873    1.708689
      6         11           0        0.737891   -1.773159    0.000069
      7         11           0        2.617911    0.037641    0.000069
 ---------------------------------------------------------------------

 SCF Done:  E(UB3LYP) =  -1136.01240527     A.U. after   23 cycles

 The electronic state is 2-A.
 Alpha  occ. eigenvalues --  -38.45220 -38.45219 -38.44760 -38.44576 -38.44440
 Alpha  occ. eigenvalues --  -38.44391 -38.44282  -2.21674  -2.21653  -2.20954
 Alpha  occ. eigenvalues --   -2.20912  -2.20797  -2.20671  -2.20613  -1.15819
 Alpha  occ. eigenvalues --   -1.15559  -1.15531  -1.15482  -1.15425  -1.15298
 Alpha  occ. eigenvalues --   -1.15098  -1.14928  -1.14833  -1.14667  -1.14482
 Alpha  occ. eigenvalues --   -1.14446  -1.14412  -1.14296  -1.14253  -1.14200
 Alpha  occ. eigenvalues --   -1.14152  -1.14123  -1.14073  -1.13991  -1.13884
 Alpha  occ. eigenvalues --   -0.22908  -0.14544  -0.12915  -0.12910
 Alpha virt. eigenvalues --   -0.05519  -0.04088  -0.04035  -0.03910  -0.03170
 Alpha virt. eigenvalues --   -0.02706  -0.01176  -0.00274  -0.00106   0.00285
 Alpha virt. eigenvalues --    0.00821   0.01023   0.01078   0.01252   0.01283

  Beta  occ. eigenvalues --  -38.45117 -38.45115 -38.44751 -38.44557 -38.44417
  Beta  occ. eigenvalues --  -38.44373 -38.44260  -2.21493  -2.21467  -2.20937
  Beta  occ. eigenvalues --   -2.20890  -2.20769  -2.20645  -2.20587  -1.15739
  Beta  occ. eigenvalues --   -1.15450  -1.15396  -1.15360  -1.15326  -1.15160
  Beta  occ. eigenvalues --   -1.15087  -1.14924  -1.14796  -1.14637  -1.14424
  Beta  occ. eigenvalues --   -1.14420  -1.14321  -1.14237  -1.14188  -1.14110
  Beta  occ. eigenvalues --   -1.14107  -1.14065  -1.14043  -1.13983  -1.13876
  Beta  occ. eigenvalues --   -0.22051  -0.14097  -0.12498
  Beta virt. eigenvalues --   -0.08571  -0.05566  -0.04014  -0.03767  -0.03022
  Beta virt. eigenvalues --   -0.02203  -0.01732  -0.01091  -0.00243   0.00041
  Beta virt. eigenvalues --    0.00312   0.00853   0.01016   0.01112   0.01249

 Mulliken charges and spin densities:
               1          2
     1  Na   0.220510   0.042171
     2  Na  -0.101416   0.489638
     3  Na   0.079002   0.015902
     4  Na   0.092102   0.024691
     5  Na  -0.100339   0.490029
     6  Na   0.197111   0.031072
     7  Na  -0.386970  -0.093503
 Sum of Mulliken charges =  -0.00000   1.00000

 Dipole moment (field-independent basis, Debye):
    X=              0.2106    Y=             -0.0921    Z=              0.0023  Tot=              0.2298
 Quadrupole moment (field-independent basis, Debye-Ang):
   XX=            -59.0777   YY=            -73.1545   ZZ=            -67.7297
   XY=              0.1723   XZ=              0.0077   YZ=             -0.0024

 Normal termination of Gaussian 16 at Sat Dec  9 05:42:29 2023.
