 Gaussian 16, Revision B.01,
 Gaussian 16:  ES64L-G16RevB.01 20-Dec-2017

 -------------------------
 #P B3LYP/6-311+g(d) force
 -------------------------

 -----
 DPGEN
 -----
 Symbolic Z-matrix:
 Charge =  0 Multiplicity = 2

                         Standard orientation:
 ---------------------------------------------------------------------
 Center     Atomic      Atomic             Coordinates (Angstroms)
 Number     Number       Type             X           Y           Z
 ---------------------------------------------------------------------
      1         11           0        1.250874    2.527073    0.177758
      2         11           0       -2.678221   -1.383736    0.141883
      3         11           0        0.400445   -2.663601   -0.156157
      4         11           0       -1.905313    2.067593   -0.328294
      5         11           0       -0.158408    0.044736    1.927823
      6         11           0        0.110130    0.031088   -1.795837
      7         11           0        2.980493   -0.623153    0.032823
 ---------------------------------------------------------------------

 SCF Done:  E(UB3LYP) =  -1136.14032137     A.U. after   19 cycles

 The electronic state is 2-A.
 Alpha  occ. eigenvalues --  -38.43543 -38.43475 -38.43454 -38.43405 -38.43344
 Alpha  occ. eigenvalues --  -38.43327 -38.43256  -2.19429  -2.19400  -2.19329
 Alpha  occ. eigenvalues --   -2.19316  -2.19309  -2.19242  -2.19177  -1.13130
 Alpha  occ. eigenvalues --   -1.13099  -1.13087  -1.13073  -1.13065  -1.13058
 Alpha  occ. eigenvalues --   -1.13042  -1.13027  -1.12994  -1.12980  -1.12974
 Alpha  occ. eigenvalues --   -1.12966  -1.12956  -1.12935  -1.12913  -1.12902
 Alpha  occ. eigenvalues --   -1.12884  -1.12844  -1.12833  -1.12831  -1.12781
 Alpha  occ. eigenvalues --   -0.19237  -0.12932  -0.12800  -0.11080
 Alpha virt. eigenvalues --   -0.05112  -0.04978  -0.04746  -0.03196  -0.03089
 Alpha virt. eigenvalues --   -0.02701  -0.01260  -0.01036  -0.00094  -0.00018
 Alpha virt. eigenvalues --    0.00035   0.00375   0.00887   0.00954   0.00961

  Beta  occ. eigenvalues --  -38.43541 -38.43450 -38.43394 -38.43388 -38.43336
  Beta  occ. eigenvalues --  -38.43248 -38.43248  -2.19399  -2.19313  -2.19295
  Beta  occ. eigenvalues --   -2.19269  -2.19233  -2.19184  -2.19166  -1.13091
  Beta  occ. eigenvalues --   -1.13064  -1.13059  -1.13037  -1.13025  -1.12992
  Beta  occ. eigenvalues --   -1.12986  -1.12969  -1.12962  -1.12942  -1.12933
  Beta  occ. eigenvalues --   -1.12926  -1.12908  -1.12905  -1.12865  -1.12852
  Beta  occ. eigenvalues --   -1.12840  -1.12819  -1.12811  -1.12785  -1.12771
  Beta  occ. eigenvalues --   -0.18475  -0.12654  -0.12547
  Beta virt. eigenvalues --   -0.07117  -0.05095  -0.04980  -0.04723  -0.02343
  Beta virt. eigenvalues --   -0.02290  -0.01621  -0.01188  -0.00964  -0.00113
  Beta virt. eigenvalues --   -0.00065   0.00118   0.00384   0.00930   0.00942

 Mulliken charges and spin densities:
               1          2
     1  Na   0.187233  -0.058392
     2  Na   0.147722  -0.069303
     3  Na   0.230087  -0.061992
     4  Na   0.248171  -0.039442
     5  Na  -0.516550   0.738982
     6  Na  -0.355876   0.585383
     7  Na   0.059213  -0.095236
 Sum of Mulliken charges =  -0.00000   1.00000

 Dipole moment (field-independent basis, Debye):
    X=              0.0150    Y=              0.0354    Z=              0.0988  Tot=              0.1060
 Quadrupole moment (field-independent basis, Debye-Ang):
   XX=            -58.8333   YY=            -62.7679   ZZ=            -72.6301
   XY=              0.3190   XZ=              0.6483   YZ=             -0.0499

 Normal termination of Gaussian 16 at Thu Dec  7 08:11:14 2023.
