 Gaussian 16, Revision B.01,
 Gaussian 16:  ES64L-G16RevB.01 20-Dec-2017

 -------------------------
 #P B3LYP/6-311+g(d) force
 -------------------------

 -----
 DPGEN
 -----
 Symbolic Z-matrix:
 Charge =  0 Multiplicity = 2

                         Standard orientation:
 ---------------------------------------------------------------------
 Center     Atomic      Atomic             Coordinates (Angstroms)
 Number     Number       Type             X           Y           Z
 ---------------------------------------------------------------------
      1         11           0        1.846410    0.212053   -1.298839
      2         11           0       -3.630025   -0.213085    0.438514
      3         11           0       -1.234932   -1.378708   -1.191707
      4         11           0       -0.076606   -0.509083    1.957306
      5         11           0        2.312851   -2.853613    0.313948
      6         11           0        1.670978    3.089409    0.682647
      7         11           0       -0.888675    1.653027   -0.901869
 ---------------------------------------------------------------------

 SCF Done:  E(UB3LYP) =  -1136.13158073     A.U. after   19 cycles

 The electronic state is 2-A.
 Alpha  occ. eigenvalues --  -38.44176 -38.44070 -38.43583 -38.43537 -38.43524
 Alpha  occ. eigenvalues --  -38.43342 -38.43214  -2.20024  -2.19907  -2.19549
 Alpha  occ. eigenvalues --   -2.19354  -2.19307  -2.19270  -2.19196  -1.13715
 Alpha  occ. eigenvalues --   -1.13659  -1.13629  -1.13604  -1.13558  -1.13547
 Alpha  occ. eigenvalues --   -1.13310  -1.13196  -1.13134  -1.13052  -1.13028
 Alpha  occ. eigenvalues --   -1.13005  -1.13004  -1.12987  -1.12972  -1.12946
 Alpha  occ. eigenvalues --   -1.12915  -1.12893  -1.12852  -1.12837  -1.12752
 Alpha  occ. eigenvalues --   -0.18608  -0.13003  -0.12161  -0.11056
 Alpha virt. eigenvalues --   -0.05915  -0.04789  -0.04543  -0.03201  -0.02985
 Alpha virt. eigenvalues --   -0.02640  -0.01685  -0.01272  -0.00585  -0.00023
 Alpha virt. eigenvalues --    0.00259   0.00411   0.00730   0.00780   0.00834

  Beta  occ. eigenvalues --  -38.44098 -38.44067 -38.43543 -38.43527 -38.43527
  Beta  occ. eigenvalues --  -38.43306 -38.43186  -2.19903  -2.19880  -2.19481
  Beta  occ. eigenvalues --   -2.19334  -2.19313  -2.19209  -2.19150  -1.13622
  Beta  occ. eigenvalues --   -1.13600  -1.13557  -1.13555  -1.13536  -1.13519
  Beta  occ. eigenvalues --   -1.13258  -1.13122  -1.13091  -1.13018  -1.13014
  Beta  occ. eigenvalues --   -1.12991  -1.12981  -1.12977  -1.12966  -1.12948
  Beta  occ. eigenvalues --   -1.12862  -1.12852  -1.12815  -1.12771  -1.12727
  Beta  occ. eigenvalues --   -0.17786  -0.12861  -0.12005
  Beta virt. eigenvalues --   -0.07066  -0.05723  -0.04725  -0.04346  -0.02698
  Beta virt. eigenvalues --   -0.02395  -0.01714  -0.01586  -0.01151  -0.00267
  Beta virt. eigenvalues --   -0.00028   0.00280   0.00519   0.00786   0.00815

 Mulliken charges and spin densities:
               1          2
     1  Na   0.136324   0.200274
     2  Na   0.530791  -0.036632
     3  Na   0.019886   0.077487
     4  Na  -0.601585   0.830593
     5  Na  -0.010450  -0.173875
     6  Na   0.041797  -0.162127
     7  Na  -0.116763   0.264280
 Sum of Mulliken charges =  -0.00000   1.00000

 Dipole moment (field-independent basis, Debye):
    X=             -0.3813    Y=             -0.0514    Z=              0.4457  Tot=              0.5887
 Quadrupole moment (field-independent basis, Debye-Ang):
   XX=            -56.8868   YY=            -64.6734   ZZ=            -70.7729
   XY=              0.1796   XZ=             -0.6547   YZ=              1.8715

 Normal termination of Gaussian 16 at Fri Dec  8 05:53:51 2023.
