 Gaussian 16, Revision B.01,
 Gaussian 16:  ES64L-G16RevB.01 20-Dec-2017

 -------------------------
 #P B3LYP/6-311+g(d) force
 -------------------------

 -----
 DPGEN
 -----
 Symbolic Z-matrix:
 Charge =  0 Multiplicity = 2

                         Standard orientation:
 ---------------------------------------------------------------------
 Center     Atomic      Atomic             Coordinates (Angstroms)
 Number     Number       Type             X           Y           Z
 ---------------------------------------------------------------------
      1         11           0       -0.367904   -0.741862    2.073529
      2         11           0        2.134492    2.066827    0.254194
      3         11           0       -1.157752    1.938093   -0.554350
      4         11           0       -1.723460   -1.416794   -1.266631
      5         11           0       -4.125372   -0.091315    0.597146
      6         11           0        1.410100   -0.604202   -1.688871
      7         11           0        3.829897   -1.150747    0.584983
 ---------------------------------------------------------------------

 SCF Done:  E(UB3LYP) =  -1136.11782637     A.U. after   31 cycles

 The electronic state is 2-A.
 Alpha  occ. eigenvalues --  -38.45510 -38.45276 -38.44154 -38.44033 -38.43888
 Alpha  occ. eigenvalues --  -38.43506 -38.42625  -2.21294  -2.21055  -2.19942
 Alpha  occ. eigenvalues --   -2.19919  -2.19800  -2.19359  -2.18491  -1.14968
 Alpha  occ. eigenvalues --   -1.14941  -1.14890  -1.14736  -1.14720  -1.14693
 Alpha  occ. eigenvalues --   -1.13647  -1.13617  -1.13599  -1.13590  -1.13581
 Alpha  occ. eigenvalues --   -1.13568  -1.13472  -1.13442  -1.13401  -1.13039
 Alpha  occ. eigenvalues --   -1.13019  -1.12968  -1.12179  -1.12174  -1.12105
 Alpha  occ. eigenvalues --   -0.18314  -0.13912  -0.11550  -0.10816
 Alpha virt. eigenvalues --   -0.07445  -0.05029  -0.04673  -0.03304  -0.02994
 Alpha virt. eigenvalues --   -0.02569  -0.02427  -0.01255  -0.01032  -0.00236
 Alpha virt. eigenvalues --   -0.00023   0.00187   0.00247   0.00641   0.00674

  Beta  occ. eigenvalues --  -38.45423 -38.45290 -38.44207 -38.43968 -38.43823
  Beta  occ. eigenvalues --  -38.43485 -38.42617  -2.21131  -2.21083  -2.20020
  Beta  occ. eigenvalues --   -2.19827  -2.19684  -2.19317  -2.18477  -1.14851
  Beta  occ. eigenvalues --   -1.14829  -1.14772  -1.14757  -1.14732  -1.14708
  Beta  occ. eigenvalues --   -1.13685  -1.13663  -1.13643  -1.13564  -1.13497
  Beta  occ. eigenvalues --   -1.13470  -1.13393  -1.13343  -1.13331  -1.13000
  Beta  occ. eigenvalues --   -1.12996  -1.12952  -1.12175  -1.12141  -1.12103
  Beta  occ. eigenvalues --   -0.17462  -0.14118  -0.10678
  Beta virt. eigenvalues --   -0.07482  -0.07018  -0.04916  -0.04321  -0.02839
  Beta virt. eigenvalues --   -0.02742  -0.01821  -0.01733  -0.01104  -0.00773
  Beta virt. eigenvalues --   -0.00232  -0.00037   0.00285   0.00329   0.00689

 Mulliken charges and spin densities:
               1          2
     1  Na  -0.500763   0.600357
     2  Na   0.060073   0.171345
     3  Na  -0.502691   0.149405
     4  Na   0.100652   0.111511
     5  Na   0.726160  -0.006272
     6  Na  -0.197023   0.302519
     7  Na   0.313593  -0.328865
 Sum of Mulliken charges =  -0.00000   1.00000

 Dipole moment (field-independent basis, Debye):
    X=             -0.9491    Y=              0.0837    Z=              0.7307  Tot=              1.2007
 Quadrupole moment (field-independent basis, Debye-Ang):
   XX=            -50.8913   YY=            -76.6749   ZZ=            -69.2681
   XY=              0.4760   XZ=              0.1310   YZ=              1.8790

 Normal termination of Gaussian 16 at Fri Dec  8 00:12:53 2023.
