 Gaussian 16, Revision B.01,
 Gaussian 16:  ES64L-G16RevB.01 20-Dec-2017

 -------------------------
 #P B3LYP/6-311+g(d) force
 -------------------------

 -----
 DPGEN
 -----
 Symbolic Z-matrix:
 Charge =  0 Multiplicity = 2

                         Standard orientation:
 ---------------------------------------------------------------------
 Center     Atomic      Atomic             Coordinates (Angstroms)
 Number     Number       Type             X           Y           Z
 ---------------------------------------------------------------------
      1         11           0       -0.306401    3.430137   -0.047017
      2         11           0        0.312957   -2.991320   -0.010768
      3         11           0       -3.149057   -1.866543   -0.672044
      4         11           0       -3.143600    1.195965    0.802582
      5         11           0        3.450733   -1.512138    0.626480
      6         11           0        2.802570    1.815934   -0.629375
      7         11           0        0.032799   -0.072036   -0.069857
 ---------------------------------------------------------------------

 SCF Done:  E(UB3LYP) =  -1136.12545364     A.U. after   26 cycles

 The electronic state is 2-A.
 Alpha  occ. eigenvalues --  -38.44503 -38.44288 -38.44258 -38.44159 -38.43799
 Alpha  occ. eigenvalues --  -38.43416 -38.43149  -2.20312  -2.20150  -2.20085
 Alpha  occ. eigenvalues --   -2.19959  -2.19757  -2.19251  -2.19000  -1.13989
 Alpha  occ. eigenvalues --   -1.13971  -1.13961  -1.13939  -1.13815  -1.13764
 Alpha  occ. eigenvalues --   -1.13750  -1.13728  -1.13711  -1.13644  -1.13634
 Alpha  occ. eigenvalues --   -1.13584  -1.13475  -1.13404  -1.13360  -1.12908
 Alpha  occ. eigenvalues --   -1.12902  -1.12868  -1.12659  -1.12640  -1.12629
 Alpha  occ. eigenvalues --   -0.17446  -0.13795  -0.13291  -0.09525
 Alpha virt. eigenvalues --   -0.06882  -0.05458  -0.04253  -0.03611  -0.02702
 Alpha virt. eigenvalues --   -0.02441  -0.01700  -0.01338  -0.01161  -0.00458
 Alpha virt. eigenvalues --   -0.00187   0.00257   0.00518   0.00606   0.00671

  Beta  occ. eigenvalues --  -38.44486 -38.44274 -38.44228 -38.44154 -38.43805
  Beta  occ. eigenvalues --  -38.43357 -38.43084  -2.20284  -2.20131  -2.20034
  Beta  occ. eigenvalues --   -2.19956  -2.19766  -2.19140  -2.18879  -1.13973
  Beta  occ. eigenvalues --   -1.13955  -1.13944  -1.13904  -1.13805  -1.13731
  Beta  occ. eigenvalues --   -1.13719  -1.13673  -1.13658  -1.13647  -1.13634
  Beta  occ. eigenvalues --   -1.13541  -1.13469  -1.13419  -1.13371  -1.12831
  Beta  occ. eigenvalues --   -1.12826  -1.12797  -1.12575  -1.12561  -1.12547
  Beta  occ. eigenvalues --   -0.17141  -0.13221  -0.12618
  Beta virt. eigenvalues --   -0.06911  -0.06309  -0.05223  -0.04116  -0.02983
  Beta virt. eigenvalues --   -0.02295  -0.02045  -0.01578  -0.01202  -0.00939
  Beta virt. eigenvalues --   -0.00214   0.00112   0.00422   0.00578   0.00728

 Mulliken charges and spin densities:
               1          2
     1  Na   1.063525   0.035359
     2  Na   1.876016   0.141323
     3  Na   0.760323   0.070550
     4  Na   0.592544   0.354873
     5  Na   0.462589   0.353129
     6  Na   0.659374   0.169253
     7  Na  -5.414371  -0.124487
 Sum of Mulliken charges =  -0.00000   1.00000

 Dipole moment (field-independent basis, Debye):
    X=              0.0006    Y=             -0.1059    Z=             -0.4387  Tot=              0.4513
 Quadrupole moment (field-independent basis, Debye-Ang):
   XX=            -60.0518   YY=            -62.9545   ZZ=            -72.7575
   XY=              5.5925   XZ=              1.0349   YZ=              0.0408

 Normal termination of Gaussian 16 at Wed Nov 29 16:26:02 2023.
