 Gaussian 16, Revision B.01,
 Gaussian 16:  ES64L-G16RevB.01 20-Dec-2017

 -------------------------
 #P B3LYP/6-311+g(d) force
 -------------------------

 -----
 DPGEN
 -----
 Symbolic Z-matrix:
 Charge =  0 Multiplicity = 2

                         Standard orientation:
 ---------------------------------------------------------------------
 Center     Atomic      Atomic             Coordinates (Angstroms)
 Number     Number       Type             X           Y           Z
 ---------------------------------------------------------------------
      1         11           0        2.234930   -2.047708   -0.755389
      2         11           0        2.412199    1.993533   -0.777518
      3         11           0        2.777457    0.098399    1.790179
      4         11           0       -0.533384   -1.228031    0.833615
      5         11           0       -1.937420   -1.278911   -1.589610
      6         11           0       -3.863976    0.344079    1.261629
      7         11           0       -1.089806    2.118639   -0.762906
 ---------------------------------------------------------------------

 SCF Done:  E(UB3LYP) =  -1136.11964806     A.U. after   21 cycles

 The electronic state is 2-A.
 Alpha  occ. eigenvalues --  -38.44616 -38.44508 -38.44397 -38.44247 -38.43749
 Alpha  occ. eigenvalues --  -38.43374 -38.43343  -2.20420  -2.20398  -2.20255
 Alpha  occ. eigenvalues --   -2.20064  -2.19699  -2.19189  -2.19164  -1.14224
 Alpha  occ. eigenvalues --   -1.14080  -1.14065  -1.14032  -1.14023  -1.13966
 Alpha  occ. eigenvalues --   -1.13924  -1.13914  -1.13882  -1.13741  -1.13732
 Alpha  occ. eigenvalues --   -1.13694  -1.13408  -1.13354  -1.13273  -1.12883
 Alpha  occ. eigenvalues --   -1.12869  -1.12842  -1.12830  -1.12819  -1.12776
 Alpha  occ. eigenvalues --   -0.17934  -0.14216  -0.11435  -0.10674
 Alpha virt. eigenvalues --   -0.06261  -0.05637  -0.05101  -0.03318  -0.02743
 Alpha virt. eigenvalues --   -0.02377  -0.01956  -0.01050  -0.00818  -0.00338
 Alpha virt. eigenvalues --    0.00122   0.00163   0.00325   0.00405   0.00476

  Beta  occ. eigenvalues --  -38.44543 -38.44467 -38.44359 -38.44251 -38.43739
  Beta  occ. eigenvalues --  -38.43353 -38.43341  -2.20326  -2.20282  -2.20183
  Beta  occ. eigenvalues --   -2.20074  -2.19685  -2.19164  -2.19152  -1.14179
  Beta  occ. eigenvalues --   -1.13983  -1.13972  -1.13968  -1.13939  -1.13906
  Beta  occ. eigenvalues --   -1.13875  -1.13867  -1.13837  -1.13747  -1.13737
  Beta  occ. eigenvalues --   -1.13684  -1.13361  -1.13349  -1.13263  -1.12862
  Beta  occ. eigenvalues --   -1.12838  -1.12828  -1.12823  -1.12808  -1.12754
  Beta  occ. eigenvalues --   -0.17381  -0.13844  -0.11151
  Beta virt. eigenvalues --   -0.07231  -0.05881  -0.05480  -0.04555  -0.03202
  Beta virt. eigenvalues --   -0.02255  -0.02029  -0.01418  -0.00880  -0.00427
  Beta virt. eigenvalues --   -0.00141   0.00215   0.00311   0.00399   0.00502

 Mulliken charges and spin densities:
               1          2
     1  Na   0.194119   0.098761
     2  Na  -0.144759  -0.000321
     3  Na   0.262415   0.102518
     4  Na  -0.705464   0.128489
     5  Na   0.509319   0.260262
     6  Na   0.367257   0.296307
     7  Na  -0.482887   0.113984
 Sum of Mulliken charges =  -0.00000   1.00000

 Dipole moment (field-independent basis, Debye):
    X=             -0.0716    Y=             -0.5907    Z=             -0.2397  Tot=              0.6415
 Quadrupole moment (field-independent basis, Debye-Ang):
   XX=            -54.4501   YY=            -77.0275   ZZ=            -65.4671
   XY=             -1.8625   XZ=              0.3636   YZ=              3.4218

 Normal termination of Gaussian 16 at Tue Dec  5 12:41:41 2023.
