 Gaussian 16, Revision B.01,
 Gaussian 16:  ES64L-G16RevB.01 20-Dec-2017

 -------------------------
 #P B3LYP/6-311+g(d) force
 -------------------------

 -----
 DPGEN
 -----
 Symbolic Z-matrix:
 Charge =  0 Multiplicity = 2

                         Standard orientation:
 ---------------------------------------------------------------------
 Center     Atomic      Atomic             Coordinates (Angstroms)
 Number     Number       Type             X           Y           Z
 ---------------------------------------------------------------------
      1         11           0       -0.200319   -2.605484   -0.148600
      2         11           0       -3.182295   -0.831739   -0.108112
      3         11           0       -0.168832    0.298759   -1.451845
      4         11           0        2.047831    2.300328   -0.181481
      5         11           0        3.066801   -1.009394   -0.170315
      6         11           0        0.568554   -0.294393    1.728392
      7         11           0       -2.131739    2.141923    0.331960
 ---------------------------------------------------------------------

 SCF Done:  E(UB3LYP) =  -1136.13098291     A.U. after   21 cycles

 The electronic state is 2-A.
 Alpha  occ. eigenvalues --  -38.44615 -38.44425 -38.43774 -38.43653 -38.43048
 Alpha  occ. eigenvalues --  -38.42882 -38.42847  -2.20469  -2.20275  -2.19628
 Alpha  occ. eigenvalues --   -2.19500  -2.19038  -2.18919  -2.18770  -1.14156
 Alpha  occ. eigenvalues --   -1.14123  -1.14102  -1.13955  -1.13937  -1.13918
 Alpha  occ. eigenvalues --   -1.13318  -1.13282  -1.13262  -1.13193  -1.13161
 Alpha  occ. eigenvalues --   -1.13132  -1.12785  -1.12681  -1.12651  -1.12617
 Alpha  occ. eigenvalues --   -1.12580  -1.12527  -1.12437  -1.12418  -1.12370
 Alpha  occ. eigenvalues --   -0.19002  -0.13726  -0.12195  -0.10186
 Alpha virt. eigenvalues --   -0.06220  -0.05522  -0.04203  -0.03261  -0.02478
 Alpha virt. eigenvalues --   -0.02038  -0.01873  -0.01250  -0.00465  -0.00221
 Alpha virt. eigenvalues --    0.00015   0.00318   0.00719   0.00828   0.00890

  Beta  occ. eigenvalues --  -38.44609 -38.44423 -38.43766 -38.43645 -38.42969
  Beta  occ. eigenvalues --  -38.42835 -38.42822  -2.20461  -2.20274  -2.19616
  Beta  occ. eigenvalues --   -2.19490  -2.18893  -2.18811  -2.18754  -1.14142
  Beta  occ. eigenvalues --   -1.14106  -1.14093  -1.13957  -1.13921  -1.13914
  Beta  occ. eigenvalues --   -1.13309  -1.13262  -1.13249  -1.13183  -1.13137
  Beta  occ. eigenvalues --   -1.13124  -1.12701  -1.12584  -1.12548  -1.12541
  Beta  occ. eigenvalues --   -1.12495  -1.12448  -1.12407  -1.12375  -1.12351
  Beta  occ. eigenvalues --   -0.18304  -0.13488  -0.11925
  Beta virt. eigenvalues --   -0.06336  -0.06148  -0.05499  -0.04184  -0.02497
  Beta virt. eigenvalues --   -0.01953  -0.01738  -0.01203  -0.00896  -0.00497
  Beta virt. eigenvalues --   -0.00252   0.00173   0.00357   0.00766   0.00830

 Mulliken charges and spin densities:
               1          2
     1  Na   0.224800  -0.090502
     2  Na   0.132557  -0.012882
     3  Na  -0.457653   0.457931
     4  Na   0.088747  -0.051759
     5  Na   0.333423  -0.028140
     6  Na  -0.448105   0.743336
     7  Na   0.126231  -0.017984
 Sum of Mulliken charges =  -0.00000   1.00000

 Dipole moment (field-independent basis, Debye):
    X=              0.1201    Y=              0.0202    Z=              0.0370  Tot=              0.1273
 Quadrupole moment (field-independent basis, Debye-Ang):
   XX=            -49.2800   YY=            -64.6306   ZZ=            -77.1295
   XY=              0.0543   XZ=             -1.3956   YZ=              1.4911

 Normal termination of Gaussian 16 at Tue Nov 28 21:17:29 2023.
