 Gaussian 16, Revision B.01,
 Gaussian 16:  ES64L-G16RevB.01 20-Dec-2017

 -------------------------
 #P B3LYP/6-311+g(d) force
 -------------------------

 -----
 DPGEN
 -----
 Symbolic Z-matrix:
 Charge =  0 Multiplicity = 2

                         Standard orientation:
 ---------------------------------------------------------------------
 Center     Atomic      Atomic             Coordinates (Angstroms)
 Number     Number       Type             X           Y           Z
 ---------------------------------------------------------------------
      1         11           0        2.946392   -0.927074    0.085031
      2         11           0        1.446984    2.414382    0.114622
      3         11           0       -1.908355    2.074541   -0.090811
      4         11           0        0.409442   -0.333089    1.758786
      5         11           0       -3.066159   -0.921820    0.279712
      6         11           0        0.325560    0.316825   -1.632311
      7         11           0       -0.153864   -2.623764   -0.515029
 ---------------------------------------------------------------------

 SCF Done:  E(UB3LYP) =  -1136.13384282     A.U. after   20 cycles

 The electronic state is 2-A.
 Alpha  occ. eigenvalues --  -38.44063 -38.43892 -38.43432 -38.43380 -38.43279
 Alpha  occ. eigenvalues --  -38.43262 -38.43052  -2.19952  -2.19724  -2.19323
 Alpha  occ. eigenvalues --   -2.19309  -2.19273  -2.19168  -2.19116  -1.13662
 Alpha  occ. eigenvalues --   -1.13614  -1.13572  -1.13409  -1.13384  -1.13370
 Alpha  occ. eigenvalues --   -1.13123  -1.13024  -1.13002  -1.12980  -1.12970
 Alpha  occ. eigenvalues --   -1.12963  -1.12899  -1.12895  -1.12893  -1.12881
 Alpha  occ. eigenvalues --   -1.12809  -1.12772  -1.12755  -1.12712  -1.12697
 Alpha  occ. eigenvalues --   -0.19306  -0.13253  -0.12691  -0.10751
 Alpha virt. eigenvalues --   -0.05690  -0.05074  -0.04494  -0.03134  -0.02930
 Alpha virt. eigenvalues --   -0.02304  -0.01579  -0.01005  -0.00220  -0.00056
 Alpha virt. eigenvalues --    0.00045   0.00345   0.00857   0.00914   0.00928

  Beta  occ. eigenvalues --  -38.44054 -38.43890 -38.43429 -38.43371 -38.43245
  Beta  occ. eigenvalues --  -38.43203 -38.42976  -2.19940  -2.19723  -2.19319
  Beta  occ. eigenvalues --   -2.19297  -2.19140  -2.19134  -2.18977  -1.13647
  Beta  occ. eigenvalues --   -1.13586  -1.13561  -1.13411  -1.13372  -1.13367
  Beta  occ. eigenvalues --   -1.13097  -1.13012  -1.12979  -1.12953  -1.12939
  Beta  occ. eigenvalues --   -1.12912  -1.12889  -1.12837  -1.12817  -1.12788
  Beta  occ. eigenvalues --   -1.12757  -1.12749  -1.12668  -1.12623  -1.12603
  Beta  occ. eigenvalues --   -0.18580  -0.12999  -0.12417
  Beta virt. eigenvalues --   -0.06802  -0.05628  -0.05071  -0.04475  -0.02369
  Beta virt. eigenvalues --   -0.02130  -0.01504  -0.01248  -0.00962  -0.00220
  Beta virt. eigenvalues --   -0.00098   0.00156   0.00373   0.00880   0.00917

 Mulliken charges and spin densities:
               1          2
     1  Na   0.418511  -0.054465
     2  Na   0.243198  -0.077194
     3  Na   0.046153  -0.039388
     4  Na  -0.521308   0.750595
     5  Na  -0.080753  -0.037988
     6  Na  -0.223409   0.458003
     7  Na   0.117607   0.000437
 Sum of Mulliken charges =  -0.00000   1.00000

 Dipole moment (field-independent basis, Debye):
    X=              0.1607    Y=             -0.1197    Z=              0.1354  Tot=              0.2418
 Quadrupole moment (field-independent basis, Debye-Ang):
   XX=            -54.9743   YY=            -63.7241   ZZ=            -74.5012
   XY=              0.0058   XZ=             -0.4450   YZ=              1.1699

 Normal termination of Gaussian 16 at Tue Nov 28 22:12:24 2023.
