 Gaussian 16, Revision B.01,
 Gaussian 16:  ES64L-G16RevB.01 20-Dec-2017

 -------------------------
 #P B3LYP/6-311+g(d) force
 -------------------------

 -----
 DPGEN
 -----
 Symbolic Z-matrix:
 Charge =  0 Multiplicity = 2

                         Standard orientation:
 ---------------------------------------------------------------------
 Center     Atomic      Atomic             Coordinates (Angstroms)
 Number     Number       Type             X           Y           Z
 ---------------------------------------------------------------------
      1         11           0        0.265939    0.830110   -0.650758
      2         11           0       -2.609958   -0.324188   -1.214906
      3         11           0       -0.436517   -2.638226   -0.815586
      4         11           0       -2.077818    2.796935    0.406781
      5         11           0        4.046210    1.165143   -0.553105
      6         11           0       -1.337827   -0.806401    1.820579
      7         11           0        2.149970   -1.023374    1.006995
 ---------------------------------------------------------------------

 SCF Done:  E(UB3LYP) =  -1136.12814305     A.U. after   20 cycles

 The electronic state is 2-A.
 Alpha  occ. eigenvalues --  -38.44224 -38.43889 -38.43773 -38.43533 -38.43419
 Alpha  occ. eigenvalues --  -38.43394 -38.43086  -2.20015  -2.19841  -2.19705
 Alpha  occ. eigenvalues --   -2.19442  -2.19424  -2.19221  -2.18997  -1.13685
 Alpha  occ. eigenvalues --   -1.13673  -1.13646  -1.13566  -1.13520  -1.13432
 Alpha  occ. eigenvalues --   -1.13397  -1.13352  -1.13295  -1.13235  -1.13123
 Alpha  occ. eigenvalues --   -1.13103  -1.13077  -1.13040  -1.13017  -1.12887
 Alpha  occ. eigenvalues --   -1.12872  -1.12847  -1.12671  -1.12653  -1.12626
 Alpha  occ. eigenvalues --   -0.18815  -0.13516  -0.12040  -0.10825
 Alpha virt. eigenvalues --   -0.06322  -0.05044  -0.04295  -0.03101  -0.02680
 Alpha virt. eigenvalues --   -0.02267  -0.01942  -0.01229  -0.00697  -0.00225
 Alpha virt. eigenvalues --    0.00174   0.00241   0.00438   0.00724   0.00867

  Beta  occ. eigenvalues --  -38.44213 -38.43840 -38.43703 -38.43514 -38.43402
  Beta  occ. eigenvalues --  -38.43391 -38.43066  -2.19994  -2.19754  -2.19579
  Beta  occ. eigenvalues --   -2.19410  -2.19397  -2.19216  -2.18963  -1.13671
  Beta  occ. eigenvalues --   -1.13657  -1.13632  -1.13509  -1.13453  -1.13358
  Beta  occ. eigenvalues --   -1.13312  -1.13258  -1.13213  -1.13201  -1.13085
  Beta  occ. eigenvalues --   -1.13064  -1.13059  -1.13017  -1.12983  -1.12883
  Beta  occ. eigenvalues --   -1.12857  -1.12844  -1.12646  -1.12635  -1.12572
  Beta  occ. eigenvalues --   -0.18091  -0.13304  -0.11797
  Beta virt. eigenvalues --   -0.06919  -0.06068  -0.04964  -0.04059  -0.02713
  Beta virt. eigenvalues --   -0.02119  -0.01971  -0.01321  -0.01041  -0.00459
  Beta virt. eigenvalues --   -0.00029   0.00253   0.00299   0.00558   0.00747

 Mulliken charges and spin densities:
               1          2
     1  Na  -1.539996   0.349841
     2  Na   0.544484   0.173071
     3  Na   0.285318   0.153970
     4  Na   0.373470  -0.111814
     5  Na   0.276438   0.045987
     6  Na  -0.192727   0.399439
     7  Na   0.253014  -0.010495
 Sum of Mulliken charges =  -0.00000   1.00000

 Dipole moment (field-independent basis, Debye):
    X=              0.0701    Y=              0.0117    Z=              0.2080  Tot=              0.2199
 Quadrupole moment (field-independent basis, Debye-Ang):
   XX=            -55.1817   YY=            -65.4756   ZZ=            -71.0238
   XY=              0.2083   XZ=             -1.7690   YZ=              0.2726

 Normal termination of Gaussian 16 at Tue Dec  5 17:27:09 2023.
