 Gaussian 16, Revision B.01,
 Gaussian 16:  ES64L-G16RevB.01 20-Dec-2017

 -------------------------
 #P B3LYP/6-311+g(d) force
 -------------------------

 -----
 DPGEN
 -----
 Symbolic Z-matrix:
 Charge =  0 Multiplicity = 2

                         Standard orientation:
 ---------------------------------------------------------------------
 Center     Atomic      Atomic             Coordinates (Angstroms)
 Number     Number       Type             X           Y           Z
 ---------------------------------------------------------------------
      1         11           0       -2.752895   -1.685727   -0.397495
      2         11           0       -0.260927   -0.482200   -1.478470
      3         11           0        1.244448    2.794522   -0.546251
      4         11           0       -2.895447    1.746715    0.179707
      5         11           0        1.442112   -2.750175    0.159204
      6         11           0        3.242814    0.241217   -0.143315
      7         11           0       -0.020105    0.135648    2.226620
 ---------------------------------------------------------------------

 SCF Done:  E(UB3LYP) =  -1136.12991009     A.U. after   19 cycles

 The electronic state is 2-A.
 Alpha  occ. eigenvalues --  -38.44479 -38.44281 -38.44251 -38.44016 -38.43457
 Alpha  occ. eigenvalues --  -38.43423 -38.43296  -2.20257  -2.20129  -2.20079
 Alpha  occ. eigenvalues --   -2.19844  -2.19413  -2.19249  -2.19107  -1.13930
 Alpha  occ. eigenvalues --   -1.13916  -1.13908  -1.13876  -1.13768  -1.13751
 Alpha  occ. eigenvalues --   -1.13744  -1.13732  -1.13722  -1.13503  -1.13475
 Alpha  occ. eigenvalues --   -1.13455  -1.13103  -1.13062  -1.13050  -1.12913
 Alpha  occ. eigenvalues --   -1.12903  -1.12886  -1.12778  -1.12769  -1.12745
 Alpha  occ. eigenvalues --   -0.18062  -0.13342  -0.11957  -0.10676
 Alpha virt. eigenvalues --   -0.05973  -0.05667  -0.04467  -0.03313  -0.02838
 Alpha virt. eigenvalues --   -0.02488  -0.01809  -0.01367  -0.00591  -0.00514
 Alpha virt. eigenvalues --   -0.00055   0.00307   0.00673   0.00777   0.00855

  Beta  occ. eigenvalues --  -38.44477 -38.44268 -38.44247 -38.43911 -38.43420
  Beta  occ. eigenvalues --  -38.43413 -38.43286  -2.20255  -2.20108  -2.20074
  Beta  occ. eigenvalues --   -2.19648  -2.19333  -2.19247  -2.19090  -1.13921
  Beta  occ. eigenvalues --   -1.13914  -1.13902  -1.13853  -1.13744  -1.13742
  Beta  occ. eigenvalues --   -1.13735  -1.13722  -1.13713  -1.13372  -1.13341
  Beta  occ. eigenvalues --   -1.13311  -1.13047  -1.13008  -1.12994  -1.12901
  Beta  occ. eigenvalues --   -1.12891  -1.12879  -1.12763  -1.12757  -1.12727
  Beta  occ. eigenvalues --   -0.17395  -0.13118  -0.11733
  Beta virt. eigenvalues --   -0.06819  -0.05876  -0.05581  -0.04414  -0.02599
  Beta virt. eigenvalues --   -0.02085  -0.01708  -0.01522  -0.01272  -0.00627
  Beta virt. eigenvalues --   -0.00525   0.00116   0.00360   0.00755   0.00794

 Mulliken charges and spin densities:
               1          2
     1  Na   0.325137   0.025688
     2  Na  -0.033377   0.131215
     3  Na  -0.029916   0.056705
     4  Na  -0.017442   0.031959
     5  Na   0.097225   0.028272
     6  Na   0.139267   0.007861
     7  Na  -0.480894   0.718301
 Sum of Mulliken charges =  -0.00000   1.00000

 Dipole moment (field-independent basis, Debye):
    X=             -0.4059    Y=             -0.0966    Z=              0.2124  Tot=              0.4682
 Quadrupole moment (field-independent basis, Debye-Ang):
   XX=            -54.4080   YY=            -64.5204   ZZ=            -75.2122
   XY=             -1.8356   XZ=             -0.0973   YZ=             -1.0704

 Normal termination of Gaussian 16 at Thu Dec  7 22:11:34 2023.
