 Gaussian 16, Revision B.01,
 Gaussian 16:  ES64L-G16RevB.01 20-Dec-2017

 -------------------------
 #P B3LYP/6-311+g(d) force
 -------------------------

 -----
 DPGEN
 -----
 Symbolic Z-matrix:
 Charge =  0 Multiplicity = 2

                         Standard orientation:
 ---------------------------------------------------------------------
 Center     Atomic      Atomic             Coordinates (Angstroms)
 Number     Number       Type             X           Y           Z
 ---------------------------------------------------------------------
      1         11           0       -0.541980   -2.065934    0.995299
      2         11           0        5.371861   -0.015217    0.103555
      3         11           0        2.324961   -1.471787   -0.589344
      4         11           0        2.207363    2.036617    0.142850
      5         11           0       -0.926315    1.892151    0.007114
      6         11           0       -2.729446   -0.840973   -0.913215
      7         11           0       -5.706444    0.465143    0.253741
 ---------------------------------------------------------------------

 SCF Done:  E(UB3LYP) =  -1136.11420827     A.U. after   25 cycles

 The electronic state is 2-A.
 Alpha  occ. eigenvalues --  -38.44948 -38.44743 -38.44484 -38.44250 -38.44185
 Alpha  occ. eigenvalues --  -38.44181 -38.42751  -2.20792  -2.20537  -2.20259
 Alpha  occ. eigenvalues --   -2.20092  -2.20048  -2.20008  -2.18603  -1.14465
 Alpha  occ. eigenvalues --   -1.14452  -1.14416  -1.14197  -1.14194  -1.14149
 Alpha  occ. eigenvalues --   -1.13914  -1.13910  -1.13877  -1.13781  -1.13762
 Alpha  occ. eigenvalues --   -1.13751  -1.13737  -1.13714  -1.13709  -1.13685
 Alpha  occ. eigenvalues --   -1.13643  -1.13604  -1.12290  -1.12251  -1.12243
 Alpha  occ. eigenvalues --   -0.17126  -0.14261  -0.12175  -0.11254
 Alpha virt. eigenvalues --   -0.06190  -0.05379  -0.04915  -0.03428  -0.02933
 Alpha virt. eigenvalues --   -0.02597  -0.02137  -0.01405  -0.01049  -0.00610
 Alpha virt. eigenvalues --   -0.00214   0.00071   0.00097   0.00454   0.00688

  Beta  occ. eigenvalues --  -38.44874 -38.44696 -38.44421 -38.44205 -38.44178
  Beta  occ. eigenvalues --  -38.44177 -38.42755  -2.20662  -2.20450  -2.20142
  Beta  occ. eigenvalues --   -2.20039  -2.20018  -2.20002  -2.18610  -1.14381
  Beta  occ. eigenvalues --   -1.14348  -1.14315  -1.14134  -1.14130  -1.14097
  Beta  occ. eigenvalues --   -1.13831  -1.13830  -1.13803  -1.13744  -1.13735
  Beta  occ. eigenvalues --   -1.13731  -1.13719  -1.13706  -1.13687  -1.13623
  Beta  occ. eigenvalues --   -1.13610  -1.13594  -1.12297  -1.12255  -1.12249
  Beta  occ. eigenvalues --   -0.16503  -0.13758  -0.10875
  Beta virt. eigenvalues --   -0.08411  -0.05758  -0.05265  -0.04681  -0.03030
  Beta virt. eigenvalues --   -0.02747  -0.02122  -0.01723  -0.01247  -0.00610
  Beta virt. eigenvalues --   -0.00429  -0.00129   0.00187   0.00249   0.00465

 Mulliken charges and spin densities:
               1          2
     1  Na  -0.068647   0.009171
     2  Na   0.475694   0.180357
     3  Na  -0.514884   0.152285
     4  Na  -0.074268  -0.066679
     5  Na  -0.336633   0.315920
     6  Na   0.295178   0.117285
     7  Na   0.223559   0.291661
 Sum of Mulliken charges =  -0.00000   1.00000

 Dipole moment (field-independent basis, Debye):
    X=              0.9086    Y=              0.0780    Z=              0.2846  Tot=              0.9553
 Quadrupole moment (field-independent basis, Debye-Ang):
   XX=            -53.2912   YY=            -74.6066   ZZ=            -68.3855
   XY=             -0.6256   XZ=             -1.5229   YZ=              1.7099

 Normal termination of Gaussian 16 at Tue Nov 28 23:42:22 2023.
