 Gaussian 16, Revision B.01,
 Gaussian 16:  ES64L-G16RevB.01 20-Dec-2017

 -------------------------
 #P B3LYP/6-311+g(d) force
 -------------------------

 -----
 DPGEN
 -----
 Symbolic Z-matrix:
 Charge =  0 Multiplicity = 2

                         Standard orientation:
 ---------------------------------------------------------------------
 Center     Atomic      Atomic             Coordinates (Angstroms)
 Number     Number       Type             X           Y           Z
 ---------------------------------------------------------------------
      1         11           0       -0.075099    2.760285    0.508154
      2         11           0        3.026599    0.751436   -0.655217
      3         11           0       -0.283380   -0.464774    1.993684
      4         11           0       -0.283442    0.203677   -1.620840
      5         11           0       -1.727249   -2.341454   -0.487663
      6         11           0        2.234442   -1.719453    0.398301
      7         11           0       -2.891872    0.810284   -0.136417
 ---------------------------------------------------------------------

 SCF Done:  E(UB3LYP) =  -1136.12964497     A.U. after   20 cycles

 The electronic state is 2-A.
 Alpha  occ. eigenvalues --  -38.44192 -38.44153 -38.43764 -38.43649 -38.43439
 Alpha  occ. eigenvalues --  -38.43300 -38.42985  -2.20094  -2.20039  -2.19676
 Alpha  occ. eigenvalues --   -2.19584  -2.19460  -2.19186  -2.18840  -1.13884
 Alpha  occ. eigenvalues --   -1.13826  -1.13753  -1.13704  -1.13681  -1.13644
 Alpha  occ. eigenvalues --   -1.13372  -1.13297  -1.13278  -1.13239  -1.13209
 Alpha  occ. eigenvalues --   -1.13190  -1.13148  -1.13112  -1.13093  -1.12858
 Alpha  occ. eigenvalues --   -1.12836  -1.12805  -1.12519  -1.12505  -1.12468
 Alpha  occ. eigenvalues --   -0.19070  -0.13636  -0.12090  -0.11219
 Alpha virt. eigenvalues --   -0.05811  -0.04915  -0.04244  -0.03542  -0.03000
 Alpha virt. eigenvalues --   -0.02662  -0.01599  -0.00909  -0.00278   0.00043
 Alpha virt. eigenvalues --    0.00101   0.00384   0.00839   0.00891   0.00909

  Beta  occ. eigenvalues --  -38.44184 -38.44141 -38.43756 -38.43556 -38.43380
  Beta  occ. eigenvalues --  -38.43289 -38.42975  -2.20084  -2.20018  -2.19666
  Beta  occ. eigenvalues --   -2.19413  -2.19352  -2.19169  -2.18825  -1.13875
  Beta  occ. eigenvalues --   -1.13811  -1.13734  -1.13691  -1.13653  -1.13630
  Beta  occ. eigenvalues --   -1.13336  -1.13277  -1.13271  -1.13138  -1.13098
  Beta  occ. eigenvalues --   -1.13074  -1.13066  -1.13034  -1.13013  -1.12834
  Beta  occ. eigenvalues --   -1.12822  -1.12781  -1.12510  -1.12477  -1.12456
  Beta  occ. eigenvalues --   -0.18338  -0.13353  -0.11836
  Beta virt. eigenvalues --   -0.07286  -0.05741  -0.04855  -0.04162  -0.02811
  Beta virt. eigenvalues --   -0.02227  -0.01640  -0.01500  -0.00852  -0.00215
  Beta virt. eigenvalues --    0.00076   0.00129   0.00416   0.00895   0.00918

 Mulliken charges and spin densities:
               1          2
     1  Na  -0.183483   0.075676
     2  Na   0.025612   0.001066
     3  Na  -0.136485   0.591709
     4  Na  -0.111058   0.369594
     5  Na   0.022692  -0.042992
     6  Na   0.095857   0.006009
     7  Na   0.286865  -0.001063
 Sum of Mulliken charges =  -0.00000   1.00000

 Dipole moment (field-independent basis, Debye):
    X=             -0.2635    Y=              0.0530    Z=              0.0861  Tot=              0.2822
 Quadrupole moment (field-independent basis, Debye-Ang):
   XX=            -56.5542   YY=            -66.6480   ZZ=            -71.8875
   XY=              0.7181   XZ=             -0.5948   YZ=              0.8779

 Normal termination of Gaussian 16 at Tue Dec  5 15:52:09 2023.
