 Gaussian 16, Revision B.01,
 Gaussian 16:  ES64L-G16RevB.01 20-Dec-2017

 -------------------------
 #P B3LYP/6-311+g(d) force
 -------------------------

 -----
 DPGEN
 -----
 Symbolic Z-matrix:
 Charge =  0 Multiplicity = 2

                         Standard orientation:
 ---------------------------------------------------------------------
 Center     Atomic      Atomic             Coordinates (Angstroms)
 Number     Number       Type             X           Y           Z
 ---------------------------------------------------------------------
      1         11           0       -0.004201   -0.006826    1.822613
      2         11           0        0.032399    0.007574   -1.812777
      3         11           0        2.480499   -0.004240   -0.011387
      4         11           0        0.634310    2.001071    0.033313
      5         11           0        0.626787   -2.002749    0.005513
      6         11           0       -1.882554    1.280585   -0.030087
      7         11           0       -1.887239   -1.275415   -0.007187
 ---------------------------------------------------------------------

 SCF Done:  E(UB3LYP) =  -1136.04638978     A.U. after   19 cycles

 The electronic state is 2-A.
 Alpha  occ. eigenvalues --  -38.44694 -38.44669 -38.44298 -38.44295 -38.44010
 Alpha  occ. eigenvalues --  -38.43930 -38.43928  -2.21006  -2.20986  -2.20612
 Alpha  occ. eigenvalues --   -2.20488  -2.20220  -2.20190  -2.20123  -1.15003
 Alpha  occ. eigenvalues --   -1.14809  -1.14798  -1.14753  -1.14741  -1.14682
 Alpha  occ. eigenvalues --   -1.14643  -1.14418  -1.14345  -1.14117  -1.14075
 Alpha  occ. eigenvalues --   -1.14062  -1.14024  -1.13818  -1.13794  -1.13737
 Alpha  occ. eigenvalues --   -1.13716  -1.13699  -1.13685  -1.13562  -1.13471
 Alpha  occ. eigenvalues --   -0.22513  -0.13955  -0.13201  -0.12919
 Alpha virt. eigenvalues --   -0.05150  -0.04075  -0.04057  -0.03881  -0.03494
 Alpha virt. eigenvalues --   -0.03042  -0.00819  -0.00372  -0.00158   0.00317
 Alpha virt. eigenvalues --    0.00938   0.01044   0.01115   0.01290   0.01321

  Beta  occ. eigenvalues --  -38.44591 -38.44567 -38.44281 -38.44278 -38.43999
  Beta  occ. eigenvalues --  -38.43911 -38.43910  -2.20822  -2.20802  -2.20589
  Beta  occ. eigenvalues --   -2.20467  -2.20199  -2.20165  -2.20105  -1.14936
  Beta  occ. eigenvalues --   -1.14774  -1.14711  -1.14641  -1.14607  -1.14596
  Beta  occ. eigenvalues --   -1.14507  -1.14386  -1.14282  -1.14060  -1.14041
  Beta  occ. eigenvalues --   -1.14028  -1.13938  -1.13811  -1.13713  -1.13690
  Beta  occ. eigenvalues --   -1.13676  -1.13643  -1.13643  -1.13556  -1.13465
  Beta  occ. eigenvalues --   -0.21631  -0.13533  -0.12785
  Beta virt. eigenvalues --   -0.08628  -0.05190  -0.04039  -0.04019  -0.02857
  Beta virt. eigenvalues --   -0.02503  -0.02002  -0.00753  -0.00331  -0.00002
  Beta virt. eigenvalues --    0.00334   0.00940   0.01019   0.01154   0.01278

 Mulliken charges and spin densities:
               1          2
     1  Na  -0.221525   0.444934
     2  Na  -0.212687   0.445544
     3  Na  -0.082092  -0.043187
     4  Na   0.193139   0.057231
     5  Na   0.189344   0.056779
     6  Na   0.068231   0.019562
     7  Na   0.065590   0.019138
 Sum of Mulliken charges =  -0.00000   1.00000

 Dipole moment (field-independent basis, Debye):
    X=              0.2044    Y=              0.0005    Z=              0.0088  Tot=              0.2046
 Quadrupole moment (field-independent basis, Debye-Ang):
   XX=            -63.3358   YY=            -70.4466   ZZ=            -66.5119
   XY=             -0.0020   XZ=              0.0513   YZ=              0.0136

 Normal termination of Gaussian 16 at Thu Dec  7 15:01:03 2023.
