 Gaussian 16, Revision B.01,
 Gaussian 16:  ES64L-G16RevB.01 20-Dec-2017

 -------------------------
 #P B3LYP/6-311+g(d) force
 -------------------------

 -----
 DPGEN
 -----
 Symbolic Z-matrix:
 Charge =  0 Multiplicity = 2

                         Standard orientation:
 ---------------------------------------------------------------------
 Center     Atomic      Atomic             Coordinates (Angstroms)
 Number     Number       Type             X           Y           Z
 ---------------------------------------------------------------------
      1         11           0        0.616890   -3.563942   -0.303289
      2         11           0       -1.862861    2.665568   -0.998814
      3         11           0       -2.453757   -2.636551    1.039426
      4         11           0        3.688053   -1.555119   -0.711303
      5         11           0        3.495302    1.192122    0.594987
      6         11           0        0.566279    3.910036    0.640245
      7         11           0       -4.049905   -0.012113   -0.261252
 ---------------------------------------------------------------------

 SCF Done:  E(UB3LYP) =  -1136.10883544     A.U. after   22 cycles

 The electronic state is 2-A.
 Alpha  occ. eigenvalues --  -38.45083 -38.44881 -38.44775 -38.44449 -38.44273
 Alpha  occ. eigenvalues --  -38.43902 -38.43844  -2.20882  -2.20667  -2.20551
 Alpha  occ. eigenvalues --   -2.20235  -2.20090  -2.19711  -2.19662  -1.14574
 Alpha  occ. eigenvalues --   -1.14539  -1.14511  -1.14349  -1.14338  -1.14320
 Alpha  occ. eigenvalues --   -1.14231  -1.14223  -1.14208  -1.13895  -1.13884
 Alpha  occ. eigenvalues --   -1.13857  -1.13764  -1.13744  -1.13723  -1.13366
 Alpha  occ. eigenvalues --   -1.13357  -1.13344  -1.13310  -1.13302  -1.13299
 Alpha  occ. eigenvalues --   -0.15660  -0.13961  -0.13582  -0.10741
 Alpha virt. eigenvalues --   -0.07683  -0.04601  -0.04429  -0.03704  -0.03605
 Alpha virt. eigenvalues --   -0.02162  -0.02049  -0.01567  -0.01500  -0.01041
 Alpha virt. eigenvalues --   -0.00799  -0.00010   0.00237   0.00350   0.00832

  Beta  occ. eigenvalues --  -38.45047 -38.44873 -38.44777 -38.44385 -38.44256
  Beta  occ. eigenvalues --  -38.43854 -38.43780  -2.20820  -2.20660  -2.20561
  Beta  occ. eigenvalues --   -2.20118  -2.20064  -2.19624  -2.19543  -1.14523
  Beta  occ. eigenvalues --   -1.14500  -1.14457  -1.14346  -1.14337  -1.14277
  Beta  occ. eigenvalues --   -1.14244  -1.14235  -1.14174  -1.13816  -1.13807
  Beta  occ. eigenvalues --   -1.13777  -1.13737  -1.13729  -1.13691  -1.13306
  Beta  occ. eigenvalues --   -1.13298  -1.13286  -1.13230  -1.13225  -1.13221
  Beta  occ. eigenvalues --   -0.15129  -0.13261  -0.12819
  Beta virt. eigenvalues --   -0.07810  -0.07582  -0.04193  -0.03905  -0.03547
  Beta virt. eigenvalues --   -0.03298  -0.01905  -0.01783  -0.01404  -0.01318
  Beta virt. eigenvalues --   -0.00753  -0.00523   0.00180   0.00267   0.00361

 Mulliken charges and spin densities:
               1          2
     1  Na  -0.268316   0.313603
     2  Na  -0.506206   0.063027
     3  Na   0.051262  -0.046230
     4  Na   0.574443   0.009258
     5  Na  -0.458316   0.194994
     6  Na   0.334221   0.185585
     7  Na   0.272912   0.279763
 Sum of Mulliken charges =  -0.00000   1.00000

 Dipole moment (field-independent basis, Debye):
    X=              0.4021    Y=             -0.0100    Z=              0.0872  Tot=              0.4116
 Quadrupole moment (field-independent basis, Debye-Ang):
   XX=            -66.4897   YY=            -67.8805   ZZ=            -67.9646
   XY=              0.8608   XZ=              0.1804   YZ=              1.6214

 Normal termination of Gaussian 16 at Sun Dec  3 20:22:37 2023.
