 Gaussian 16, Revision B.01,
 Gaussian 16:  ES64L-G16RevB.01 20-Dec-2017

 -------------------------
 #P B3LYP/6-311+g(d) force
 -------------------------

 -----
 DPGEN
 -----
 Symbolic Z-matrix:
 Charge =  0 Multiplicity = 2

                         Standard orientation:
 ---------------------------------------------------------------------
 Center     Atomic      Atomic             Coordinates (Angstroms)
 Number     Number       Type             X           Y           Z
 ---------------------------------------------------------------------
      1         11           0        2.451401   -2.288475    0.345823
      2         11           0        2.653346    2.001961    0.172391
      3         11           0       -3.827096   -0.069476    0.155573
      4         11           0       -0.059674   -0.342146    2.215035
      5         11           0       -1.005372    2.385500   -0.122757
      6         11           0        1.052929    0.118469   -1.812216
      7         11           0       -1.265533   -1.805833   -0.953849
 ---------------------------------------------------------------------

 SCF Done:  E(UB3LYP) =  -1136.12920181     A.U. after   20 cycles

 The electronic state is 2-A.
 Alpha  occ. eigenvalues --  -38.44570 -38.44451 -38.44048 -38.43792 -38.43514
 Alpha  occ. eigenvalues --  -38.43482 -38.43420  -2.20354  -2.20277  -2.19859
 Alpha  occ. eigenvalues --   -2.19579  -2.19434  -2.19329  -2.19300  -1.14034
 Alpha  occ. eigenvalues --   -1.14016  -1.13989  -1.13939  -1.13911  -1.13889
 Alpha  occ. eigenvalues --   -1.13568  -1.13511  -1.13485  -1.13252  -1.13242
 Alpha  occ. eigenvalues --   -1.13223  -1.13182  -1.13076  -1.13051  -1.13020
 Alpha  occ. eigenvalues --   -1.13009  -1.12969  -1.12958  -1.12926  -1.12890
 Alpha  occ. eigenvalues --   -0.18162  -0.13053  -0.11780  -0.11207
 Alpha virt. eigenvalues --   -0.06339  -0.05323  -0.03981  -0.03308  -0.03047
 Alpha virt. eigenvalues --   -0.02892  -0.02000  -0.01307  -0.00455  -0.00110
 Alpha virt. eigenvalues --    0.00075   0.00247   0.00565   0.00663   0.00806

  Beta  occ. eigenvalues --  -38.44575 -38.44356 -38.44047 -38.43790 -38.43508
  Beta  occ. eigenvalues --  -38.43417 -38.43390  -2.20364  -2.20102  -2.19859
  Beta  occ. eigenvalues --   -2.19578  -2.19322  -2.19314  -2.19249  -1.14039
  Beta  occ. eigenvalues --   -1.14019  -1.13995  -1.13823  -1.13788  -1.13761
  Beta  occ. eigenvalues --   -1.13560  -1.13502  -1.13487  -1.13247  -1.13229
  Beta  occ. eigenvalues --   -1.13222  -1.13105  -1.13030  -1.12997  -1.12987
  Beta  occ. eigenvalues --   -1.12957  -1.12925  -1.12920  -1.12894  -1.12858
  Beta  occ. eigenvalues --   -0.17400  -0.12947  -0.11557
  Beta virt. eigenvalues --   -0.07227  -0.06166  -0.05306  -0.03780  -0.02805
  Beta virt. eigenvalues --   -0.02214  -0.01955  -0.01928  -0.01218  -0.00335
  Beta virt. eigenvalues --   -0.00012   0.00073   0.00281   0.00737   0.00753

 Mulliken charges and spin densities:
               1          2
     1  Na  -0.009930  -0.056530
     2  Na   0.106565  -0.042402
     3  Na   0.259257  -0.062318
     4  Na  -0.384485   0.760921
     5  Na  -0.304861   0.032542
     6  Na   0.485672   0.276717
     7  Na  -0.152217   0.091070
 Sum of Mulliken charges =  -0.00000   1.00000

 Dipole moment (field-independent basis, Debye):
    X=             -0.1293    Y=              0.1066    Z=              0.4888  Tot=              0.5167
 Quadrupole moment (field-independent basis, Debye-Ang):
   XX=            -51.5042   YY=            -70.6149   ZZ=            -71.6603
   XY=             -0.6596   XZ=              0.6263   YZ=              0.5140

 Normal termination of Gaussian 16 at Fri Dec  8 00:31:37 2023.
