 Gaussian 16, Revision B.01,
 Gaussian 16:  ES64L-G16RevB.01 20-Dec-2017

 -------------------------
 #P B3LYP/6-311+g(d) force
 -------------------------

 -----
 DPGEN
 -----
 Symbolic Z-matrix:
 Charge =  0 Multiplicity = 2

                         Standard orientation:
 ---------------------------------------------------------------------
 Center     Atomic      Atomic             Coordinates (Angstroms)
 Number     Number       Type             X           Y           Z
 ---------------------------------------------------------------------
      1         11           0       -1.322809    2.439458   -0.232169
      2         11           0        2.204222    1.573397   -0.835788
      3         11           0       -3.906063    0.703063    0.543134
      4         11           0       -3.486181   -2.204618   -0.492175
      5         11           0        0.021813   -0.925811    0.399350
      6         11           0        3.223047   -0.412102    1.982095
      7         11           0        3.265971   -1.173387   -1.364448
 ---------------------------------------------------------------------

 SCF Done:  E(UB3LYP) =  -1136.11169343     A.U. after   29 cycles

 The electronic state is 2-A.
 Alpha  occ. eigenvalues --  -38.45412 -38.45183 -38.44599 -38.44378 -38.44345
 Alpha  occ. eigenvalues --  -38.43660 -38.42560  -2.21222  -2.21025  -2.20455
 Alpha  occ. eigenvalues --   -2.20289  -2.20248  -2.19469  -2.18388  -1.14947
 Alpha  occ. eigenvalues --   -1.14895  -1.14830  -1.14704  -1.14681  -1.14672
 Alpha  occ. eigenvalues --   -1.14109  -1.14102  -1.14091  -1.14063  -1.13939
 Alpha  occ. eigenvalues --   -1.13906  -1.13901  -1.13871  -1.13803  -1.13150
 Alpha  occ. eigenvalues --   -1.13127  -1.13111  -1.12067  -1.12054  -1.12043
 Alpha  occ. eigenvalues --   -0.18017  -0.14898  -0.11335  -0.10622
 Alpha virt. eigenvalues --   -0.07321  -0.06289  -0.04253  -0.03415  -0.03024
 Alpha virt. eigenvalues --   -0.02551  -0.01877  -0.01647  -0.01044  -0.00850
 Alpha virt. eigenvalues --   -0.00213   0.00055   0.00221   0.00367   0.00560

  Beta  occ. eigenvalues --  -38.45405 -38.45185 -38.44510 -38.44305 -38.44300
  Beta  occ. eigenvalues --  -38.43667 -38.42568  -2.21213  -2.21027  -2.20291
  Beta  occ. eigenvalues --   -2.20179  -2.20150  -2.19484  -2.18404  -1.14921
  Beta  occ. eigenvalues --   -1.14888  -1.14828  -1.14703  -1.14688  -1.14678
  Beta  occ. eigenvalues --   -1.14015  -1.13991  -1.13972  -1.13959  -1.13866
  Beta  occ. eigenvalues --   -1.13834  -1.13824  -1.13768  -1.13719  -1.13154
  Beta  occ. eigenvalues --   -1.13137  -1.13126  -1.12080  -1.12063  -1.12046
  Beta  occ. eigenvalues --   -0.17316  -0.14712  -0.11126
  Beta virt. eigenvalues --   -0.07225  -0.06593  -0.06099  -0.04054  -0.03208
  Beta virt. eigenvalues --   -0.02930  -0.01783  -0.01630  -0.01259  -0.00599
  Beta virt. eigenvalues --   -0.00349  -0.00063   0.00102   0.00341   0.00500

 Mulliken charges and spin densities:
               1          2
     1  Na   0.159634  -0.061628
     2  Na   0.061284   0.334840
     3  Na   0.011706   0.003499
     4  Na   0.103477   0.044395
     5  Na  -1.430934   0.163635
     6  Na   0.537727   0.160409
     7  Na   0.557105   0.354850
 Sum of Mulliken charges =  -0.00000   1.00000

 Dipole moment (field-independent basis, Debye):
    X=              0.3197    Y=             -0.1462    Z=              0.3507  Tot=              0.4966
 Quadrupole moment (field-independent basis, Debye-Ang):
   XX=            -54.0998   YY=            -71.2364   ZZ=            -74.4859
   XY=             -2.1552   XZ=              0.9227   YZ=              3.5972

 Normal termination of Gaussian 16 at Tue Dec  5 16:13:32 2023.
