 Gaussian 16, Revision B.01,
 Gaussian 16:  ES64L-G16RevB.01 20-Dec-2017

 -------------------------
 #P B3LYP/6-311+g(d) force
 -------------------------

 -----
 DPGEN
 -----
 Symbolic Z-matrix:
 Charge =  0 Multiplicity = 2

                         Standard orientation:
 ---------------------------------------------------------------------
 Center     Atomic      Atomic             Coordinates (Angstroms)
 Number     Number       Type             X           Y           Z
 ---------------------------------------------------------------------
      1         11           0        1.285286    0.044704    2.032651
      2         11           0       -4.035713   -0.207666   -1.233201
      3         11           0        2.271002    1.991322   -0.861993
      4         11           0        0.025166   -1.206173   -1.067563
      5         11           0        3.544490   -1.500136   -0.663187
      6         11           0       -1.117489    1.942935    0.331405
      7         11           0       -1.972742   -1.064987    1.461888
 ---------------------------------------------------------------------

 SCF Done:  E(UB3LYP) =  -1136.12530903     A.U. after   26 cycles

 The electronic state is 2-A.
 Alpha  occ. eigenvalues --  -38.44572 -38.44354 -38.44262 -38.44136 -38.43922
 Alpha  occ. eigenvalues --  -38.43275 -38.42899  -2.20359  -2.20204  -2.20088
 Alpha  occ. eigenvalues --   -2.20054  -2.19805  -2.19072  -2.18782  -1.14027
 Alpha  occ. eigenvalues --   -1.14014  -1.13975  -1.13954  -1.13894  -1.13807
 Alpha  occ. eigenvalues --   -1.13773  -1.13733  -1.13730  -1.13707  -1.13691
 Alpha  occ. eigenvalues --   -1.13650  -1.13494  -1.13447  -1.13419  -1.12745
 Alpha  occ. eigenvalues --   -1.12733  -1.12711  -1.12486  -1.12457  -1.12383
 Alpha  occ. eigenvalues --   -0.18400  -0.13891  -0.11455  -0.10848
 Alpha virt. eigenvalues --   -0.06622  -0.05223  -0.04890  -0.03096  -0.02665
 Alpha virt. eigenvalues --   -0.02332  -0.02233  -0.01226  -0.01043  -0.00243
 Alpha virt. eigenvalues --    0.00064   0.00258   0.00356   0.00574   0.00609

  Beta  occ. eigenvalues --  -38.44534 -38.44350 -38.44211 -38.44093 -38.43878
  Beta  occ. eigenvalues --  -38.43273 -38.42885  -2.20287  -2.20201  -2.19994
  Beta  occ. eigenvalues --   -2.19980  -2.19730  -2.19071  -2.18759  -1.13976
  Beta  occ. eigenvalues --   -1.13963  -1.13932  -1.13924  -1.13888  -1.13803
  Beta  occ. eigenvalues --   -1.13705  -1.13689  -1.13674  -1.13662  -1.13622
  Beta  occ. eigenvalues --   -1.13568  -1.13438  -1.13373  -1.13370  -1.12744
  Beta  occ. eigenvalues --   -1.12727  -1.12711  -1.12474  -1.12418  -1.12368
  Beta  occ. eigenvalues --   -0.17698  -0.13589  -0.10664
  Beta virt. eigenvalues --   -0.07643  -0.06356  -0.04858  -0.04528  -0.02779
  Beta virt. eigenvalues --   -0.02441  -0.01883  -0.01740  -0.01017  -0.00613
  Beta virt. eigenvalues --   -0.00084   0.00110   0.00369   0.00435   0.00621

 Mulliken charges and spin densities:
               1          2
     1  Na   0.067347   0.212829
     2  Na   0.297552   0.176989
     3  Na  -0.007794   0.157694
     4  Na  -1.001071   0.214033
     5  Na   0.359289  -0.034310
     6  Na  -0.453386   0.278109
     7  Na   0.738064  -0.005345
 Sum of Mulliken charges =  -0.00000   1.00000

 Dipole moment (field-independent basis, Debye):
    X=             -0.4052    Y=              0.3764    Z=              0.3285  Tot=              0.6433
 Quadrupole moment (field-independent basis, Debye-Ang):
   XX=            -53.2724   YY=            -74.8490   ZZ=            -67.6389
   XY=              1.4635   XZ=              2.1023   YZ=             -5.5467

 Normal termination of Gaussian 16 at Thu Dec  7 07:31:43 2023.
