 Gaussian 16, Revision B.01,
 Gaussian 16:  ES64L-G16RevB.01 20-Dec-2017

 -------------------------
 #P B3LYP/6-311+g(d) force
 -------------------------

 -----
 DPGEN
 -----
 Symbolic Z-matrix:
 Charge =  0 Multiplicity = 2

                         Standard orientation:
 ---------------------------------------------------------------------
 Center     Atomic      Atomic             Coordinates (Angstroms)
 Number     Number       Type             X           Y           Z
 ---------------------------------------------------------------------
      1         11           0       -0.256384   -2.037723    1.338278
      2         11           0       -0.416272   -0.011169   -1.470990
      3         11           0        2.679270   -1.674507   -0.519913
      4         11           0        2.723098    1.510531   -0.587958
      5         11           0        0.492969    1.427272    1.905805
      6         11           0       -2.284442    2.218913   -0.258864
      7         11           0       -2.938239   -1.433315   -0.406357
 ---------------------------------------------------------------------

 SCF Done:  E(UB3LYP) =  -1136.12910371     A.U. after   20 cycles

 The electronic state is 2-A.
 Alpha  occ. eigenvalues --  -38.44181 -38.44146 -38.44030 -38.43856 -38.43565
 Alpha  occ. eigenvalues --  -38.43505 -38.43028  -2.20044  -2.20000  -2.19872
 Alpha  occ. eigenvalues --   -2.19683  -2.19496  -2.19434  -2.18921  -1.13761
 Alpha  occ. eigenvalues --   -1.13708  -1.13695  -1.13669  -1.13660  -1.13649
 Alpha  occ. eigenvalues --   -1.13534  -1.13520  -1.13497  -1.13406  -1.13344
 Alpha  occ. eigenvalues --   -1.13307  -1.13179  -1.13134  -1.13110  -1.13095
 Alpha  occ. eigenvalues --   -1.13077  -1.13045  -1.12594  -1.12562  -1.12551
 Alpha  occ. eigenvalues --   -0.18506  -0.13589  -0.11855  -0.11131
 Alpha virt. eigenvalues --   -0.05901  -0.05545  -0.03815  -0.03470  -0.03268
 Alpha virt. eigenvalues --   -0.02589  -0.01753  -0.01222  -0.00204  -0.00150
 Alpha virt. eigenvalues --    0.00203   0.00326   0.00485   0.00737   0.00789

  Beta  occ. eigenvalues --  -38.44175 -38.44134 -38.44018 -38.43854 -38.43487
  Beta  occ. eigenvalues --  -38.43465 -38.42983  -2.20036  -2.19981  -2.19852
  Beta  occ. eigenvalues --   -2.19681  -2.19423  -2.19290  -2.18839  -1.13751
  Beta  occ. eigenvalues --   -1.13692  -1.13683  -1.13655  -1.13641  -1.13631
  Beta  occ. eigenvalues --   -1.13517  -1.13501  -1.13478  -1.13397  -1.13337
  Beta  occ. eigenvalues --   -1.13298  -1.13121  -1.13086  -1.13059  -1.12997
  Beta  occ. eigenvalues --   -1.12980  -1.12940  -1.12541  -1.12511  -1.12476
  Beta  occ. eigenvalues --   -0.17824  -0.13244  -0.11686
  Beta virt. eigenvalues --   -0.07252  -0.05894  -0.05410  -0.03462  -0.02977
  Beta virt. eigenvalues --   -0.02602  -0.01689  -0.01543  -0.01222  -0.00162
  Beta virt. eigenvalues --    0.00059   0.00198   0.00377   0.00585   0.00795

 Mulliken charges and spin densities:
               1          2
     1  Na  -0.353620   0.339807
     2  Na  -0.211052  -0.099722
     3  Na  -0.036966   0.083648
     4  Na   0.409649   0.219106
     5  Na  -0.154443   0.278347
     6  Na  -0.230944   0.125197
     7  Na   0.577376   0.053617
 Sum of Mulliken charges =  -0.00000   1.00000

 Dipole moment (field-independent basis, Debye):
    X=             -0.1061    Y=              0.1314    Z=             -0.1214  Tot=              0.2080
 Quadrupole moment (field-independent basis, Debye-Ang):
   XX=            -54.7085   YY=            -67.9881   ZZ=            -71.5413
   XY=              0.0953   XZ=             -0.7296   YZ=             -0.2269

 Normal termination of Gaussian 16 at Mon Dec  4 04:17:59 2023.
