 Gaussian 16, Revision B.01,
 Gaussian 16:  ES64L-G16RevB.01 20-Dec-2017

 -------------------------
 #P B3LYP/6-311+g(d) force
 -------------------------

 -----
 DPGEN
 -----
 Symbolic Z-matrix:
 Charge =  0 Multiplicity = 2

                         Standard orientation:
 ---------------------------------------------------------------------
 Center     Atomic      Atomic             Coordinates (Angstroms)
 Number     Number       Type             X           Y           Z
 ---------------------------------------------------------------------
      1         11           0        0.092192   -0.298796    1.696486
      2         11           0       -3.006648   -1.778283    0.270637
      3         11           0        3.303389    0.567286    0.870634
      4         11           0       -0.992289   -0.367934   -1.479982
      5         11           0        2.290117   -1.922453   -0.667600
      6         11           0        0.899683    1.914274   -1.131203
      7         11           0       -2.586444    1.885906    0.441030
 ---------------------------------------------------------------------

 SCF Done:  E(UB3LYP) =  -1136.12193694     A.U. after   24 cycles

 The electronic state is 2-A.
 Alpha  occ. eigenvalues --  -38.44615 -38.44313 -38.44214 -38.44158 -38.43906
 Alpha  occ. eigenvalues --  -38.43195 -38.42657  -2.20493  -2.20136  -2.20114
 Alpha  occ. eigenvalues --   -2.20001  -2.19748  -2.19240  -2.18565  -1.14177
 Alpha  occ. eigenvalues --   -1.14152  -1.14130  -1.13833  -1.13820  -1.13800
 Alpha  occ. eigenvalues --   -1.13755  -1.13744  -1.13729  -1.13656  -1.13651
 Alpha  occ. eigenvalues --   -1.13646  -1.13487  -1.13388  -1.13377  -1.12969
 Alpha  occ. eigenvalues --   -1.12882  -1.12829  -1.12279  -1.12211  -1.12156
 Alpha  occ. eigenvalues --   -0.18819  -0.14212  -0.11118  -0.10984
 Alpha virt. eigenvalues --   -0.06438  -0.05833  -0.04216  -0.03098  -0.02458
 Alpha virt. eigenvalues --   -0.02371  -0.02237  -0.01295  -0.00557  -0.00146
 Alpha virt. eigenvalues --    0.00193   0.00259   0.00486   0.00604   0.00744

  Beta  occ. eigenvalues --  -38.44594 -38.44301 -38.44163 -38.44142 -38.43908
  Beta  occ. eigenvalues --  -38.43130 -38.42628  -2.20456  -2.20115  -2.20021
  Beta  occ. eigenvalues --   -2.19974  -2.19755  -2.19124  -2.18517  -1.14155
  Beta  occ. eigenvalues --   -1.14115  -1.14103  -1.13797  -1.13790  -1.13760
  Beta  occ. eigenvalues --   -1.13739  -1.13681  -1.13661  -1.13637  -1.13631
  Beta  occ. eigenvalues --   -1.13606  -1.13484  -1.13392  -1.13373  -1.12891
  Beta  occ. eigenvalues --   -1.12792  -1.12742  -1.12234  -1.12164  -1.12124
  Beta  occ. eigenvalues --   -0.18089  -0.13995  -0.10895
  Beta virt. eigenvalues --   -0.07109  -0.06261  -0.05718  -0.03651  -0.02932
  Beta virt. eigenvalues --   -0.02149  -0.01855  -0.01441  -0.01126  -0.00386
  Beta virt. eigenvalues --   -0.00016   0.00206   0.00280   0.00611   0.00680

 Mulliken charges and spin densities:
               1          2
     1  Na  -0.464738   0.352639
     2  Na   0.250302   0.085687
     3  Na   0.679696   0.144435
     4  Na   0.169822   0.151791
     5  Na  -0.238146   0.121102
     6  Na  -0.484987   0.035946
     7  Na   0.088051   0.108400
 Sum of Mulliken charges =  -0.00000   1.00000

 Dipole moment (field-independent basis, Debye):
    X=              0.0746    Y=              0.1287    Z=              0.5160  Tot=              0.5370
 Quadrupole moment (field-independent basis, Debye-Ang):
   XX=            -49.2550   YY=            -72.0041   ZZ=            -71.8212
   XY=             -0.5658   XZ=             -1.4708   YZ=              2.5012

 Normal termination of Gaussian 16 at Thu Dec  7 13:38:52 2023.
