 Gaussian 16, Revision B.01,
 Gaussian 16:  ES64L-G16RevB.01 20-Dec-2017

 -------------------------
 #P B3LYP/6-311+g(d) force
 -------------------------

 -----
 DPGEN
 -----
 Symbolic Z-matrix:
 Charge =  0 Multiplicity = 2

                         Standard orientation:
 ---------------------------------------------------------------------
 Center     Atomic      Atomic             Coordinates (Angstroms)
 Number     Number       Type             X           Y           Z
 ---------------------------------------------------------------------
      1         11           0        1.995121    1.592375    1.304781
      2         11           0       -3.178163   -1.595657   -0.802661
      3         11           0       -0.727109    2.630401   -0.939595
      4         11           0        0.385154    0.349549   -1.565367
      5         11           0       -2.233712    0.519683    1.672023
      6         11           0        3.336235   -1.315256   -0.562644
      7         11           0        0.422474   -2.181095    0.893464
 ---------------------------------------------------------------------

 SCF Done:  E(UB3LYP) =  -1136.12183454     A.U. after   20 cycles

 The electronic state is 2-A.
 Alpha  occ. eigenvalues --  -38.44435 -38.44311 -38.44150 -38.44045 -38.43943
 Alpha  occ. eigenvalues --  -38.43532 -38.43365  -2.20205  -2.20125  -2.19969
 Alpha  occ. eigenvalues --   -2.19865  -2.19758  -2.19553  -2.19278  -1.13882
 Alpha  occ. eigenvalues --   -1.13863  -1.13845  -1.13795  -1.13785  -1.13742
 Alpha  occ. eigenvalues --   -1.13643  -1.13633  -1.13619  -1.13585  -1.13533
 Alpha  occ. eigenvalues --   -1.13531  -1.13509  -1.13459  -1.13438  -1.13349
 Alpha  occ. eigenvalues --   -1.13178  -1.13128  -1.12867  -1.12846  -1.12795
 Alpha  occ. eigenvalues --   -0.18067  -0.13200  -0.12000  -0.10732
 Alpha virt. eigenvalues --   -0.06019  -0.05590  -0.04273  -0.03477  -0.02959
 Alpha virt. eigenvalues --   -0.02543  -0.01873  -0.01260  -0.00509  -0.00110
 Alpha virt. eigenvalues --    0.00136   0.00288   0.00466   0.00601   0.00726

  Beta  occ. eigenvalues --  -38.44432 -38.44270 -38.44110 -38.44042 -38.43934
  Beta  occ. eigenvalues --  -38.43467 -38.43346  -2.20200  -2.20049  -2.19895
  Beta  occ. eigenvalues --   -2.19861  -2.19743  -2.19442  -2.19243  -1.13875
  Beta  occ. eigenvalues --   -1.13852  -1.13842  -1.13744  -1.13722  -1.13691
  Beta  occ. eigenvalues --   -1.13586  -1.13573  -1.13565  -1.13532  -1.13530
  Beta  occ. eigenvalues --   -1.13517  -1.13505  -1.13452  -1.13405  -1.13344
  Beta  occ. eigenvalues --   -1.13092  -1.13046  -1.12842  -1.12812  -1.12745
  Beta  occ. eigenvalues --   -0.17395  -0.13026  -0.11786
  Beta virt. eigenvalues --   -0.07004  -0.05869  -0.05307  -0.04095  -0.03088
  Beta virt. eigenvalues --   -0.02334  -0.01819  -0.01649  -0.00960  -0.00366
  Beta virt. eigenvalues --   -0.00004   0.00197   0.00339   0.00596   0.00685

 Mulliken charges and spin densities:
               1          2
     1  Na  -0.275520   0.362291
     2  Na   0.078036  -0.083525
     3  Na   0.560376  -0.017122
     4  Na  -0.514881   0.345870
     5  Na  -0.076539   0.364860
     6  Na   0.486355  -0.045252
     7  Na  -0.257827   0.072879
 Sum of Mulliken charges =  -0.00000   1.00000

 Dipole moment (field-independent basis, Debye):
    X=              0.1792    Y=             -0.3454    Z=              0.3241  Tot=              0.5064
 Quadrupole moment (field-independent basis, Debye-Ang):
   XX=            -54.1486   YY=            -69.0155   ZZ=            -70.6226
   XY=             -0.1162   XZ=              1.4390   YZ=              3.2255

 Normal termination of Gaussian 16 at Thu Dec  7 17:04:14 2023.
