 Gaussian 16, Revision B.01,
 Gaussian 16:  ES64L-G16RevB.01 20-Dec-2017

 -------------------------
 #P B3LYP/6-311+g(d) force
 -------------------------

 -----
 DPGEN
 -----
 Symbolic Z-matrix:
 Charge =  0 Multiplicity = 2

                         Standard orientation:
 ---------------------------------------------------------------------
 Center     Atomic      Atomic             Coordinates (Angstroms)
 Number     Number       Type             X           Y           Z
 ---------------------------------------------------------------------
      1         11           0       -3.988120   -2.501690    0.390658
      2         11           0        3.515598   -2.643036   -0.475604
      3         11           0       -3.930371    1.067128    0.359866
      4         11           0        2.069377    3.106013   -0.265758
      5         11           0       -0.873597   -2.521960   -0.612877
      6         11           0        4.452354   -0.135384    0.949654
      7         11           0       -1.245240    3.628929   -0.345940
 ---------------------------------------------------------------------

 SCF Done:  E(UB3LYP) =  -1136.10586903     A.U. after   22 cycles

 The electronic state is 2-A.
 Alpha  occ. eigenvalues --  -38.45100 -38.45027 -38.44776 -38.44762 -38.44173
 Alpha  occ. eigenvalues --  -38.43995 -38.43952  -2.20896  -2.20805  -2.20563
 Alpha  occ. eigenvalues --   -2.20561  -2.19967  -2.19754  -2.19735  -1.14608
 Alpha  occ. eigenvalues --   -1.14552  -1.14535  -1.14466  -1.14453  -1.14438
 Alpha  occ. eigenvalues --   -1.14234  -1.14218  -1.14213  -1.14210  -1.14203
 Alpha  occ. eigenvalues --   -1.14200  -1.13626  -1.13610  -1.13576  -1.13445
 Alpha  occ. eigenvalues --   -1.13441  -1.13420  -1.13392  -1.13380  -1.13333
 Alpha  occ. eigenvalues --   -0.15414  -0.14125  -0.13011  -0.10588
 Alpha virt. eigenvalues --   -0.07713  -0.05086  -0.04726  -0.03609  -0.03134
 Alpha virt. eigenvalues --   -0.02501  -0.02429  -0.01853  -0.01322  -0.00978
 Alpha virt. eigenvalues --   -0.00656   0.00027   0.00100   0.00150   0.00578

  Beta  occ. eigenvalues --  -38.45084 -38.44966 -38.44786 -38.44748 -38.44084
  Beta  occ. eigenvalues --  -38.44009 -38.43897  -2.20870  -2.20691  -2.20586
  Beta  occ. eigenvalues --   -2.20538  -2.19800  -2.19784  -2.19633  -1.14583
  Beta  occ. eigenvalues --   -1.14536  -1.14511  -1.14390  -1.14375  -1.14368
  Beta  occ. eigenvalues --   -1.14254  -1.14230  -1.14198  -1.14195  -1.14188
  Beta  occ. eigenvalues --   -1.14172  -1.13512  -1.13499  -1.13469  -1.13466
  Beta  occ. eigenvalues --   -1.13460  -1.13400  -1.13322  -1.13311  -1.13279
  Beta  occ. eigenvalues --   -0.14878  -0.13631  -0.12440
  Beta virt. eigenvalues --   -0.07589  -0.07335  -0.04833  -0.04219  -0.03432
  Beta virt. eigenvalues --   -0.02650  -0.02356  -0.02285  -0.01695  -0.01177
  Beta virt. eigenvalues --   -0.00752  -0.00307   0.00126   0.00239   0.00337

 Mulliken charges and spin densities:
               1          2
     1  Na   1.231383  -0.044582
     2  Na  -0.031655   0.077097
     3  Na  -0.371888   0.433556
     4  Na  -0.347134   0.234273
     5  Na  -0.987967   0.298979
     6  Na   0.060919   0.056271
     7  Na   0.446343  -0.055594
 Sum of Mulliken charges =  -0.00000   1.00000

 Dipole moment (field-independent basis, Debye):
    X=              0.5239    Y=             -1.5265    Z=              0.1555  Tot=              1.6213
 Quadrupole moment (field-independent basis, Debye-Ang):
   XX=            -58.5971   YY=            -69.5873   ZZ=            -72.0481
   XY=              5.0963   XZ=             -0.0057   YZ=              1.8199

 Normal termination of Gaussian 16 at Sun Dec  3 17:51:23 2023.
