 Gaussian 16, Revision B.01,
 Gaussian 16:  ES64L-G16RevB.01 20-Dec-2017

 -------------------------
 #P B3LYP/6-311+g(d) force
 -------------------------

 -----
 DPGEN
 -----
 Symbolic Z-matrix:
 Charge =  0 Multiplicity = 2

                         Standard orientation:
 ---------------------------------------------------------------------
 Center     Atomic      Atomic             Coordinates (Angstroms)
 Number     Number       Type             X           Y           Z
 ---------------------------------------------------------------------
      1         11           0       -1.601134    0.497354    1.297346
      2         11           0        2.244559    0.606025    1.027998
      3         11           0        0.700804   -2.389904    0.623576
      4         11           0       -3.769583    0.839557   -0.876696
      5         11           0       -2.482131   -2.135590   -0.652914
      6         11           0        4.812084   -0.269572   -1.156994
      7         11           0        0.095401    2.852129   -0.262316
 ---------------------------------------------------------------------

 SCF Done:  E(UB3LYP) =  -1136.12294505     A.U. after   19 cycles

 The electronic state is 2-A.
 Alpha  occ. eigenvalues --  -38.44864 -38.44243 -38.44091 -38.43740 -38.43678
 Alpha  occ. eigenvalues --  -38.43510 -38.43314  -2.20659  -2.20111  -2.20023
 Alpha  occ. eigenvalues --   -2.19594  -2.19491  -2.19363  -2.19138  -1.14294
 Alpha  occ. eigenvalues --   -1.14290  -1.14267  -1.13861  -1.13769  -1.13729
 Alpha  occ. eigenvalues --   -1.13707  -1.13650  -1.13641  -1.13269  -1.13261
 Alpha  occ. eigenvalues --   -1.13232  -1.13170  -1.13154  -1.13131  -1.13053
 Alpha  occ. eigenvalues --   -1.13048  -1.12992  -1.12809  -1.12805  -1.12757
 Alpha  occ. eigenvalues --   -0.17467  -0.14139  -0.11871  -0.11229
 Alpha virt. eigenvalues --   -0.05911  -0.05255  -0.04955  -0.03711  -0.02492
 Alpha virt. eigenvalues --   -0.02131  -0.02108  -0.01318  -0.00596  -0.00530
 Alpha virt. eigenvalues --   -0.00432   0.00140   0.00335   0.00478   0.00530

  Beta  occ. eigenvalues --  -38.44745 -38.44197 -38.44078 -38.43735 -38.43674
  Beta  occ. eigenvalues --  -38.43508 -38.43291  -2.20437  -2.20026  -2.20002
  Beta  occ. eigenvalues --   -2.19588  -2.19485  -2.19367  -2.19098  -1.14142
  Beta  occ. eigenvalues --   -1.14138  -1.14121  -1.13818  -1.13714  -1.13691
  Beta  occ. eigenvalues --   -1.13665  -1.13634  -1.13594  -1.13269  -1.13262
  Beta  occ. eigenvalues --   -1.13199  -1.13165  -1.13143  -1.13132  -1.13060
  Beta  occ. eigenvalues --   -1.13042  -1.12960  -1.12782  -1.12771  -1.12732
  Beta  occ. eigenvalues --   -0.16998  -0.13275  -0.11671
  Beta virt. eigenvalues --   -0.07642  -0.05825  -0.04873  -0.04515  -0.03590
  Beta virt. eigenvalues --   -0.02129  -0.01772  -0.01456  -0.01011  -0.00488
  Beta virt. eigenvalues --   -0.00414  -0.00239   0.00324   0.00456   0.00564

 Mulliken charges and spin densities:
               1          2
     1  Na   0.903250   0.104415
     2  Na  -0.228615  -0.058091
     3  Na  -0.286977   0.035181
     4  Na   0.026261   0.275176
     5  Na  -0.234761   0.065323
     6  Na   0.129197   0.597030
     7  Na  -0.308355  -0.019033
 Sum of Mulliken charges =  -0.00000   1.00000

 Dipole moment (field-independent basis, Debye):
    X=             -0.5574    Y=              0.1889    Z=             -0.8044  Tot=              0.9967
 Quadrupole moment (field-independent basis, Debye-Ang):
   XX=            -63.1513   YY=            -69.9469   ZZ=            -65.5485
   XY=             -0.8261   XZ=              0.2123   YZ=             -0.5975

 Normal termination of Gaussian 16 at Tue Nov 28 20:36:50 2023.
