 Gaussian 16, Revision B.01,
 Gaussian 16:  ES64L-G16RevB.01 20-Dec-2017

 -------------------------
 #P B3LYP/6-311+g(d) force
 -------------------------

 -----
 DPGEN
 -----
 Symbolic Z-matrix:
 Charge =  0 Multiplicity = 2

                         Standard orientation:
 ---------------------------------------------------------------------
 Center     Atomic      Atomic             Coordinates (Angstroms)
 Number     Number       Type             X           Y           Z
 ---------------------------------------------------------------------
      1         11           0       -0.513910    0.296493   -1.389940
      2         11           0        3.650964   -0.933836   -0.868811
      3         11           0        1.576586    1.838764    0.694398
      4         11           0       -3.111267   -2.592252   -0.586291
      5         11           0       -1.555080   -0.157745    1.778152
      6         11           0       -1.681110    3.070288   -0.511443
      7         11           0        1.633817   -1.521714    0.883935
 ---------------------------------------------------------------------

 SCF Done:  E(UB3LYP) =  -1136.12068049     A.U. after   22 cycles

 The electronic state is 2-A.
 Alpha  occ. eigenvalues --  -38.44379 -38.44216 -38.43929 -38.43865 -38.43805
 Alpha  occ. eigenvalues --  -38.43784 -38.43544  -2.20260  -2.20082  -2.19884
 Alpha  occ. eigenvalues --   -2.19715  -2.19633  -2.19615  -2.19409  -1.14153
 Alpha  occ. eigenvalues --   -1.13873  -1.13866  -1.13804  -1.13757  -1.13677
 Alpha  occ. eigenvalues --   -1.13538  -1.13510  -1.13451  -1.13436  -1.13419
 Alpha  occ. eigenvalues --   -1.13333  -1.13287  -1.13283  -1.13281  -1.13273
 Alpha  occ. eigenvalues --   -1.13237  -1.13230  -1.13101  -1.13064  -1.13000
 Alpha  occ. eigenvalues --   -0.18315  -0.13503  -0.11857  -0.10533
 Alpha virt. eigenvalues --   -0.06008  -0.05869  -0.04403  -0.03271  -0.02707
 Alpha virt. eigenvalues --   -0.02179  -0.01822  -0.01565  -0.00965  -0.00161
 Alpha virt. eigenvalues --    0.00176   0.00269   0.00497   0.00639   0.00719

  Beta  occ. eigenvalues --  -38.44356 -38.44198 -38.43908 -38.43852 -38.43793
  Beta  occ. eigenvalues --  -38.43747 -38.43491  -2.20217  -2.20051  -2.19851
  Beta  occ. eigenvalues --   -2.19649  -2.19613  -2.19590  -2.19314  -1.14123
  Beta  occ. eigenvalues --   -1.13839  -1.13837  -1.13786  -1.13700  -1.13664
  Beta  occ. eigenvalues --   -1.13520  -1.13463  -1.13415  -1.13398  -1.13359
  Beta  occ. eigenvalues --   -1.13290  -1.13270  -1.13266  -1.13260  -1.13247
  Beta  occ. eigenvalues --   -1.13222  -1.13208  -1.13037  -1.12991  -1.12922
  Beta  occ. eigenvalues --   -0.17609  -0.13252  -0.11662
  Beta virt. eigenvalues --   -0.06807  -0.05797  -0.05673  -0.04116  -0.02929
  Beta virt. eigenvalues --   -0.02238  -0.01835  -0.01496  -0.01264  -0.00606
  Beta virt. eigenvalues --   -0.00049   0.00221   0.00329   0.00622   0.00713

 Mulliken charges and spin densities:
               1          2
     1  Na  -0.573743   0.588932
     2  Na   0.408386   0.066679
     3  Na   0.045999   0.132772
     4  Na  -0.057242   0.001890
     5  Na   0.195844   0.142517
     6  Na   0.173368  -0.047456
     7  Na  -0.192613   0.114666
 Sum of Mulliken charges =  -0.00000   1.00000

 Dipole moment (field-independent basis, Debye):
    X=              0.3926    Y=              0.5819    Z=              0.1507  Tot=              0.7179
 Quadrupole moment (field-independent basis, Debye-Ang):
   XX=            -57.3914   YY=            -64.5121   ZZ=            -71.5974
   XY=             -1.3072   XZ=             -1.7238   YZ=              2.3811

 Normal termination of Gaussian 16 at Tue Dec  5 15:40:35 2023.
