 Gaussian 16, Revision B.01,
 Gaussian 16:  ES64L-G16RevB.01 20-Dec-2017

 -------------------------
 #P B3LYP/6-311+g(d) force
 -------------------------

 -----
 DPGEN
 -----
 Symbolic Z-matrix:
 Charge =  0 Multiplicity = 2

                         Standard orientation:
 ---------------------------------------------------------------------
 Center     Atomic      Atomic             Coordinates (Angstroms)
 Number     Number       Type             X           Y           Z
 ---------------------------------------------------------------------
      1         11           0       -2.343173    3.490117    0.319862
      2         11           0        1.423081    3.037361   -0.924446
      3         11           0       -2.710043   -1.701613   -1.331978
      4         11           0       -1.226077    0.758299    1.451655
      5         11           0       -5.038580   -3.041120    0.272260
      6         11           0        6.058176   -2.427314    0.356118
      7         11           0        3.836615   -0.115729   -0.143472
 ---------------------------------------------------------------------

 SCF Done:  E(UB3LYP) =  -1136.10443359     A.U. after   20 cycles

 The electronic state is 2-A.
 Alpha  occ. eigenvalues --  -38.45682 -38.44955 -38.44950 -38.44852 -38.44371
 Alpha  occ. eigenvalues --  -38.43360 -38.43026  -2.21472  -2.20748  -2.20734
 Alpha  occ. eigenvalues --   -2.20639  -2.20161  -2.19154  -2.18795  -1.15146
 Alpha  occ. eigenvalues --   -1.15136  -1.15093  -1.14439  -1.14412  -1.14405
 Alpha  occ. eigenvalues --   -1.14391  -1.14387  -1.14376  -1.14304  -1.14285
 Alpha  occ. eigenvalues --   -1.14239  -1.13819  -1.13799  -1.13760  -1.12801
 Alpha  occ. eigenvalues --   -1.12800  -1.12796  -1.12485  -1.12483  -1.12424
 Alpha  occ. eigenvalues --   -0.15855  -0.13547  -0.12504  -0.10590
 Alpha virt. eigenvalues --   -0.07113  -0.05891  -0.04422  -0.03510  -0.03056
 Alpha virt. eigenvalues --   -0.02853  -0.02077  -0.01628  -0.01313  -0.01159
 Alpha virt. eigenvalues --   -0.00811  -0.00510  -0.00258   0.00017   0.00341

  Beta  occ. eigenvalues --  -38.45657 -38.44947 -38.44931 -38.44853 -38.44264
  Beta  occ. eigenvalues --  -38.43308 -38.43035  -2.21427  -2.20720  -2.20714
  Beta  occ. eigenvalues --   -2.20641  -2.19962  -2.19057  -2.18817  -1.15108
  Beta  occ. eigenvalues --   -1.15099  -1.15065  -1.14433  -1.14385  -1.14382
  Beta  occ. eigenvalues --   -1.14377  -1.14373  -1.14354  -1.14306  -1.14284
  Beta  occ. eigenvalues --   -1.14238  -1.13683  -1.13663  -1.13624  -1.12738
  Beta  occ. eigenvalues --   -1.12733  -1.12732  -1.12505  -1.12503  -1.12397
  Beta  occ. eigenvalues --   -0.15379  -0.13153  -0.12010
  Beta virt. eigenvalues --   -0.07067  -0.06964  -0.05766  -0.03939  -0.03288
  Beta virt. eigenvalues --   -0.02811  -0.02620  -0.01868  -0.01495  -0.01133
  Beta virt. eigenvalues --   -0.00709  -0.00527  -0.00449   0.00048   0.00250

 Mulliken charges and spin densities:
               1          2
     1  Na   0.333969   0.086853
     2  Na   0.173531   0.108834
     3  Na   0.013119  -0.019707
     4  Na  -0.378999   0.129363
     5  Na   0.177574   0.037130
     6  Na   0.395668   0.380715
     7  Na  -0.714861   0.276812
 Sum of Mulliken charges =  -0.00000   1.00000

 Dipole moment (field-independent basis, Debye):
    X=             -4.0658    Y=              0.4449    Z=              0.4329  Tot=              4.1129
 Quadrupole moment (field-independent basis, Debye-Ang):
   XX=            -69.6348   YY=            -61.9229   ZZ=            -69.5082
   XY=             -2.0687   XZ=             -1.2134   YZ=             -4.7359

 Normal termination of Gaussian 16 at Sun Dec  3 14:58:38 2023.
