 Gaussian 16, Revision B.01,
 Gaussian 16:  ES64L-G16RevB.01 20-Dec-2017

 -------------------------
 #P B3LYP/6-311+g(d) force
 -------------------------

 -----
 DPGEN
 -----
 Symbolic Z-matrix:
 Charge =  0 Multiplicity = 2

                         Standard orientation:
 ---------------------------------------------------------------------
 Center     Atomic      Atomic             Coordinates (Angstroms)
 Number     Number       Type             X           Y           Z
 ---------------------------------------------------------------------
      1         11           0        3.110803    1.098840   -0.322844
      2         11           0       -3.224239   -1.906953    0.124577
      3         11           0       -0.020293   -0.647718   -1.890393
      4         11           0       -3.135216    1.389967   -0.509157
      5         11           0        0.316080    2.334482    0.526256
      6         11           0       -0.464275   -0.461752    1.925550
      7         11           0        3.417140   -1.806865    0.146011
 ---------------------------------------------------------------------

 SCF Done:  E(UB3LYP) =  -1136.11464305     A.U. after   25 cycles

 The electronic state is 2-A.
 Alpha  occ. eigenvalues --  -38.45439 -38.45314 -38.44681 -38.44285 -38.44117
 Alpha  occ. eigenvalues --  -38.44052 -38.41953  -2.21218  -2.21112  -2.20562
 Alpha  occ. eigenvalues --   -2.20088  -2.19921  -2.19917  -2.17846  -1.14911
 Alpha  occ. eigenvalues --   -1.14872  -1.14821  -1.14784  -1.14758  -1.14748
 Alpha  occ. eigenvalues --   -1.14292  -1.14215  -1.14212  -1.13769  -1.13735
 Alpha  occ. eigenvalues --   -1.13718  -1.13596  -1.13593  -1.13586  -1.13566
 Alpha  occ. eigenvalues --   -1.13555  -1.13518  -1.11536  -1.11518  -1.11483
 Alpha  occ. eigenvalues --   -0.18015  -0.14096  -0.11159  -0.10757
 Alpha virt. eigenvalues --   -0.07220  -0.06142  -0.03857  -0.03345  -0.02809
 Alpha virt. eigenvalues --   -0.02730  -0.02464  -0.01604  -0.00844  -0.00376
 Alpha virt. eigenvalues --    0.00019   0.00142   0.00326   0.00493   0.00593

  Beta  occ. eigenvalues --  -38.45380 -38.45289 -38.44683 -38.44304 -38.44115
  Beta  occ. eigenvalues --  -38.43954 -38.41948  -2.21110  -2.21066  -2.20565
  Beta  occ. eigenvalues --   -2.20125  -2.19919  -2.19738  -2.17841  -1.14833
  Beta  occ. eigenvalues --   -1.14792  -1.14743  -1.14740  -1.14725  -1.14717
  Beta  occ. eigenvalues --   -1.14308  -1.14219  -1.14201  -1.13795  -1.13752
  Beta  occ. eigenvalues --   -1.13741  -1.13598  -1.13571  -1.13554  -1.13469
  Beta  occ. eigenvalues --   -1.13424  -1.13395  -1.11531  -1.11512  -1.11460
  Beta  occ. eigenvalues --   -0.17305  -0.14022  -0.10982
  Beta virt. eigenvalues --   -0.06968  -0.06900  -0.06072  -0.03400  -0.03173
  Beta virt. eigenvalues --   -0.02617  -0.01956  -0.01739  -0.01225  -0.00917
  Beta virt. eigenvalues --   -0.00189   0.00030   0.00183   0.00524   0.00589

 Mulliken charges and spin densities:
               1          2
     1  Na   0.033510   0.022155
     2  Na   0.288521  -0.041704
     3  Na  -0.354569   0.395660
     4  Na   0.112860   0.171837
     5  Na   0.141636  -0.004018
     6  Na  -0.458685   0.601641
     7  Na   0.236726  -0.145571
 Sum of Mulliken charges =  -0.00000   1.00000

 Dipole moment (field-independent basis, Debye):
    X=             -0.5564    Y=             -0.1148    Z=             -0.3921  Tot=              0.6903
 Quadrupole moment (field-independent basis, Debye-Ang):
   XX=            -52.5473   YY=            -70.5827   ZZ=            -74.1196
   XY=             -0.7762   XZ=              1.0226   YZ=             -1.8459

 Normal termination of Gaussian 16 at Thu Dec  7 03:00:07 2023.
