 Gaussian 16, Revision B.01,
 Gaussian 16:  ES64L-G16RevB.01 20-Dec-2017

 -------------------------
 #P B3LYP/6-311+g(d) force
 -------------------------

 -----
 DPGEN
 -----
 Symbolic Z-matrix:
 Charge =  0 Multiplicity = 2

                         Standard orientation:
 ---------------------------------------------------------------------
 Center     Atomic      Atomic             Coordinates (Angstroms)
 Number     Number       Type             X           Y           Z
 ---------------------------------------------------------------------
      1         11           0        2.532185   -2.165866   -0.433207
      2         11           0        2.689292    1.163711    0.070191
      3         11           0        0.128791   -0.728035   -1.157724
      4         11           0        0.022982    3.150036   -0.430281
      5         11           0       -2.008398   -2.510448    0.234974
      6         11           0       -0.214386    0.262293    2.365556
      7         11           0       -3.150466    0.828309   -0.649509
 ---------------------------------------------------------------------

 SCF Done:  E(UB3LYP) =  -1136.12870878     A.U. after   21 cycles

 The electronic state is 2-A.
 Alpha  occ. eigenvalues --  -38.44385 -38.44226 -38.43990 -38.43840 -38.43770
 Alpha  occ. eigenvalues --  -38.43490 -38.43150  -2.20168  -2.20046  -2.19818
 Alpha  occ. eigenvalues --   -2.19705  -2.19633  -2.19288  -2.19166  -1.13847
 Alpha  occ. eigenvalues --   -1.13820  -1.13800  -1.13755  -1.13698  -1.13665
 Alpha  occ. eigenvalues --   -1.13485  -1.13472  -1.13447  -1.13425  -1.13355
 Alpha  occ. eigenvalues --   -1.13330  -1.13320  -1.13297  -1.13246  -1.12963
 Alpha  occ. eigenvalues --   -1.12940  -1.12934  -1.12844  -1.12805  -1.12788
 Alpha  occ. eigenvalues --   -0.18113  -0.13113  -0.12315  -0.10660
 Alpha virt. eigenvalues --   -0.05871  -0.05377  -0.04834  -0.03160  -0.02880
 Alpha virt. eigenvalues --   -0.02458  -0.01638  -0.01296  -0.00696  -0.00524
 Alpha virt. eigenvalues --   -0.00058   0.00299   0.00717   0.00771   0.00855

  Beta  occ. eigenvalues --  -38.44365 -38.44223 -38.43874 -38.43834 -38.43767
  Beta  occ. eigenvalues --  -38.43486 -38.43124  -2.20131  -2.20042  -2.19696
  Beta  occ. eigenvalues --   -2.19631  -2.19604  -2.19282  -2.19121  -1.13812
  Beta  occ. eigenvalues --   -1.13797  -1.13776  -1.13752  -1.13676  -1.13664
  Beta  occ. eigenvalues --   -1.13474  -1.13352  -1.13330  -1.13319  -1.13314
  Beta  occ. eigenvalues --   -1.13301  -1.13282  -1.13268  -1.13243  -1.12956
  Beta  occ. eigenvalues --   -1.12934  -1.12924  -1.12795  -1.12777  -1.12757
  Beta  occ. eigenvalues --   -0.17476  -0.12906  -0.12105
  Beta virt. eigenvalues --   -0.06770  -0.05724  -0.05305  -0.04731  -0.02472
  Beta virt. eigenvalues --   -0.02178  -0.01603  -0.01439  -0.01211  -0.00682
  Beta virt. eigenvalues --   -0.00515   0.00143   0.00368   0.00760   0.00838

 Mulliken charges and spin densities:
               1          2
     1  Na   0.533456   0.121172
     2  Na   0.273881   0.057903
     3  Na  -0.368035  -0.016805
     4  Na  -0.151568   0.045408
     5  Na   0.047795   0.090902
     6  Na  -0.492997   0.632272
     7  Na   0.157469   0.069148
 Sum of Mulliken charges =  -0.00000   1.00000

 Dipole moment (field-independent basis, Debye):
    X=             -0.3104    Y=             -0.3003    Z=              0.2556  Tot=              0.5019
 Quadrupole moment (field-independent basis, Debye-Ang):
   XX=            -56.9226   YY=            -61.7231   ZZ=            -75.1287
   XY=              0.1149   XZ=              0.7385   YZ=             -1.6878

 Normal termination of Gaussian 16 at Thu Dec  7 23:45:30 2023.
