 Gaussian 16, Revision B.01,
 Gaussian 16:  ES64L-G16RevB.01 20-Dec-2017

 -------------------------
 #P B3LYP/6-311+g(d) force
 -------------------------

 -----
 DPGEN
 -----
 Symbolic Z-matrix:
 Charge =  0 Multiplicity = 2

                         Standard orientation:
 ---------------------------------------------------------------------
 Center     Atomic      Atomic             Coordinates (Angstroms)
 Number     Number       Type             X           Y           Z
 ---------------------------------------------------------------------
      1         11           0        0.100287   -0.773252   -0.784173
      2         11           0        1.897508    2.109945   -0.017433
      3         11           0        3.275905   -1.313848   -0.977574
      4         11           0       -1.008179    1.830041    1.154549
      5         11           0       -2.217269    0.964931   -1.613624
      6         11           0       -2.804449   -1.823628    0.222502
      7         11           0        0.756198   -0.994188    2.015754
 ---------------------------------------------------------------------

 SCF Done:  E(UB3LYP) =  -1136.12339469     A.U. after   22 cycles

 The electronic state is 2-A.
 Alpha  occ. eigenvalues --  -38.44290 -38.44050 -38.43967 -38.43906 -38.43607
 Alpha  occ. eigenvalues --  -38.42814 -38.42776  -2.20200  -2.19976  -2.19785
 Alpha  occ. eigenvalues --   -2.19734  -2.19457  -2.18936  -2.18732  -1.13972
 Alpha  occ. eigenvalues --   -1.13808  -1.13777  -1.13705  -1.13634  -1.13559
 Alpha  occ. eigenvalues --   -1.13468  -1.13426  -1.13412  -1.13408  -1.13388
 Alpha  occ. eigenvalues --   -1.13372  -1.13153  -1.13129  -1.13079  -1.12693
 Alpha  occ. eigenvalues --   -1.12580  -1.12523  -1.12409  -1.12394  -1.12351
 Alpha  occ. eigenvalues --   -0.18960  -0.13460  -0.11537  -0.11457
 Alpha virt. eigenvalues --   -0.05597  -0.05238  -0.04252  -0.03175  -0.02765
 Alpha virt. eigenvalues --   -0.02571  -0.01784  -0.01055  -0.00526   0.00157
 Alpha virt. eigenvalues --    0.00278   0.00440   0.00568   0.00803   0.00829

  Beta  occ. eigenvalues --  -38.44209 -38.44005 -38.43939 -38.43905 -38.43603
  Beta  occ. eigenvalues --  -38.42789 -38.42753  -2.20053  -2.19892  -2.19737
  Beta  occ. eigenvalues --   -2.19733  -2.19453  -2.18898  -2.18696  -1.13876
  Beta  occ. eigenvalues --   -1.13693  -1.13671  -1.13645  -1.13578  -1.13505
  Beta  occ. eigenvalues --   -1.13429  -1.13414  -1.13388  -1.13385  -1.13379
  Beta  occ. eigenvalues --   -1.13357  -1.13151  -1.13107  -1.13080  -1.12613
  Beta  occ. eigenvalues --   -1.12560  -1.12496  -1.12388  -1.12348  -1.12316
  Beta  occ. eigenvalues --   -0.18180  -0.13160  -0.11347
  Beta virt. eigenvalues --   -0.07555  -0.05402  -0.05090  -0.03664  -0.03042
  Beta virt. eigenvalues --   -0.02155  -0.01793  -0.01565  -0.00976  -0.00190
  Beta virt. eigenvalues --    0.00203   0.00327   0.00468   0.00679   0.00845

 Mulliken charges and spin densities:
               1          2
     1  Na  -1.175912   0.432732
     2  Na  -0.121119  -0.054194
     3  Na   0.399811   0.010202
     4  Na   0.302338   0.224886
     5  Na   0.531625  -0.071528
     6  Na   0.181714   0.100974
     7  Na  -0.118457   0.356927
 Sum of Mulliken charges =  -0.00000   1.00000

 Dipole moment (field-independent basis, Debye):
    X=              0.0601    Y=             -0.0443    Z=              0.1652  Tot=              0.1813
 Quadrupole moment (field-independent basis, Debye-Ang):
   XX=            -53.6890   YY=            -71.5968   ZZ=            -66.6654
   XY=              1.0833   XZ=             -1.1303   YZ=             -2.4711

 Normal termination of Gaussian 16 at Tue Dec  5 12:17:12 2023.
