 Gaussian 16, Revision B.01,
 Gaussian 16:  ES64L-G16RevB.01 20-Dec-2017

 -------------------------
 #P B3LYP/6-311+g(d) force
 -------------------------

 -----
 DPGEN
 -----
 Symbolic Z-matrix:
 Charge =  0 Multiplicity = 2

                         Standard orientation:
 ---------------------------------------------------------------------
 Center     Atomic      Atomic             Coordinates (Angstroms)
 Number     Number       Type             X           Y           Z
 ---------------------------------------------------------------------
      1         11           0        0.417246   -0.778357    1.817763
      2         11           0        2.218370    1.881199   -0.058126
      3         11           0       -3.173018    0.050895    0.214876
      4         11           0       -1.089971    2.478787    0.341690
      5         11           0        3.059769   -1.421359   -0.116384
      6         11           0       -1.321408   -2.576366   -0.443388
      7         11           0       -0.110988    0.365202   -1.756431
 ---------------------------------------------------------------------

 SCF Done:  E(UB3LYP) =  -1136.13414948     A.U. after   21 cycles

 The electronic state is 2-A.
 Alpha  occ. eigenvalues --  -38.44426 -38.44321 -38.43695 -38.43461 -38.43454
 Alpha  occ. eigenvalues --  -38.43252 -38.42935  -2.20235  -2.20181  -2.19575
 Alpha  occ. eigenvalues --   -2.19350  -2.19320  -2.19219  -2.18846  -1.13910
 Alpha  occ. eigenvalues --   -1.13892  -1.13882  -1.13860  -1.13839  -1.13828
 Alpha  occ. eigenvalues --   -1.13276  -1.13243  -1.13199  -1.13050  -1.13007
 Alpha  occ. eigenvalues --   -1.12995  -1.12977  -1.12957  -1.12942  -1.12915
 Alpha  occ. eigenvalues --   -1.12854  -1.12831  -1.12522  -1.12490  -1.12486
 Alpha  occ. eigenvalues --   -0.18748  -0.13465  -0.12292  -0.10589
 Alpha virt. eigenvalues --   -0.06127  -0.05305  -0.04245  -0.03367  -0.02926
 Alpha virt. eigenvalues --   -0.02280  -0.01813  -0.01092  -0.00431  -0.00128
 Alpha virt. eigenvalues --   -0.00018   0.00343   0.00747   0.00841   0.00878

  Beta  occ. eigenvalues --  -38.44427 -38.44316 -38.43689 -38.43448 -38.43388
  Beta  occ. eigenvalues --  -38.43177 -38.42923  -2.20239  -2.20173  -2.19566
  Beta  occ. eigenvalues --   -2.19299  -2.19228  -2.19082  -2.18828  -1.13905
  Beta  occ. eigenvalues --   -1.13893  -1.13879  -1.13855  -1.13830  -1.13808
  Beta  occ. eigenvalues --   -1.13265  -1.13217  -1.13195  -1.13007  -1.12951
  Beta  occ. eigenvalues --   -1.12948  -1.12934  -1.12887  -1.12877  -1.12825
  Beta  occ. eigenvalues --   -1.12763  -1.12732  -1.12508  -1.12480  -1.12446
  Beta  occ. eigenvalues --   -0.18033  -0.13232  -0.12058
  Beta virt. eigenvalues --   -0.06740  -0.06045  -0.05281  -0.04189  -0.02600
  Beta virt. eigenvalues --   -0.02173  -0.01737  -0.01280  -0.01020  -0.00460
  Beta virt. eigenvalues --   -0.00148   0.00140   0.00376   0.00800   0.00862

 Mulliken charges and spin densities:
               1          2
     1  Na  -0.463564   0.538337
     2  Na   0.200050   0.033306
     3  Na   0.099660   0.031331
     4  Na   0.027045   0.077419
     5  Na   0.204179  -0.118132
     6  Na   0.193787  -0.050650
     7  Na  -0.261157   0.488388
 Sum of Mulliken charges =  -0.00000   1.00000

 Dipole moment (field-independent basis, Debye):
    X=              0.2768    Y=             -0.3158    Z=              0.0203  Tot=              0.4205
 Quadrupole moment (field-independent basis, Debye-Ang):
   XX=            -53.2792   YY=            -65.7851   ZZ=            -74.5034
   XY=             -0.4404   XZ=             -1.4523   YZ=              2.2313

 Normal termination of Gaussian 16 at Thu Dec  7 13:15:32 2023.
