 Gaussian 16, Revision B.01,
 Gaussian 16:  ES64L-G16RevB.01 20-Dec-2017

 -------------------------
 #P B3LYP/6-311+g(d) force
 -------------------------

 -----
 DPGEN
 -----
 Symbolic Z-matrix:
 Charge =  0 Multiplicity = 2

                         Standard orientation:
 ---------------------------------------------------------------------
 Center     Atomic      Atomic             Coordinates (Angstroms)
 Number     Number       Type             X           Y           Z
 ---------------------------------------------------------------------
      1         11           0       -0.729891   -3.042182    0.693136
      2         11           0        2.429481   -2.578322    0.479795
      3         11           0        2.182151    2.660606   -0.263791
      4         11           0       -0.657237    3.582982    1.204920
      5         11           0       -3.062279    1.250135   -0.913029
      6         11           0       -4.373924   -1.433821   -0.345956
      7         11           0        4.211699   -0.439398   -0.855075
 ---------------------------------------------------------------------

 SCF Done:  E(UB3LYP) =  -1136.11103016     A.U. after   20 cycles

 The electronic state is 2-A.
 Alpha  occ. eigenvalues --  -38.45104 -38.44893 -38.44710 -38.44264 -38.44032
 Alpha  occ. eigenvalues --  -38.43988 -38.43898  -2.20898  -2.20650  -2.20512
 Alpha  occ. eigenvalues --   -2.20081  -2.19872  -2.19823  -2.19692  -1.14580
 Alpha  occ. eigenvalues --   -1.14565  -1.14541  -1.14342  -1.14327  -1.14283
 Alpha  occ. eigenvalues --   -1.14179  -1.14163  -1.14123  -1.13750  -1.13728
 Alpha  occ. eigenvalues --   -1.13707  -1.13625  -1.13539  -1.13532  -1.13459
 Alpha  occ. eigenvalues --   -1.13444  -1.13413  -1.13349  -1.13337  -1.13330
 Alpha  occ. eigenvalues --   -0.15746  -0.14046  -0.13334  -0.11014
 Alpha virt. eigenvalues --   -0.07039  -0.05023  -0.04300  -0.03671  -0.03348
 Alpha virt. eigenvalues --   -0.02400  -0.02143  -0.01712  -0.01181  -0.00984
 Alpha virt. eigenvalues --   -0.00398  -0.00306   0.00005   0.00522   0.00713

  Beta  occ. eigenvalues --  -38.45083 -38.44893 -38.44631 -38.44239 -38.44023
  Beta  occ. eigenvalues --  -38.43926 -38.43862  -2.20863  -2.20653  -2.20370
  Beta  occ. eigenvalues --   -2.20036  -2.19864  -2.19706  -2.19625  -1.14555
  Beta  occ. eigenvalues --   -1.14544  -1.14499  -1.14347  -1.14334  -1.14254
  Beta  occ. eigenvalues --   -1.14081  -1.14069  -1.14018  -1.13711  -1.13699
  Beta  occ. eigenvalues --   -1.13677  -1.13573  -1.13533  -1.13524  -1.13380
  Beta  occ. eigenvalues --   -1.13364  -1.13348  -1.13303  -1.13291  -1.13286
  Beta  occ. eigenvalues --   -0.15178  -0.13418  -0.12594
  Beta virt. eigenvalues --   -0.07778  -0.07095  -0.04723  -0.03773  -0.03465
  Beta virt. eigenvalues --   -0.02914  -0.02196  -0.01906  -0.01637  -0.01015
  Beta virt. eigenvalues --   -0.00589  -0.00194  -0.00018   0.00202   0.00510

 Mulliken charges and spin densities:
               1          2
     1  Na   0.001651   0.420959
     2  Na  -0.281369  -0.161182
     3  Na  -0.264275   0.062262
     4  Na   0.183471   0.147161
     5  Na  -0.390486   0.107960
     6  Na   0.400190   0.140588
     7  Na   0.350820   0.282252
 Sum of Mulliken charges =  -0.00000   1.00000

 Dipole moment (field-independent basis, Debye):
    X=             -0.7513    Y=              0.0757    Z=             -0.0721  Tot=              0.7585
 Quadrupole moment (field-independent basis, Debye-Ang):
   XX=            -62.2807   YY=            -67.6363   ZZ=            -70.6997
   XY=              2.6572   XZ=             -2.5325   YZ=             -0.7894

 Normal termination of Gaussian 16 at Mon Dec  4 02:52:11 2023.
