 Gaussian 16, Revision B.01,
 Gaussian 16:  ES64L-G16RevB.01 20-Dec-2017

 -------------------------
 #P B3LYP/6-311+g(d) force
 -------------------------

 -----
 DPGEN
 -----
 Symbolic Z-matrix:
 Charge =  0 Multiplicity = 2

                         Standard orientation:
 ---------------------------------------------------------------------
 Center     Atomic      Atomic             Coordinates (Angstroms)
 Number     Number       Type             X           Y           Z
 ---------------------------------------------------------------------
      1         11           0       -0.245518    0.106446    2.183888
      2         11           0       -1.644657    1.151631   -1.680320
      3         11           0        4.736848   -1.020170    0.283944
      4         11           0        1.980743   -0.319492   -0.671576
      5         11           0       -1.504246   -2.555811   -1.179138
      6         11           0       -3.499473   -0.836787    1.143516
      7         11           0        0.176305    3.474183   -0.080314
 ---------------------------------------------------------------------

 SCF Done:  E(UB3LYP) =  -1136.11759206     A.U. after   21 cycles

 The electronic state is 2-A.
 Alpha  occ. eigenvalues --  -38.45228 -38.44711 -38.44460 -38.44156 -38.44096
 Alpha  occ. eigenvalues --  -38.43334 -38.43334  -2.21028  -2.20509  -2.20254
 Alpha  occ. eigenvalues --   -2.19948  -2.19926  -2.19183  -2.19115  -1.14696
 Alpha  occ. eigenvalues --   -1.14662  -1.14640  -1.14181  -1.14168  -1.14140
 Alpha  occ. eigenvalues --   -1.13916  -1.13912  -1.13873  -1.13655  -1.13616
 Alpha  occ. eigenvalues --   -1.13595  -1.13591  -1.13585  -1.13532  -1.12873
 Alpha  occ. eigenvalues --   -1.12848  -1.12800  -1.12783  -1.12781  -1.12755
 Alpha  occ. eigenvalues --   -0.17369  -0.12956  -0.11706  -0.11435
 Alpha virt. eigenvalues --   -0.06982  -0.05232  -0.04226  -0.03410  -0.02933
 Alpha virt. eigenvalues --   -0.02793  -0.02365  -0.01281  -0.01105  -0.00492
 Alpha virt. eigenvalues --   -0.00070   0.00002   0.00243   0.00588   0.00745

  Beta  occ. eigenvalues --  -38.45139 -38.44690 -38.44421 -38.44164 -38.44054
  Beta  occ. eigenvalues --  -38.43337 -38.43326  -2.20864  -2.20474  -2.20181
  Beta  occ. eigenvalues --   -2.19964  -2.19849  -2.19169  -2.19122  -1.14583
  Beta  occ. eigenvalues --   -1.14548  -1.14520  -1.14160  -1.14135  -1.14105
  Beta  occ. eigenvalues --   -1.13867  -1.13848  -1.13829  -1.13666  -1.13605
  Beta  occ. eigenvalues --   -1.13602  -1.13557  -1.13535  -1.13472  -1.12864
  Beta  occ. eigenvalues --   -1.12826  -1.12794  -1.12788  -1.12777  -1.12761
  Beta  occ. eigenvalues --   -0.16586  -0.12895  -0.11601
  Beta virt. eigenvalues --   -0.07448  -0.06718  -0.05054  -0.03853  -0.02998
  Beta virt. eigenvalues --   -0.02381  -0.02305  -0.02026  -0.01182  -0.00838
  Beta virt. eigenvalues --   -0.00395   0.00025   0.00155   0.00314   0.00662

 Mulliken charges and spin densities:
               1          2
     1  Na   0.142986   0.554033
     2  Na   1.054125   0.290988
     3  Na   0.160218  -0.037924
     4  Na  -1.298849   0.119069
     5  Na   0.135817   0.193856
     6  Na   0.038956   0.030670
     7  Na  -0.233253  -0.150692
 Sum of Mulliken charges =  -0.00000   1.00000

 Dipole moment (field-independent basis, Debye):
    X=             -0.6563    Y=             -0.1907    Z=              0.5238  Tot=              0.8611
 Quadrupole moment (field-independent basis, Debye-Ang):
   XX=            -56.6792   YY=            -68.3751   ZZ=            -70.3756
   XY=              0.5701   XZ=              2.2163   YZ=              1.9096

 Normal termination of Gaussian 16 at Sun Dec  3 22:43:04 2023.
