 Gaussian 16, Revision B.01,
 Gaussian 16:  ES64L-G16RevB.01 20-Dec-2017

 -------------------------
 #P B3LYP/6-311+g(d) force
 -------------------------

 -----
 DPGEN
 -----
 Symbolic Z-matrix:
 Charge =  0 Multiplicity = 2

                         Standard orientation:
 ---------------------------------------------------------------------
 Center     Atomic      Atomic             Coordinates (Angstroms)
 Number     Number       Type             X           Y           Z
 ---------------------------------------------------------------------
      1         11           0       -3.253407    0.225419   -0.552389
      2         11           0       -3.536750   -3.130087    0.178616
      3         11           0        3.582895   -1.461249    0.260716
      4         11           0       -2.204294    3.851049   -0.001785
      5         11           0        5.969483    0.391421   -0.367543
      6         11           0       -0.599967   -1.628679   -0.109475
      7         11           0        0.042040    1.752124    0.591860
 ---------------------------------------------------------------------

 SCF Done:  E(UB3LYP) =  -1136.12078257     A.U. after   19 cycles

 The electronic state is 2-A.
 Alpha  occ. eigenvalues --  -38.44893 -38.44358 -38.44351 -38.44081 -38.43745
 Alpha  occ. eigenvalues --  -38.43663 -38.43500  -2.20733  -2.20193  -2.20179
 Alpha  occ. eigenvalues --   -2.19900  -2.19637  -2.19480  -2.19287  -1.14451
 Alpha  occ. eigenvalues --   -1.14428  -1.14306  -1.13877  -1.13869  -1.13846
 Alpha  occ. eigenvalues --   -1.13836  -1.13836  -1.13805  -1.13555  -1.13553
 Alpha  occ. eigenvalues --   -1.13519  -1.13336  -1.13310  -1.13222  -1.13178
 Alpha  occ. eigenvalues --   -1.13115  -1.13114  -1.12963  -1.12946  -1.12912
 Alpha  occ. eigenvalues --   -0.17025  -0.13340  -0.13063  -0.10669
 Alpha virt. eigenvalues --   -0.06223  -0.05526  -0.04482  -0.03963  -0.02542
 Alpha virt. eigenvalues --   -0.02406  -0.02089  -0.01706  -0.01145  -0.00968
 Alpha virt. eigenvalues --   -0.00304  -0.00049   0.00330   0.00404   0.00609

  Beta  occ. eigenvalues --  -38.44868 -38.44339 -38.44325 -38.44065 -38.43693
  Beta  occ. eigenvalues --  -38.43600 -38.43509  -2.20690  -2.20147  -2.20143
  Beta  occ. eigenvalues --   -2.19868  -2.19543  -2.19362  -2.19310  -1.14412
  Beta  occ. eigenvalues --   -1.14400  -1.14270  -1.13844  -1.13834  -1.13817
  Beta  occ. eigenvalues --   -1.13812  -1.13796  -1.13780  -1.13531  -1.13530
  Beta  occ. eigenvalues --   -1.13497  -1.13275  -1.13249  -1.13131  -1.13117
  Beta  occ. eigenvalues --   -1.13037  -1.13034  -1.12983  -1.12960  -1.12875
  Beta  occ. eigenvalues --   -0.16411  -0.12940  -0.12657
  Beta virt. eigenvalues --   -0.07274  -0.06058  -0.05044  -0.04112  -0.03645
  Beta virt. eigenvalues --   -0.02308  -0.02168  -0.01942  -0.01579  -0.00902
  Beta virt. eigenvalues --   -0.00532   0.00001   0.00115   0.00426   0.00550

 Mulliken charges and spin densities:
               1          2
     1  Na  -0.236187   0.320540
     2  Na   1.379566   0.210642
     3  Na  -0.733085  -0.161400
     4  Na   0.997967   0.143356
     5  Na   0.332014   0.318001
     6  Na  -0.860863   0.151633
     7  Na  -0.879412   0.017226
 Sum of Mulliken charges =  -0.00000   1.00000

 Dipole moment (field-independent basis, Debye):
    X=             -2.0703    Y=              0.2940    Z=              0.0813  Tot=              2.0927
 Quadrupole moment (field-independent basis, Debye-Ang):
   XX=            -68.3577   YY=            -56.0344   ZZ=            -72.6327
   XY=              5.9756   XZ=             -0.4699   YZ=             -1.8622

 Normal termination of Gaussian 16 at Tue Nov 28 21:57:08 2023.
