 Gaussian 16, Revision B.01,
 Gaussian 16:  ES64L-G16RevB.01 20-Dec-2017

 -------------------------
 #P B3LYP/6-311+g(d) force
 -------------------------

 -----
 DPGEN
 -----
 Symbolic Z-matrix:
 Charge =  0 Multiplicity = 2

                         Standard orientation:
 ---------------------------------------------------------------------
 Center     Atomic      Atomic             Coordinates (Angstroms)
 Number     Number       Type             X           Y           Z
 ---------------------------------------------------------------------
      1         11           0        0.121716   -3.009779   -0.132916
      2         11           0        1.959125    2.312500   -0.150959
      3         11           0       -0.318466    0.028780   -1.372141
      4         11           0       -3.276494   -0.849043   -0.216389
      5         11           0        3.355526   -0.906830   -0.030533
      6         11           0       -1.499663    2.647380    0.070197
      7         11           0       -0.341743   -0.223008    1.832740
 ---------------------------------------------------------------------

 SCF Done:  E(UB3LYP) =  -1136.13340767     A.U. after   21 cycles

 The electronic state is 2-A.
 Alpha  occ. eigenvalues --  -38.44583 -38.44380 -38.43855 -38.43656 -38.43598
 Alpha  occ. eigenvalues --  -38.42908 -38.42902  -2.20392  -2.20149  -2.19680
 Alpha  occ. eigenvalues --   -2.19512  -2.19431  -2.18923  -2.18840  -1.14072
 Alpha  occ. eigenvalues --   -1.14046  -1.14025  -1.13825  -1.13811  -1.13788
 Alpha  occ. eigenvalues --   -1.13377  -1.13355  -1.13293  -1.13216  -1.13174
 Alpha  occ. eigenvalues --   -1.13147  -1.13112  -1.13093  -1.13056  -1.12672
 Alpha  occ. eigenvalues --   -1.12559  -1.12536  -1.12505  -1.12449  -1.12446
 Alpha  occ. eigenvalues --   -0.18476  -0.12924  -0.12596  -0.09969
 Alpha virt. eigenvalues --   -0.06203  -0.05293  -0.04944  -0.02767  -0.02653
 Alpha virt. eigenvalues --   -0.01981  -0.01902  -0.01347  -0.00803  -0.00551
 Alpha virt. eigenvalues --    0.00012   0.00292   0.00751   0.00765   0.00830

  Beta  occ. eigenvalues --  -38.44572 -38.44382 -38.43849 -38.43649 -38.43595
  Beta  occ. eigenvalues --  -38.42852 -38.42814  -2.20375  -2.20154  -2.19672
  Beta  occ. eigenvalues --   -2.19504  -2.19427  -2.18833  -2.18668  -1.14050
  Beta  occ. eigenvalues --   -1.14020  -1.14016  -1.13822  -1.13812  -1.13792
  Beta  occ. eigenvalues --   -1.13372  -1.13324  -1.13291  -1.13210  -1.13147
  Beta  occ. eigenvalues --   -1.13139  -1.13105  -1.13078  -1.13055  -1.12589
  Beta  occ. eigenvalues --   -1.12496  -1.12468  -1.12395  -1.12328  -1.12323
  Beta  occ. eigenvalues --   -0.17784  -0.12703  -0.12362
  Beta virt. eigenvalues --   -0.06212  -0.06046  -0.05290  -0.04903  -0.02103
  Beta virt. eigenvalues --   -0.01902  -0.01889  -0.01282  -0.00904  -0.00835
  Beta virt. eigenvalues --   -0.00593   0.00171   0.00352   0.00765   0.00802

 Mulliken charges and spin densities:
               1          2
     1  Na   0.099468  -0.094810
     2  Na   0.060401  -0.039500
     3  Na  -0.501970   0.504533
     4  Na   0.321535  -0.047207
     5  Na  -0.015829  -0.047590
     6  Na   0.325334  -0.011153
     7  Na  -0.288938   0.735727
 Sum of Mulliken charges =  -0.00000   1.00000

 Dipole moment (field-independent basis, Debye):
    X=             -0.2283    Y=             -0.2379    Z=              0.1329  Tot=              0.3555
 Quadrupole moment (field-independent basis, Debye-Ang):
   XX=            -51.9870   YY=            -59.6577   ZZ=            -78.5784
   XY=             -0.4124   XZ=              0.0240   YZ=              0.6122

 Normal termination of Gaussian 16 at Thu Dec  7 10:20:39 2023.
