 Gaussian 16, Revision B.01,
 Gaussian 16:  ES64L-G16RevB.01 20-Dec-2017

 -------------------------
 #P B3LYP/6-311+g(d) force
 -------------------------

 -----
 DPGEN
 -----
 Symbolic Z-matrix:
 Charge =  0 Multiplicity = 2

                         Standard orientation:
 ---------------------------------------------------------------------
 Center     Atomic      Atomic             Coordinates (Angstroms)
 Number     Number       Type             X           Y           Z
 ---------------------------------------------------------------------
      1         11           0        1.748745    0.608057    1.424743
      2         11           0       -2.205095    2.291102    0.916691
      3         11           0       -3.134573   -1.480093   -0.980407
      4         11           0       -0.688526    0.013508   -0.334389
      5         11           0        1.632645    1.812517   -1.404205
      6         11           0        2.063293   -1.153582   -1.149668
      7         11           0        0.583511   -2.091509    1.527235
 ---------------------------------------------------------------------

 SCF Done:  E(UB3LYP) =  -1136.10711673     A.U. after   22 cycles

 The electronic state is 2-A.
 Alpha  occ. eigenvalues --  -38.44591 -38.44478 -38.43981 -38.43958 -38.43216
 Alpha  occ. eigenvalues --  -38.43037 -38.42257  -2.20402  -2.20278  -2.20047
 Alpha  occ. eigenvalues --   -2.19984  -2.19179  -2.19002  -2.18503  -1.14121
 Alpha  occ. eigenvalues --   -1.14032  -1.14005  -1.13985  -1.13925  -1.13882
 Alpha  occ. eigenvalues --   -1.13829  -1.13746  -1.13683  -1.13672  -1.13609
 Alpha  occ. eigenvalues --   -1.13562  -1.12884  -1.12823  -1.12783  -1.12727
 Alpha  occ. eigenvalues --   -1.12631  -1.12606  -1.12220  -1.12177  -1.12103
 Alpha  occ. eigenvalues --   -0.19399  -0.13199  -0.11958  -0.11462
 Alpha virt. eigenvalues --   -0.05742  -0.05210  -0.03765  -0.03082  -0.02882
 Alpha virt. eigenvalues --   -0.02445  -0.01458  -0.01056  -0.00515   0.00205
 Alpha virt. eigenvalues --    0.00359   0.00470   0.00634   0.00742   0.00834

  Beta  occ. eigenvalues --  -38.44557 -38.44454 -38.43931 -38.43920 -38.43194
  Beta  occ. eigenvalues --  -38.43010 -38.42233  -2.20339  -2.20233  -2.19957
  Beta  occ. eigenvalues --   -2.19916  -2.19142  -2.18956  -2.18469  -1.14076
  Beta  occ. eigenvalues --   -1.13989  -1.13964  -1.13954  -1.13891  -1.13849
  Beta  occ. eigenvalues --   -1.13782  -1.13670  -1.13623  -1.13605  -1.13554
  Beta  occ. eigenvalues --   -1.13501  -1.12858  -1.12798  -1.12738  -1.12695
  Beta  occ. eigenvalues --   -1.12586  -1.12571  -1.12177  -1.12104  -1.12091
  Beta  occ. eigenvalues --   -0.18672  -0.12880  -0.11636
  Beta virt. eigenvalues --   -0.07627  -0.05316  -0.04978  -0.03703  -0.02716
  Beta virt. eigenvalues --   -0.02402  -0.01567  -0.01298  -0.00845  -0.00250
  Beta virt. eigenvalues --    0.00290   0.00399   0.00507   0.00737   0.00831

 Mulliken charges and spin densities:
               1          2
     1  Na   0.993356   0.638038
     2  Na   0.415088   0.012224
     3  Na   0.260703  -0.331124
     4  Na  -2.340441   0.652901
     5  Na   0.796095   0.201774
     6  Na  -0.035322  -0.106553
     7  Na  -0.089479  -0.067261
 Sum of Mulliken charges =  -0.00000   1.00000

 Dipole moment (field-independent basis, Debye):
    X=             -0.2954    Y=              0.0614    Z=              0.0983  Tot=              0.3174
 Quadrupole moment (field-independent basis, Debye-Ang):
   XX=            -58.6657   YY=            -65.4606   ZZ=            -66.7560
   XY=             -0.0042   XZ=             -0.7451   YZ=              3.0981

 Normal termination of Gaussian 16 at Thu Dec  7 14:04:11 2023.
