 Gaussian 16, Revision B.01,
 Gaussian 16:  ES64L-G16RevB.01 20-Dec-2017

 -------------------------
 #P B3LYP/6-311+g(d) force
 -------------------------

 -----
 DPGEN
 -----
 Symbolic Z-matrix:
 Charge =  0 Multiplicity = 2

                         Standard orientation:
 ---------------------------------------------------------------------
 Center     Atomic      Atomic             Coordinates (Angstroms)
 Number     Number       Type             X           Y           Z
 ---------------------------------------------------------------------
      1         11           0        2.126889    1.594940   -0.059674
      2         11           0       -1.522069    0.570721    1.137814
      3         11           0       -1.776339   -2.602976   -0.546989
      4         11           0        1.225453   -2.048793    0.560757
      5         11           0        4.918438   -0.746743   -0.355810
      6         11           0       -4.598526   -0.057933   -0.396426
      7         11           0       -0.373846    3.290785   -0.339671
 ---------------------------------------------------------------------

 SCF Done:  E(UB3LYP) =  -1136.12559824     A.U. after   19 cycles

 The electronic state is 2-A.
 Alpha  occ. eigenvalues --  -38.44411 -38.44301 -38.44278 -38.44013 -38.43842
 Alpha  occ. eigenvalues --  -38.43624 -38.43549  -2.20262  -2.20122  -2.20087
 Alpha  occ. eigenvalues --   -2.19801  -2.19691  -2.19450  -2.19404  -1.13968
 Alpha  occ. eigenvalues --   -1.13949  -1.13885  -1.13803  -1.13792  -1.13752
 Alpha  occ. eigenvalues --   -1.13735  -1.13724  -1.13692  -1.13454  -1.13452
 Alpha  occ. eigenvalues --   -1.13413  -1.13396  -1.13373  -1.13352  -1.13140
 Alpha  occ. eigenvalues --   -1.13130  -1.13057  -1.13054  -1.13047  -1.13031
 Alpha  occ. eigenvalues --   -0.17054  -0.13773  -0.12679  -0.10943
 Alpha virt. eigenvalues --   -0.06223  -0.05068  -0.04634  -0.03960  -0.02709
 Alpha virt. eigenvalues --   -0.02131  -0.01864  -0.01586  -0.00895  -0.00782
 Alpha virt. eigenvalues --   -0.00502  -0.00148   0.00540   0.00588   0.00647

  Beta  occ. eigenvalues --  -38.44407 -38.44284 -38.44189 -38.43937 -38.43840
  Beta  occ. eigenvalues --  -38.43597 -38.43551  -2.20258  -2.20097  -2.19920
  Beta  occ. eigenvalues --   -2.19690  -2.19659  -2.19408  -2.19406  -1.13968
  Beta  occ. eigenvalues --   -1.13922  -1.13879  -1.13787  -1.13765  -1.13716
  Beta  occ. eigenvalues --   -1.13621  -1.13610  -1.13587  -1.13401  -1.13372
  Beta  occ. eigenvalues --   -1.13358  -1.13355  -1.13339  -1.13311  -1.13113
  Beta  occ. eigenvalues --   -1.13100  -1.13058  -1.13050  -1.13028  -1.13001
  Beta  occ. eigenvalues --   -0.16620  -0.13044  -0.12214
  Beta virt. eigenvalues --   -0.07523  -0.06140  -0.04857  -0.04043  -0.03759
  Beta virt. eigenvalues --   -0.02459  -0.01924  -0.01368  -0.01074  -0.00740
  Beta virt. eigenvalues --   -0.00690  -0.00268   0.00113   0.00635   0.00692

 Mulliken charges and spin densities:
               1          2
     1  Na  -0.880081   0.068121
     2  Na  -0.125884   0.081220
     3  Na   0.003649   0.018617
     4  Na  -0.174143   0.024273
     5  Na   0.589328   0.396307
     6  Na   0.133953   0.455989
     7  Na   0.453179  -0.044527
 Sum of Mulliken charges =  -0.00000   1.00000

 Dipole moment (field-independent basis, Debye):
    X=             -0.7041    Y=             -0.1163    Z=             -0.4295  Tot=              0.8329
 Quadrupole moment (field-independent basis, Debye-Ang):
   XX=            -64.4573   YY=            -65.3526   ZZ=            -68.7572
   XY=             -0.6117   XZ=              1.3493   YZ=              0.1429

 Normal termination of Gaussian 16 at Wed Nov 29 01:21:28 2023.
