 Gaussian 16, Revision B.01,
 Gaussian 16:  ES64L-G16RevB.01 20-Dec-2017

 -------------------------
 #P B3LYP/6-311+g(d) force
 -------------------------

 -----
 DPGEN
 -----
 Symbolic Z-matrix:
 Charge =  0 Multiplicity = 2

                         Standard orientation:
 ---------------------------------------------------------------------
 Center     Atomic      Atomic             Coordinates (Angstroms)
 Number     Number       Type             X           Y           Z
 ---------------------------------------------------------------------
      1         11           0       -1.389701   -1.850055   -0.367500
      2         11           0        0.624718   -0.297952    1.585812
      3         11           0        1.103977    3.413112   -0.192436
      4         11           0       -1.790746    1.860606   -0.613164
      5         11           0       -4.225149   -0.511063    0.254438
      6         11           0        3.753448    0.026678   -0.015689
      7         11           0        1.923452   -2.641326   -0.651459
 ---------------------------------------------------------------------

 SCF Done:  E(UB3LYP) =  -1136.12352134     A.U. after   21 cycles

 The electronic state is 2-A.
 Alpha  occ. eigenvalues --  -38.45191 -38.44362 -38.44024 -38.43698 -38.43538
 Alpha  occ. eigenvalues --  -38.43408 -38.43382  -2.21051  -2.20209  -2.19853
 Alpha  occ. eigenvalues --   -2.19479  -2.19385  -2.19303  -2.19263  -1.14754
 Alpha  occ. eigenvalues --   -1.14711  -1.14656  -1.13891  -1.13874  -1.13853
 Alpha  occ. eigenvalues --   -1.13558  -1.13534  -1.13474  -1.13154  -1.13135
 Alpha  occ. eigenvalues --   -1.13116  -1.13044  -1.13022  -1.13010  -1.13000
 Alpha  occ. eigenvalues --   -1.13000  -1.12960  -1.12902  -1.12898  -1.12837
 Alpha  occ. eigenvalues --   -0.17661  -0.14007  -0.12589  -0.09986
 Alpha virt. eigenvalues --   -0.06879  -0.05494  -0.04724  -0.03096  -0.02953
 Alpha virt. eigenvalues --   -0.02406  -0.01775  -0.01220  -0.01023  -0.00816
 Alpha virt. eigenvalues --   -0.00115  -0.00041   0.00454   0.00515   0.00756

  Beta  occ. eigenvalues --  -38.45162 -38.44352 -38.44019 -38.43698 -38.43456
  Beta  occ. eigenvalues --  -38.43359 -38.43344  -2.21001  -2.20198  -2.19847
  Beta  occ. eigenvalues --   -2.19482  -2.19269  -2.19233  -2.19143  -1.14707
  Beta  occ. eigenvalues --   -1.14678  -1.14619  -1.13890  -1.13865  -1.13801
  Beta  occ. eigenvalues --   -1.13556  -1.13528  -1.13454  -1.13157  -1.13130
  Beta  occ. eigenvalues --   -1.13118  -1.12985  -1.12962  -1.12939  -1.12925
  Beta  occ. eigenvalues --   -1.12911  -1.12891  -1.12819  -1.12814  -1.12772
  Beta  occ. eigenvalues --   -0.17152  -0.13274  -0.12326
  Beta virt. eigenvalues --   -0.06742  -0.06486  -0.05389  -0.04471  -0.02746
  Beta virt. eigenvalues --   -0.02356  -0.02275  -0.01322  -0.01040  -0.00827
  Beta virt. eigenvalues --   -0.00704   0.00161   0.00233   0.00601   0.00681

 Mulliken charges and spin densities:
               1          2
     1  Na  -0.818346  -0.015631
     2  Na   0.284762   0.009612
     3  Na   0.043509  -0.049431
     4  Na  -0.342861   0.046912
     5  Na   0.843284   0.403156
     6  Na  -0.115516   0.575491
     7  Na   0.105169   0.029891
 Sum of Mulliken charges =  -0.00000   1.00000

 Dipole moment (field-independent basis, Debye):
    X=              0.1248    Y=             -0.3821    Z=              0.2505  Tot=              0.4736
 Quadrupole moment (field-independent basis, Debye-Ang):
   XX=            -75.5391   YY=            -64.4787   ZZ=            -65.1383
   XY=              0.9282   XZ=             -1.2355   YZ=              1.3925

 Normal termination of Gaussian 16 at Wed Nov 29 00:46:03 2023.
