 Gaussian 16, Revision B.01,
 Gaussian 16:  ES64L-G16RevB.01 20-Dec-2017

 -------------------------
 #P B3LYP/6-311+g(d) force
 -------------------------

 -----
 DPGEN
 -----
 Symbolic Z-matrix:
 Charge =  0 Multiplicity = 2

                         Standard orientation:
 ---------------------------------------------------------------------
 Center     Atomic      Atomic             Coordinates (Angstroms)
 Number     Number       Type             X           Y           Z
 ---------------------------------------------------------------------
      1         11           0       -0.022389    0.166694    1.970257
      2         11           0        0.892736    2.772840   -0.443442
      3         11           0        3.019862    0.307462    0.258887
      4         11           0        1.593499   -2.520932   -0.173234
      5         11           0       -2.541237   -1.880773    0.274225
      6         11           0       -0.318993   -0.491740   -1.873995
      7         11           0       -2.623478    1.646449   -0.012699
 ---------------------------------------------------------------------

 SCF Done:  E(UB3LYP) =  -1136.13796524     A.U. after   19 cycles

 The electronic state is 2-A.
 Alpha  occ. eigenvalues --  -38.44034 -38.44027 -38.43794 -38.43718 -38.43492
 Alpha  occ. eigenvalues --  -38.43458 -38.43206  -2.19854  -2.19847  -2.19664
 Alpha  occ. eigenvalues --   -2.19606  -2.19403  -2.19314  -2.19040  -1.13538
 Alpha  occ. eigenvalues --   -1.13533  -1.13520  -1.13508  -1.13499  -1.13462
 Alpha  occ. eigenvalues --   -1.13352  -1.13329  -1.13323  -1.13273  -1.13234
 Alpha  occ. eigenvalues --   -1.13223  -1.13098  -1.13051  -1.13030  -1.12966
 Alpha  occ. eigenvalues --   -1.12964  -1.12940  -1.12713  -1.12699  -1.12682
 Alpha  occ. eigenvalues --   -0.18493  -0.13193  -0.12227  -0.10866
 Alpha virt. eigenvalues --   -0.05572  -0.05487  -0.04484  -0.03390  -0.02979
 Alpha virt. eigenvalues --   -0.02630  -0.01481  -0.01157  -0.00406  -0.00262
 Alpha virt. eigenvalues --   -0.00028   0.00384   0.00761   0.00841   0.00911

  Beta  occ. eigenvalues --  -38.44030 -38.44022 -38.43790 -38.43636 -38.43454
  Beta  occ. eigenvalues --  -38.43417 -38.43197  -2.19851  -2.19840  -2.19659
  Beta  occ. eigenvalues --   -2.19456  -2.19309  -2.19266  -2.19027  -1.13536
  Beta  occ. eigenvalues --   -1.13514  -1.13504  -1.13496  -1.13491  -1.13460
  Beta  occ. eigenvalues --   -1.13346  -1.13327  -1.13298  -1.13176  -1.13129
  Beta  occ. eigenvalues --   -1.13115  -1.13034  -1.12967  -1.12956  -1.12944
  Beta  occ. eigenvalues --   -1.12930  -1.12898  -1.12704  -1.12679  -1.12670
  Beta  occ. eigenvalues --   -0.17756  -0.12973  -0.11995
  Beta virt. eigenvalues --   -0.06993  -0.05593  -0.05384  -0.04398  -0.02608
  Beta virt. eigenvalues --   -0.02222  -0.01620  -0.01382  -0.01089  -0.00448
  Beta virt. eigenvalues --   -0.00299   0.00111   0.00407   0.00837   0.00851

 Mulliken charges and spin densities:
               1          2
     1  Na  -0.223351   0.630362
     2  Na  -0.065128  -0.021962
     3  Na   0.121724   0.028807
     4  Na   0.164995  -0.115992
     5  Na   0.098284  -0.121401
     6  Na  -0.164516   0.657518
     7  Na   0.067993  -0.057332
 Sum of Mulliken charges =  -0.00000   1.00000

 Dipole moment (field-independent basis, Debye):
    X=             -0.4067    Y=             -0.1191    Z=              0.1128  Tot=              0.4386
 Quadrupole moment (field-independent basis, Debye-Ang):
   XX=            -57.0374   YY=            -64.0568   ZZ=            -73.3507
   XY=              0.0641   XZ=             -0.3700   YZ=             -1.5079

 Normal termination of Gaussian 16 at Tue Dec  5 20:36:10 2023.
