 Gaussian 16, Revision B.01,
 Gaussian 16:  ES64L-G16RevB.01 20-Dec-2017

 -------------------------
 #P B3LYP/6-311+g(d) force
 -------------------------

 -----
 DPGEN
 -----
 Symbolic Z-matrix:
 Charge =  0 Multiplicity = 2

                         Standard orientation:
 ---------------------------------------------------------------------
 Center     Atomic      Atomic             Coordinates (Angstroms)
 Number     Number       Type             X           Y           Z
 ---------------------------------------------------------------------
      1         11           0        3.760750   -1.593815   -0.248094
      2         11           0       -0.656185    2.301586    0.039995
      3         11           0        0.917646   -0.604104    1.940407
      4         11           0       -5.115833   -0.246145   -0.589418
      5         11           0       -2.698690   -0.641039    0.875492
      6         11           0        3.389154    1.591923   -0.221132
      7         11           0        0.403158   -0.808405   -1.797250
 ---------------------------------------------------------------------

 SCF Done:  E(UB3LYP) =  -1136.10420664     A.U. after   30 cycles

 The electronic state is 2-A.
 Alpha  occ. eigenvalues --  -38.48287 -38.45315 -38.44340 -38.43285 -38.43280
 Alpha  occ. eigenvalues --  -38.43132 -38.43053  -2.24011  -2.21132  -2.20192
 Alpha  occ. eigenvalues --   -2.19176  -2.19124  -2.18938  -2.18892  -1.17709
 Alpha  occ. eigenvalues --   -1.17656  -1.17633  -1.14814  -1.14779  -1.14741
 Alpha  occ. eigenvalues --   -1.13867  -1.13835  -1.13791  -1.12986  -1.12849
 Alpha  occ. eigenvalues --   -1.12812  -1.12807  -1.12780  -1.12771  -1.12623
 Alpha  occ. eigenvalues --   -1.12585  -1.12576  -1.12520  -1.12515  -1.12498
 Alpha  occ. eigenvalues --   -0.17841  -0.13953  -0.11029  -0.10696
 Alpha virt. eigenvalues --   -0.08335  -0.05123  -0.04606  -0.03425  -0.03157
 Alpha virt. eigenvalues --   -0.02603  -0.02211  -0.01594  -0.01459  -0.00601
 Alpha virt. eigenvalues --   -0.00441   0.00051   0.00083   0.00468   0.00605

  Beta  occ. eigenvalues --  -38.48285 -38.45262 -38.44257 -38.43281 -38.43273
  Beta  occ. eigenvalues --  -38.43121 -38.43039  -2.24010  -2.21033  -2.20039
  Beta  occ. eigenvalues --   -2.19168  -2.19119  -2.18918  -2.18864  -1.17681
  Beta  occ. eigenvalues --   -1.17660  -1.17639  -1.14742  -1.14714  -1.14669
  Beta  occ. eigenvalues --   -1.13753  -1.13730  -1.13684  -1.12951  -1.12847
  Beta  occ. eigenvalues --   -1.12816  -1.12803  -1.12775  -1.12752  -1.12606
  Beta  occ. eigenvalues --   -1.12565  -1.12562  -1.12500  -1.12496  -1.12477
  Beta  occ. eigenvalues --   -0.17202  -0.13701  -0.10525
  Beta virt. eigenvalues --   -0.08156  -0.07277  -0.04797  -0.04142  -0.03337
  Beta virt. eigenvalues --   -0.02863  -0.02107  -0.01622  -0.01304  -0.01167
  Beta virt. eigenvalues --   -0.00545  -0.00305   0.00094   0.00247   0.00578

 Mulliken charges and spin densities:
               1          2
     1  Na   0.444496   0.013837
     2  Na  -0.173948   0.107299
     3  Na  -0.249308   0.371571
     4  Na   0.856090   0.159043
     5  Na  -0.862410  -0.052260
     6  Na   0.076851   0.298544
     7  Na  -0.091771   0.101967
 Sum of Mulliken charges =  -0.00000   1.00000

 Dipole moment (field-independent basis, Debye):
    X=              1.8647    Y=              0.4131    Z=             -0.8131  Tot=              2.0758
 Quadrupole moment (field-independent basis, Debye-Ang):
   XX=            -75.5648   YY=            -72.1216   ZZ=            -63.3553
   XY=             -0.7919   XZ=              4.4182   YZ=              3.0605

 Normal termination of Gaussian 16 at Thu Dec  7 13:14:30 2023.
