 Gaussian 16, Revision B.01,
 Gaussian 16:  ES64L-G16RevB.01 20-Dec-2017

 -------------------------
 #P B3LYP/6-311+g(d) force
 -------------------------

 -----
 DPGEN
 -----
 Symbolic Z-matrix:
 Charge =  0 Multiplicity = 2

                         Standard orientation:
 ---------------------------------------------------------------------
 Center     Atomic      Atomic             Coordinates (Angstroms)
 Number     Number       Type             X           Y           Z
 ---------------------------------------------------------------------
      1         11           0        3.072868   -0.951119   -0.178048
      2         11           0       -3.372630    2.177044   -0.375882
      3         11           0        2.679691    2.572653   -0.111750
      4         11           0       -0.140068    0.287744   -1.417867
      5         11           0        0.234330   -2.710683   -0.622004
      6         11           0        0.251874    0.099575    2.317551
      7         11           0       -2.726064   -1.475215    0.387999
 ---------------------------------------------------------------------

 SCF Done:  E(UB3LYP) =  -1136.12346964     A.U. after   23 cycles

 The electronic state is 2-A.
 Alpha  occ. eigenvalues --  -38.44539 -38.44470 -38.44283 -38.44273 -38.44271
 Alpha  occ. eigenvalues --  -38.43963 -38.42689  -2.20364  -2.20284  -2.20088
 Alpha  occ. eigenvalues --   -2.20032  -2.20026  -2.19859  -2.18589  -1.14041
 Alpha  occ. eigenvalues --   -1.14034  -1.13995  -1.13964  -1.13957  -1.13911
 Alpha  occ. eigenvalues --   -1.13742  -1.13720  -1.13703  -1.13698  -1.13697
 Alpha  occ. eigenvalues --   -1.13691  -1.13691  -1.13671  -1.13656  -1.13567
 Alpha  occ. eigenvalues --   -1.13529  -1.13460  -1.12289  -1.12236  -1.12222
 Alpha  occ. eigenvalues --   -0.17937  -0.13225  -0.11661  -0.10716
 Alpha virt. eigenvalues --   -0.06508  -0.06005  -0.04215  -0.03296  -0.02797
 Alpha virt. eigenvalues --   -0.02405  -0.02058  -0.01617  -0.01007  -0.00340
 Alpha virt. eigenvalues --   -0.00111   0.00223   0.00534   0.00592   0.00675

  Beta  occ. eigenvalues --  -38.44532 -38.44464 -38.44277 -38.44276 -38.44159
  Beta  occ. eigenvalues --  -38.43923 -38.42677  -2.20355  -2.20276  -2.20042
  Beta  occ. eigenvalues --   -2.20015  -2.19876  -2.19787  -2.18571  -1.14031
  Beta  occ. eigenvalues --   -1.14016  -1.13989  -1.13959  -1.13935  -1.13905
  Beta  occ. eigenvalues --   -1.13707  -1.13698  -1.13685  -1.13684  -1.13679
  Beta  occ. eigenvalues --   -1.13650  -1.13601  -1.13577  -1.13539  -1.13515
  Beta  occ. eigenvalues --   -1.13470  -1.13408  -1.12273  -1.12227  -1.12190
  Beta  occ. eigenvalues --   -0.17242  -0.13083  -0.11456
  Beta virt. eigenvalues --   -0.06831  -0.06379  -0.05825  -0.04165  -0.02664
  Beta virt. eigenvalues --   -0.02005  -0.01895  -0.01748  -0.01352  -0.01023
  Beta virt. eigenvalues --   -0.00314   0.00071   0.00276   0.00608   0.00679

 Mulliken charges and spin densities:
               1          2
     1  Na   0.275584   0.043140
     2  Na   0.010630   0.033289
     3  Na   0.014607  -0.018164
     4  Na  -0.344285   0.152720
     5  Na   0.162278   0.060709
     6  Na  -0.392764   0.636999
     7  Na   0.273950   0.091308
 Sum of Mulliken charges =  -0.00000   1.00000

 Dipole moment (field-independent basis, Debye):
    X=              0.2140    Y=              0.1421    Z=              0.2317  Tot=              0.3460
 Quadrupole moment (field-independent basis, Debye-Ang):
   XX=            -55.1490   YY=            -63.8333   ZZ=            -75.4390
   XY=              0.8918   XZ=             -1.0824   YZ=             -0.5688

 Normal termination of Gaussian 16 at Thu Dec  7 17:09:33 2023.
