 Gaussian 16, Revision B.01,
 Gaussian 16:  ES64L-G16RevB.01 20-Dec-2017

 -------------------------
 #P B3LYP/6-311+g(d) force
 -------------------------

 -----
 DPGEN
 -----
 Symbolic Z-matrix:
 Charge =  0 Multiplicity = 2

                         Standard orientation:
 ---------------------------------------------------------------------
 Center     Atomic      Atomic             Coordinates (Angstroms)
 Number     Number       Type             X           Y           Z
 ---------------------------------------------------------------------
      1         11           0       -3.149784   -0.407554   -0.082196
      2         11           0       -1.411707    2.757316   -0.097888
      3         11           0        0.275031    0.083480    2.005392
      4         11           0        0.018550    0.092899   -1.759044
      5         11           0        2.454925    1.771252    0.123831
      6         11           0       -0.773940   -2.782875    0.216681
      7         11           0        2.586924   -1.514517   -0.406777
 ---------------------------------------------------------------------

 SCF Done:  E(UB3LYP) =  -1136.13987476     A.U. after   19 cycles

 The electronic state is 2-A.
 Alpha  occ. eigenvalues --  -38.44058 -38.43809 -38.43678 -38.43610 -38.43530
 Alpha  occ. eigenvalues --  -38.43360 -38.43134  -2.19876  -2.19667  -2.19545
 Alpha  occ. eigenvalues --   -2.19508  -2.19340  -2.19305  -2.18987  -1.13553
 Alpha  occ. eigenvalues --   -1.13540  -1.13518  -1.13367  -1.13341  -1.13306
 Alpha  occ. eigenvalues --   -1.13234  -1.13199  -1.13172  -1.13169  -1.13132
 Alpha  occ. eigenvalues --   -1.13126  -1.13033  -1.13007  -1.12980  -1.12974
 Alpha  occ. eigenvalues --   -1.12932  -1.12921  -1.12661  -1.12652  -1.12625
 Alpha  occ. eigenvalues --   -0.18614  -0.13097  -0.12314  -0.10838
 Alpha virt. eigenvalues --   -0.05610  -0.05227  -0.04636  -0.03262  -0.02883
 Alpha virt. eigenvalues --   -0.02643  -0.01483  -0.01132  -0.00410  -0.00309
 Alpha virt. eigenvalues --   -0.00014   0.00367   0.00798   0.00867   0.00906

  Beta  occ. eigenvalues --  -38.44058 -38.43802 -38.43666 -38.43528 -38.43518
  Beta  occ. eigenvalues --  -38.43290 -38.43129  -2.19878  -2.19658  -2.19527
  Beta  occ. eigenvalues --   -2.19343  -2.19337  -2.19178  -2.18980  -1.13548
  Beta  occ. eigenvalues --   -1.13533  -1.13519  -1.13359  -1.13305  -1.13303
  Beta  occ. eigenvalues --   -1.13211  -1.13165  -1.13163  -1.13063  -1.13021
  Beta  occ. eigenvalues --   -1.13012  -1.13010  -1.12994  -1.12973  -1.12898
  Beta  occ. eigenvalues --   -1.12844  -1.12827  -1.12656  -1.12630  -1.12619
  Beta  occ. eigenvalues --   -0.17873  -0.12865  -0.12074
  Beta virt. eigenvalues --   -0.06919  -0.05584  -0.05201  -0.04596  -0.02474
  Beta virt. eigenvalues --   -0.02114  -0.01593  -0.01389  -0.01054  -0.00469
  Beta virt. eigenvalues --   -0.00348   0.00119   0.00391   0.00854   0.00868

 Mulliken charges and spin densities:
               1          2
     1  Na  -0.008497  -0.093222
     2  Na  -0.003059  -0.140186
     3  Na  -0.350584   0.756626
     4  Na  -0.146084   0.572712
     5  Na   0.217086  -0.070312
     6  Na   0.063373  -0.044030
     7  Na   0.227765   0.018413
 Sum of Mulliken charges =  -0.00000   1.00000

 Dipole moment (field-independent basis, Debye):
    X=             -0.0080    Y=              0.1554    Z=              0.0549  Tot=              0.1650
 Quadrupole moment (field-independent basis, Debye-Ang):
   XX=            -56.8104   YY=            -63.0459   ZZ=            -73.9315
   XY=             -0.0117   XZ=             -0.5709   YZ=              0.2013

 Normal termination of Gaussian 16 at Thu Dec  7 15:20:19 2023.
