 Gaussian 16, Revision B.01,
 Gaussian 16:  ES64L-G16RevB.01 20-Dec-2017

 -------------------------
 #P B3LYP/6-311+g(d) force
 -------------------------

 -----
 DPGEN
 -----
 Symbolic Z-matrix:
 Charge =  0 Multiplicity = 2

                         Standard orientation:
 ---------------------------------------------------------------------
 Center     Atomic      Atomic             Coordinates (Angstroms)
 Number     Number       Type             X           Y           Z
 ---------------------------------------------------------------------
      1         11           0       -1.638888   -0.590029    1.524746
      2         11           0       -2.617030    2.318587   -0.090880
      3         11           0        1.930765   -1.618594    1.141772
      4         11           0        0.838460    1.480227    0.709062
      5         11           0        4.014455    0.486304   -0.733507
      6         11           0       -2.866801   -1.789423   -1.020521
      7         11           0        0.339039   -0.287072   -1.530672
 ---------------------------------------------------------------------

 SCF Done:  E(UB3LYP) =  -1136.11862344     A.U. after   26 cycles

 The electronic state is 2-A.
 Alpha  occ. eigenvalues --  -38.45298 -38.44869 -38.43998 -38.43579 -38.43405
 Alpha  occ. eigenvalues --  -38.43387 -38.43129  -2.21100  -2.20787  -2.19883
 Alpha  occ. eigenvalues --   -2.19526  -2.19244  -2.19183  -2.19103  -1.14765
 Alpha  occ. eigenvalues --   -1.14758  -1.14713  -1.14573  -1.14428  -1.14362
 Alpha  occ. eigenvalues --   -1.13574  -1.13540  -1.13487  -1.13248  -1.13219
 Alpha  occ. eigenvalues --   -1.13135  -1.12908  -1.12882  -1.12872  -1.12866
 Alpha  occ. eigenvalues --   -1.12863  -1.12837  -1.12814  -1.12767  -1.12645
 Alpha  occ. eigenvalues --   -0.18760  -0.14139  -0.11053  -0.10830
 Alpha virt. eigenvalues --   -0.06981  -0.05330  -0.04495  -0.02922  -0.02872
 Alpha virt. eigenvalues --   -0.02186  -0.02023  -0.01397  -0.00916  -0.00063
 Alpha virt. eigenvalues --    0.00069   0.00195   0.00370   0.00556   0.00730

  Beta  occ. eigenvalues --  -38.45268 -38.44834 -38.43951 -38.43547 -38.43386
  Beta  occ. eigenvalues --  -38.43385 -38.43106  -2.21044  -2.20724  -2.19800
  Beta  occ. eigenvalues --   -2.19471  -2.19209  -2.19182  -2.19068  -1.14722
  Beta  occ. eigenvalues --   -1.14718  -1.14678  -1.14522  -1.14382  -1.14312
  Beta  occ. eigenvalues --   -1.13517  -1.13476  -1.13417  -1.13192  -1.13181
  Beta  occ. eigenvalues --   -1.13093  -1.12882  -1.12861  -1.12855  -1.12852
  Beta  occ. eigenvalues --   -1.12842  -1.12832  -1.12814  -1.12692  -1.12630
  Beta  occ. eigenvalues --   -0.18013  -0.13894  -0.10664
  Beta virt. eigenvalues --   -0.07210  -0.06731  -0.05191  -0.03939  -0.02718
  Beta virt. eigenvalues --   -0.02617  -0.01712  -0.01404  -0.01194  -0.00516
  Beta virt. eigenvalues --    0.00036   0.00121   0.00227   0.00476   0.00629

 Mulliken charges and spin densities:
               1          2
     1  Na   0.563424  -0.113446
     2  Na  -0.200938   0.024016
     3  Na  -0.106713   0.196938
     4  Na  -0.544050   0.216423
     5  Na   0.799108   0.191509
     6  Na  -0.151378   0.197847
     7  Na  -0.359453   0.286712
 Sum of Mulliken charges =  -0.00000   1.00000

 Dipole moment (field-independent basis, Debye):
    X=              1.4501    Y=             -0.0605    Z=             -0.1381  Tot=              1.4579
 Quadrupole moment (field-independent basis, Debye-Ang):
   XX=            -46.1979   YY=            -76.7011   ZZ=            -69.3267
   XY=             -1.1366   XZ=             -0.3284   YZ=             -2.3679

 Normal termination of Gaussian 16 at Fri Dec  8 20:06:58 2023.
