 Gaussian 16, Revision B.01,
 Gaussian 16:  ES64L-G16RevB.01 20-Dec-2017

 -------------------------
 #P B3LYP/6-311+g(d) force
 -------------------------

 -----
 DPGEN
 -----
 Symbolic Z-matrix:
 Charge =  0 Multiplicity = 2

                         Standard orientation:
 ---------------------------------------------------------------------
 Center     Atomic      Atomic             Coordinates (Angstroms)
 Number     Number       Type             X           Y           Z
 ---------------------------------------------------------------------
      1         11           0       -3.059414   -1.375506    0.088592
      2         11           0        0.010555   -0.062685    2.020749
      3         11           0       -2.318080    1.944416   -0.045324
      4         11           0        0.888948   -2.690840   -0.385150
      5         11           0        3.088987   -0.370345    0.323902
      6         11           0        0.018470   -0.247087   -1.650333
      7         11           0        1.370535    2.802047   -0.352436
 ---------------------------------------------------------------------

 SCF Done:  E(UB3LYP) =  -1136.13460028     A.U. after   20 cycles

 The electronic state is 2-A.
 Alpha  occ. eigenvalues --  -38.44194 -38.44143 -38.43887 -38.43780 -38.43358
 Alpha  occ. eigenvalues --  -38.43321 -38.43285  -2.19993  -2.19990  -2.19711
 Alpha  occ. eigenvalues --   -2.19655  -2.19308  -2.19261  -2.19088  -1.13667
 Alpha  occ. eigenvalues --   -1.13664  -1.13658  -1.13652  -1.13635  -1.13634
 Alpha  occ. eigenvalues --   -1.13392  -1.13385  -1.13335  -1.13328  -1.13282
 Alpha  occ. eigenvalues --   -1.13269  -1.13193  -1.12964  -1.12912  -1.12889
 Alpha  occ. eigenvalues --   -1.12860  -1.12827  -1.12763  -1.12743  -1.12732
 Alpha  occ. eigenvalues --   -0.18518  -0.13201  -0.12173  -0.10734
 Alpha virt. eigenvalues --   -0.05791  -0.05343  -0.04550  -0.03317  -0.02785
 Alpha virt. eigenvalues --   -0.02519  -0.01706  -0.01158  -0.00446  -0.00352
 Alpha virt. eigenvalues --   -0.00011   0.00348   0.00762   0.00847   0.00867

  Beta  occ. eigenvalues --  -38.44194 -38.44134 -38.43884 -38.43691 -38.43345
  Beta  occ. eigenvalues --  -38.43280 -38.43251  -2.19992  -2.19981  -2.19709
  Beta  occ. eigenvalues --   -2.19491  -2.19249  -2.19173  -2.19082  -1.13662
  Beta  occ. eigenvalues --   -1.13659  -1.13644  -1.13636  -1.13632  -1.13624
  Beta  occ. eigenvalues --   -1.13384  -1.13372  -1.13334  -1.13221  -1.13170
  Beta  occ. eigenvalues --   -1.13148  -1.13134  -1.12884  -1.12872  -1.12847
  Beta  occ. eigenvalues --   -1.12804  -1.12766  -1.12742  -1.12735  -1.12726
  Beta  occ. eigenvalues --   -0.17793  -0.12989  -0.11917
  Beta virt. eigenvalues --   -0.06838  -0.05703  -0.05363  -0.04495  -0.02536
  Beta virt. eigenvalues --   -0.02041  -0.01605  -0.01484  -0.01092  -0.00481
  Beta virt. eigenvalues --   -0.00390   0.00123   0.00373   0.00826   0.00841

 Mulliken charges and spin densities:
               1          2
     1  Na   0.051620  -0.080400
     2  Na  -0.328058   0.683265
     3  Na  -0.011905  -0.071481
     4  Na   0.307394  -0.050925
     5  Na   0.182167   0.079987
     6  Na  -0.102337   0.501358
     7  Na  -0.098881  -0.061803
 Sum of Mulliken charges =  -0.00000   1.00000

 Dipole moment (field-independent basis, Debye):
    X=             -0.2143    Y=             -0.0953    Z=              0.2510  Tot=              0.3436
 Quadrupole moment (field-independent basis, Debye-Ang):
   XX=            -54.7485   YY=            -63.8535   ZZ=            -74.7696
   XY=              0.5096   XZ=              0.2498   YZ=             -0.5689

 Normal termination of Gaussian 16 at Thu Dec  7 19:47:28 2023.
