 Gaussian 16, Revision B.01,
 Gaussian 16:  ES64L-G16RevB.01 20-Dec-2017

 -------------------------
 #P B3LYP/6-311+g(d) force
 -------------------------

 -----
 DPGEN
 -----
 Symbolic Z-matrix:
 Charge =  0 Multiplicity = 2

                         Standard orientation:
 ---------------------------------------------------------------------
 Center     Atomic      Atomic             Coordinates (Angstroms)
 Number     Number       Type             X           Y           Z
 ---------------------------------------------------------------------
      1         11           0       -0.166536   -2.950435    0.165627
      2         11           0       -1.200635    2.732903    0.577390
      3         11           0       -0.214114   -0.316245    2.052685
      4         11           0        0.083605    0.068626   -1.592053
      5         11           0        2.262907    2.126121   -0.372423
      6         11           0       -3.672124   -0.415483   -0.691969
      7         11           0        2.906896   -1.245488   -0.139257
 ---------------------------------------------------------------------

 SCF Done:  E(UB3LYP) =  -1136.13253244     A.U. after   20 cycles

 The electronic state is 2-A.
 Alpha  occ. eigenvalues --  -38.44599 -38.43897 -38.43737 -38.43717 -38.43637
 Alpha  occ. eigenvalues --  -38.43535 -38.43433  -2.20343  -2.19736  -2.19618
 Alpha  occ. eigenvalues --   -2.19566  -2.19524  -2.19380  -2.19279  -1.14012
 Alpha  occ. eigenvalues --   -1.13993  -1.13967  -1.13421  -1.13412  -1.13369
 Alpha  occ. eigenvalues --   -1.13303  -1.13274  -1.13255  -1.13241  -1.13232
 Alpha  occ. eigenvalues --   -1.13193  -1.13189  -1.13171  -1.13151  -1.13053
 Alpha  occ. eigenvalues --   -1.13046  -1.12995  -1.12958  -1.12938  -1.12902
 Alpha  occ. eigenvalues --   -0.18169  -0.12663  -0.12454  -0.10757
 Alpha virt. eigenvalues --   -0.06049  -0.05065  -0.04814  -0.03131  -0.02968
 Alpha virt. eigenvalues --   -0.02453  -0.01908  -0.01192  -0.00489  -0.00464
 Alpha virt. eigenvalues --   -0.00076   0.00276   0.00724   0.00797   0.00831

  Beta  occ. eigenvalues --  -38.44566 -38.43896 -38.43702 -38.43648 -38.43592
  Beta  occ. eigenvalues --  -38.43530 -38.43431  -2.20281  -2.19737  -2.19500
  Beta  occ. eigenvalues --   -2.19482  -2.19454  -2.19375  -2.19278  -1.13962
  Beta  occ. eigenvalues --   -1.13952  -1.13928  -1.13415  -1.13411  -1.13361
  Beta  occ. eigenvalues --   -1.13223  -1.13196  -1.13181  -1.13173  -1.13157
  Beta  occ. eigenvalues --   -1.13144  -1.13136  -1.13117  -1.13115  -1.13038
  Beta  occ. eigenvalues --   -1.13018  -1.12990  -1.12947  -1.12939  -1.12893
  Beta  occ. eigenvalues --   -0.17538  -0.12341  -0.12178
  Beta virt. eigenvalues --   -0.07062  -0.05814  -0.05000  -0.04745  -0.02522
  Beta virt. eigenvalues --   -0.02292  -0.01700  -0.01544  -0.01114  -0.00520
  Beta virt. eigenvalues --   -0.00431   0.00066   0.00330   0.00784   0.00818

 Mulliken charges and spin densities:
               1          2
     1  Na   0.226473  -0.018405
     2  Na   0.067008   0.049680
     3  Na  -0.182668   0.451230
     4  Na  -0.215395   0.455292
     5  Na   0.135229  -0.023530
     6  Na  -0.104930   0.130801
     7  Na   0.074283  -0.045067
 Sum of Mulliken charges =  -0.00000   1.00000

 Dipole moment (field-independent basis, Debye):
    X=             -0.0521    Y=             -0.1207    Z=              0.1425  Tot=              0.1939
 Quadrupole moment (field-independent basis, Debye-Ang):
   XX=            -57.0341   YY=            -62.7471   ZZ=            -73.9667
   XY=             -0.4657   XZ=              0.7557   YZ=              0.9924

 Normal termination of Gaussian 16 at Thu Dec  7 06:51:06 2023.
