 Gaussian 16, Revision B.01,
 Gaussian 16:  ES64L-G16RevB.01 20-Dec-2017

 -------------------------
 #P B3LYP/6-311+g(d) force
 -------------------------

 -----
 DPGEN
 -----
 Symbolic Z-matrix:
 Charge =  0 Multiplicity = 2

                         Standard orientation:
 ---------------------------------------------------------------------
 Center     Atomic      Atomic             Coordinates (Angstroms)
 Number     Number       Type             X           Y           Z
 ---------------------------------------------------------------------
      1         11           0       -0.082681    2.646292    0.647993
      2         11           0        5.815968   -0.005507   -0.164221
      3         11           0        2.828552    0.881937   -0.704047
      4         11           0        2.742322   -2.422568    0.484198
      5         11           0       -0.457020   -0.293616   -0.101784
      6         11           0       -3.879183   -0.438497    0.160578
      7         11           0       -6.967958   -0.368040   -0.322717
 ---------------------------------------------------------------------

 SCF Done:  E(UB3LYP) =  -1136.11568169     A.U. after   21 cycles

 The electronic state is 2-A.
 Alpha  occ. eigenvalues --  -38.44782 -38.44542 -38.44328 -38.44195 -38.44078
 Alpha  occ. eigenvalues --  -38.43971 -38.43585  -2.20587  -2.20375  -2.20137
 Alpha  occ. eigenvalues --   -2.20078  -2.19861  -2.19857  -2.19399  -1.14253
 Alpha  occ. eigenvalues --   -1.14244  -1.14183  -1.14061  -1.14022  -1.14010
 Alpha  occ. eigenvalues --   -1.13856  -1.13794  -1.13767  -1.13765  -1.13752
 Alpha  occ. eigenvalues --   -1.13648  -1.13539  -1.13532  -1.13520  -1.13514
 Alpha  occ. eigenvalues --   -1.13513  -1.13490  -1.13068  -1.13061  -1.13027
 Alpha  occ. eigenvalues --   -0.17063  -0.13908  -0.12150  -0.11172
 Alpha virt. eigenvalues --   -0.06974  -0.05803  -0.03975  -0.03465  -0.03092
 Alpha virt. eigenvalues --   -0.02602  -0.01979  -0.01751  -0.01217  -0.00957
 Alpha virt. eigenvalues --   -0.00370  -0.00134   0.00049   0.00275   0.00585

  Beta  occ. eigenvalues --  -38.44702 -38.44509 -38.44294 -38.44171 -38.44080
  Beta  occ. eigenvalues --  -38.43952 -38.43584  -2.20440  -2.20314  -2.20076
  Beta  occ. eigenvalues --   -2.20038  -2.19863  -2.19828  -2.19397  -1.14154
  Beta  occ. eigenvalues --   -1.14143  -1.14073  -1.14025  -1.13980  -1.13961
  Beta  occ. eigenvalues --   -1.13811  -1.13755  -1.13736  -1.13720  -1.13703
  Beta  occ. eigenvalues --   -1.13618  -1.13538  -1.13518  -1.13517  -1.13517
  Beta  occ. eigenvalues --   -1.13501  -1.13437  -1.13064  -1.13057  -1.13029
  Beta  occ. eigenvalues --   -0.16391  -0.13754  -0.11931
  Beta virt. eigenvalues --   -0.07515  -0.06574  -0.05363  -0.03709  -0.03211
  Beta virt. eigenvalues --   -0.02605  -0.02422  -0.01662  -0.01591  -0.00901
  Beta virt. eigenvalues --   -0.00776  -0.00020   0.00078   0.00195   0.00410

 Mulliken charges and spin densities:
               1          2
     1  Na   0.659086   0.180287
     2  Na   0.097298   0.186112
     3  Na   0.418995   0.201230
     4  Na   0.534516   0.243682
     5  Na  -1.971193   0.227742
     6  Na  -0.203656  -0.060295
     7  Na   0.464954   0.021241
 Sum of Mulliken charges =  -0.00000   1.00000

 Dipole moment (field-independent basis, Debye):
    X=              1.2323    Y=              0.4474    Z=              0.4443  Tot=              1.3842
 Quadrupole moment (field-independent basis, Debye-Ang):
   XX=            -55.0298   YY=            -66.7344   ZZ=            -71.8037
   XY=             -4.6257   XZ=              2.4316   YZ=              0.7055

 Normal termination of Gaussian 16 at Wed Nov 29 02:56:14 2023.
