 Gaussian 16, Revision B.01,
 Gaussian 16:  ES64L-G16RevB.01 20-Dec-2017

 -------------------------
 #P B3LYP/6-311+g(d) force
 -------------------------

 -----
 DPGEN
 -----
 Symbolic Z-matrix:
 Charge =  0 Multiplicity = 2

                         Standard orientation:
 ---------------------------------------------------------------------
 Center     Atomic      Atomic             Coordinates (Angstroms)
 Number     Number       Type             X           Y           Z
 ---------------------------------------------------------------------
      1         11           0        2.185683    1.694208    0.473250
      2         11           0        4.515358   -0.443547   -0.775995
      3         11           0        1.762178   -1.779061   -0.155152
      4         11           0       -1.244709    0.200987    1.647465
      5         11           0       -2.136255   -2.936412    0.410300
      6         11           0       -1.340502    3.175206   -0.131709
      7         11           0       -3.741753    0.088618   -1.468160
 ---------------------------------------------------------------------

 SCF Done:  E(UB3LYP) =  -1136.12526592     A.U. after   20 cycles

 The electronic state is 2-A.
 Alpha  occ. eigenvalues --  -38.44565 -38.44472 -38.44383 -38.44113 -38.43973
 Alpha  occ. eigenvalues --  -38.43632 -38.43592  -2.20388  -2.20281  -2.20169
 Alpha  occ. eigenvalues --   -2.19969  -2.19809  -2.19404  -2.19369  -1.14081
 Alpha  occ. eigenvalues --   -1.14079  -1.14030  -1.13982  -1.13972  -1.13877
 Alpha  occ. eigenvalues --   -1.13827  -1.13792  -1.13779  -1.13623  -1.13609
 Alpha  occ. eigenvalues --   -1.13585  -1.13499  -1.13487  -1.13419  -1.13090
 Alpha  occ. eigenvalues --   -1.13070  -1.13050  -1.13038  -1.13022  -1.13015
 Alpha  occ. eigenvalues --   -0.16909  -0.14195  -0.11909  -0.10624
 Alpha virt. eigenvalues --   -0.06050  -0.05479  -0.05248  -0.03634  -0.02791
 Alpha virt. eigenvalues --   -0.02283  -0.01968  -0.01279  -0.01090  -0.00816
 Alpha virt. eigenvalues --   -0.00464   0.00209   0.00404   0.00467   0.00610

  Beta  occ. eigenvalues --  -38.44557 -38.44462 -38.44276 -38.44077 -38.43943
  Beta  occ. eigenvalues --  -38.43637 -38.43593  -2.20376  -2.20266  -2.19970
  Beta  occ. eigenvalues --   -2.19902  -2.19755  -2.19417  -2.19373  -1.14076
  Beta  occ. eigenvalues --   -1.14068  -1.13999  -1.13971  -1.13959  -1.13856
  Beta  occ. eigenvalues --   -1.13692  -1.13658  -1.13643  -1.13576  -1.13562
  Beta  occ. eigenvalues --   -1.13546  -1.13463  -1.13435  -1.13382  -1.13101
  Beta  occ. eigenvalues --   -1.13080  -1.13054  -1.13029  -1.13027  -1.13000
  Beta  occ. eigenvalues --   -0.16393  -0.13644  -0.11755
  Beta virt. eigenvalues --   -0.07046  -0.05952  -0.05241  -0.04730  -0.03360
  Beta virt. eigenvalues --   -0.02266  -0.02062  -0.01469  -0.01162  -0.01000
  Beta virt. eigenvalues --   -0.00631  -0.00031   0.00344   0.00537   0.00571

 Mulliken charges and spin densities:
               1          2
     1  Na  -0.219553   0.009337
     2  Na   1.012256   0.275957
     3  Na  -0.849423   0.064555
     4  Na  -0.078075   0.064313
     5  Na   0.168199  -0.079345
     6  Na   0.084430   0.031610
     7  Na  -0.117835   0.633573
 Sum of Mulliken charges =  -0.00000   1.00000

 Dipole moment (field-independent basis, Debye):
    X=              1.3497    Y=             -0.0500    Z=             -0.1455  Tot=              1.3585
 Quadrupole moment (field-independent basis, Debye-Ang):
   XX=            -61.8275   YY=            -65.9689   ZZ=            -70.3322
   XY=              2.0191   XZ=             -2.2439   YZ=              0.1465

 Normal termination of Gaussian 16 at Sun Dec  3 15:13:36 2023.
