 Gaussian 16, Revision B.01,
 Gaussian 16:  ES64L-G16RevB.01 20-Dec-2017

 -------------------------
 #P B3LYP/6-311+g(d) force
 -------------------------

 -----
 DPGEN
 -----
 Symbolic Z-matrix:
 Charge =  0 Multiplicity = 2

                         Standard orientation:
 ---------------------------------------------------------------------
 Center     Atomic      Atomic             Coordinates (Angstroms)
 Number     Number       Type             X           Y           Z
 ---------------------------------------------------------------------
      1         11           0       -6.149561    0.982487   -1.011563
      2         11           0        1.634389    0.899227   -1.104889
      3         11           0       -1.135219   -1.288411    0.816143
      4         11           0        1.040472   -2.644900   -0.796144
      5         11           0       -4.365090    0.372910    1.363323
      6         11           0        4.476128    2.765796    0.317110
      7         11           0        4.498882   -1.087110    0.416019
 ---------------------------------------------------------------------

 SCF Done:  E(UB3LYP) =  -1136.11011608     A.U. after   21 cycles

 The electronic state is 2-A.
 Alpha  occ. eigenvalues --  -38.45369 -38.44551 -38.44410 -38.43977 -38.43948
 Alpha  occ. eigenvalues --  -38.43948 -38.43880  -2.21147  -2.20332  -2.20214
 Alpha  occ. eigenvalues --   -2.19819  -2.19797  -2.19715  -2.19692  -1.14853
 Alpha  occ. eigenvalues --   -1.14823  -1.14739  -1.14010  -1.13983  -1.13935
 Alpha  occ. eigenvalues --   -1.13901  -1.13857  -1.13854  -1.13602  -1.13479
 Alpha  occ. eigenvalues --   -1.13475  -1.13453  -1.13428  -1.13387  -1.13375
 Alpha  occ. eigenvalues --   -1.13362  -1.13351  -1.13350  -1.13336  -1.13334
 Alpha  occ. eigenvalues --   -0.16338  -0.13969  -0.12191  -0.10348
 Alpha virt. eigenvalues --   -0.07182  -0.05721  -0.04399  -0.03520  -0.02876
 Alpha virt. eigenvalues --   -0.02543  -0.02015  -0.01657  -0.01485  -0.01182
 Alpha virt. eigenvalues --   -0.00450  -0.00070   0.00216   0.00457   0.00517

  Beta  occ. eigenvalues --  -38.45348 -38.44485 -38.44377 -38.43950 -38.43936
  Beta  occ. eigenvalues --  -38.43923 -38.43886  -2.21111  -2.20211  -2.20153
  Beta  occ. eigenvalues --   -2.19781  -2.19763  -2.19706  -2.19670  -1.14824
  Beta  occ. eigenvalues --   -1.14787  -1.14714  -1.13930  -1.13900  -1.13865
  Beta  occ. eigenvalues --   -1.13841  -1.13814  -1.13812  -1.13578  -1.13461
  Beta  occ. eigenvalues --   -1.13444  -1.13421  -1.13403  -1.13365  -1.13360
  Beta  occ. eigenvalues --   -1.13356  -1.13338  -1.13337  -1.13315  -1.13309
  Beta  occ. eigenvalues --   -0.15834  -0.13610  -0.11974
  Beta virt. eigenvalues --   -0.07157  -0.06518  -0.05393  -0.04111  -0.03269
  Beta virt. eigenvalues --   -0.02738  -0.02128  -0.01756  -0.01387  -0.01190
  Beta virt. eigenvalues --   -0.01010  -0.00177   0.00108   0.00349   0.00572

 Mulliken charges and spin densities:
               1          2
     1  Na   0.022763   0.144375
     2  Na  -0.512893   0.203322
     3  Na  -0.798631  -0.096784
     4  Na   1.005361   0.363773
     5  Na  -0.248141  -0.032775
     6  Na   0.299413   0.065244
     7  Na   0.232127   0.352845
 Sum of Mulliken charges =  -0.00000   1.00000

 Dipole moment (field-independent basis, Debye):
    X=              0.1250    Y=              0.0853    Z=             -0.4048  Tot=              0.4322
 Quadrupole moment (field-independent basis, Debye-Ang):
   XX=            -67.1641   YY=            -69.7345   ZZ=            -63.8784
   XY=              1.2773   XZ=              6.9101   YZ=             -0.5103

 Normal termination of Gaussian 16 at Sun Dec  3 21:06:09 2023.
