 Gaussian 16, Revision B.01,
 Gaussian 16:  ES64L-G16RevB.01 20-Dec-2017

 -------------------------
 #P B3LYP/6-311+g(d) force
 -------------------------

 -----
 DPGEN
 -----
 Symbolic Z-matrix:
 Charge =  0 Multiplicity = 2

                         Standard orientation:
 ---------------------------------------------------------------------
 Center     Atomic      Atomic             Coordinates (Angstroms)
 Number     Number       Type             X           Y           Z
 ---------------------------------------------------------------------
      1         11           0       -2.708655   -1.358516   -0.035298
      2         11           0       -0.112625   -0.424284    1.981642
      3         11           0        0.502623   -2.669317   -0.079622
      4         11           0        3.413078   -0.182645   -0.353530
      5         11           0        1.374992    2.462056    0.559496
      6         11           0        0.081751    0.150074   -1.778580
      7         11           0       -2.551164    2.022633   -0.294108
 ---------------------------------------------------------------------

 SCF Done:  E(UB3LYP) =  -1136.13623529     A.U. after   20 cycles

 The electronic state is 2-A.
 Alpha  occ. eigenvalues --  -38.44493 -38.43912 -38.43623 -38.43596 -38.43582
 Alpha  occ. eigenvalues --  -38.43489 -38.42951  -2.20287  -2.19775  -2.19520
 Alpha  occ. eigenvalues --   -2.19506  -2.19430  -2.19320  -2.18850  -1.13960
 Alpha  occ. eigenvalues --   -1.13941  -1.13929  -1.13462  -1.13447  -1.13409
 Alpha  occ. eigenvalues --   -1.13214  -1.13189  -1.13162  -1.13154  -1.13135
 Alpha  occ. eigenvalues --   -1.13128  -1.13095  -1.13084  -1.13068  -1.12996
 Alpha  occ. eigenvalues --   -1.12983  -1.12943  -1.12542  -1.12524  -1.12454
 Alpha  occ. eigenvalues --   -0.18560  -0.13148  -0.12144  -0.10893
 Alpha virt. eigenvalues --   -0.05961  -0.05162  -0.04334  -0.03311  -0.02890
 Alpha virt. eigenvalues --   -0.02637  -0.01838  -0.01048  -0.00352  -0.00183
 Alpha virt. eigenvalues --   -0.00045   0.00335   0.00756   0.00857   0.00886

  Beta  occ. eigenvalues --  -38.44488 -38.43907 -38.43622 -38.43516 -38.43506
  Beta  occ. eigenvalues --  -38.43473 -38.42943  -2.20281  -2.19770  -2.19429
  Beta  occ. eigenvalues --   -2.19385  -2.19355  -2.19293  -2.18840  -1.13945
  Beta  occ. eigenvalues --   -1.13934  -1.13927  -1.13454  -1.13431  -1.13400
  Beta  occ. eigenvalues --   -1.13127  -1.13099  -1.13092  -1.13089  -1.13072
  Beta  occ. eigenvalues --   -1.13064  -1.13040  -1.13021  -1.13017  -1.12969
  Beta  occ. eigenvalues --   -1.12945  -1.12929  -1.12537  -1.12489  -1.12445
  Beta  occ. eigenvalues --   -0.17824  -0.12924  -0.11891
  Beta virt. eigenvalues --   -0.07008  -0.05875  -0.05151  -0.04257  -0.02585
  Beta virt. eigenvalues --   -0.02147  -0.01734  -0.01601  -0.00992  -0.00351
  Beta virt. eigenvalues --   -0.00214   0.00087   0.00360   0.00824   0.00863

 Mulliken charges and spin densities:
               1          2
     1  Na   0.231479  -0.053992
     2  Na  -0.240893   0.622266
     3  Na   0.204019  -0.093843
     4  Na   0.088041  -0.056663
     5  Na  -0.007491   0.014661
     6  Na  -0.279753   0.629041
     7  Na   0.004598  -0.061470
 Sum of Mulliken charges =  -0.00000   1.00000

 Dipole moment (field-independent basis, Debye):
    X=              0.2381    Y=             -0.0237    Z=             -0.0303  Tot=              0.2412
 Quadrupole moment (field-independent basis, Debye-Ang):
   XX=            -54.0738   YY=            -66.0828   ZZ=            -73.4114
   XY=             -0.2790   XZ=             -0.2439   YZ=              1.2658

 Normal termination of Gaussian 16 at Fri Dec  8 06:19:56 2023.
