 Gaussian 16, Revision B.01,
 Gaussian 16:  ES64L-G16RevB.01 20-Dec-2017

 -------------------------
 #P B3LYP/6-311+g(d) force
 -------------------------

 -----
 DPGEN
 -----
 Symbolic Z-matrix:
 Charge =  0 Multiplicity = 2

                         Standard orientation:
 ---------------------------------------------------------------------
 Center     Atomic      Atomic             Coordinates (Angstroms)
 Number     Number       Type             X           Y           Z
 ---------------------------------------------------------------------
      1         11           0        0.769767   -0.625274    1.854079
      2         11           0        0.276359   -2.574722   -0.351060
      3         11           0        3.141618   -0.242855   -0.469450
      4         11           0       -2.856283   -1.322397    0.312706
      5         11           0       -2.302404    2.097587   -0.089032
      6         11           0       -0.229439    0.135711   -1.637970
      7         11           0        1.200382    2.531950    0.380727
 ---------------------------------------------------------------------

 SCF Done:  E(UB3LYP) =  -1136.13472328     A.U. after   20 cycles

 The electronic state is 2-A.
 Alpha  occ. eigenvalues --  -38.44226 -38.44075 -38.43603 -38.43451 -38.43379
 Alpha  occ. eigenvalues --  -38.43205 -38.43114  -2.20077  -2.19900  -2.19440
 Alpha  occ. eigenvalues --   -2.19401  -2.19235  -2.19160  -2.19119  -1.13748
 Alpha  occ. eigenvalues --   -1.13739  -1.13717  -1.13571  -1.13561  -1.13545
 Alpha  occ. eigenvalues --   -1.13158  -1.13140  -1.13099  -1.13075  -1.13050
 Alpha  occ. eigenvalues --   -1.13003  -1.12950  -1.12917  -1.12907  -1.12856
 Alpha  occ. eigenvalues --   -1.12802  -1.12773  -1.12746  -1.12714  -1.12710
 Alpha  occ. eigenvalues --   -0.18905  -0.13207  -0.12529  -0.10671
 Alpha virt. eigenvalues --   -0.05792  -0.05236  -0.04465  -0.03253  -0.02897
 Alpha virt. eigenvalues --   -0.02320  -0.01694  -0.00958  -0.00318  -0.00184
 Alpha virt. eigenvalues --    0.00005   0.00348   0.00801   0.00882   0.00901

  Beta  occ. eigenvalues --  -38.44215 -38.44071 -38.43603 -38.43376 -38.43370
  Beta  occ. eigenvalues --  -38.43189 -38.43044  -2.20061  -2.19895  -2.19441
  Beta  occ. eigenvalues --   -2.19262  -2.19221  -2.19136  -2.18994  -1.13734
  Beta  occ. eigenvalues --   -1.13720  -1.13695  -1.13560  -1.13558  -1.13537
  Beta  occ. eigenvalues --   -1.13133  -1.13091  -1.13080  -1.13079  -1.12960
  Beta  occ. eigenvalues --   -1.12914  -1.12897  -1.12892  -1.12873  -1.12847
  Beta  occ. eigenvalues --   -1.12749  -1.12724  -1.12693  -1.12635  -1.12625
  Beta  occ. eigenvalues --   -0.18180  -0.12997  -0.12282
  Beta virt. eigenvalues --   -0.06748  -0.05717  -0.05220  -0.04410  -0.02527
  Beta virt. eigenvalues --   -0.02145  -0.01605  -0.01290  -0.00900  -0.00309
  Beta virt. eigenvalues --   -0.00231   0.00151   0.00384   0.00854   0.00886

 Mulliken charges and spin densities:
               1          2
     1  Na  -0.415392   0.584443
     2  Na   0.407146   0.062755
     3  Na   0.320645   0.006551
     4  Na  -0.079906  -0.031574
     5  Na   0.046264  -0.045889
     6  Na  -0.143813   0.462456
     7  Na  -0.134943  -0.038741
 Sum of Mulliken charges =  -0.00000   1.00000

 Dipole moment (field-independent basis, Debye):
    X=              0.0468    Y=              0.0187    Z=              0.1204  Tot=              0.1305
 Quadrupole moment (field-independent basis, Debye-Ang):
   XX=            -54.0333   YY=            -64.9689   ZZ=            -74.1602
   XY=              0.4013   XZ=             -2.3507   YZ=              1.1026

 Normal termination of Gaussian 16 at Fri Dec  8 04:18:40 2023.
