 Gaussian 16, Revision B.01,
 Gaussian 16:  ES64L-G16RevB.01 20-Dec-2017

 -------------------------
 #P B3LYP/6-311+g(d) force
 -------------------------

 -----
 DPGEN
 -----
 Symbolic Z-matrix:
 Charge =  0 Multiplicity = 2

                         Standard orientation:
 ---------------------------------------------------------------------
 Center     Atomic      Atomic             Coordinates (Angstroms)
 Number     Number       Type             X           Y           Z
 ---------------------------------------------------------------------
      1         11           0       -1.206026    2.647167   -0.083746
      2         11           0        2.599447    2.939172   -0.066427
      3         11           0        3.840104   -0.620393   -0.713440
      4         11           0        1.957619   -2.515000    0.640693
      5         11           0       -1.962114   -2.714403   -1.013141
      6         11           0       -3.984621    0.780962   -0.404127
      7         11           0       -1.244409   -0.517506    1.640188
 ---------------------------------------------------------------------

 SCF Done:  E(UB3LYP) =  -1136.11121065     A.U. after   23 cycles

 The electronic state is 2-A.
 Alpha  occ. eigenvalues --  -38.45512 -38.45304 -38.44040 -38.44037 -38.43908
 Alpha  occ. eigenvalues --  -38.43905 -38.43633  -2.21315  -2.21058  -2.19859
 Alpha  occ. eigenvalues --   -2.19801  -2.19748  -2.19704  -2.19468  -1.15002
 Alpha  occ. eigenvalues --   -1.14975  -1.14933  -1.14734  -1.14706  -1.14687
 Alpha  occ. eigenvalues --   -1.13596  -1.13532  -1.13485  -1.13470  -1.13442
 Alpha  occ. eigenvalues --   -1.13437  -1.13419  -1.13406  -1.13399  -1.13388
 Alpha  occ. eigenvalues --   -1.13366  -1.13298  -1.13123  -1.13112  -1.13077
 Alpha  occ. eigenvalues --   -0.16647  -0.13814  -0.12560  -0.09969
 Alpha virt. eigenvalues --   -0.07438  -0.05741  -0.04399  -0.03494  -0.02879
 Alpha virt. eigenvalues --   -0.02250  -0.02056  -0.01827  -0.01265  -0.00860
 Alpha virt. eigenvalues --   -0.00310   0.00116   0.00232   0.00411   0.00550

  Beta  occ. eigenvalues --  -38.45498 -38.45291 -38.44015 -38.43997 -38.43901
  Beta  occ. eigenvalues --  -38.43838 -38.43583  -2.21289  -2.21034  -2.19826
  Beta  occ. eigenvalues --   -2.19722  -2.19703  -2.19618  -2.19381  -1.14985
  Beta  occ. eigenvalues --   -1.14958  -1.14912  -1.14717  -1.14692  -1.14665
  Beta  occ. eigenvalues --   -1.13558  -1.13514  -1.13437  -1.13418  -1.13410
  Beta  occ. eigenvalues --   -1.13401  -1.13391  -1.13377  -1.13330  -1.13316
  Beta  occ. eigenvalues --   -1.13278  -1.13242  -1.13063  -1.13054  -1.13008
  Beta  occ. eigenvalues --   -0.16306  -0.13037  -0.11949
  Beta virt. eigenvalues --   -0.07376  -0.06763  -0.05705  -0.03961  -0.03198
  Beta virt. eigenvalues --   -0.02665  -0.01799  -0.01703  -0.01558  -0.01098
  Beta virt. eigenvalues --   -0.00739  -0.00003   0.00175   0.00465   0.00489

 Mulliken charges and spin densities:
               1          2
     1  Na  -0.209478   0.104558
     2  Na  -0.117200   0.174039
     3  Na   0.016554   0.168094
     4  Na  -0.167353   0.129520
     5  Na  -0.083682   0.031620
     6  Na   0.341902   0.376264
     7  Na   0.219256   0.015905
 Sum of Mulliken charges =  -0.00000   1.00000

 Dipole moment (field-independent basis, Debye):
    X=             -1.2934    Y=             -1.0433    Z=             -0.2040  Tot=              1.6743
 Quadrupole moment (field-independent basis, Debye-Ang):
   XX=            -67.9909   YY=            -72.2237   ZZ=            -64.4287
   XY=              8.1279   XZ=              1.2371   YZ=              1.8882

 Normal termination of Gaussian 16 at Sun Dec  3 12:01:57 2023.
