 Gaussian 16, Revision B.01,
 Gaussian 16:  ES64L-G16RevB.01 20-Dec-2017

 -------------------------
 #P B3LYP/6-311+g(d) force
 -------------------------

 -----
 DPGEN
 -----
 Symbolic Z-matrix:
 Charge =  0 Multiplicity = 2

                         Standard orientation:
 ---------------------------------------------------------------------
 Center     Atomic      Atomic             Coordinates (Angstroms)
 Number     Number       Type             X           Y           Z
 ---------------------------------------------------------------------
      1         11           0       -3.123542   -1.080818   -0.523015
      2         11           0        0.347397   -2.955111   -0.362228
      3         11           0        2.353137    2.229392   -0.269328
      4         11           0        2.820467   -1.153156    0.095720
      5         11           0       -1.555959    2.817159    0.281433
      6         11           0       -0.317188    0.555727   -1.441302
      7         11           0       -0.524311   -0.413193    2.218719
 ---------------------------------------------------------------------

 SCF Done:  E(UB3LYP) =  -1136.13167780     A.U. after   19 cycles

 The electronic state is 2-A.
 Alpha  occ. eigenvalues --  -38.44458 -38.44251 -38.43903 -38.43786 -38.43755
 Alpha  occ. eigenvalues --  -38.43569 -38.43139  -2.20263  -2.20044  -2.19709
 Alpha  occ. eigenvalues --   -2.19627  -2.19590  -2.19417  -2.19098  -1.13973
 Alpha  occ. eigenvalues --   -1.13919  -1.13880  -1.13725  -1.13693  -1.13680
 Alpha  occ. eigenvalues --   -1.13395  -1.13377  -1.13356  -1.13340  -1.13289
 Alpha  occ. eigenvalues --   -1.13266  -1.13245  -1.13218  -1.13203  -1.13078
 Alpha  occ. eigenvalues --   -1.13068  -1.13049  -1.12788  -1.12753  -1.12719
 Alpha  occ. eigenvalues --   -0.18084  -0.12831  -0.12567  -0.10544
 Alpha virt. eigenvalues --   -0.06104  -0.05206  -0.04851  -0.03112  -0.02926
 Alpha virt. eigenvalues --   -0.02469  -0.01630  -0.01416  -0.00645  -0.00463
 Alpha virt. eigenvalues --   -0.00042   0.00326   0.00737   0.00771   0.00866

  Beta  occ. eigenvalues --  -38.44452 -38.44235 -38.43901 -38.43781 -38.43652
  Beta  occ. eigenvalues --  -38.43568 -38.43097  -2.20255  -2.20017  -2.19708
  Beta  occ. eigenvalues --   -2.19621  -2.19418  -2.19400  -2.19023  -1.13965
  Beta  occ. eigenvalues --   -1.13898  -1.13877  -1.13694  -1.13672  -1.13661
  Beta  occ. eigenvalues --   -1.13390  -1.13371  -1.13355  -1.13341  -1.13264
  Beta  occ. eigenvalues --   -1.13260  -1.13118  -1.13089  -1.13072  -1.13070
  Beta  occ. eigenvalues --   -1.13064  -1.13043  -1.12728  -1.12702  -1.12660
  Beta  occ. eigenvalues --   -0.17425  -0.12651  -0.12344
  Beta virt. eigenvalues --   -0.06659  -0.06056  -0.05089  -0.04801  -0.02383
  Beta virt. eigenvalues --   -0.02264  -0.01543  -0.01429  -0.01322  -0.00657
  Beta virt. eigenvalues --   -0.00501   0.00140   0.00387   0.00746   0.00848

 Mulliken charges and spin densities:
               1          2
     1  Na   0.170837   0.021302
     2  Na   0.160776   0.055942
     3  Na   0.159548   0.023525
     4  Na  -0.044879  -0.004767
     5  Na   0.039174   0.008134
     6  Na   0.003711   0.173616
     7  Na  -0.489167   0.722248
 Sum of Mulliken charges =  -0.00000   1.00000

 Dipole moment (field-independent basis, Debye):
    X=             -0.4481    Y=              0.3112    Z=              0.1384  Tot=              0.5629
 Quadrupole moment (field-independent basis, Debye-Ang):
   XX=            -58.3596   YY=            -59.7252   ZZ=            -75.5903
   XY=              0.3374   XZ=              0.4462   YZ=              1.8863

 Normal termination of Gaussian 16 at Thu Dec  7 15:11:12 2023.
