 Gaussian 16, Revision B.01,
 Gaussian 16:  ES64L-G16RevB.01 20-Dec-2017

 -------------------------
 #P B3LYP/6-311+g(d) force
 -------------------------

 -----
 DPGEN
 -----
 Symbolic Z-matrix:
 Charge =  0 Multiplicity = 2

                         Standard orientation:
 ---------------------------------------------------------------------
 Center     Atomic      Atomic             Coordinates (Angstroms)
 Number     Number       Type             X           Y           Z
 ---------------------------------------------------------------------
      1         11           0        1.809670    2.146173   -0.105852
      2         11           0       -3.450620   -0.145066   -0.964739
      3         11           0       -1.601036    1.839184    0.774136
      4         11           0        3.186511   -1.127018   -1.066234
      5         11           0       -0.097506   -0.150900   -1.557640
      6         11           0       -1.087306   -2.283384    0.977116
      7         11           0        1.240288   -0.278989    1.943212
 ---------------------------------------------------------------------

 SCF Done:  E(UB3LYP) =  -1136.13050776     A.U. after   23 cycles

 The electronic state is 2-A.
 Alpha  occ. eigenvalues --  -38.44540 -38.44386 -38.43832 -38.43800 -38.43139
 Alpha  occ. eigenvalues --  -38.43127 -38.43003  -2.20350  -2.20230  -2.19789
 Alpha  occ. eigenvalues --   -2.19731  -2.19019  -2.18976  -2.18893  -1.14025
 Alpha  occ. eigenvalues --   -1.13986  -1.13979  -1.13905  -1.13894  -1.13848
 Alpha  occ. eigenvalues --   -1.13496  -1.13438  -1.13421  -1.13410  -1.13379
 Alpha  occ. eigenvalues --   -1.13337  -1.12706  -1.12685  -1.12672  -1.12652
 Alpha  occ. eigenvalues --   -1.12630  -1.12587  -1.12578  -1.12575  -1.12494
 Alpha  occ. eigenvalues --   -0.18702  -0.13712  -0.11607  -0.11306
 Alpha virt. eigenvalues --   -0.06138  -0.04996  -0.04369  -0.03232  -0.02800
 Alpha virt. eigenvalues --   -0.02686  -0.02071  -0.00941  -0.00555   0.00048
 Alpha virt. eigenvalues --    0.00224   0.00284   0.00563   0.00778   0.00808

  Beta  occ. eigenvalues --  -38.44503 -38.44368 -38.43790 -38.43726 -38.43131
  Beta  occ. eigenvalues --  -38.43100 -38.42997  -2.20284  -2.20198  -2.19714
  Beta  occ. eigenvalues --   -2.19597  -2.19006  -2.18930  -2.18887  -1.13968
  Beta  occ. eigenvalues --   -1.13943  -1.13936  -1.13883  -1.13867  -1.13830
  Beta  occ. eigenvalues --   -1.13437  -1.13391  -1.13349  -1.13324  -1.13281
  Beta  occ. eigenvalues --   -1.13240  -1.12701  -1.12658  -1.12640  -1.12634
  Beta  occ. eigenvalues --   -1.12588  -1.12575  -1.12560  -1.12555  -1.12479
  Beta  occ. eigenvalues --   -0.17993  -0.13409  -0.11037
  Beta virt. eigenvalues --   -0.07706  -0.05967  -0.04829  -0.03971  -0.02977
  Beta virt. eigenvalues --   -0.02190  -0.01855  -0.01780  -0.00821  -0.00332
  Beta virt. eigenvalues --    0.00124   0.00251   0.00345   0.00630   0.00849

 Mulliken charges and spin densities:
               1          2
     1  Na   0.272496   0.099332
     2  Na   0.703000   0.052989
     3  Na  -0.248403   0.048253
     4  Na   0.154694   0.055382
     5  Na  -0.673686   0.321385
     6  Na  -0.318590   0.078299
     7  Na   0.110489   0.344360
 Sum of Mulliken charges =  -0.00000   1.00000

 Dipole moment (field-independent basis, Debye):
    X=              0.0347    Y=             -0.1784    Z=             -0.2960  Tot=              0.3474
 Quadrupole moment (field-independent basis, Debye-Ang):
   XX=            -50.8897   YY=            -74.4045   ZZ=            -68.0798
   XY=             -0.0335   XZ=              0.0789   YZ=              1.1597

 Normal termination of Gaussian 16 at Sun Dec  3 19:16:31 2023.
