 Gaussian 16, Revision B.01,
 Gaussian 16:  ES64L-G16RevB.01 20-Dec-2017

 -------------------------
 #P B3LYP/6-311+g(d) force
 -------------------------

 -----
 DPGEN
 -----
 Symbolic Z-matrix:
 Charge =  0 Multiplicity = 2

                         Standard orientation:
 ---------------------------------------------------------------------
 Center     Atomic      Atomic             Coordinates (Angstroms)
 Number     Number       Type             X           Y           Z
 ---------------------------------------------------------------------
      1         11           0       -1.169189    2.019377   -0.334370
      2         11           0       -1.123066   -2.396836    1.747449
      3         11           0        4.627543   -1.535576   -0.318415
      4         11           0        2.064865   -0.042816    0.141234
      5         11           0        0.859089    3.816600    0.526218
      6         11           0       -4.072457   -0.477004   -0.072803
      7         11           0       -1.186786   -1.383743   -1.689313
 ---------------------------------------------------------------------

 SCF Done:  E(UB3LYP) =  -1136.11143036     A.U. after   23 cycles

 The electronic state is 2-A.
 Alpha  occ. eigenvalues --  -38.46022 -38.45187 -38.44292 -38.43675 -38.43658
 Alpha  occ. eigenvalues --  -38.43430 -38.43087  -2.21820  -2.20983  -2.20106
 Alpha  occ. eigenvalues --   -2.19503  -2.19492  -2.19323  -2.18926  -1.15513
 Alpha  occ. eigenvalues --   -1.15479  -1.15443  -1.14654  -1.14632  -1.14605
 Alpha  occ. eigenvalues --   -1.13755  -1.13735  -1.13713  -1.13341  -1.13196
 Alpha  occ. eigenvalues --   -1.13141  -1.13127  -1.13126  -1.13121  -1.12997
 Alpha  occ. eigenvalues --   -1.12974  -1.12874  -1.12622  -1.12599  -1.12544
 Alpha  occ. eigenvalues --   -0.17279  -0.13392  -0.12447  -0.10426
 Alpha virt. eigenvalues --   -0.07417  -0.05405  -0.04495  -0.03053  -0.02980
 Alpha virt. eigenvalues --   -0.02671  -0.01753  -0.01530  -0.01033  -0.00626
 Alpha virt. eigenvalues --   -0.00422  -0.00344   0.00032   0.00371   0.00628

  Beta  occ. eigenvalues --  -38.46019 -38.45156 -38.44180 -38.43656 -38.43635
  Beta  occ. eigenvalues --  -38.43425 -38.43090  -2.21817  -2.20927  -2.19898
  Beta  occ. eigenvalues --   -2.19499  -2.19417  -2.19315  -2.18935  -1.15514
  Beta  occ. eigenvalues --   -1.15463  -1.15428  -1.14617  -1.14573  -1.14572
  Beta  occ. eigenvalues --   -1.13612  -1.13592  -1.13576  -1.13335  -1.13149
  Beta  occ. eigenvalues --   -1.13137  -1.13124  -1.13074  -1.13071  -1.12994
  Beta  occ. eigenvalues --   -1.12970  -1.12855  -1.12632  -1.12587  -1.12544
  Beta  occ. eigenvalues --   -0.16822  -0.13051  -0.11974
  Beta virt. eigenvalues --   -0.07247  -0.06774  -0.05242  -0.04216  -0.02780
  Beta virt. eigenvalues --   -0.02663  -0.02195  -0.01500  -0.01368  -0.00842
  Beta virt. eigenvalues --   -0.00319  -0.00165  -0.00027   0.00118   0.00446

 Mulliken charges and spin densities:
               1          2
     1  Na  -0.291775  -0.000493
     2  Na   0.127573   0.505503
     3  Na  -0.264891   0.085406
     4  Na  -0.803807   0.104279
     5  Na   0.742989   0.075540
     6  Na   0.371230   0.052826
     7  Na   0.118681   0.176940
 Sum of Mulliken charges =  -0.00000   1.00000

 Dipole moment (field-independent basis, Debye):
    X=             -1.6498    Y=             -0.5045    Z=             -0.1460  Tot=              1.7314
 Quadrupole moment (field-independent basis, Debye-Ang):
   XX=            -59.9885   YY=            -69.1198   ZZ=            -68.7385
   XY=              3.2922   XZ=             -2.3215   YZ=              4.6503

 Normal termination of Gaussian 16 at Mon Dec  4 03:30:23 2023.
