 Gaussian 16, Revision B.01,
 Gaussian 16:  ES64L-G16RevB.01 20-Dec-2017

 -------------------------
 #P B3LYP/6-311+g(d) force
 -------------------------

 -----
 DPGEN
 -----
 Symbolic Z-matrix:
 Charge =  0 Multiplicity = 2

                         Standard orientation:
 ---------------------------------------------------------------------
 Center     Atomic      Atomic             Coordinates (Angstroms)
 Number     Number       Type             X           Y           Z
 ---------------------------------------------------------------------
      1         11           0       -0.017185    2.931754   -0.113303
      2         11           0       -0.026182    0.161150    2.153204
      3         11           0       -2.753386    1.057775   -0.211458
      4         11           0        1.811566   -2.257613    0.006893
      5         11           0       -2.163763   -2.325291   -0.029657
      6         11           0       -0.086447   -0.188774   -1.576725
      7         11           0        3.235397    0.621000   -0.228954
 ---------------------------------------------------------------------

 SCF Done:  E(UB3LYP) =  -1136.13741349     A.U. after   19 cycles

 The electronic state is 2-A.
 Alpha  occ. eigenvalues --  -38.44229 -38.43813 -38.43678 -38.43641 -38.43532
 Alpha  occ. eigenvalues --  -38.43192 -38.43156  -2.20043  -2.19698  -2.19547
 Alpha  occ. eigenvalues --   -2.19507  -2.19359  -2.19183  -2.19006  -1.13720
 Alpha  occ. eigenvalues --   -1.13709  -1.13682  -1.13401  -1.13358  -1.13331
 Alpha  occ. eigenvalues --   -1.13220  -1.13205  -1.13178  -1.13166  -1.13154
 Alpha  occ. eigenvalues --   -1.13128  -1.13041  -1.13017  -1.13002  -1.12866
 Alpha  occ. eigenvalues --   -1.12830  -1.12795  -1.12675  -1.12668  -1.12644
 Alpha  occ. eigenvalues --   -0.18622  -0.13218  -0.12264  -0.10752
 Alpha virt. eigenvalues --   -0.05689  -0.05210  -0.04642  -0.03233  -0.02801
 Alpha virt. eigenvalues --   -0.02613  -0.01605  -0.01130  -0.00418  -0.00305
 Alpha virt. eigenvalues --   -0.00027   0.00348   0.00767   0.00875   0.00888

  Beta  occ. eigenvalues --  -38.44227 -38.43805 -38.43636 -38.43574 -38.43530
  Beta  occ. eigenvalues --  -38.43151 -38.43135  -2.20041  -2.19687  -2.19501
  Beta  occ. eigenvalues --   -2.19360  -2.19353  -2.19081  -2.19002  -1.13721
  Beta  occ. eigenvalues --   -1.13692  -1.13681  -1.13389  -1.13332  -1.13325
  Beta  occ. eigenvalues --   -1.13207  -1.13145  -1.13125  -1.13078  -1.13036
  Beta  occ. eigenvalues --   -1.13032  -1.13027  -1.13012  -1.12995  -1.12796
  Beta  occ. eigenvalues --   -1.12758  -1.12724  -1.12668  -1.12645  -1.12639
  Beta  occ. eigenvalues --   -0.17893  -0.12992  -0.12051
  Beta virt. eigenvalues --   -0.06795  -0.05646  -0.05216  -0.04602  -0.02445
  Beta virt. eigenvalues --   -0.02027  -0.01534  -0.01518  -0.01061  -0.00472
  Beta virt. eigenvalues --   -0.00350   0.00131   0.00376   0.00828   0.00877

 Mulliken charges and spin densities:
               1          2
     1  Na   0.111812  -0.048402
     2  Na  -0.603016   0.776130
     3  Na   0.325053   0.011877
     4  Na   0.218108  -0.009394
     5  Na   0.173116  -0.022318
     6  Na  -0.302967   0.339377
     7  Na   0.077895  -0.047271
 Sum of Mulliken charges =  -0.00000   1.00000

 Dipole moment (field-independent basis, Debye):
    X=              0.1942    Y=             -0.0222    Z=              0.1461  Tot=              0.2440
 Quadrupole moment (field-independent basis, Debye-Ang):
   XX=            -56.0284   YY=            -62.9959   ZZ=            -74.5744
   XY=              1.2150   XZ=             -0.2676   YZ=             -0.9218

 Normal termination of Gaussian 16 at Thu Dec  7 13:00:00 2023.
