 Gaussian 16, Revision B.01,
 Gaussian 16:  ES64L-G16RevB.01 20-Dec-2017

 -------------------------
 #P B3LYP/6-311+g(d) force
 -------------------------

 -----
 DPGEN
 -----
 Symbolic Z-matrix:
 Charge =  0 Multiplicity = 2

                         Standard orientation:
 ---------------------------------------------------------------------
 Center     Atomic      Atomic             Coordinates (Angstroms)
 Number     Number       Type             X           Y           Z
 ---------------------------------------------------------------------
      1         11           0        1.428984   -2.209270   -0.727636
      2         11           0       -5.402346   -0.607302    0.189024
      3         11           0       -1.975831   -1.237811    0.038089
      4         11           0       -2.927245    2.432088   -0.269379
      5         11           0        0.150216    0.881172   -0.061704
      6         11           0        3.228425   -0.151080    1.416718
      7         11           0        5.497797    0.892203   -0.585112
 ---------------------------------------------------------------------

 SCF Done:  E(UB3LYP) =  -1136.11654647     A.U. after   22 cycles

 The electronic state is 2-A.
 Alpha  occ. eigenvalues --  -38.44322 -38.44161 -38.44154 -38.44129 -38.44037
 Alpha  occ. eigenvalues --  -38.44000 -38.43744  -2.20126  -2.20065  -2.20003
 Alpha  occ. eigenvalues --   -2.19999  -2.19924  -2.19798  -2.19518  -1.13863
 Alpha  occ. eigenvalues --   -1.13800  -1.13793  -1.13748  -1.13737  -1.13700
 Alpha  occ. eigenvalues --   -1.13697  -1.13677  -1.13658  -1.13637  -1.13618
 Alpha  occ. eigenvalues --   -1.13608  -1.13598  -1.13580  -1.13497  -1.13450
 Alpha  occ. eigenvalues --   -1.13440  -1.13399  -1.13182  -1.13181  -1.13161
 Alpha  occ. eigenvalues --   -0.17279  -0.14319  -0.11344  -0.11284
 Alpha virt. eigenvalues --   -0.06185  -0.05906  -0.04668  -0.03321  -0.02952
 Alpha virt. eigenvalues --   -0.02479  -0.01910  -0.01580  -0.01092  -0.00600
 Alpha virt. eigenvalues --   -0.00434  -0.00057   0.00365   0.00437   0.00594

  Beta  occ. eigenvalues --  -38.44276 -38.44150 -38.44142 -38.44081 -38.44016
  Beta  occ. eigenvalues --  -38.43929 -38.43753  -2.20045  -2.19994  -2.19980
  Beta  occ. eigenvalues --   -2.19964  -2.19887  -2.19667  -2.19536  -1.13810
  Beta  occ. eigenvalues --   -1.13749  -1.13725  -1.13699  -1.13685  -1.13677
  Beta  occ. eigenvalues --   -1.13669  -1.13652  -1.13646  -1.13603  -1.13599
  Beta  occ. eigenvalues --   -1.13593  -1.13543  -1.13524  -1.13456  -1.13361
  Beta  occ. eigenvalues --   -1.13350  -1.13321  -1.13194  -1.13193  -1.13171
  Beta  occ. eigenvalues --   -0.16757  -0.13908  -0.11115
  Beta virt. eigenvalues --   -0.07447  -0.06072  -0.05580  -0.04309  -0.03127
  Beta virt. eigenvalues --   -0.02572  -0.01945  -0.01574  -0.01317  -0.00946
  Beta virt. eigenvalues --   -0.00318  -0.00278   0.00101   0.00435   0.00545

 Mulliken charges and spin densities:
               1          2
     1  Na   0.666124   0.064477
     2  Na   0.650623   0.319436
     3  Na  -1.063710   0.170540
     4  Na  -0.048798  -0.003765
     5  Na  -1.012041   0.500149
     6  Na   0.655716  -0.004498
     7  Na   0.152087  -0.046339
 Sum of Mulliken charges =  -0.00000   1.00000

 Dipole moment (field-independent basis, Debye):
    X=             -0.1112    Y=             -0.2641    Z=             -0.4397  Tot=              0.5248
 Quadrupole moment (field-independent basis, Debye-Ang):
   XX=            -68.1349   YY=            -66.8302   ZZ=            -67.3057
   XY=             -5.0983   XZ=             -4.2831   YZ=             -0.6776

 Normal termination of Gaussian 16 at Tue Nov 28 20:53:19 2023.
