 Gaussian 16, Revision B.01,
 Gaussian 16:  ES64L-G16RevB.01 20-Dec-2017

 -------------------------
 #P B3LYP/6-311+g(d) force
 -------------------------

 -----
 DPGEN
 -----
 Symbolic Z-matrix:
 Charge =  0 Multiplicity = 2

                         Standard orientation:
 ---------------------------------------------------------------------
 Center     Atomic      Atomic             Coordinates (Angstroms)
 Number     Number       Type             X           Y           Z
 ---------------------------------------------------------------------
      1         11           0        0.157674    0.184163    2.243386
      2         11           0        1.843123   -1.734936   -0.318121
      3         11           0       -2.488100   -1.873205    0.658921
      4         11           0       -5.077621   -0.067344   -1.166688
      5         11           0       -1.100777    2.172967   -0.472877
      6         11           0        4.550969   -0.915354   -1.056890
      7         11           0        2.114731    2.233708    0.112268
 ---------------------------------------------------------------------

 SCF Done:  E(UB3LYP) =  -1136.11735666     A.U. after   21 cycles

 The electronic state is 2-A.
 Alpha  occ. eigenvalues --  -38.44787 -38.44570 -38.44420 -38.44114 -38.44098
 Alpha  occ. eigenvalues --  -38.43931 -38.43577  -2.20634  -2.20376  -2.20187
 Alpha  occ. eigenvalues --   -2.19946  -2.19860  -2.19782  -2.19414  -1.14311
 Alpha  occ. eigenvalues --   -1.14293  -1.14235  -1.14068  -1.14031  -1.13990
 Alpha  occ. eigenvalues --   -1.13843  -1.13836  -1.13801  -1.13638  -1.13605
 Alpha  occ. eigenvalues --   -1.13556  -1.13547  -1.13535  -1.13520  -1.13489
 Alpha  occ. eigenvalues --   -1.13457  -1.13431  -1.13054  -1.13050  -1.13035
 Alpha  occ. eigenvalues --   -0.17205  -0.13516  -0.11916  -0.11365
 Alpha virt. eigenvalues --   -0.06241  -0.05457  -0.05191  -0.03381  -0.02856
 Alpha virt. eigenvalues --   -0.02448  -0.02127  -0.01488  -0.01396  -0.00534
 Alpha virt. eigenvalues --   -0.00134  -0.00038   0.00120   0.00425   0.00518

  Beta  occ. eigenvalues --  -38.44730 -38.44547 -38.44354 -38.44097 -38.44097
  Beta  occ. eigenvalues --  -38.43925 -38.43561  -2.20529  -2.20332  -2.20063
  Beta  occ. eigenvalues --   -2.19914  -2.19863  -2.19774  -2.19383  -1.14243
  Beta  occ. eigenvalues --   -1.14223  -1.14148  -1.14037  -1.13998  -1.13957
  Beta  occ. eigenvalues --   -1.13758  -1.13750  -1.13722  -1.13611  -1.13586
  Beta  occ. eigenvalues --   -1.13563  -1.13541  -1.13522  -1.13496  -1.13455
  Beta  occ. eigenvalues --   -1.13446  -1.13431  -1.13033  -1.13029  -1.13012
  Beta  occ. eigenvalues --   -0.16610  -0.13072  -0.11626
  Beta virt. eigenvalues --   -0.07929  -0.05886  -0.05081  -0.04766  -0.03192
  Beta virt. eigenvalues --   -0.02360  -0.02130  -0.01943  -0.01313  -0.00983
  Beta virt. eigenvalues --   -0.00371   0.00016   0.00115   0.00246   0.00540

 Mulliken charges and spin densities:
               1          2
     1  Na   0.124890   0.370888
     2  Na  -0.870645  -0.019163
     3  Na  -0.157356  -0.216410
     4  Na   0.157511   0.359842
     5  Na  -0.198398   0.147948
     6  Na   0.904000   0.175701
     7  Na   0.039998   0.181193
 Sum of Mulliken charges =  -0.00000   1.00000

 Dipole moment (field-independent basis, Debye):
    X=              0.2796    Y=              0.9227    Z=              0.4333  Tot=              1.0570
 Quadrupole moment (field-independent basis, Debye-Ang):
   XX=            -61.9254   YY=            -71.9504   ZZ=            -67.3221
   XY=              2.6875   XZ=              2.2299   YZ=             -1.7637

 Normal termination of Gaussian 16 at Mon Dec  4 03:34:21 2023.
