 Gaussian 16, Revision B.01,
 Gaussian 16:  ES64L-G16RevB.01 20-Dec-2017

 -------------------------
 #P B3LYP/6-311+g(d) force
 -------------------------

 -----
 DPGEN
 -----
 Symbolic Z-matrix:
 Charge =  0 Multiplicity = 2

                         Standard orientation:
 ---------------------------------------------------------------------
 Center     Atomic      Atomic             Coordinates (Angstroms)
 Number     Number       Type             X           Y           Z
 ---------------------------------------------------------------------
      1         11           0        2.416169    2.079902    0.027476
      2         11           0        3.012607   -1.174509    0.415960
      3         11           0       -0.445381    0.368840    1.822331
      4         11           0        0.169503   -0.436482   -1.816287
      5         11           0       -1.615454    2.820291   -0.537750
      6         11           0       -3.265091   -0.772191    0.349072
      7         11           0       -0.272354   -2.885851   -0.260803
 ---------------------------------------------------------------------

 SCF Done:  E(UB3LYP) =  -1136.13225194     A.U. after   20 cycles

 The electronic state is 2-A.
 Alpha  occ. eigenvalues --  -38.44460 -38.44002 -38.43976 -38.43912 -38.43703
 Alpha  occ. eigenvalues --  -38.43493 -38.43339  -2.20255  -2.19819  -2.19776
 Alpha  occ. eigenvalues --   -2.19688  -2.19573  -2.19416  -2.19209  -1.13938
 Alpha  occ. eigenvalues --   -1.13905  -1.13890  -1.13514  -1.13488  -1.13461
 Alpha  occ. eigenvalues --   -1.13450  -1.13428  -1.13397  -1.13361  -1.13345
 Alpha  occ. eigenvalues --   -1.13326  -1.13257  -1.13208  -1.13204  -1.13197
 Alpha  occ. eigenvalues --   -1.13058  -1.13019  -1.12856  -1.12850  -1.12811
 Alpha  occ. eigenvalues --   -0.18073  -0.12998  -0.12290  -0.10494
 Alpha virt. eigenvalues --   -0.05906  -0.05459  -0.04731  -0.03232  -0.02937
 Alpha virt. eigenvalues --   -0.02321  -0.01762  -0.01285  -0.00622  -0.00536
 Alpha virt. eigenvalues --   -0.00026   0.00331   0.00745   0.00777   0.00840

  Beta  occ. eigenvalues --  -38.44449 -38.43993 -38.43974 -38.43896 -38.43644
  Beta  occ. eigenvalues --  -38.43417 -38.43330  -2.20237  -2.19804  -2.19777
  Beta  occ. eigenvalues --   -2.19660  -2.19463  -2.19277  -2.19196  -1.13910
  Beta  occ. eigenvalues --   -1.13889  -1.13881  -1.13511  -1.13469  -1.13446
  Beta  occ. eigenvalues --   -1.13439  -1.13428  -1.13390  -1.13332  -1.13326
  Beta  occ. eigenvalues --   -1.13305  -1.13183  -1.13131  -1.13126  -1.13114
  Beta  occ. eigenvalues --   -1.12960  -1.12925  -1.12834  -1.12814  -1.12792
  Beta  occ. eigenvalues --   -0.17409  -0.12736  -0.12029
  Beta virt. eigenvalues --   -0.06792  -0.05792  -0.05387  -0.04629  -0.02551
  Beta virt. eigenvalues --   -0.02238  -0.01630  -0.01401  -0.01174  -0.00661
  Beta virt. eigenvalues --   -0.00535   0.00110   0.00379   0.00790   0.00810

 Mulliken charges and spin densities:
               1          2
     1  Na  -0.010419  -0.063700
     2  Na  -0.023577   0.020537
     3  Na  -0.099396   0.529612
     4  Na  -0.052311   0.583792
     5  Na  -0.153640  -0.000341
     6  Na   0.109282  -0.033079
     7  Na   0.230061  -0.036822
 Sum of Mulliken charges =  -0.00000   1.00000

 Dipole moment (field-independent basis, Debye):
    X=             -0.2059    Y=              0.0796    Z=              0.1161  Tot=              0.2494
 Quadrupole moment (field-independent basis, Debye-Ang):
   XX=            -55.5983   YY=            -62.8624   ZZ=            -75.0477
   XY=              0.1034   XZ=              1.3426   YZ=             -2.2395

 Normal termination of Gaussian 16 at Fri Dec  8 03:04:52 2023.
