 Gaussian 16, Revision B.01,
 Gaussian 16:  ES64L-G16RevB.01 20-Dec-2017

 -------------------------
 #P B3LYP/6-311+g(d) force
 -------------------------

 -----
 DPGEN
 -----
 Symbolic Z-matrix:
 Charge =  0 Multiplicity = 2

                         Standard orientation:
 ---------------------------------------------------------------------
 Center     Atomic      Atomic             Coordinates (Angstroms)
 Number     Number       Type             X           Y           Z
 ---------------------------------------------------------------------
      1         11           0        1.412290    2.450754    0.500832
      2         11           0       -2.349238   -1.574993    0.491295
      3         11           0       -2.319391    1.950788   -0.509987
      4         11           0       -0.006048   -0.008303    1.878991
      5         11           0        2.848233   -0.611954   -0.165147
      6         11           0        0.356275   -2.566841   -0.426162
      7         11           0        0.057879    0.360548   -1.769822
 ---------------------------------------------------------------------

 SCF Done:  E(UB3LYP) =  -1136.13447449     A.U. after   18 cycles

 The electronic state is 2-A.
 Alpha  occ. eigenvalues --  -38.43670 -38.43614 -38.43575 -38.43471 -38.43459
 Alpha  occ. eigenvalues --  -38.43411 -38.43079  -2.19604  -2.19513  -2.19460
 Alpha  occ. eigenvalues --   -2.19420  -2.19372  -2.19370  -2.19042  -1.13322
 Alpha  occ. eigenvalues --   -1.13298  -1.13261  -1.13222  -1.13157  -1.13148
 Alpha  occ. eigenvalues --   -1.13137  -1.13124  -1.13110  -1.13094  -1.13075
 Alpha  occ. eigenvalues --   -1.13053  -1.13041  -1.13030  -1.13026  -1.13003
 Alpha  occ. eigenvalues --   -1.12988  -1.12978  -1.12709  -1.12680  -1.12661
 Alpha  occ. eigenvalues --   -0.19344  -0.12987  -0.12733  -0.11378
 Alpha virt. eigenvalues --   -0.05183  -0.04913  -0.04455  -0.03326  -0.03204
 Alpha virt. eigenvalues --   -0.02809  -0.01249  -0.01030  -0.00143   0.00114
 Alpha virt. eigenvalues --    0.00208   0.00360   0.00894   0.00956   0.00972

  Beta  occ. eigenvalues --  -38.43657 -38.43560 -38.43529 -38.43466 -38.43447
  Beta  occ. eigenvalues --  -38.43336 -38.43068  -2.19492  -2.19450  -2.19435
  Beta  occ. eigenvalues --   -2.19365  -2.19354  -2.19283  -2.19027  -1.13236
  Beta  occ. eigenvalues --   -1.13225  -1.13204  -1.13138  -1.13130  -1.13122
  Beta  occ. eigenvalues --   -1.13111  -1.13087  -1.13070  -1.13062  -1.13055
  Beta  occ. eigenvalues --   -1.13023  -1.12992  -1.12983  -1.12979  -1.12959
  Beta  occ. eigenvalues --   -1.12945  -1.12915  -1.12695  -1.12667  -1.12627
  Beta  occ. eigenvalues --   -0.18606  -0.12700  -0.12422
  Beta virt. eigenvalues --   -0.07415  -0.05157  -0.04867  -0.04427  -0.02529
  Beta virt. eigenvalues --   -0.02424  -0.01740  -0.01156  -0.00936  -0.00061
  Beta virt. eigenvalues --    0.00125   0.00186   0.00384   0.00915   0.00961

 Mulliken charges and spin densities:
               1          2
     1  Na   0.160576  -0.027731
     2  Na   0.254248   0.051668
     3  Na  -0.020900  -0.054786
     4  Na  -0.330646   0.523166
     5  Na   0.112792  -0.039744
     6  Na   0.134983   0.038285
     7  Na  -0.311054   0.509142
 Sum of Mulliken charges =  -0.00000   1.00000

 Dipole moment (field-independent basis, Debye):
    X=              0.0042    Y=              0.3350    Z=              0.0783  Tot=              0.3441
 Quadrupole moment (field-independent basis, Debye-Ang):
   XX=            -59.6279   YY=            -63.5851   ZZ=            -71.5990
   XY=             -0.0684   XZ=             -0.0528   YZ=              0.7101

 Normal termination of Gaussian 16 at Thu Dec  7 10:02:40 2023.
