 Gaussian 16, Revision B.01,
 Gaussian 16:  ES64L-G16RevB.01 20-Dec-2017

 -------------------------
 #P B3LYP/6-311+g(d) force
 -------------------------

 -----
 DPGEN
 -----
 Symbolic Z-matrix:
 Charge =  0 Multiplicity = 2

                         Standard orientation:
 ---------------------------------------------------------------------
 Center     Atomic      Atomic             Coordinates (Angstroms)
 Number     Number       Type             X           Y           Z
 ---------------------------------------------------------------------
      1         11           0       -1.933940    2.129152    0.324483
      2         11           0       -0.083945   -0.169562   -1.734942
      3         11           0        1.340671    2.387084   -0.569704
      4         11           0        2.751912   -0.561676    0.218770
      5         11           0        0.276063    0.099357    1.906688
      6         11           0        0.306355   -2.665726   -0.090701
      7         11           0       -2.657117   -1.218629   -0.054594
 ---------------------------------------------------------------------

 SCF Done:  E(UB3LYP) =  -1136.13642351     A.U. after   18 cycles

 The electronic state is 2-A.
 Alpha  occ. eigenvalues --  -38.43544 -38.43458 -38.43410 -38.43367 -38.43333
 Alpha  occ. eigenvalues --  -38.43319 -38.43210  -2.19531  -2.19370  -2.19342
 Alpha  occ. eigenvalues --   -2.19307  -2.19282  -2.19244  -2.19166  -1.13260
 Alpha  occ. eigenvalues --   -1.13188  -1.13157  -1.13136  -1.13078  -1.13062
 Alpha  occ. eigenvalues --   -1.13007  -1.12996  -1.12972  -1.12969  -1.12960
 Alpha  occ. eigenvalues --   -1.12949  -1.12940  -1.12935  -1.12912  -1.12893
 Alpha  occ. eigenvalues --   -1.12874  -1.12844  -1.12812  -1.12808  -1.12759
 Alpha  occ. eigenvalues --   -0.19536  -0.13006  -0.12877  -0.11268
 Alpha virt. eigenvalues --   -0.04989  -0.04913  -0.04653  -0.03238  -0.03196
 Alpha virt. eigenvalues --   -0.02730  -0.01135  -0.00985  -0.00088   0.00107
 Alpha virt. eigenvalues --    0.00173   0.00371   0.00935   0.00974   0.00988

  Beta  occ. eigenvalues --  -38.43458 -38.43455 -38.43404 -38.43357 -38.43316
  Beta  occ. eigenvalues --  -38.43241 -38.43202  -2.19374  -2.19340  -2.19294
  Beta  occ. eigenvalues --   -2.19273  -2.19231  -2.19216  -2.19154  -1.13173
  Beta  occ. eigenvalues --   -1.13097  -1.13073  -1.13045  -1.13023  -1.13008
  Beta  occ. eigenvalues --   -1.13004  -1.12975  -1.12959  -1.12942  -1.12935
  Beta  occ. eigenvalues --   -1.12912  -1.12907  -1.12897  -1.12869  -1.12850
  Beta  occ. eigenvalues --   -1.12833  -1.12828  -1.12793  -1.12768  -1.12742
  Beta  occ. eigenvalues --   -0.18782  -0.12725  -0.12587
  Beta virt. eigenvalues --   -0.07278  -0.04978  -0.04888  -0.04641  -0.02416
  Beta virt. eigenvalues --   -0.02365  -0.01643  -0.01060  -0.00916  -0.00013
  Beta virt. eigenvalues --    0.00082   0.00163   0.00387   0.00955   0.00975

 Mulliken charges and spin densities:
               1          2
     1  Na   0.044124  -0.031407
     2  Na  -0.395289   0.499700
     3  Na   0.160709   0.006152
     4  Na   0.431718   0.020372
     5  Na  -0.549804   0.641523
     6  Na   0.287821  -0.054748
     7  Na   0.020721  -0.081591
 Sum of Mulliken charges =  -0.00000   1.00000

 Dipole moment (field-independent basis, Debye):
    X=             -0.1049    Y=              0.0926    Z=              0.1385  Tot=              0.1969
 Quadrupole moment (field-independent basis, Debye-Ang):
   XX=            -60.0935   YY=            -62.6851   ZZ=            -71.9137
   XY=              0.0120   XZ=             -0.8395   YZ=             -0.5450

 Normal termination of Gaussian 16 at Thu Dec  7 06:05:53 2023.
