 Gaussian 16, Revision B.01,
 Gaussian 16:  ES64L-G16RevB.01 20-Dec-2017

 -------------------------
 #P B3LYP/6-311+g(d) force
 -------------------------

 -----
 DPGEN
 -----
 Symbolic Z-matrix:
 Charge =  0 Multiplicity = 2

                         Standard orientation:
 ---------------------------------------------------------------------
 Center     Atomic      Atomic             Coordinates (Angstroms)
 Number     Number       Type             X           Y           Z
 ---------------------------------------------------------------------
      1         11           0       -1.599990    1.958492    0.505034
      2         11           0       -0.966640   -2.269733    0.679876
      3         11           0       -0.069728    0.197908   -1.693951
      4         11           0        0.492094   -0.398003    1.771090
      5         11           0        3.524173   -1.198369   -0.762687
      6         11           0       -3.578136   -0.279440   -0.737685
      7         11           0        2.198228    1.989145    0.238323
 ---------------------------------------------------------------------

 SCF Done:  E(UB3LYP) =  -1136.11728527     A.U. after   25 cycles

 The electronic state is 2-A.
 Alpha  occ. eigenvalues --  -38.44960 -38.44753 -38.44563 -38.43649 -38.43580
 Alpha  occ. eigenvalues --  -38.43139 -38.42989  -2.20733  -2.20586  -2.20469
 Alpha  occ. eigenvalues --   -2.19694  -2.19435  -2.19044  -2.18924  -1.14401
 Alpha  occ. eigenvalues --   -1.14378  -1.14351  -1.14262  -1.14234  -1.14212
 Alpha  occ. eigenvalues --   -1.14187  -1.14115  -1.14075  -1.13655  -1.13311
 Alpha  occ. eigenvalues --   -1.13261  -1.13121  -1.13103  -1.13049  -1.12739
 Alpha  occ. eigenvalues --   -1.12710  -1.12663  -1.12571  -1.12532  -1.12480
 Alpha  occ. eigenvalues --   -0.18807  -0.13786  -0.11396  -0.11211
 Alpha virt. eigenvalues --   -0.06700  -0.05250  -0.03904  -0.03254  -0.02728
 Alpha virt. eigenvalues --   -0.02474  -0.02460  -0.01214  -0.00407  -0.00089
 Alpha virt. eigenvalues --    0.00109   0.00201   0.00574   0.00662   0.00792

  Beta  occ. eigenvalues --  -38.44918 -38.44730 -38.44530 -38.43574 -38.43566
  Beta  occ. eigenvalues --  -38.43128 -38.42972  -2.20655  -2.20544  -2.20408
  Beta  occ. eigenvalues --   -2.19544  -2.19428  -2.19029  -2.18899  -1.14345
  Beta  occ. eigenvalues --   -1.14321  -1.14302  -1.14236  -1.14198  -1.14186
  Beta  occ. eigenvalues --   -1.14139  -1.14079  -1.14027  -1.13556  -1.13213
  Beta  occ. eigenvalues --   -1.13154  -1.13102  -1.13097  -1.13028  -1.12733
  Beta  occ. eigenvalues --   -1.12683  -1.12638  -1.12538  -1.12493  -1.12466
  Beta  occ. eigenvalues --   -0.18153  -0.13385  -0.11117
  Beta virt. eigenvalues --   -0.07540  -0.06408  -0.05071  -0.03544  -0.03044
  Beta virt. eigenvalues --   -0.02289  -0.01960  -0.01616  -0.01105  -0.00290
  Beta virt. eigenvalues --    0.00009   0.00137   0.00274   0.00680   0.00752

 Mulliken charges and spin densities:
               1          2
     1  Na  -0.084983  -0.087621
     2  Na  -0.285045  -0.095101
     3  Na  -0.414708   0.519167
     4  Na   0.372149   0.304420
     5  Na  -0.165447   0.195703
     6  Na   0.369247   0.234102
     7  Na   0.208788  -0.070670
 Sum of Mulliken charges =  -0.00000   1.00000

 Dipole moment (field-independent basis, Debye):
    X=              0.1611    Y=              0.0678    Z=             -0.5680  Tot=              0.5942
 Quadrupole moment (field-independent basis, Debye-Ang):
   XX=            -49.1398   YY=            -73.5839   ZZ=            -70.8098
   XY=              0.2957   XZ=              0.2597   YZ=              4.0816

 Normal termination of Gaussian 16 at Thu Dec  7 14:17:52 2023.
