 Gaussian 16, Revision B.01,
 Gaussian 16:  ES64L-G16RevB.01 20-Dec-2017

 -------------------------
 #P B3LYP/6-311+g(d) force
 -------------------------

 -----
 DPGEN
 -----
 Symbolic Z-matrix:
 Charge =  0 Multiplicity = 2

                         Standard orientation:
 ---------------------------------------------------------------------
 Center     Atomic      Atomic             Coordinates (Angstroms)
 Number     Number       Type             X           Y           Z
 ---------------------------------------------------------------------
      1         11           0        1.143073   -1.409576   -1.421210
      2         11           0        1.776418    1.593664    1.533202
      3         11           0        0.145457   -1.731089    1.993033
      4         11           0       -2.547754   -2.417220   -0.490855
      5         11           0       -1.118475    0.499177    0.075083
      6         11           0        3.622480    0.587093   -1.152844
      7         11           0       -3.021198    2.877951   -0.536407
 ---------------------------------------------------------------------

 SCF Done:  E(UB3LYP) =  -1136.11889521     A.U. after   22 cycles

 The electronic state is 2-A.
 Alpha  occ. eigenvalues --  -38.44939 -38.44579 -38.44471 -38.44304 -38.44273
 Alpha  occ. eigenvalues --  -38.43034 -38.42292  -2.20734  -2.20452  -2.20296
 Alpha  occ. eigenvalues --   -2.20179  -2.20103  -2.18823  -2.18304  -1.14408
 Alpha  occ. eigenvalues --   -1.14401  -1.14344  -1.14147  -1.14106  -1.14033
 Alpha  occ. eigenvalues --   -1.13973  -1.13948  -1.13925  -1.13886  -1.13857
 Alpha  occ. eigenvalues --   -1.13834  -1.13749  -1.13732  -1.13698  -1.12513
 Alpha  occ. eigenvalues --   -1.12475  -1.12463  -1.12007  -1.11982  -1.11921
 Alpha  occ. eigenvalues --   -0.18200  -0.13315  -0.11711  -0.11238
 Alpha virt. eigenvalues --   -0.06340  -0.05668  -0.04294  -0.03100  -0.03040
 Alpha virt. eigenvalues --   -0.02277  -0.02149  -0.01103  -0.00983  -0.00068
 Alpha virt. eigenvalues --   -0.00001   0.00168   0.00350   0.00655   0.00692

  Beta  occ. eigenvalues --  -38.44930 -38.44508 -38.44434 -38.44263 -38.44245
  Beta  occ. eigenvalues --  -38.43027 -38.42280  -2.20716  -2.20321  -2.20230
  Beta  occ. eigenvalues --   -2.20105  -2.20053  -2.18811  -2.18287  -1.14397
  Beta  occ. eigenvalues --   -1.14381  -1.14333  -1.14056  -1.14022  -1.13933
  Beta  occ. eigenvalues --   -1.13923  -1.13890  -1.13879  -1.13838  -1.13806
  Beta  occ. eigenvalues --   -1.13771  -1.13715  -1.13695  -1.13650  -1.12504
  Beta  occ. eigenvalues --   -1.12466  -1.12454  -1.11985  -1.11936  -1.11919
  Beta  occ. eigenvalues --   -0.17463  -0.13028  -0.11245
  Beta virt. eigenvalues --   -0.07697  -0.06220  -0.05191  -0.03927  -0.02819
  Beta virt. eigenvalues --   -0.02398  -0.02044  -0.01711  -0.00996  -0.00567
  Beta virt. eigenvalues --   -0.00007   0.00125   0.00220   0.00427   0.00688

 Mulliken charges and spin densities:
               1          2
     1  Na   0.972792   0.175559
     2  Na   0.914700   0.134498
     3  Na   0.612376   0.305938
     4  Na   1.472279   0.032020
     5  Na  -3.346604   0.366804
     6  Na  -0.489599   0.079139
     7  Na  -0.135945  -0.093958
 Sum of Mulliken charges =  -0.00000   1.00000

 Dipole moment (field-independent basis, Debye):
    X=              0.6953    Y=             -1.4101    Z=              0.3021  Tot=              1.6010
 Quadrupole moment (field-independent basis, Debye-Ang):
   XX=            -58.4791   YY=            -65.9288   ZZ=            -68.0078
   XY=              8.7287   XZ=              2.0259   YZ=              0.0775

 Normal termination of Gaussian 16 at Fri Dec  8 17:19:32 2023.
