 Gaussian 16, Revision B.01,
 Gaussian 16:  ES64L-G16RevB.01 20-Dec-2017

 -------------------------
 #P B3LYP/6-311+g(d) force
 -------------------------

 -----
 DPGEN
 -----
 Symbolic Z-matrix:
 Charge =  0 Multiplicity = 2

                         Standard orientation:
 ---------------------------------------------------------------------
 Center     Atomic      Atomic             Coordinates (Angstroms)
 Number     Number       Type             X           Y           Z
 ---------------------------------------------------------------------
      1         11           0       -2.624806    1.681433   -0.401989
      2         11           0        1.326288    2.985477   -0.101173
      3         11           0        3.508277   -0.383768    0.072092
      4         11           0        0.059195   -0.264099   -1.843342
      5         11           0        0.091703    0.241655    2.082013
      6         11           0       -3.157703   -1.312255    0.356290
      7         11           0        0.797046   -2.948443   -0.163891
 ---------------------------------------------------------------------

 SCF Done:  E(UB3LYP) =  -1136.12882237     A.U. after   20 cycles

 The electronic state is 2-A.
 Alpha  occ. eigenvalues --  -38.45263 -38.44321 -38.44035 -38.44020 -38.43677
 Alpha  occ. eigenvalues --  -38.43464 -38.43366  -2.21010  -2.20124  -2.19857
 Alpha  occ. eigenvalues --   -2.19847  -2.19550  -2.19232  -2.19176  -1.14695
 Alpha  occ. eigenvalues --   -1.14658  -1.14646  -1.13832  -1.13782  -1.13759
 Alpha  occ. eigenvalues --   -1.13528  -1.13517  -1.13504  -1.13489  -1.13477
 Alpha  occ. eigenvalues --   -1.13471  -1.13238  -1.13194  -1.13170  -1.12909
 Alpha  occ. eigenvalues --   -1.12892  -1.12878  -1.12863  -1.12836  -1.12801
 Alpha  occ. eigenvalues --   -0.17721  -0.13095  -0.11813  -0.10573
 Alpha virt. eigenvalues --   -0.06458  -0.05276  -0.04693  -0.03344  -0.02794
 Alpha virt. eigenvalues --   -0.02571  -0.02064  -0.01224  -0.00728  -0.00596
 Alpha virt. eigenvalues --   -0.00095   0.00330   0.00603   0.00679   0.00791

  Beta  occ. eigenvalues --  -38.45264 -38.44316 -38.44012 -38.43950 -38.43605
  Beta  occ. eigenvalues --  -38.43465 -38.43362  -2.21013  -2.20117  -2.19836
  Beta  occ. eigenvalues --   -2.19698  -2.19418  -2.19236  -2.19171  -1.14684
  Beta  occ. eigenvalues --   -1.14661  -1.14651  -1.13831  -1.13760  -1.13756
  Beta  occ. eigenvalues --   -1.13504  -1.13481  -1.13473  -1.13419  -1.13379
  Beta  occ. eigenvalues --   -1.13356  -1.13148  -1.13097  -1.13077  -1.12900
  Beta  occ. eigenvalues --   -1.12896  -1.12879  -1.12851  -1.12819  -1.12801
  Beta  occ. eigenvalues --   -0.16996  -0.12946  -0.11610
  Beta virt. eigenvalues --   -0.06756  -0.06351  -0.05241  -0.04588  -0.02643
  Beta virt. eigenvalues --   -0.02063  -0.01946  -0.01606  -0.01131  -0.00787
  Beta virt. eigenvalues --   -0.00609   0.00062   0.00357   0.00736   0.00788

 Mulliken charges and spin densities:
               1          2
     1  Na   0.128522  -0.046703
     2  Na  -0.103255  -0.148195
     3  Na   0.047810  -0.108184
     4  Na   0.122374   0.604813
     5  Na  -0.246205   0.777415
     6  Na   0.028755   0.024331
     7  Na   0.021998  -0.103478
 Sum of Mulliken charges =  -0.00000   1.00000

 Dipole moment (field-independent basis, Debye):
    X=              0.3760    Y=             -0.1634    Z=              0.1043  Tot=              0.4231
 Quadrupole moment (field-independent basis, Debye-Ang):
   XX=            -52.6818   YY=            -65.4967   ZZ=            -75.3861
   XY=              0.3695   XZ=             -0.0976   YZ=             -1.8756

 Normal termination of Gaussian 16 at Tue Dec  5 09:49:09 2023.
