 Gaussian 16, Revision B.01,
 Gaussian 16:  ES64L-G16RevB.01 20-Dec-2017

 -------------------------
 #P B3LYP/6-311+g(d) force
 -------------------------

 -----
 DPGEN
 -----
 Symbolic Z-matrix:
 Charge =  0 Multiplicity = 2

                         Standard orientation:
 ---------------------------------------------------------------------
 Center     Atomic      Atomic             Coordinates (Angstroms)
 Number     Number       Type             X           Y           Z
 ---------------------------------------------------------------------
      1         11           0        0.987168    3.003742   -0.208855
      2         11           0        2.988692    0.228196   -0.205526
      3         11           0        0.207723   -0.360737    2.230108
      4         11           0        1.098190   -3.062827   -0.169375
      5         11           0       -2.388419    1.746993    0.170911
      6         11           0       -2.829379   -1.397388   -0.301994
      7         11           0       -0.063977   -0.157979   -1.515269
 ---------------------------------------------------------------------

 SCF Done:  E(UB3LYP) =  -1136.13687937     A.U. after   19 cycles

 The electronic state is 2-A.
 Alpha  occ. eigenvalues --  -38.43961 -38.43925 -38.43895 -38.43786 -38.43633
 Alpha  occ. eigenvalues --  -38.43449 -38.43098  -2.19800  -2.19767  -2.19695
 Alpha  occ. eigenvalues --   -2.19629  -2.19487  -2.19268  -2.19077  -1.13494
 Alpha  occ. eigenvalues --   -1.13470  -1.13465  -1.13433  -1.13423  -1.13402
 Alpha  occ. eigenvalues --   -1.13373  -1.13355  -1.13333  -1.13283  -1.13256
 Alpha  occ. eigenvalues --   -1.13243  -1.13162  -1.13146  -1.13122  -1.12940
 Alpha  occ. eigenvalues --   -1.12924  -1.12917  -1.12765  -1.12720  -1.12701
 Alpha  occ. eigenvalues --   -0.18346  -0.12977  -0.12405  -0.10684
 Alpha virt. eigenvalues --   -0.05655  -0.05134  -0.04992  -0.03150  -0.02825
 Alpha virt. eigenvalues --   -0.02638  -0.01424  -0.01364  -0.00506  -0.00457
 Alpha virt. eigenvalues --   -0.00029   0.00343   0.00805   0.00825   0.00853

  Beta  occ. eigenvalues --  -38.43955 -38.43919 -38.43893 -38.43679 -38.43629
  Beta  occ. eigenvalues --  -38.43448 -38.43045  -2.19791  -2.19760  -2.19693
  Beta  occ. eigenvalues --   -2.19482  -2.19431  -2.19268  -2.18983  -1.13484
  Beta  occ. eigenvalues --   -1.13459  -1.13447  -1.13420  -1.13416  -1.13394
  Beta  occ. eigenvalues --   -1.13363  -1.13344  -1.13334  -1.13162  -1.13148
  Beta  occ. eigenvalues --   -1.13128  -1.13119  -1.13118  -1.13101  -1.12933
  Beta  occ. eigenvalues --   -1.12923  -1.12912  -1.12696  -1.12649  -1.12633
  Beta  occ. eigenvalues --   -0.17645  -0.12766  -0.12206
  Beta virt. eigenvalues --   -0.06727  -0.05664  -0.05036  -0.04967  -0.02368
  Beta virt. eigenvalues --   -0.02111  -0.01553  -0.01348  -0.01283  -0.00552
  Beta virt. eigenvalues --   -0.00493   0.00140   0.00382   0.00808   0.00862

 Mulliken charges and spin densities:
               1          2
     1  Na   0.020633   0.009988
     2  Na   0.250389   0.010712
     3  Na  -0.593384   0.766202
     4  Na   0.156454  -0.066607
     5  Na   0.120120   0.077975
     6  Na   0.279812  -0.023358
     7  Na  -0.234024   0.225089
 Sum of Mulliken charges =  -0.00000   1.00000

 Dipole moment (field-independent basis, Debye):
    X=              0.0391    Y=             -0.3008    Z=              0.1219  Tot=              0.3269
 Quadrupole moment (field-independent basis, Debye-Ang):
   XX=            -58.9982   YY=            -59.4058   ZZ=            -75.1752
   XY=              0.0144   XZ=             -0.5220   YZ=              0.6539

 Normal termination of Gaussian 16 at Thu Dec  7 16:25:01 2023.
