 Gaussian 16, Revision B.01,
 Gaussian 16:  ES64L-G16RevB.01 20-Dec-2017

 -------------------------
 #P B3LYP/6-311+g(d) force
 -------------------------

 -----
 DPGEN
 -----
 Symbolic Z-matrix:
 Charge =  0 Multiplicity = 2

                         Standard orientation:
 ---------------------------------------------------------------------
 Center     Atomic      Atomic             Coordinates (Angstroms)
 Number     Number       Type             X           Y           Z
 ---------------------------------------------------------------------
      1         11           0       -2.122179   -1.575529    0.844258
      2         11           0        2.496624    1.546846   -0.143167
      3         11           0        1.000177   -0.663680    1.803966
      4         11           0       -1.229281    2.000079    0.950057
      5         11           0        3.573287   -1.302026   -0.718042
      6         11           0       -0.126081    0.158399   -1.660072
      7         11           0       -3.592546   -0.164088   -1.077000
 ---------------------------------------------------------------------

 SCF Done:  E(UB3LYP) =  -1136.11814153     A.U. after   28 cycles

 The electronic state is 2-A.
 Alpha  occ. eigenvalues --  -38.44944 -38.44356 -38.44288 -38.44113 -38.43792
 Alpha  occ. eigenvalues --  -38.43547 -38.42644  -2.20832  -2.20273  -2.20234
 Alpha  occ. eigenvalues --   -2.20004  -2.19711  -2.19382  -2.18512  -1.14531
 Alpha  occ. eigenvalues --   -1.14485  -1.14454  -1.14097  -1.13969  -1.13960
 Alpha  occ. eigenvalues --   -1.13889  -1.13869  -1.13838  -1.13634  -1.13618
 Alpha  occ. eigenvalues --   -1.13584  -1.13406  -1.13356  -1.13301  -1.13062
 Alpha  occ. eigenvalues --   -1.13037  -1.13018  -1.12199  -1.12172  -1.12140
 Alpha  occ. eigenvalues --   -0.18863  -0.14563  -0.11726  -0.10662
 Alpha virt. eigenvalues --   -0.06726  -0.05338  -0.04778  -0.03264  -0.02603
 Alpha virt. eigenvalues --   -0.02519  -0.02173  -0.01050  -0.00901  -0.00164
 Alpha virt. eigenvalues --    0.00157   0.00225   0.00362   0.00602   0.00765

  Beta  occ. eigenvalues --  -38.44896 -38.44339 -38.44243 -38.44106 -38.43721
  Beta  occ. eigenvalues --  -38.43550 -38.42635  -2.20747  -2.20244  -2.20153
  Beta  occ. eigenvalues --   -2.19992  -2.19583  -2.19387  -2.18498  -1.14465
  Beta  occ. eigenvalues --   -1.14416  -1.14391  -1.14046  -1.13944  -1.13930
  Beta  occ. eigenvalues --   -1.13852  -1.13837  -1.13782  -1.13620  -1.13601
  Beta  occ. eigenvalues --   -1.13556  -1.13316  -1.13257  -1.13213  -1.13066
  Beta  occ. eigenvalues --   -1.13032  -1.13022  -1.12186  -1.12144  -1.12133
  Beta  occ. eigenvalues --   -0.18103  -0.14413  -0.10522
  Beta virt. eigenvalues --   -0.07653  -0.06498  -0.05059  -0.04300  -0.02760
  Beta virt. eigenvalues --   -0.02514  -0.01965  -0.01624  -0.00905  -0.00462
  Beta virt. eigenvalues --   -0.00100   0.00177   0.00369   0.00408   0.00688

 Mulliken charges and spin densities:
               1          2
     1  Na  -0.328041  -0.011296
     2  Na   0.626972   0.066777
     3  Na  -0.164073   0.392797
     4  Na  -0.378325   0.052838
     5  Na   0.098302  -0.101009
     6  Na  -0.623066   0.463686
     7  Na   0.768230   0.136207
 Sum of Mulliken charges =  -0.00000   1.00000

 Dipole moment (field-independent basis, Debye):
    X=              0.0243    Y=              0.6263    Z=              0.0830  Tot=              0.6323
 Quadrupole moment (field-independent basis, Debye-Ang):
   XX=            -58.0743   YY=            -70.3835   ZZ=            -71.3466
   XY=             -1.4359   XZ=              0.3720   YZ=             -3.8466

 Normal termination of Gaussian 16 at Thu Dec  7 17:18:51 2023.
