 Gaussian 16, Revision B.01,
 Gaussian 16:  ES64L-G16RevB.01 20-Dec-2017

 -------------------------
 #P B3LYP/6-311+g(d) force
 -------------------------

 -----
 DPGEN
 -----
 Symbolic Z-matrix:
 Charge =  0 Multiplicity = 2

                         Standard orientation:
 ---------------------------------------------------------------------
 Center     Atomic      Atomic             Coordinates (Angstroms)
 Number     Number       Type             X           Y           Z
 ---------------------------------------------------------------------
      1         11           0       -3.720048   -1.523625    0.132498
      2         11           0       -0.081930   -2.071268   -0.651444
      3         11           0        3.248179   -2.083411    0.229594
      4         11           0        2.447512    0.855951   -0.835063
      5         11           0        0.672453    3.344203    0.233073
      6         11           0       -2.501507    1.361826   -0.672382
      7         11           0       -0.064659    0.116323    1.563725
 ---------------------------------------------------------------------

 SCF Done:  E(UB3LYP) =  -1136.12667939     A.U. after   21 cycles

 The electronic state is 2-A.
 Alpha  occ. eigenvalues --  -38.44377 -38.44235 -38.44163 -38.44135 -38.43651
 Alpha  occ. eigenvalues --  -38.43431 -38.43164  -2.20204  -2.20094  -2.19975
 Alpha  occ. eigenvalues --   -2.19964  -2.19540  -2.19261  -2.19106  -1.13896
 Alpha  occ. eigenvalues --   -1.13878  -1.13835  -1.13826  -1.13781  -1.13689
 Alpha  occ. eigenvalues --   -1.13649  -1.13639  -1.13625  -1.13619  -1.13595
 Alpha  occ. eigenvalues --   -1.13580  -1.13225  -1.13209  -1.13174  -1.12926
 Alpha  occ. eigenvalues --   -1.12921  -1.12897  -1.12798  -1.12730  -1.12699
 Alpha  occ. eigenvalues --   -0.18007  -0.13804  -0.12621  -0.09619
 Alpha virt. eigenvalues --   -0.06165  -0.06009  -0.05040  -0.03067  -0.02568
 Alpha virt. eigenvalues --   -0.02418  -0.01874  -0.01394  -0.01063  -0.00582
 Alpha virt. eigenvalues --    0.00035   0.00149   0.00563   0.00650   0.00699

  Beta  occ. eigenvalues --  -38.44355 -38.44225 -38.44142 -38.44119 -38.43618
  Beta  occ. eigenvalues --  -38.43429 -38.43074  -2.20165  -2.20080  -2.19938
  Beta  occ. eigenvalues --   -2.19936  -2.19482  -2.19259  -2.18941  -1.13871
  Beta  occ. eigenvalues --   -1.13853  -1.13805  -1.13788  -1.13751  -1.13690
  Beta  occ. eigenvalues --   -1.13629  -1.13616  -1.13595  -1.13587  -1.13565
  Beta  occ. eigenvalues --   -1.13555  -1.13188  -1.13155  -1.13134  -1.12921
  Beta  occ. eigenvalues --   -1.12913  -1.12889  -1.12688  -1.12626  -1.12576
  Beta  occ. eigenvalues --   -0.17449  -0.13253  -0.12477
  Beta virt. eigenvalues --   -0.06172  -0.05911  -0.05795  -0.04974  -0.02529
  Beta virt. eigenvalues --   -0.02249  -0.02062  -0.01626  -0.01011  -0.00881
  Beta virt. eigenvalues --   -0.00404   0.00183   0.00346   0.00657   0.00731

 Mulliken charges and spin densities:
               1          2
     1  Na   0.386451   0.141498
     2  Na  -0.439962  -0.059279
     3  Na   0.606014   0.138071
     4  Na  -0.384677   0.244424
     5  Na   0.308819   0.149920
     6  Na  -0.230195   0.197095
     7  Na  -0.246450   0.188271
 Sum of Mulliken charges =  -0.00000   1.00000

 Dipole moment (field-independent basis, Debye):
    X=             -0.1880    Y=             -0.6165    Z=              0.6733  Tot=              0.9320
 Quadrupole moment (field-independent basis, Debye-Ang):
   XX=            -67.0729   YY=            -60.5090   ZZ=            -71.4666
   XY=             -0.3563   XZ=              1.1410   YZ=             -0.4035

 Normal termination of Gaussian 16 at Thu Dec  7 02:54:44 2023.
