 Gaussian 16, Revision B.01,
 Gaussian 16:  ES64L-G16RevB.01 20-Dec-2017

 -------------------------
 #P B3LYP/6-311+g(d) force
 -------------------------

 -----
 DPGEN
 -----
 Symbolic Z-matrix:
 Charge =  0 Multiplicity = 2

                         Standard orientation:
 ---------------------------------------------------------------------
 Center     Atomic      Atomic             Coordinates (Angstroms)
 Number     Number       Type             X           Y           Z
 ---------------------------------------------------------------------
      1         11           0        2.888662   -2.296390   -0.183595
      2         11           0        3.044155    1.356072    0.704790
      3         11           0       -2.589233   -0.610806    2.403379
      4         11           0       -0.304896    0.433275    1.065183
      5         11           0        0.134703    3.267555   -0.999100
      6         11           0       -0.402521   -2.255040   -1.359428
      7         11           0       -2.770868    0.105334   -1.631228
 ---------------------------------------------------------------------

 SCF Done:  E(UB3LYP) =  -1136.11947838     A.U. after   21 cycles

 The electronic state is 2-A.
 Alpha  occ. eigenvalues --  -38.45023 -38.44592 -38.44241 -38.44093 -38.43690
 Alpha  occ. eigenvalues --  -38.43513 -38.43454  -2.20887  -2.20404  -2.20012
 Alpha  occ. eigenvalues --   -2.19862  -2.19510  -2.19475  -2.19222  -1.14641
 Alpha  occ. eigenvalues --   -1.14488  -1.14455  -1.14083  -1.14043  -1.14027
 Alpha  occ. eigenvalues --   -1.13712  -1.13678  -1.13626  -1.13533  -1.13523
 Alpha  occ. eigenvalues --   -1.13481  -1.13204  -1.13186  -1.13178  -1.13130
 Alpha  occ. eigenvalues --   -1.13107  -1.13098  -1.12902  -1.12877  -1.12869
 Alpha  occ. eigenvalues --   -0.17390  -0.12979  -0.11940  -0.11706
 Alpha virt. eigenvalues --   -0.05946  -0.05478  -0.04789  -0.03124  -0.02950
 Alpha virt. eigenvalues --   -0.02813  -0.01668  -0.00998  -0.00952  -0.00605
 Alpha virt. eigenvalues --   -0.00238   0.00270   0.00334   0.00535   0.00796

  Beta  occ. eigenvalues --  -38.44918 -38.44544 -38.44244 -38.44067 -38.43667
  Beta  occ. eigenvalues --  -38.43480 -38.43462  -2.20697  -2.20315  -2.20019
  Beta  occ. eigenvalues --   -2.19813  -2.19469  -2.19421  -2.19238  -1.14501
  Beta  occ. eigenvalues --   -1.14359  -1.14328  -1.14013  -1.13978  -1.13970
  Beta  occ. eigenvalues --   -1.13714  -1.13682  -1.13632  -1.13499  -1.13489
  Beta  occ. eigenvalues --   -1.13448  -1.13173  -1.13146  -1.13101  -1.13099
  Beta  occ. eigenvalues --   -1.13081  -1.13064  -1.12911  -1.12888  -1.12877
  Beta  occ. eigenvalues --   -0.16731  -0.12681  -0.11688
  Beta virt. eigenvalues --   -0.07864  -0.05680  -0.05212  -0.04453  -0.02842
  Beta virt. eigenvalues --   -0.02466  -0.02223  -0.01453  -0.00930  -0.00504
  Beta virt. eigenvalues --   -0.00417  -0.00093   0.00329   0.00557   0.00678

 Mulliken charges and spin densities:
               1          2
     1  Na  -0.147416  -0.045716
     2  Na   0.744865  -0.058873
     3  Na   0.381404   0.057318
     4  Na  -1.084954   0.539422
     5  Na  -0.063935   0.118938
     6  Na  -0.157196   0.105009
     7  Na   0.327233   0.283902
 Sum of Mulliken charges =  -0.00000   1.00000

 Dipole moment (field-independent basis, Debye):
    X=             -0.7656    Y=              0.3116    Z=             -0.1263  Tot=              0.8361
 Quadrupole moment (field-independent basis, Debye-Ang):
   XX=            -56.5019   YY=            -69.0561   ZZ=            -68.2327
   XY=              1.1759   XZ=              1.6258   YZ=             -3.7030

 Normal termination of Gaussian 16 at Sun Dec  3 20:09:51 2023.
