 Gaussian 16, Revision B.01,
 Gaussian 16:  ES64L-G16RevB.01 20-Dec-2017

 -------------------------
 #P B3LYP/6-311+g(d) force
 -------------------------

 -----
 DPGEN
 -----
 Symbolic Z-matrix:
 Charge =  0 Multiplicity = 2

                         Standard orientation:
 ---------------------------------------------------------------------
 Center     Atomic      Atomic             Coordinates (Angstroms)
 Number     Number       Type             X           Y           Z
 ---------------------------------------------------------------------
      1         11           0        0.451975   -3.249655    0.062583
      2         11           0       -3.114165   -2.048551    1.446681
      3         11           0        4.334767    1.208664    0.407778
      4         11           0        3.194510   -2.002771   -1.150801
      5         11           0       -4.085145    0.125068   -1.069564
      6         11           0       -1.944052    3.276018   -0.535621
      7         11           0        1.162111    2.691228    0.838944
 ---------------------------------------------------------------------

 SCF Done:  E(UB3LYP) =  -1136.10659265     A.U. after   23 cycles

 The electronic state is 2-A.
 Alpha  occ. eigenvalues --  -38.45612 -38.44647 -38.44645 -38.44565 -38.44405
 Alpha  occ. eigenvalues --  -38.44122 -38.43727  -2.21353  -2.20417  -2.20402
 Alpha  occ. eigenvalues --   -2.20351  -2.20183  -2.19919  -2.19518  -1.15036
 Alpha  occ. eigenvalues --   -1.15013  -1.14994  -1.14093  -1.14084  -1.14080
 Alpha  occ. eigenvalues --   -1.14061  -1.14053  -1.14041  -1.14039  -1.14021
 Alpha  occ. eigenvalues --   -1.13988  -1.13851  -1.13844  -1.13797  -1.13571
 Alpha  occ. eigenvalues --   -1.13554  -1.13548  -1.13175  -1.13165  -1.13147
 Alpha  occ. eigenvalues --   -0.15412  -0.13821  -0.13113  -0.10708
 Alpha virt. eigenvalues --   -0.07670  -0.05003  -0.04537  -0.03542  -0.03501
 Alpha virt. eigenvalues --   -0.02329  -0.02089  -0.01482  -0.01285  -0.01161
 Alpha virt. eigenvalues --   -0.00839  -0.00428   0.00201   0.00362   0.00564

  Beta  occ. eigenvalues --  -38.45608 -38.44643 -38.44609 -38.44543 -38.44371
  Beta  occ. eigenvalues --  -38.44051 -38.43671  -2.21350  -2.20406  -2.20347
  Beta  occ. eigenvalues --   -2.20316  -2.20124  -2.19788  -2.19413  -1.15036
  Beta  occ. eigenvalues --   -1.15014  -1.14969  -1.14102  -1.14092  -1.14033
  Beta  occ. eigenvalues --   -1.14018  -1.14005  -1.14001  -1.14001  -1.14001
  Beta  occ. eigenvalues --   -1.13947  -1.13814  -1.13807  -1.13740  -1.13482
  Beta  occ. eigenvalues --   -1.13465  -1.13462  -1.13103  -1.13095  -1.13078
  Beta  occ. eigenvalues --   -0.14903  -0.13107  -0.12303
  Beta virt. eigenvalues --   -0.07848  -0.07636  -0.04627  -0.04000  -0.03373
  Beta virt. eigenvalues --   -0.03263  -0.02120  -0.01739  -0.01284  -0.01047
  Beta virt. eigenvalues --   -0.00831  -0.00734  -0.00171   0.00223   0.00429

 Mulliken charges and spin densities:
               1          2
     1  Na  -0.300071   0.121351
     2  Na   0.029450   0.195845
     3  Na   0.282171   0.300555
     4  Na   0.171106   0.062799
     5  Na  -0.050847   0.029552
     6  Na   0.352167   0.248405
     7  Na  -0.483977   0.041494
 Sum of Mulliken charges =  -0.00000   1.00000

 Dipole moment (field-independent basis, Debye):
    X=             -0.6508    Y=             -0.4912    Z=             -0.1949  Tot=              0.8384
 Quadrupole moment (field-independent basis, Debye-Ang):
   XX=            -59.6298   YY=            -75.0079   ZZ=            -66.3429
   XY=             -1.4295   XZ=              1.0504   YZ=             -1.5968

 Normal termination of Gaussian 16 at Sun Dec  3 12:08:46 2023.
