 Gaussian 16, Revision B.01,
 Gaussian 16:  ES64L-G16RevB.01 20-Dec-2017

 -------------------------
 #P B3LYP/6-311+g(d) force
 -------------------------

 -----
 DPGEN
 -----
 Symbolic Z-matrix:
 Charge =  0 Multiplicity = 2

                         Standard orientation:
 ---------------------------------------------------------------------
 Center     Atomic      Atomic             Coordinates (Angstroms)
 Number     Number       Type             X           Y           Z
 ---------------------------------------------------------------------
      1         11           0       -2.563767    1.895699   -0.332938
      2         11           0       -0.631825   -0.552827   -1.124717
      3         11           0       -0.057347   -0.088507    2.516058
      4         11           0        1.403551    2.110418    0.491103
      5         11           0       -3.608320   -1.575562   -0.497528
      6         11           0        2.339705   -1.846782    0.802218
      7         11           0        3.118003    0.057562   -1.854197
 ---------------------------------------------------------------------

 SCF Done:  E(UB3LYP) =  -1136.12405053     A.U. after   24 cycles

 The electronic state is 2-A.
 Alpha  occ. eigenvalues --  -38.44903 -38.44343 -38.44074 -38.43718 -38.43480
 Alpha  occ. eigenvalues --  -38.43476 -38.43252  -2.20714  -2.20187  -2.19884
 Alpha  occ. eigenvalues --   -2.19626  -2.19331  -2.19308  -2.19111  -1.14427
 Alpha  occ. eigenvalues --   -1.14368  -1.14305  -1.13866  -1.13835  -1.13814
 Alpha  occ. eigenvalues --   -1.13573  -1.13540  -1.13515  -1.13348  -1.13298
 Alpha  occ. eigenvalues --   -1.13223  -1.13015  -1.13003  -1.12981  -1.12966
 Alpha  occ. eigenvalues --   -1.12941  -1.12932  -1.12785  -1.12760  -1.12722
 Alpha  occ. eigenvalues --   -0.18014  -0.13800  -0.11619  -0.10894
 Alpha virt. eigenvalues --   -0.06002  -0.05822  -0.04342  -0.03168  -0.03023
 Alpha virt. eigenvalues --   -0.02483  -0.02104  -0.01245  -0.00723  -0.00323
 Alpha virt. eigenvalues --    0.00204   0.00224   0.00391   0.00594   0.00680

  Beta  occ. eigenvalues --  -38.44879 -38.44301 -38.44066 -38.43705 -38.43454
  Beta  occ. eigenvalues --  -38.43446 -38.43207  -2.20669  -2.20112  -2.19868
  Beta  occ. eigenvalues --   -2.19607  -2.19284  -2.19252  -2.19029  -1.14392
  Beta  occ. eigenvalues --   -1.14338  -1.14271  -1.13810  -1.13789  -1.13744
  Beta  occ. eigenvalues --   -1.13559  -1.13528  -1.13505  -1.13298  -1.13289
  Beta  occ. eigenvalues --   -1.13215  -1.12985  -1.12956  -1.12942  -1.12926
  Beta  occ. eigenvalues --   -1.12905  -1.12895  -1.12727  -1.12708  -1.12651
  Beta  occ. eigenvalues --   -0.17306  -0.13558  -0.10785
  Beta virt. eigenvalues --   -0.07740  -0.05711  -0.05438  -0.03994  -0.02797
  Beta virt. eigenvalues --   -0.02619  -0.02000  -0.01860  -0.00891  -0.00500
  Beta virt. eigenvalues --   -0.00190   0.00252   0.00333   0.00507   0.00704

 Mulliken charges and spin densities:
               1          2
     1  Na   0.304461  -0.131365
     2  Na  -1.233585   0.743227
     3  Na   0.049685   0.227510
     4  Na  -0.155437   0.350329
     5  Na   0.503649  -0.222428
     6  Na  -0.001590  -0.072309
     7  Na   0.532817   0.105036
 Sum of Mulliken charges =  -0.00000   1.00000

 Dipole moment (field-independent basis, Debye):
    X=             -0.8264    Y=              0.2835    Z=              0.3539  Tot=              0.9427
 Quadrupole moment (field-independent basis, Debye-Ang):
   XX=            -55.8301   YY=            -66.5504   ZZ=            -72.8181
   XY=             -0.5362   XZ=             -1.5334   YZ=             -6.4285

 Normal termination of Gaussian 16 at Fri Dec  8 03:03:47 2023.
