 Gaussian 16, Revision B.01,
 Gaussian 16:  ES64L-G16RevB.01 20-Dec-2017

 -------------------------
 #P B3LYP/6-311+g(d) force
 -------------------------

 -----
 DPGEN
 -----
 Symbolic Z-matrix:
 Charge =  0 Multiplicity = 2

                         Standard orientation:
 ---------------------------------------------------------------------
 Center     Atomic      Atomic             Coordinates (Angstroms)
 Number     Number       Type             X           Y           Z
 ---------------------------------------------------------------------
      1         11           0        0.352885    0.475759    2.371763
      2         11           0        1.277911    2.816091   -0.721517
      3         11           0        2.504930   -0.022517    0.252101
      4         11           0        1.206543   -2.743218   -0.598588
      5         11           0       -2.488611    1.502813   -0.369513
      6         11           0       -0.786331   -0.667392   -2.088346
      7         11           0       -2.067328   -1.361536    1.154100
 ---------------------------------------------------------------------

 SCF Done:  E(UB3LYP) =  -1136.12866176     A.U. after   19 cycles

 The electronic state is 2-A.
 Alpha  occ. eigenvalues --  -38.44809 -38.44198 -38.44077 -38.43853 -38.43578
 Alpha  occ. eigenvalues --  -38.43131 -38.42988  -2.20693  -2.20089  -2.19955
 Alpha  occ. eigenvalues --   -2.19654  -2.19425  -2.19058  -2.18852  -1.14376
 Alpha  occ. eigenvalues --   -1.14346  -1.14291  -1.13756  -1.13739  -1.13723
 Alpha  occ. eigenvalues --   -1.13647  -1.13597  -1.13573  -1.13344  -1.13298
 Alpha  occ. eigenvalues --   -1.13292  -1.13113  -1.13083  -1.13049  -1.12770
 Alpha  occ. eigenvalues --   -1.12730  -1.12703  -1.12525  -1.12488  -1.12483
 Alpha  occ. eigenvalues --   -0.18514  -0.12774  -0.12250  -0.12151
 Alpha virt. eigenvalues --   -0.05194  -0.04844  -0.04419  -0.03863  -0.03519
 Alpha virt. eigenvalues --   -0.03387  -0.00938  -0.00877  -0.00366   0.00143
 Alpha virt. eigenvalues --    0.00263   0.00427   0.00700   0.00779   0.00898

  Beta  occ. eigenvalues --  -38.44723 -38.44140 -38.44039 -38.43836 -38.43572
  Beta  occ. eigenvalues --  -38.43127 -38.42985  -2.20536  -2.19981  -2.19888
  Beta  occ. eigenvalues --   -2.19624  -2.19417  -2.19054  -2.18849  -1.14272
  Beta  occ. eigenvalues --   -1.14227  -1.14178  -1.13690  -1.13656  -1.13648
  Beta  occ. eigenvalues --   -1.13591  -1.13548  -1.13519  -1.13321  -1.13275
  Beta  occ. eigenvalues --   -1.13270  -1.13100  -1.13064  -1.13046  -1.12756
  Beta  occ. eigenvalues --   -1.12723  -1.12698  -1.12512  -1.12487  -1.12478
  Beta  occ. eigenvalues --   -0.17709  -0.12608  -0.11929
  Beta virt. eigenvalues --   -0.08243  -0.04941  -0.04518  -0.04311  -0.03409
  Beta virt. eigenvalues --   -0.02807  -0.02501  -0.00828  -0.00816  -0.00148
  Beta virt. eigenvalues --    0.00199   0.00292   0.00480   0.00883   0.00918

 Mulliken charges and spin densities:
               1          2
     1  Na  -0.093523   0.252871
     2  Na  -0.024589   0.011092
     3  Na   0.036809   0.150966
     4  Na   0.163601  -0.066399
     5  Na   0.060432  -0.000074
     6  Na  -0.285863   0.449427
     7  Na   0.143133   0.202117
 Sum of Mulliken charges =  -0.00000   1.00000

 Dipole moment (field-independent basis, Debye):
    X=             -0.4814    Y=              0.2316    Z=              0.0821  Tot=              0.5405
 Quadrupole moment (field-independent basis, Debye-Ang):
   XX=            -67.8643   YY=            -65.4154   ZZ=            -64.8431
   XY=             -0.0367   XZ=             -1.1339   YZ=             -2.9302

 Normal termination of Gaussian 16 at Mon Dec  4 05:46:11 2023.
