 Gaussian 16, Revision B.01,
 Gaussian 16:  ES64L-G16RevB.01 20-Dec-2017

 -------------------------
 #P B3LYP/6-311+g(d) force
 -------------------------

 -----
 DPGEN
 -----
 Symbolic Z-matrix:
 Charge =  0 Multiplicity = 2

                         Standard orientation:
 ---------------------------------------------------------------------
 Center     Atomic      Atomic             Coordinates (Angstroms)
 Number     Number       Type             X           Y           Z
 ---------------------------------------------------------------------
      1         11           0       -0.321887   -0.463041    1.794455
      2         11           0        1.045577    1.310140   -1.446019
      3         11           0       -2.283715    2.129824   -0.345325
      4         11           0        2.714824   -1.384639   -0.778007
      5         11           0        3.737533    0.706530    1.294629
      6         11           0       -1.106515   -1.582316   -1.266475
      7         11           0       -3.785817   -0.716498    0.746742
 ---------------------------------------------------------------------

 SCF Done:  E(UB3LYP) =  -1136.11775188     A.U. after   39 cycles

 The electronic state is 2-A.
 Alpha  occ. eigenvalues --  -38.45257 -38.44769 -38.44337 -38.44279 -38.44265
 Alpha  occ. eigenvalues --  -38.43716 -38.42334  -2.21051  -2.20642  -2.20161
 Alpha  occ. eigenvalues --   -2.20152  -2.20105  -2.19553  -2.18201  -1.14772
 Alpha  occ. eigenvalues --   -1.14731  -1.14639  -1.14336  -1.14299  -1.14289
 Alpha  occ. eigenvalues --   -1.13854  -1.13851  -1.13833  -1.13800  -1.13771
 Alpha  occ. eigenvalues --   -1.13768  -1.13743  -1.13739  -1.13730  -1.13233
 Alpha  occ. eigenvalues --   -1.13193  -1.13166  -1.11896  -1.11883  -1.11828
 Alpha  occ. eigenvalues --   -0.18271  -0.14510  -0.11363  -0.10546
 Alpha virt. eigenvalues --   -0.07130  -0.05556  -0.04865  -0.03098  -0.02892
 Alpha virt. eigenvalues --   -0.02525  -0.02148  -0.01311  -0.01011  -0.00347
 Alpha virt. eigenvalues --    0.00040   0.00126   0.00286   0.00491   0.00605

  Beta  occ. eigenvalues --  -38.45243 -38.44754 -38.44339 -38.44242 -38.44188
  Beta  occ. eigenvalues --  -38.43666 -38.42337  -2.21029  -2.20620  -2.20168
  Beta  occ. eigenvalues --   -2.20036  -2.20013  -2.19459  -2.18209  -1.14741
  Beta  occ. eigenvalues --   -1.14708  -1.14628  -1.14320  -1.14284  -1.14248
  Beta  occ. eigenvalues --   -1.13849  -1.13822  -1.13798  -1.13757  -1.13725
  Beta  occ. eigenvalues --   -1.13694  -1.13684  -1.13678  -1.13641  -1.13166
  Beta  occ. eigenvalues --   -1.13131  -1.13106  -1.11906  -1.11860  -1.11838
  Beta  occ. eigenvalues --   -0.17595  -0.14216  -0.10326
  Beta virt. eigenvalues --   -0.07649  -0.06968  -0.04878  -0.04647  -0.02798
  Beta virt. eigenvalues --   -0.02767  -0.01920  -0.01676  -0.00920  -0.00813
  Beta virt. eigenvalues --   -0.00185   0.00066   0.00258   0.00320   0.00613

 Mulliken charges and spin densities:
               1          2
     1  Na  -0.738433   0.216609
     2  Na  -0.523285   0.189392
     3  Na  -0.269289   0.121959
     4  Na   0.559119   0.011026
     5  Na   0.248989   0.103221
     6  Na  -0.193282   0.302551
     7  Na   0.916181   0.055242
 Sum of Mulliken charges =  -0.00000   1.00000

 Dipole moment (field-independent basis, Debye):
    X=             -0.2132    Y=             -0.3528    Z=             -0.0219  Tot=              0.4128
 Quadrupole moment (field-independent basis, Debye-Ang):
   XX=            -52.5699   YY=            -71.1574   ZZ=            -74.5702
   XY=             -0.1278   XZ=             -0.4246   YZ=              8.1320

 Normal termination of Gaussian 16 at Tue Dec  5 20:54:23 2023.
