 Gaussian 16, Revision B.01,
 Gaussian 16:  ES64L-G16RevB.01 20-Dec-2017

 -------------------------
 #P B3LYP/6-311+g(d) force
 -------------------------

 -----
 DPGEN
 -----
 Symbolic Z-matrix:
 Charge =  0 Multiplicity = 2

                         Standard orientation:
 ---------------------------------------------------------------------
 Center     Atomic      Atomic             Coordinates (Angstroms)
 Number     Number       Type             X           Y           Z
 ---------------------------------------------------------------------
      1         11           0       -2.823691   -0.396224   -0.301007
      2         11           0       -2.419110    3.842092    0.399343
      3         11           0        2.519130   -0.264067   -1.118373
      4         11           0       -2.669921   -2.945292    1.125356
      5         11           0        5.053490    0.149892    1.215510
      6         11           0        0.225613    2.374921   -0.479695
      7         11           0        0.114489   -2.761322   -0.841134
 ---------------------------------------------------------------------

 SCF Done:  E(UB3LYP) =  -1136.11663724     A.U. after   19 cycles

 The electronic state is 2-A.
 Alpha  occ. eigenvalues --  -38.45074 -38.44468 -38.44377 -38.44367 -38.44300
 Alpha  occ. eigenvalues --  -38.44046 -38.42912  -2.20906  -2.20291  -2.20175
 Alpha  occ. eigenvalues --   -2.20170  -2.20163  -2.19846  -2.18736  -1.14637
 Alpha  occ. eigenvalues --   -1.14568  -1.14533  -1.13970  -1.13949  -1.13913
 Alpha  occ. eigenvalues --   -1.13906  -1.13856  -1.13848  -1.13843  -1.13822
 Alpha  occ. eigenvalues --   -1.13806  -1.13803  -1.13775  -1.13729  -1.13480
 Alpha  occ. eigenvalues --   -1.13480  -1.13456  -1.12423  -1.12414  -1.12387
 Alpha  occ. eigenvalues --   -0.16579  -0.13645  -0.13082  -0.10555
 Alpha virt. eigenvalues --   -0.06481  -0.05788  -0.04479  -0.03972  -0.02577
 Alpha virt. eigenvalues --   -0.02012  -0.01833  -0.01695  -0.01624  -0.01042
 Alpha virt. eigenvalues --   -0.00223  -0.00031   0.00169   0.00375   0.00558

  Beta  occ. eigenvalues --  -38.45056 -38.44419 -38.44384 -38.44364 -38.44279
  Beta  occ. eigenvalues --  -38.43929 -38.42911  -2.20875  -2.20203  -2.20178
  Beta  occ. eigenvalues --   -2.20166  -2.20131  -2.19628  -2.18741  -1.14607
  Beta  occ. eigenvalues --   -1.14535  -1.14515  -1.13912  -1.13910  -1.13889
  Beta  occ. eigenvalues --   -1.13853  -1.13852  -1.13841  -1.13829  -1.13812
  Beta  occ. eigenvalues --   -1.13809  -1.13776  -1.13746  -1.13736  -1.13332
  Beta  occ. eigenvalues --   -1.13331  -1.13313  -1.12433  -1.12423  -1.12335
  Beta  occ. eigenvalues --   -0.16186  -0.13399  -0.12483
  Beta virt. eigenvalues --   -0.06925  -0.06262  -0.05589  -0.03963  -0.03860
  Beta virt. eigenvalues --   -0.02507  -0.01871  -0.01563  -0.01385  -0.01083
  Beta virt. eigenvalues --   -0.00758   0.00067   0.00200   0.00362   0.00559

 Mulliken charges and spin densities:
               1          2
     1  Na  -0.541527   0.142735
     2  Na   0.578656  -0.033219
     3  Na   0.012114  -0.283066
     4  Na   0.657933   0.146926
     5  Na   0.144896   0.653449
     6  Na  -0.535876   0.056456
     7  Na  -0.316197   0.316720
 Sum of Mulliken charges =  -0.00000   1.00000

 Dipole moment (field-independent basis, Debye):
    X=             -2.0865    Y=             -0.3529    Z=              0.5293  Tot=              2.1813
 Quadrupole moment (field-independent basis, Debye-Ang):
   XX=            -71.8330   YY=            -57.6842   ZZ=            -69.8064
   XY=             -2.6413   XZ=             -0.9022   YZ=             -1.0414

 Normal termination of Gaussian 16 at Wed Nov 29 03:34:30 2023.
