 Gaussian 16, Revision B.01,
 Gaussian 16:  ES64L-G16RevB.01 20-Dec-2017

 -------------------------
 #P B3LYP/6-311+g(d) force
 -------------------------

 -----
 DPGEN
 -----
 Symbolic Z-matrix:
 Charge =  0 Multiplicity = 2

                         Standard orientation:
 ---------------------------------------------------------------------
 Center     Atomic      Atomic             Coordinates (Angstroms)
 Number     Number       Type             X           Y           Z
 ---------------------------------------------------------------------
      1         11           0       -2.989548    0.955144   -0.459825
      2         11           0       -2.509057   -2.152836    0.360865
      3         11           0       -0.171554    2.837907   -0.100320
      4         11           0       -0.168591   -0.405623   -1.273006
      5         11           0        0.438699   -0.153482    2.133947
      6         11           0        2.440869   -2.197257   -0.618836
      7         11           0        2.959183    1.116147   -0.042825
 ---------------------------------------------------------------------

 SCF Done:  E(UB3LYP) =  -1136.13247998     A.U. after   21 cycles

 The electronic state is 2-A.
 Alpha  occ. eigenvalues --  -38.44474 -38.44029 -38.43994 -38.43793 -38.43757
 Alpha  occ. eigenvalues --  -38.43195 -38.42708  -2.20310  -2.19905  -2.19823
 Alpha  occ. eigenvalues --   -2.19656  -2.19594  -2.19197  -2.18559  -1.13988
 Alpha  occ. eigenvalues --   -1.13973  -1.13946  -1.13608  -1.13578  -1.13551
 Alpha  occ. eigenvalues --   -1.13487  -1.13468  -1.13446  -1.13329  -1.13287
 Alpha  occ. eigenvalues --   -1.13279  -1.13264  -1.13233  -1.13230  -1.12898
 Alpha  occ. eigenvalues --   -1.12841  -1.12823  -1.12241  -1.12227  -1.12197
 Alpha  occ. eigenvalues --   -0.18467  -0.13671  -0.11952  -0.10596
 Alpha virt. eigenvalues --   -0.06033  -0.05575  -0.04382  -0.03311  -0.02553
 Alpha virt. eigenvalues --   -0.02388  -0.01913  -0.01300  -0.00591  -0.00255
 Alpha virt. eigenvalues --   -0.00052   0.00300   0.00667   0.00774   0.00846

  Beta  occ. eigenvalues --  -38.44470 -38.44019 -38.43988 -38.43737 -38.43690
  Beta  occ. eigenvalues --  -38.43159 -38.42706  -2.20305  -2.19887  -2.19814
  Beta  occ. eigenvalues --   -2.19560  -2.19466  -2.19133  -2.18558  -1.13974
  Beta  occ. eigenvalues --   -1.13970  -1.13934  -1.13598  -1.13555  -1.13539
  Beta  occ. eigenvalues --   -1.13481  -1.13450  -1.13437  -1.13257  -1.13213
  Beta  occ. eigenvalues --   -1.13203  -1.13196  -1.13150  -1.13124  -1.12838
  Beta  occ. eigenvalues --   -1.12792  -1.12778  -1.12241  -1.12224  -1.12181
  Beta  occ. eigenvalues --   -0.17804  -0.13424  -0.11705
  Beta virt. eigenvalues --   -0.06769  -0.05938  -0.05453  -0.04276  -0.02668
  Beta virt. eigenvalues --   -0.01932  -0.01762  -0.01384  -0.01178  -0.00604
  Beta virt. eigenvalues --   -0.00258   0.00130   0.00358   0.00760   0.00792

 Mulliken charges and spin densities:
               1          2
     1  Na   0.370314   0.022440
     2  Na   0.090413   0.121534
     3  Na  -0.144280   0.026717
     4  Na  -0.306168  -0.008286
     5  Na  -0.459845   0.639767
     6  Na   0.198666   0.151483
     7  Na   0.250901   0.046346
 Sum of Mulliken charges =  -0.00000   1.00000

 Dipole moment (field-independent basis, Debye):
    X=              0.1173    Y=             -0.2403    Z=              0.2509  Tot=              0.3667
 Quadrupole moment (field-independent basis, Debye-Ang):
   XX=            -52.9428   YY=            -65.1532   ZZ=            -75.0970
   XY=              1.3185   XZ=             -0.5599   YZ=             -0.6752

 Normal termination of Gaussian 16 at Thu Dec  7 12:50:35 2023.
