 Gaussian 16, Revision B.01,
 Gaussian 16:  ES64L-G16RevB.01 20-Dec-2017

 -------------------------
 #P B3LYP/6-311+g(d) force
 -------------------------

 -----
 DPGEN
 -----
 Symbolic Z-matrix:
 Charge =  0 Multiplicity = 2

                         Standard orientation:
 ---------------------------------------------------------------------
 Center     Atomic      Atomic             Coordinates (Angstroms)
 Number     Number       Type             X           Y           Z
 ---------------------------------------------------------------------
      1         11           0       -3.519131   -0.182366   -0.050244
      2         11           0        0.394166   -0.334497    1.867388
      3         11           0        3.063928   -1.335765    0.024686
      4         11           0       -0.220203   -0.000636   -1.663659
      5         11           0        2.340913    2.111894   -0.404432
      6         11           0       -1.334933    2.537847    0.400096
      7         11           0       -0.724741   -2.796476   -0.173835
 ---------------------------------------------------------------------

 SCF Done:  E(UB3LYP) =  -1136.13496328     A.U. after   19 cycles

 The electronic state is 2-A.
 Alpha  occ. eigenvalues --  -38.44820 -38.44523 -38.43696 -38.43325 -38.43305
 Alpha  occ. eigenvalues --  -38.43260 -38.43254  -2.20598  -2.20325  -2.19511
 Alpha  occ. eigenvalues --   -2.19213  -2.19200  -2.19171  -2.19088  -1.14274
 Alpha  occ. eigenvalues --   -1.14253  -1.14237  -1.14007  -1.13980  -1.13962
 Alpha  occ. eigenvalues --   -1.13188  -1.13168  -1.13152  -1.12956  -1.12903
 Alpha  occ. eigenvalues --   -1.12878  -1.12862  -1.12837  -1.12819  -1.12811
 Alpha  occ. eigenvalues --   -1.12791  -1.12773  -1.12758  -1.12752  -1.12715
 Alpha  occ. eigenvalues --   -0.18316  -0.13139  -0.12156  -0.10375
 Alpha virt. eigenvalues --   -0.06345  -0.05268  -0.04446  -0.03160  -0.02742
 Alpha virt. eigenvalues --   -0.02245  -0.02070  -0.01241  -0.00560  -0.00375
 Alpha virt. eigenvalues --   -0.00038   0.00302   0.00719   0.00782   0.00831

  Beta  occ. eigenvalues --  -38.44821 -38.44520 -38.43686 -38.43316 -38.43244
  Beta  occ. eigenvalues --  -38.43223 -38.43194  -2.20603  -2.20322  -2.19495
  Beta  occ. eigenvalues --   -2.19161  -2.19080  -2.19072  -2.19061  -1.14269
  Beta  occ. eigenvalues --   -1.14253  -1.14241  -1.13994  -1.13970  -1.13961
  Beta  occ. eigenvalues --   -1.13167  -1.13150  -1.13142  -1.12913  -1.12834
  Beta  occ. eigenvalues --   -1.12815  -1.12781  -1.12769  -1.12765  -1.12738
  Beta  occ. eigenvalues --   -1.12730  -1.12716  -1.12711  -1.12706  -1.12702
  Beta  occ. eigenvalues --   -0.17617  -0.12928  -0.11893
  Beta virt. eigenvalues --   -0.06552  -0.06292  -0.05237  -0.04394  -0.02449
  Beta virt. eigenvalues --   -0.02028  -0.01950  -0.01244  -0.01169  -0.00597
  Beta virt. eigenvalues --   -0.00387   0.00110   0.00334   0.00781   0.00798

 Mulliken charges and spin densities:
               1          2
     1  Na   0.059793  -0.081228
     2  Na  -0.181582   0.750997
     3  Na   0.191279  -0.092044
     4  Na  -0.092238   0.623449
     5  Na   0.002208   0.005227
     6  Na  -0.016777  -0.011017
     7  Na   0.037317  -0.195384
 Sum of Mulliken charges =  -0.00000   1.00000

 Dipole moment (field-independent basis, Debye):
    X=             -0.0906    Y=             -0.2451    Z=              0.0122  Tot=              0.2616
 Quadrupole moment (field-independent basis, Debye-Ang):
   XX=            -50.3142   YY=            -64.9142   ZZ=            -76.2597
   XY=             -0.1330   XZ=             -1.1725   YZ=              0.5593

 Normal termination of Gaussian 16 at Wed Dec  6 01:19:38 2023.
