 Gaussian 16, Revision B.01,
 Gaussian 16:  ES64L-G16RevB.01 20-Dec-2017

 -------------------------
 #P B3LYP/6-311+g(d) force
 -------------------------

 -----
 DPGEN
 -----
 Symbolic Z-matrix:
 Charge =  0 Multiplicity = 2

                         Standard orientation:
 ---------------------------------------------------------------------
 Center     Atomic      Atomic             Coordinates (Angstroms)
 Number     Number       Type             X           Y           Z
 ---------------------------------------------------------------------
      1         11           0        0.672147   -1.726200    1.113453
      2         11           0        4.413335   -2.748831   -0.591046
      3         11           0        2.609801    0.327504   -0.275806
      4         11           0        0.836682    4.312411   -0.473929
      5         11           0       -0.276839    1.630020    1.056046
      6         11           0       -2.072722   -0.442038   -0.451302
      7         11           0       -6.182403   -1.352866   -0.377416
 ---------------------------------------------------------------------

 SCF Done:  E(UB3LYP) =  -1136.11130985     A.U. after   21 cycles

 The electronic state is 2-A.
 Alpha  occ. eigenvalues --  -38.45220 -38.44646 -38.44604 -38.44567 -38.44032
 Alpha  occ. eigenvalues --  -38.43618 -38.43493  -2.20989  -2.20443  -2.20435
 Alpha  occ. eigenvalues --   -2.20409  -2.19847  -2.19548  -2.19284  -1.14621
 Alpha  occ. eigenvalues --   -1.14621  -1.14588  -1.14246  -1.14142  -1.14121
 Alpha  occ. eigenvalues --   -1.14091  -1.14075  -1.14072  -1.14039  -1.14009
 Alpha  occ. eigenvalues --   -1.13976  -1.13576  -1.13512  -1.13491  -1.13250
 Alpha  occ. eigenvalues --   -1.13226  -1.13153  -1.12942  -1.12941  -1.12902
 Alpha  occ. eigenvalues --   -0.17310  -0.13171  -0.12517  -0.11228
 Alpha virt. eigenvalues --   -0.06507  -0.05442  -0.05080  -0.03303  -0.02773
 Alpha virt. eigenvalues --   -0.02360  -0.01997  -0.01663  -0.01455  -0.01063
 Alpha virt. eigenvalues --   -0.00651  -0.00161  -0.00027   0.00398   0.00507

  Beta  occ. eigenvalues --  -38.45082 -38.44612 -38.44610 -38.44540 -38.44053
  Beta  occ. eigenvalues --  -38.43612 -38.43468  -2.20733  -2.20451  -2.20392
  Beta  occ. eigenvalues --   -2.20345  -2.19891  -2.19541  -2.19237  -1.14447
  Beta  occ. eigenvalues --   -1.14446  -1.14417  -1.14233  -1.14150  -1.14093
  Beta  occ. eigenvalues --   -1.14067  -1.14033  -1.14029  -1.14018  -1.13969
  Beta  occ. eigenvalues --   -1.13961  -1.13609  -1.13546  -1.13488  -1.13253
  Beta  occ. eigenvalues --   -1.13223  -1.13125  -1.12910  -1.12909  -1.12873
  Beta  occ. eigenvalues --   -0.17040  -0.12646  -0.11695
  Beta virt. eigenvalues --   -0.07892  -0.06048  -0.05272  -0.04922  -0.03026
  Beta virt. eigenvalues --   -0.02534  -0.02106  -0.01811  -0.01199  -0.00891
  Beta virt. eigenvalues --   -0.00790  -0.00290  -0.00006   0.00127   0.00513

 Mulliken charges and spin densities:
               1          2
     1  Na  -0.037595   0.005257
     2  Na   0.553294   0.181076
     3  Na  -0.709196  -0.004558
     4  Na   0.402033   0.132169
     5  Na  -0.130457   0.061052
     6  Na  -0.017143  -0.044895
     7  Na  -0.060936   0.669899
 Sum of Mulliken charges =  -0.00000   1.00000

 Dipole moment (field-independent basis, Debye):
    X=              0.6421    Y=             -1.0978    Z=              0.0034  Tot=              1.2718
 Quadrupole moment (field-independent basis, Debye-Ang):
   XX=            -65.0687   YY=            -64.4028   ZZ=            -68.8373
   XY=             -5.7937   XZ=             -2.0600   YZ=             -1.9336

 Normal termination of Gaussian 16 at Tue Nov 28 22:02:04 2023.
