 Gaussian 16, Revision B.01,
 Gaussian 16:  ES64L-G16RevB.01 20-Dec-2017

 -------------------------
 #P B3LYP/6-311+g(d) force
 -------------------------

 -----
 DPGEN
 -----
 Symbolic Z-matrix:
 Charge =  0 Multiplicity = 2

                         Standard orientation:
 ---------------------------------------------------------------------
 Center     Atomic      Atomic             Coordinates (Angstroms)
 Number     Number       Type             X           Y           Z
 ---------------------------------------------------------------------
      1         11           0        2.084204   -2.700561   -0.015420
      2         11           0        1.346741    1.065032    0.193115
      3         11           0       -2.334199    1.000682    1.012481
      4         11           0       -0.909274   -1.594707   -0.796268
      5         11           0       -4.215387   -1.472307    0.002748
      6         11           0       -0.292520    3.711295   -0.679973
      7         11           0        4.320435   -0.009433    0.283316
 ---------------------------------------------------------------------

 SCF Done:  E(UB3LYP) =  -1136.12735790     A.U. after   19 cycles

 The electronic state is 2-A.
 Alpha  occ. eigenvalues --  -38.44512 -38.44036 -38.43879 -38.43636 -38.43605
 Alpha  occ. eigenvalues --  -38.43563 -38.43409  -2.20354  -2.19867  -2.19677
 Alpha  occ. eigenvalues --   -2.19481  -2.19465  -2.19457  -2.19317  -1.14065
 Alpha  occ. eigenvalues --   -1.14041  -1.13949  -1.13551  -1.13539  -1.13493
 Alpha  occ. eigenvalues --   -1.13364  -1.13338  -1.13307  -1.13170  -1.13153
 Alpha  occ. eigenvalues --   -1.13138  -1.13130  -1.13127  -1.13117  -1.13097
 Alpha  occ. eigenvalues --   -1.13068  -1.13042  -1.13021  -1.13005  -1.12888
 Alpha  occ. eigenvalues --   -0.17325  -0.14096  -0.12613  -0.10465
 Alpha virt. eigenvalues --   -0.05952  -0.05805  -0.04225  -0.03556  -0.02708
 Alpha virt. eigenvalues --   -0.02280  -0.01878  -0.01401  -0.00900  -0.00413
 Alpha virt. eigenvalues --   -0.00318  -0.00033   0.00491   0.00559   0.00732

  Beta  occ. eigenvalues --  -38.44501 -38.44010 -38.43882 -38.43594 -38.43519
  Beta  occ. eigenvalues --  -38.43519 -38.43396  -2.20337  -2.19826  -2.19682
  Beta  occ. eigenvalues --   -2.19402  -2.19381  -2.19305  -2.19298  -1.14051
  Beta  occ. eigenvalues --   -1.14033  -1.13918  -1.13517  -1.13499  -1.13450
  Beta  occ. eigenvalues --   -1.13368  -1.13341  -1.13309  -1.13103  -1.13090
  Beta  occ. eigenvalues --   -1.13077  -1.13071  -1.13067  -1.13063  -1.13017
  Beta  occ. eigenvalues --   -1.12983  -1.12974  -1.12965  -1.12957  -1.12863
  Beta  occ. eigenvalues --   -0.16829  -0.13427  -0.12299
  Beta virt. eigenvalues --   -0.06867  -0.05847  -0.05639  -0.03950  -0.02968
  Beta virt. eigenvalues --   -0.02333  -0.02160  -0.01705  -0.01015  -0.00708
  Beta virt. eigenvalues --   -0.00193  -0.00012   0.00240   0.00573   0.00684

 Mulliken charges and spin densities:
               1          2
     1  Na   0.188353   0.041548
     2  Na  -1.292669   0.088139
     3  Na   0.019292   0.118914
     4  Na  -0.306628   0.184599
     5  Na   0.604605   0.223409
     6  Na   0.695997  -0.029458
     7  Na   0.091050   0.372849
 Sum of Mulliken charges =  -0.00000   1.00000

 Dipole moment (field-independent basis, Debye):
    X=             -0.6595    Y=             -0.0304    Z=             -0.2269  Tot=              0.6981
 Quadrupole moment (field-independent basis, Debye-Ang):
   XX=            -65.9390   YY=            -61.2888   ZZ=            -69.0933
   XY=             -3.2145   XZ=             -0.2327   YZ=             -1.5957

 Normal termination of Gaussian 16 at Tue Nov 28 21:26:05 2023.
