 Gaussian 16, Revision B.01,
 Gaussian 16:  ES64L-G16RevB.01 20-Dec-2017

 -------------------------
 #P B3LYP/6-311+g(d) force
 -------------------------

 -----
 DPGEN
 -----
 Symbolic Z-matrix:
 Charge =  0 Multiplicity = 2

                         Standard orientation:
 ---------------------------------------------------------------------
 Center     Atomic      Atomic             Coordinates (Angstroms)
 Number     Number       Type             X           Y           Z
 ---------------------------------------------------------------------
      1         11           0        0.401972   -0.231697    2.286143
      2         11           0       -1.562308    2.845003    0.104456
      3         11           0       -0.288588    0.181051   -1.021137
      4         11           0        2.282979    2.210769   -0.297853
      5         11           0       -3.349381   -0.705044   -0.409943
      6         11           0       -0.104734   -3.100428    0.003640
      7         11           0        2.620060   -1.199653   -0.665306
 ---------------------------------------------------------------------

 SCF Done:  E(UB3LYP) =  -1136.13256642     A.U. after   19 cycles

 The electronic state is 2-A.
 Alpha  occ. eigenvalues --  -38.44291 -38.44190 -38.43766 -38.43756 -38.43677
 Alpha  occ. eigenvalues --  -38.43497 -38.42615  -2.20088  -2.19976  -2.19593
 Alpha  occ. eigenvalues --   -2.19580  -2.19535  -2.19378  -2.18680  -1.13791
 Alpha  occ. eigenvalues --   -1.13750  -1.13703  -1.13665  -1.13632  -1.13600
 Alpha  occ. eigenvalues --   -1.13277  -1.13265  -1.13259  -1.13242  -1.13234
 Alpha  occ. eigenvalues --   -1.13217  -1.13197  -1.13155  -1.13136  -1.13075
 Alpha  occ. eigenvalues --   -1.13023  -1.12995  -1.12386  -1.12337  -1.12310
 Alpha  occ. eigenvalues --   -0.18306  -0.12775  -0.12526  -0.10477
 Alpha virt. eigenvalues --   -0.05887  -0.05090  -0.05054  -0.02838  -0.02666
 Alpha virt. eigenvalues --   -0.02437  -0.01573  -0.01451  -0.00706  -0.00546
 Alpha virt. eigenvalues --   -0.00037   0.00304   0.00759   0.00813   0.00840

  Beta  occ. eigenvalues --  -38.44291 -38.44183 -38.43762 -38.43750 -38.43561
  Beta  occ. eigenvalues --  -38.43477 -38.42588  -2.20090  -2.19964  -2.19590
  Beta  occ. eigenvalues --   -2.19571  -2.19344  -2.19319  -2.18634  -1.13792
  Beta  occ. eigenvalues --   -1.13741  -1.13706  -1.13651  -1.13621  -1.13593
  Beta  occ. eigenvalues --   -1.13275  -1.13256  -1.13239  -1.13231  -1.13229
  Beta  occ. eigenvalues --   -1.13203  -1.13058  -1.13046  -1.13011  -1.12989
  Beta  occ. eigenvalues --   -1.12983  -1.12967  -1.12329  -1.12304  -1.12278
  Beta  occ. eigenvalues --   -0.17631  -0.12568  -0.12307
  Beta virt. eigenvalues --   -0.06553  -0.05784  -0.05057  -0.04946  -0.02165
  Beta virt. eigenvalues --   -0.02032  -0.01508  -0.01404  -0.01300  -0.00700
  Beta virt. eigenvalues --   -0.00547   0.00163   0.00373   0.00770   0.00858

 Mulliken charges and spin densities:
               1          2
     1  Na  -0.533790   0.682611
     2  Na   0.070052   0.057528
     3  Na  -0.646492  -0.057718
     4  Na   0.283474   0.036844
     5  Na   0.160583   0.078018
     6  Na   0.306311   0.088155
     7  Na   0.359862   0.114562
 Sum of Mulliken charges =  -0.00000   1.00000

 Dipole moment (field-independent basis, Debye):
    X=             -0.3119    Y=              0.1824    Z=              0.2637  Tot=              0.4473
 Quadrupole moment (field-independent basis, Debye-Ang):
   XX=            -58.0900   YY=            -57.2090   ZZ=            -76.1189
   XY=              0.4463   XZ=             -1.1429   YZ=              1.0265

 Normal termination of Gaussian 16 at Fri Dec  8 04:16:50 2023.
