 Gaussian 16, Revision B.01,
 Gaussian 16:  ES64L-G16RevB.01 20-Dec-2017

 -------------------------
 #P B3LYP/6-311+g(d) force
 -------------------------

 -----
 DPGEN
 -----
 Symbolic Z-matrix:
 Charge =  0 Multiplicity = 2

                         Standard orientation:
 ---------------------------------------------------------------------
 Center     Atomic      Atomic             Coordinates (Angstroms)
 Number     Number       Type             X           Y           Z
 ---------------------------------------------------------------------
      1         11           0        2.443263   -1.635172    0.116251
      2         11           0       -0.932254   -2.637904   -0.357235
      3         11           0       -2.932284   -0.197594    0.202523
      4         11           0        0.317121    0.181217   -1.643502
      5         11           0       -1.176042    2.708008   -0.168856
      6         11           0       -0.065534   -0.155180    1.676352
      7         11           0        2.345730    1.736625    0.174467
 ---------------------------------------------------------------------

 SCF Done:  E(UB3LYP) =  -1136.13814604     A.U. after   19 cycles

 The electronic state is 2-A.
 Alpha  occ. eigenvalues --  -38.43698 -38.43648 -38.43595 -38.43424 -38.43259
 Alpha  occ. eigenvalues --  -38.42960 -38.42899  -2.19595  -2.19545  -2.19492
 Alpha  occ. eigenvalues --   -2.19288  -2.19169  -2.18991  -2.18942  -1.13311
 Alpha  occ. eigenvalues --   -1.13264  -1.13248  -1.13227  -1.13210  -1.13189
 Alpha  occ. eigenvalues --   -1.13173  -1.13162  -1.13111  -1.12980  -1.12948
 Alpha  occ. eigenvalues --   -1.12918  -1.12864  -1.12832  -1.12796  -1.12695
 Alpha  occ. eigenvalues --   -1.12614  -1.12604  -1.12596  -1.12564  -1.12550
 Alpha  occ. eigenvalues --   -0.19381  -0.13265  -0.12747  -0.10623
 Alpha virt. eigenvalues --   -0.05300  -0.05189  -0.04729  -0.03122  -0.02833
 Alpha virt. eigenvalues --   -0.02167  -0.01358  -0.01162  -0.00208  -0.00124
 Alpha virt. eigenvalues --    0.00061   0.00370   0.00873   0.00914   0.00943

  Beta  occ. eigenvalues --  -38.43691 -38.43642 -38.43587 -38.43419 -38.43248
  Beta  occ. eigenvalues --  -38.42884 -38.42824  -2.19584  -2.19537  -2.19482
  Beta  occ. eigenvalues --   -2.19282  -2.19153  -2.18852  -2.18806  -1.13304
  Beta  occ. eigenvalues --   -1.13240  -1.13231  -1.13220  -1.13199  -1.13169
  Beta  occ. eigenvalues --   -1.13168  -1.13127  -1.13103  -1.12970  -1.12927
  Beta  occ. eigenvalues --   -1.12916  -1.12851  -1.12795  -1.12783  -1.12605
  Beta  occ. eigenvalues --   -1.12512  -1.12507  -1.12501  -1.12468  -1.12449
  Beta  occ. eigenvalues --   -0.18655  -0.12986  -0.12471
  Beta virt. eigenvalues --   -0.06686  -0.05290  -0.05176  -0.04712  -0.02295
  Beta virt. eigenvalues --   -0.02048  -0.01280  -0.01142  -0.01089  -0.00244
  Beta virt. eigenvalues --   -0.00174   0.00171   0.00396   0.00906   0.00925

 Mulliken charges and spin densities:
               1          2
     1  Na   0.221420  -0.041998
     2  Na   0.144177  -0.018528
     3  Na   0.161097  -0.020063
     4  Na  -0.378922   0.649805
     5  Na   0.065454  -0.104513
     6  Na  -0.352230   0.624949
     7  Na   0.139004  -0.089652
 Sum of Mulliken charges =  -0.00000   1.00000

 Dipole moment (field-independent basis, Debye):
    X=              0.1171    Y=              0.0932    Z=              0.0397  Tot=              0.1548
 Quadrupole moment (field-independent basis, Debye-Ang):
   XX=            -56.9421   YY=            -60.3933   ZZ=            -75.1774
   XY=             -0.2760   XZ=              0.7690   YZ=              0.7725

 Normal termination of Gaussian 16 at Wed Nov 29 00:36:32 2023.
