 Gaussian 16, Revision B.01,
 Gaussian 16:  ES64L-G16RevB.01 20-Dec-2017

 -------------------------
 #P B3LYP/6-311+g(d) force
 -------------------------

 -----
 DPGEN
 -----
 Symbolic Z-matrix:
 Charge =  0 Multiplicity = 2

                         Standard orientation:
 ---------------------------------------------------------------------
 Center     Atomic      Atomic             Coordinates (Angstroms)
 Number     Number       Type             X           Y           Z
 ---------------------------------------------------------------------
      1         11           0       -0.124516   -0.588283   -1.545223
      2         11           0        2.553639    1.202865   -0.645540
      3         11           0        0.004421    2.614725    0.404870
      4         11           0        0.583046   -0.071934    1.688777
      5         11           0        2.256519   -2.046655    0.097511
      6         11           0       -3.087611    1.023936   -0.275738
      7         11           0       -2.185498   -2.134654    0.275343
 ---------------------------------------------------------------------

 SCF Done:  E(UB3LYP) =  -1136.12921002     A.U. after   20 cycles

 The electronic state is 2-A.
 Alpha  occ. eigenvalues --  -38.44380 -38.44032 -38.43784 -38.43771 -38.43152
 Alpha  occ. eigenvalues --  -38.43099 -38.42799  -2.20199  -2.19880  -2.19729
 Alpha  occ. eigenvalues --   -2.19677  -2.19161  -2.19141  -2.18726  -1.13874
 Alpha  occ. eigenvalues --   -1.13859  -1.13847  -1.13580  -1.13539  -1.13500
 Alpha  occ. eigenvalues --   -1.13440  -1.13415  -1.13381  -1.13372  -1.13333
 Alpha  occ. eigenvalues --   -1.13280  -1.12888  -1.12828  -1.12800  -1.12776
 Alpha  occ. eigenvalues --   -1.12770  -1.12738  -1.12405  -1.12376  -1.12344
 Alpha  occ. eigenvalues --   -0.19218  -0.13620  -0.12346  -0.10622
 Alpha virt. eigenvalues --   -0.05842  -0.05496  -0.04180  -0.03351  -0.02701
 Alpha virt. eigenvalues --   -0.02174  -0.01688  -0.01181  -0.00294  -0.00131
 Alpha virt. eigenvalues --    0.00103   0.00336   0.00786   0.00811   0.00929

  Beta  occ. eigenvalues --  -38.44380 -38.44028 -38.43761 -38.43760 -38.43095
  Beta  occ. eigenvalues --  -38.43016 -38.42788  -2.20200  -2.19877  -2.19690
  Beta  occ. eigenvalues --   -2.19663  -2.19058  -2.18990  -2.18710  -1.13868
  Beta  occ. eigenvalues --   -1.13859  -1.13844  -1.13575  -1.13527  -1.13494
  Beta  occ. eigenvalues --   -1.13423  -1.13395  -1.13345  -1.13321  -1.13306
  Beta  occ. eigenvalues --   -1.13262  -1.12809  -1.12729  -1.12721  -1.12695
  Beta  occ. eigenvalues --   -1.12675  -1.12633  -1.12387  -1.12351  -1.12320
  Beta  occ. eigenvalues --   -0.18498  -0.13384  -0.12083
  Beta virt. eigenvalues --   -0.06675  -0.05789  -0.05446  -0.04179  -0.02606
  Beta virt. eigenvalues --   -0.01942  -0.01617  -0.01208  -0.01035  -0.00330
  Beta virt. eigenvalues --   -0.00069   0.00188   0.00384   0.00819   0.00851

 Mulliken charges and spin densities:
               1          2
     1  Na  -0.281285   0.294686
     2  Na   0.145217   0.173028
     3  Na   0.097325   0.015485
     4  Na  -0.265699   0.542651
     5  Na   0.293574   0.031239
     6  Na  -0.138384  -0.033759
     7  Na   0.149250  -0.023329
 Sum of Mulliken charges =  -0.00000   1.00000

 Dipole moment (field-independent basis, Debye):
    X=             -0.4024    Y=             -0.3375    Z=             -0.0969  Tot=              0.5341
 Quadrupole moment (field-independent basis, Debye-Ang):
   XX=            -53.4507   YY=            -64.3778   ZZ=            -74.9924
   XY=             -0.9312   XZ=             -1.3833   YZ=             -1.6241

 Normal termination of Gaussian 16 at Tue Dec  5 19:28:06 2023.
