 Gaussian 16, Revision B.01,
 Gaussian 16:  ES64L-G16RevB.01 20-Dec-2017

 -------------------------
 #P B3LYP/6-311+g(d) force
 -------------------------

 -----
 DPGEN
 -----
 Symbolic Z-matrix:
 Charge =  0 Multiplicity = 2

                         Standard orientation:
 ---------------------------------------------------------------------
 Center     Atomic      Atomic             Coordinates (Angstroms)
 Number     Number       Type             X           Y           Z
 ---------------------------------------------------------------------
      1         11           0       -0.342108   -0.056243    1.865845
      2         11           0        1.378046   -2.733625   -0.364980
      3         11           0       -2.442851   -1.829282    0.036488
      4         11           0        0.472384    2.911232   -0.192314
      5         11           0        3.107908    0.318112    0.517866
      6         11           0        0.365201    0.152699   -1.727869
      7         11           0       -2.538580    1.237106   -0.135036
 ---------------------------------------------------------------------

 SCF Done:  E(UB3LYP) =  -1136.13727295     A.U. after   19 cycles

 The electronic state is 2-A.
 Alpha  occ. eigenvalues --  -38.44184 -38.43679 -38.43605 -38.43541 -38.43495
 Alpha  occ. eigenvalues --  -38.43216 -38.43162  -2.19998  -2.19551  -2.19470
 Alpha  occ. eigenvalues --   -2.19432  -2.19422  -2.19133  -2.19085  -1.13671
 Alpha  occ. eigenvalues --   -1.13656  -1.13632  -1.13319  -1.13234  -1.13184
 Alpha  occ. eigenvalues --   -1.13175  -1.13125  -1.13117  -1.13092  -1.13076
 Alpha  occ. eigenvalues --   -1.13064  -1.13053  -1.13045  -1.13033  -1.12869
 Alpha  occ. eigenvalues --   -1.12796  -1.12754  -1.12737  -1.12711  -1.12699
 Alpha  occ. eigenvalues --   -0.18819  -0.13174  -0.12440  -0.10748
 Alpha virt. eigenvalues --   -0.05609  -0.05035  -0.04761  -0.03338  -0.02847
 Alpha virt. eigenvalues --   -0.02443  -0.01471  -0.01119  -0.00381  -0.00210
 Alpha virt. eigenvalues --    0.00007   0.00365   0.00830   0.00884   0.00917

  Beta  occ. eigenvalues --  -38.44171 -38.43676 -38.43597 -38.43533 -38.43417
  Beta  occ. eigenvalues --  -38.43211 -38.43091  -2.19976  -2.19549  -2.19460
  Beta  occ. eigenvalues --   -2.19411  -2.19287  -2.19079  -2.19003  -1.13644
  Beta  occ. eigenvalues --   -1.13637  -1.13619  -1.13317  -1.13217  -1.13168
  Beta  occ. eigenvalues --   -1.13153  -1.13098  -1.13094  -1.13064  -1.13057
  Beta  occ. eigenvalues --   -1.13048  -1.13002  -1.12953  -1.12932  -1.12822
  Beta  occ. eigenvalues --   -1.12729  -1.12710  -1.12701  -1.12658  -1.12632
  Beta  occ. eigenvalues --   -0.18095  -0.12928  -0.12174
  Beta virt. eigenvalues --   -0.06881  -0.05525  -0.05025  -0.04723  -0.02554
  Beta virt. eigenvalues --   -0.02108  -0.01438  -0.01342  -0.01040  -0.00413
  Beta virt. eigenvalues --   -0.00252   0.00132   0.00390   0.00862   0.00895

 Mulliken charges and spin densities:
               1          2
     1  Na  -0.363956   0.626846
     2  Na  -0.004123  -0.083030
     3  Na   0.123512  -0.065555
     4  Na   0.218019  -0.040292
     5  Na  -0.017488   0.029620
     6  Na  -0.231893   0.555194
     7  Na   0.275929  -0.022784
 Sum of Mulliken charges =  -0.00000   1.00000

 Dipole moment (field-independent basis, Debye):
    X=              0.2576    Y=             -0.1159    Z=              0.1289  Tot=              0.3105
 Quadrupole moment (field-independent basis, Debye-Ang):
   XX=            -57.6209   YY=            -61.7620   ZZ=            -74.1680
   XY=              0.7180   XZ=              1.7760   YZ=              0.5901

 Normal termination of Gaussian 16 at Thu Dec  7 05:51:44 2023.
