 Gaussian 16, Revision B.01,
 Gaussian 16:  ES64L-G16RevB.01 20-Dec-2017

 -------------------------
 #P B3LYP/6-311+g(d) force
 -------------------------

 -----
 DPGEN
 -----
 Symbolic Z-matrix:
 Charge =  0 Multiplicity = 2

                         Standard orientation:
 ---------------------------------------------------------------------
 Center     Atomic      Atomic             Coordinates (Angstroms)
 Number     Number       Type             X           Y           Z
 ---------------------------------------------------------------------
      1         11           0        2.792372   -2.036316    0.221947
      2         11           0       -2.744119    0.583837   -0.558119
      3         11           0       -1.916617   -2.705549   -0.093112
      4         11           0        0.487018   -0.296873   -1.621268
      5         11           0       -0.171390   -0.215590    2.002598
      6         11           0       -0.772095    2.792349    0.422496
      7         11           0        2.324831    1.878141   -0.374542
 ---------------------------------------------------------------------

 SCF Done:  E(UB3LYP) =  -1136.13289881     A.U. after   20 cycles

 The electronic state is 2-A.
 Alpha  occ. eigenvalues --  -38.44383 -38.44066 -38.44027 -38.43659 -38.43625
 Alpha  occ. eigenvalues --  -38.43276 -38.43144  -2.20154  -2.19879  -2.19862
 Alpha  occ. eigenvalues --   -2.19544  -2.19503  -2.19221  -2.19037  -1.13833
 Alpha  occ. eigenvalues --   -1.13808  -1.13795  -1.13602  -1.13533  -1.13533
 Alpha  occ. eigenvalues --   -1.13521  -1.13510  -1.13495  -1.13244  -1.13208
 Alpha  occ. eigenvalues --   -1.13184  -1.13170  -1.13129  -1.13120  -1.12904
 Alpha  occ. eigenvalues --   -1.12859  -1.12842  -1.12707  -1.12695  -1.12672
 Alpha  occ. eigenvalues --   -0.18458  -0.12894  -0.12447  -0.10702
 Alpha virt. eigenvalues --   -0.06058  -0.05232  -0.04461  -0.03202  -0.02984
 Alpha virt. eigenvalues --   -0.02513  -0.01575  -0.01442  -0.00390  -0.00296
 Alpha virt. eigenvalues --    0.00022   0.00353   0.00740   0.00793   0.00893

  Beta  occ. eigenvalues --  -38.44382 -38.44066 -38.44017 -38.43646 -38.43533
  Beta  occ. eigenvalues --  -38.43218 -38.43136  -2.20154  -2.19864  -2.19862
  Beta  occ. eigenvalues --   -2.19521  -2.19334  -2.19117  -2.19025  -1.13826
  Beta  occ. eigenvalues --   -1.13804  -1.13794  -1.13582  -1.13528  -1.13518
  Beta  occ. eigenvalues --   -1.13508  -1.13508  -1.13488  -1.13231  -1.13171
  Beta  occ. eigenvalues --   -1.13161  -1.13065  -1.13010  -1.12999  -1.12834
  Beta  occ. eigenvalues --   -1.12780  -1.12765  -1.12702  -1.12682  -1.12642
  Beta  occ. eigenvalues --   -0.17732  -0.12656  -0.12240
  Beta virt. eigenvalues --   -0.06821  -0.06050  -0.05103  -0.04441  -0.02476
  Beta virt. eigenvalues --   -0.02243  -0.01566  -0.01463  -0.01299  -0.00422
  Beta virt. eigenvalues --   -0.00282   0.00138   0.00388   0.00749   0.00872

 Mulliken charges and spin densities:
               1          2
     1  Na  -0.114235  -0.066111
     2  Na   0.097457   0.109586
     3  Na   0.011895  -0.058447
     4  Na   0.046639   0.233806
     5  Na  -0.359363   0.684176
     6  Na   0.174505   0.096544
     7  Na   0.143102   0.000446
 Sum of Mulliken charges =  -0.00000   1.00000

 Dipole moment (field-independent basis, Debye):
    X=              0.3692    Y=             -0.5538    Z=              0.1103  Tot=              0.6747
 Quadrupole moment (field-independent basis, Debye-Ang):
   XX=            -58.8979   YY=            -59.6751   ZZ=            -74.6210
   XY=             -0.0073   XZ=              1.4002   YZ=             -0.4510

 Normal termination of Gaussian 16 at Fri Dec  8 03:19:47 2023.
