 Gaussian 16, Revision B.01,
 Gaussian 16:  ES64L-G16RevB.01 20-Dec-2017

 -------------------------
 #P B3LYP/6-311+g(d) force
 -------------------------

 -----
 DPGEN
 -----
 Symbolic Z-matrix:
 Charge =  0 Multiplicity = 2

                         Standard orientation:
 ---------------------------------------------------------------------
 Center     Atomic      Atomic             Coordinates (Angstroms)
 Number     Number       Type             X           Y           Z
 ---------------------------------------------------------------------
      1         11           0       -2.121022   -0.739457    1.365606
      2         11           0       -3.369532    2.282518   -0.386603
      3         11           0        3.065200    0.711837    0.180513
      4         11           0       -4.433754   -2.368757   -0.371969
      5         11           0        6.295425   -0.790102   -0.003216
      6         11           0       -0.241770    2.211439   -0.041320
      7         11           0        0.805452   -1.307478   -0.743011
 ---------------------------------------------------------------------

 SCF Done:  E(UB3LYP) =  -1136.11365147     A.U. after   23 cycles

 The electronic state is 2-A.
 Alpha  occ. eigenvalues --  -38.45358 -38.44963 -38.44247 -38.44098 -38.44081
 Alpha  occ. eigenvalues --  -38.43912 -38.43007  -2.21185  -2.20753  -2.20076
 Alpha  occ. eigenvalues --   -2.19933  -2.19910  -2.19669  -2.18869  -1.14852
 Alpha  occ. eigenvalues --   -1.14819  -1.14815  -1.14388  -1.14387  -1.14360
 Alpha  occ. eigenvalues --   -1.13767  -1.13748  -1.13697  -1.13630  -1.13613
 Alpha  occ. eigenvalues --   -1.13572  -1.13561  -1.13557  -1.13529  -1.13340
 Alpha  occ. eigenvalues --   -1.13333  -1.13311  -1.12559  -1.12544  -1.12502
 Alpha  occ. eigenvalues --   -0.17041  -0.14074  -0.11669  -0.11370
 Alpha virt. eigenvalues --   -0.06392  -0.05851  -0.04668  -0.03341  -0.02928
 Alpha virt. eigenvalues --   -0.02765  -0.01781  -0.01624  -0.01243  -0.00952
 Alpha virt. eigenvalues --   -0.00455  -0.00035   0.00030   0.00344   0.00603

  Beta  occ. eigenvalues --  -38.45301 -38.44850 -38.44239 -38.44101 -38.44030
  Beta  occ. eigenvalues --  -38.43925 -38.43007  -2.21082  -2.20542  -2.20063
  Beta  occ. eigenvalues --   -2.19945  -2.19815  -2.19694  -2.18872  -1.14780
  Beta  occ. eigenvalues --   -1.14754  -1.14740  -1.14245  -1.14243  -1.14220
  Beta  occ. eigenvalues --   -1.13751  -1.13726  -1.13697  -1.13641  -1.13628
  Beta  occ. eigenvalues --   -1.13525  -1.13511  -1.13495  -1.13461  -1.13358
  Beta  occ. eigenvalues --   -1.13348  -1.13327  -1.12565  -1.12553  -1.12473
  Beta  occ. eigenvalues --   -0.16503  -0.13385  -0.11183
  Beta virt. eigenvalues --   -0.08082  -0.06119  -0.05592  -0.04159  -0.03108
  Beta virt. eigenvalues --   -0.02744  -0.02393  -0.01465  -0.01277  -0.00859
  Beta virt. eigenvalues --   -0.00607  -0.00386   0.00052   0.00195   0.00422

 Mulliken charges and spin densities:
               1          2
     1  Na   0.008204  -0.044017
     2  Na   0.348619   0.288588
     3  Na  -0.950356   0.435155
     4  Na   0.068400  -0.080523
     5  Na   0.240716   0.182416
     6  Na   0.406677   0.029166
     7  Na  -0.122261   0.189215
 Sum of Mulliken charges =  -0.00000   1.00000

 Dipole moment (field-independent basis, Debye):
    X=              0.1657    Y=             -0.4006    Z=             -0.5755  Tot=              0.7205
 Quadrupole moment (field-independent basis, Debye-Ang):
   XX=            -59.4864   YY=            -73.3150   ZZ=            -68.2385
   XY=             -2.4024   XZ=              3.6617   YZ=              3.0970

 Normal termination of Gaussian 16 at Tue Nov 28 20:20:50 2023.
