 Gaussian 16, Revision B.01,
 Gaussian 16:  ES64L-G16RevB.01 20-Dec-2017

 -------------------------
 #P B3LYP/6-311+g(d) force
 -------------------------

 -----
 DPGEN
 -----
 Symbolic Z-matrix:
 Charge =  0 Multiplicity = 2

                         Standard orientation:
 ---------------------------------------------------------------------
 Center     Atomic      Atomic             Coordinates (Angstroms)
 Number     Number       Type             X           Y           Z
 ---------------------------------------------------------------------
      1         11           0        2.097531   -2.147709    0.345701
      2         11           0        0.332840    2.479086    0.633303
      3         11           0        3.519917    0.650518   -0.686875
      4         11           0       -0.391143   -0.945460    1.932600
      5         11           0       -2.539013    1.412853    0.202604
      6         11           0       -2.868302   -1.615100   -0.877473
      7         11           0       -0.151830    0.165812   -1.549860
 ---------------------------------------------------------------------

 SCF Done:  E(UB3LYP) =  -1136.12797768     A.U. after   21 cycles

 The electronic state is 2-A.
 Alpha  occ. eigenvalues --  -38.44644 -38.43988 -38.43834 -38.43812 -38.43698
 Alpha  occ. eigenvalues --  -38.43600 -38.42644  -2.20444  -2.19946  -2.19780
 Alpha  occ. eigenvalues --   -2.19670  -2.19595  -2.19449  -2.18542  -1.14111
 Alpha  occ. eigenvalues --   -1.14100  -1.14074  -1.13675  -1.13602  -1.13590
 Alpha  occ. eigenvalues --   -1.13461  -1.13445  -1.13432  -1.13329  -1.13302
 Alpha  occ. eigenvalues --   -1.13299  -1.13289  -1.13232  -1.13207  -1.13106
 Alpha  occ. eigenvalues --   -1.13100  -1.13082  -1.12239  -1.12189  -1.12173
 Alpha  occ. eigenvalues --   -0.18680  -0.13774  -0.11776  -0.11152
 Alpha virt. eigenvalues --   -0.06280  -0.05223  -0.04156  -0.03284  -0.03015
 Alpha virt. eigenvalues --   -0.02417  -0.02136  -0.01019  -0.00434  -0.00138
 Alpha virt. eigenvalues --    0.00113   0.00253   0.00575   0.00764   0.00840

  Beta  occ. eigenvalues --  -38.44623 -38.43949 -38.43825 -38.43785 -38.43610
  Beta  occ. eigenvalues --  -38.43591 -38.42633  -2.20406  -2.19875  -2.19768
  Beta  occ. eigenvalues --   -2.19622  -2.19438  -2.19434  -2.18525  -1.14081
  Beta  occ. eigenvalues --   -1.14075  -1.14048  -1.13627  -1.13559  -1.13531
  Beta  occ. eigenvalues --   -1.13445  -1.13432  -1.13395  -1.13290  -1.13271
  Beta  occ. eigenvalues --   -1.13252  -1.13212  -1.13125  -1.13103  -1.13087
  Beta  occ. eigenvalues --   -1.13083  -1.13038  -1.12232  -1.12172  -1.12144
  Beta  occ. eigenvalues --   -0.18005  -0.13432  -0.11488
  Beta virt. eigenvalues --   -0.07384  -0.06059  -0.05170  -0.03844  -0.02878
  Beta virt. eigenvalues --   -0.02301  -0.01932  -0.01541  -0.00963  -0.00332
  Beta virt. eigenvalues --   -0.00007   0.00124   0.00309   0.00705   0.00844

 Mulliken charges and spin densities:
               1          2
     1  Na  -0.029516   0.033560
     2  Na  -0.325162   0.075006
     3  Na   0.181133   0.104058
     4  Na  -0.119070   0.345004
     5  Na   0.406710   0.128580
     6  Na   0.231302   0.112730
     7  Na  -0.345397   0.201062
 Sum of Mulliken charges =  -0.00000   1.00000

 Dipole moment (field-independent basis, Debye):
    X=              0.1746    Y=             -0.0698    Z=             -0.0467  Tot=              0.1937
 Quadrupole moment (field-independent basis, Debye-Ang):
   XX=            -52.7416   YY=            -70.7534   ZZ=            -71.3058
   XY=              1.3166   XZ=             -1.2891   YZ=              1.6362

 Normal termination of Gaussian 16 at Tue Dec  5 16:24:07 2023.
