 Gaussian 16, Revision B.01,
 Gaussian 16:  ES64L-G16RevB.01 20-Dec-2017

 -------------------------
 #P B3LYP/6-311+g(d) force
 -------------------------

 -----
 DPGEN
 -----
 Symbolic Z-matrix:
 Charge =  0 Multiplicity = 2

                         Standard orientation:
 ---------------------------------------------------------------------
 Center     Atomic      Atomic             Coordinates (Angstroms)
 Number     Number       Type             X           Y           Z
 ---------------------------------------------------------------------
      1         11           0       -1.743700   -2.786639   -0.664932
      2         11           0        3.796550    0.084692   -0.542029
      3         11           0        0.708120    2.395748    1.067847
      4         11           0       -2.639303    2.281662   -0.812714
      5         11           0        0.231681    0.027465   -1.818255
      6         11           0       -1.632527   -0.584077    1.760115
      7         11           0        1.279178   -1.418852    1.009967
 ---------------------------------------------------------------------

 SCF Done:  E(UB3LYP) =  -1136.13104243     A.U. after   19 cycles

 The electronic state is 2-A.
 Alpha  occ. eigenvalues --  -38.44206 -38.44001 -38.43983 -38.43823 -38.43647
 Alpha  occ. eigenvalues --  -38.43609 -38.43331  -2.19991  -2.19871  -2.19777
 Alpha  occ. eigenvalues --   -2.19587  -2.19546  -2.19434  -2.19264  -1.13677
 Alpha  occ. eigenvalues --   -1.13664  -1.13596  -1.13572  -1.13508  -1.13484
 Alpha  occ. eigenvalues --   -1.13458  -1.13434  -1.13409  -1.13288  -1.13259
 Alpha  occ. eigenvalues --   -1.13249  -1.13215  -1.13209  -1.13152  -1.13095
 Alpha  occ. eigenvalues --   -1.13086  -1.13052  -1.12964  -1.12936  -1.12844
 Alpha  occ. eigenvalues --   -0.18111  -0.12688  -0.11988  -0.11185
 Alpha virt. eigenvalues --   -0.05862  -0.05232  -0.04398  -0.03234  -0.03046
 Alpha virt. eigenvalues --   -0.02756  -0.01772  -0.01200  -0.00779   0.00017
 Alpha virt. eigenvalues --    0.00204   0.00309   0.00534   0.00699   0.00792

  Beta  occ. eigenvalues --  -38.44184 -38.43982 -38.43933 -38.43813 -38.43599
  Beta  occ. eigenvalues --  -38.43595 -38.43303  -2.19951  -2.19777  -2.19747
  Beta  occ. eigenvalues --   -2.19570  -2.19454  -2.19417  -2.19218  -1.13648
  Beta  occ. eigenvalues --   -1.13622  -1.13573  -1.13491  -1.13457  -1.13430
  Beta  occ. eigenvalues --   -1.13418  -1.13412  -1.13383  -1.13244  -1.13231
  Beta  occ. eigenvalues --   -1.13219  -1.13205  -1.13151  -1.13094  -1.13074
  Beta  occ. eigenvalues --   -1.13065  -1.13026  -1.12937  -1.12863  -1.12818
  Beta  occ. eigenvalues --   -0.17324  -0.12545  -0.11809
  Beta virt. eigenvalues --   -0.07273  -0.05698  -0.05050  -0.04192  -0.02791
  Beta virt. eigenvalues --   -0.02505  -0.01823  -0.01649  -0.01129  -0.00435
  Beta virt. eigenvalues --    0.00047   0.00252   0.00329   0.00621   0.00788

 Mulliken charges and spin densities:
               1          2
     1  Na   0.011712  -0.085919
     2  Na   0.374254  -0.065883
     3  Na  -0.258245   0.045087
     4  Na  -0.102323  -0.073088
     5  Na  -0.279599   0.699702
     6  Na   0.390286   0.263130
     7  Na  -0.136085   0.216971
 Sum of Mulliken charges =  -0.00000   1.00000

 Dipole moment (field-independent basis, Debye):
    X=              0.1410    Y=              0.1362    Z=             -0.1595  Tot=              0.2527
 Quadrupole moment (field-independent basis, Debye-Ang):
   XX=            -56.2106   YY=            -67.2422   ZZ=            -69.6742
   XY=              2.4534   XZ=              0.5602   YZ=              1.8642

 Normal termination of Gaussian 16 at Fri Dec  8 05:42:24 2023.
