 Gaussian 16, Revision B.01,
 Gaussian 16:  ES64L-G16RevB.01 20-Dec-2017

 -------------------------
 #P B3LYP/6-311+g(d) force
 -------------------------

 -----
 DPGEN
 -----
 Symbolic Z-matrix:
 Charge =  0 Multiplicity = 2

                         Standard orientation:
 ---------------------------------------------------------------------
 Center     Atomic      Atomic             Coordinates (Angstroms)
 Number     Number       Type             X           Y           Z
 ---------------------------------------------------------------------
      1         11           0        0.972301   -2.935245   -0.218375
      2         11           0       -1.417371   -0.955505    2.328846
      3         11           0        3.224277   -0.569191    0.322583
      4         11           0        1.900598    2.561613    0.695297
      5         11           0        0.760751    0.748324   -2.235012
      6         11           0       -3.035716   -1.050224   -1.115177
      7         11           0       -2.404840    2.200229    0.221839
 ---------------------------------------------------------------------

 SCF Done:  E(UB3LYP) =  -1136.12080356     A.U. after   20 cycles

 The electronic state is 2-A.
 Alpha  occ. eigenvalues --  -38.44842 -38.44795 -38.44695 -38.44540 -38.44161
 Alpha  occ. eigenvalues --  -38.43686 -38.43332  -2.20602  -2.20574  -2.20462
 Alpha  occ. eigenvalues --   -2.20291  -2.19976  -2.19475  -2.19112  -1.14267
 Alpha  occ. eigenvalues --   -1.14255  -1.14251  -1.14241  -1.14216  -1.14200
 Alpha  occ. eigenvalues --   -1.14123  -1.14099  -1.14083  -1.13970  -1.13954
 Alpha  occ. eigenvalues --   -1.13930  -1.13656  -1.13644  -1.13615  -1.13148
 Alpha  occ. eigenvalues --   -1.13124  -1.13117  -1.12787  -1.12777  -1.12757
 Alpha  occ. eigenvalues --   -0.16898  -0.13226  -0.11654  -0.10802
 Alpha virt. eigenvalues --   -0.06138  -0.05964  -0.04932  -0.03611  -0.03178
 Alpha virt. eigenvalues --   -0.02768  -0.01502  -0.01139  -0.00795  -0.00565
 Alpha virt. eigenvalues --   -0.00335  -0.00033   0.00362   0.00464   0.00534

  Beta  occ. eigenvalues --  -38.44826 -38.44736 -38.44626 -38.44538 -38.44158
  Beta  occ. eigenvalues --  -38.43673 -38.43333  -2.20573  -2.20465  -2.20332
  Beta  occ. eigenvalues --   -2.20290  -2.19973  -2.19450  -2.19115  -1.14240
  Beta  occ. eigenvalues --   -1.14238  -1.14224  -1.14170  -1.14139  -1.14117
  Beta  occ. eigenvalues --   -1.14033  -1.14012  -1.13993  -1.13956  -1.13947
  Beta  occ. eigenvalues --   -1.13933  -1.13646  -1.13638  -1.13616  -1.13127
  Beta  occ. eigenvalues --   -1.13107  -1.13100  -1.12791  -1.12769  -1.12759
  Beta  occ. eigenvalues --   -0.16278  -0.13042  -0.11522
  Beta virt. eigenvalues --   -0.07251  -0.05901  -0.05677  -0.04524  -0.03264
  Beta virt. eigenvalues --   -0.02582  -0.01994  -0.01384  -0.01051  -0.00777
  Beta virt. eigenvalues --   -0.00559  -0.00022   0.00220   0.00521   0.00539

 Mulliken charges and spin densities:
               1          2
     1  Na  -0.096145  -0.008314
     2  Na  -0.153803   0.416735
     3  Na   0.152059  -0.046519
     4  Na   0.012175   0.088097
     5  Na  -0.055105   0.429215
     6  Na   0.150208   0.100548
     7  Na  -0.009388   0.020237
 Sum of Mulliken charges =  -0.00000   1.00000

 Dipole moment (field-independent basis, Debye):
    X=             -0.5240    Y=              0.2299    Z=             -0.0961  Tot=              0.5802
 Quadrupole moment (field-independent basis, Debye-Ang):
   XX=            -60.6163   YY=            -69.2809   ZZ=            -68.7081
   XY=              0.5113   XZ=              2.1764   YZ=              2.3341

 Normal termination of Gaussian 16 at Mon Dec  4 03:26:32 2023.
