 Gaussian 16, Revision B.01,
 Gaussian 16:  ES64L-G16RevB.01 20-Dec-2017

 -------------------------
 #P B3LYP/6-311+g(d) force
 -------------------------

 -----
 DPGEN
 -----
 Symbolic Z-matrix:
 Charge =  0 Multiplicity = 2

                         Standard orientation:
 ---------------------------------------------------------------------
 Center     Atomic      Atomic             Coordinates (Angstroms)
 Number     Number       Type             X           Y           Z
 ---------------------------------------------------------------------
      1         11           0        1.866566    1.250234   -0.551225
      2         11           0       -1.095729    2.721902    0.024364
      3         11           0       -3.838912    0.695374   -0.334102
      4         11           0        4.626778   -0.712850   -1.088529
      5         11           0       -3.109081   -2.566451   -0.771091
      6         11           0       -1.178267   -0.620728    1.282728
      7         11           0        2.728646   -0.767483    1.437855
 ---------------------------------------------------------------------

 SCF Done:  E(UB3LYP) =  -1136.12058769     A.U. after   21 cycles

 The electronic state is 2-A.
 Alpha  occ. eigenvalues --  -38.44611 -38.44397 -38.44382 -38.43904 -38.43800
 Alpha  occ. eigenvalues --  -38.43688 -38.42449  -2.20508  -2.20276  -2.20254
 Alpha  occ. eigenvalues --   -2.19764  -2.19681  -2.19495  -2.18298  -1.14301
 Alpha  occ. eigenvalues --   -1.14165  -1.14128  -1.13967  -1.13947  -1.13937
 Alpha  occ. eigenvalues --   -1.13917  -1.13861  -1.13859  -1.13417  -1.13402
 Alpha  occ. eigenvalues --   -1.13385  -1.13384  -1.13345  -1.13290  -1.13160
 Alpha  occ. eigenvalues --   -1.13157  -1.13125  -1.11968  -1.11962  -1.11947
 Alpha  occ. eigenvalues --   -0.17378  -0.14925  -0.11461  -0.10720
 Alpha virt. eigenvalues --   -0.06623  -0.05262  -0.04194  -0.04062  -0.02697
 Alpha virt. eigenvalues --   -0.02207  -0.02071  -0.01532  -0.00632  -0.00495
 Alpha virt. eigenvalues --   -0.00132   0.00177   0.00385   0.00523   0.00582

  Beta  occ. eigenvalues --  -38.44588 -38.44383 -38.44356 -38.43851 -38.43747
  Beta  occ. eigenvalues --  -38.43684 -38.42442  -2.20470  -2.20281  -2.20180
  Beta  occ. eigenvalues --   -2.19665  -2.19587  -2.19488  -2.18287  -1.14286
  Beta  occ. eigenvalues --   -1.14146  -1.14052  -1.13972  -1.13929  -1.13889
  Beta  occ. eigenvalues --   -1.13869  -1.13858  -1.13800  -1.13349  -1.13335
  Beta  occ. eigenvalues --   -1.13325  -1.13322  -1.13268  -1.13214  -1.13156
  Beta  occ. eigenvalues --   -1.13140  -1.13118  -1.11963  -1.11953  -1.11929
  Beta  occ. eigenvalues --   -0.16749  -0.14546  -0.11348
  Beta virt. eigenvalues --   -0.07023  -0.06345  -0.04723  -0.04014  -0.03844
  Beta virt. eigenvalues --   -0.02409  -0.01847  -0.01553  -0.01287  -0.00476
  Beta virt. eigenvalues --   -0.00267   0.00030   0.00332   0.00495   0.00587

 Mulliken charges and spin densities:
               1          2
     1  Na  -1.320463  -0.085419
     2  Na   0.473955   0.354192
     3  Na   0.325196   0.318299
     4  Na   0.779024   0.113934
     5  Na   0.513561   0.067640
     6  Na  -0.895356   0.092481
     7  Na   0.124083   0.138874
 Sum of Mulliken charges =  -0.00000   1.00000

 Dipole moment (field-independent basis, Debye):
    X=              0.4518    Y=             -0.6116    Z=             -0.2624  Tot=              0.8044
 Quadrupole moment (field-independent basis, Debye-Ang):
   XX=            -61.0221   YY=            -70.0348   ZZ=            -66.6567
   XY=             -3.1711   XZ=              1.0813   YZ=              1.3199

 Normal termination of Gaussian 16 at Wed Nov 29 00:44:19 2023.
