 Gaussian 16, Revision B.01,
 Gaussian 16:  ES64L-G16RevB.01 20-Dec-2017

 -------------------------
 #P B3LYP/6-311+g(d) force
 -------------------------

 -----
 DPGEN
 -----
 Symbolic Z-matrix:
 Charge =  0 Multiplicity = 2

                         Standard orientation:
 ---------------------------------------------------------------------
 Center     Atomic      Atomic             Coordinates (Angstroms)
 Number     Number       Type             X           Y           Z
 ---------------------------------------------------------------------
      1         11           0        2.684133    0.899127    1.619287
      2         11           0       -1.491692    1.738796   -0.568922
      3         11           0        2.683865   -1.525097   -0.222148
      4         11           0        1.388714    1.316596   -1.593871
      5         11           0       -0.977242   -1.609848   -1.436683
      6         11           0       -4.018716   -0.173730    0.852563
      7         11           0       -0.269061   -0.645843    1.349774
 ---------------------------------------------------------------------

 SCF Done:  E(UB3LYP) =  -1136.12023290     A.U. after   28 cycles

 The electronic state is 2-A.
 Alpha  occ. eigenvalues --  -38.44656 -38.44579 -38.44510 -38.44003 -38.43865
 Alpha  occ. eigenvalues --  -38.43133 -38.42148  -2.20476  -2.20432  -2.20408
 Alpha  occ. eigenvalues --   -2.19903  -2.19812  -2.19070  -2.18072  -1.14231
 Alpha  occ. eigenvalues --   -1.14113  -1.14111  -1.14102  -1.14086  -1.14069
 Alpha  occ. eigenvalues --   -1.14059  -1.14050  -1.14040  -1.13585  -1.13551
 Alpha  occ. eigenvalues --   -1.13538  -1.13513  -1.13494  -1.13372  -1.12784
 Alpha  occ. eigenvalues --   -1.12715  -1.12685  -1.11763  -1.11726  -1.11702
 Alpha  occ. eigenvalues --   -0.19018  -0.14085  -0.11723  -0.10788
 Alpha virt. eigenvalues --   -0.06820  -0.05051  -0.04386  -0.03205  -0.02703
 Alpha virt. eigenvalues --   -0.02512  -0.02221  -0.00993  -0.00715  -0.00177
 Alpha virt. eigenvalues --    0.00158   0.00273   0.00426   0.00664   0.00777

  Beta  occ. eigenvalues --  -38.44659 -38.44498 -38.44491 -38.43965 -38.43840
  Beta  occ. eigenvalues --  -38.43110 -38.42135  -2.20438  -2.20376  -2.20329
  Beta  occ. eigenvalues --   -2.19831  -2.19773  -2.19026  -2.18052  -1.14130
  Beta  occ. eigenvalues --   -1.14111  -1.14105  -1.14087  -1.14058  -1.14036
  Beta  occ. eigenvalues --   -1.14007  -1.13974  -1.13952  -1.13528  -1.13509
  Beta  occ. eigenvalues --   -1.13487  -1.13457  -1.13447  -1.13351  -1.12757
  Beta  occ. eigenvalues --   -1.12679  -1.12653  -1.11744  -1.11715  -1.11672
  Beta  occ. eigenvalues --   -0.18209  -0.13925  -0.10600
  Beta virt. eigenvalues --   -0.07728  -0.06621  -0.04360  -0.04302  -0.02791
  Beta virt. eigenvalues --   -0.02573  -0.01920  -0.01661  -0.00689  -0.00499
  Beta virt. eigenvalues --   -0.00055   0.00194   0.00381   0.00443   0.00780

 Mulliken charges and spin densities:
               1          2
     1  Na   0.263969   0.027752
     2  Na  -0.460447  -0.000131
     3  Na   0.474998   0.136130
     4  Na  -0.032589   0.291268
     5  Na  -0.272499   0.295802
     6  Na   0.525992  -0.084910
     7  Na  -0.499425   0.334089
 Sum of Mulliken charges =  -0.00000   1.00000

 Dipole moment (field-independent basis, Debye):
    X=             -0.4618    Y=             -0.3264    Z=             -0.3060  Tot=              0.6430
 Quadrupole moment (field-independent basis, Debye-Ang):
   XX=            -50.6295   YY=            -69.0353   ZZ=            -74.8738
   XY=              0.0053   XZ=             -1.1026   YZ=              7.9840

 Normal termination of Gaussian 16 at Tue Dec  5 11:04:33 2023.
