 Gaussian 16, Revision B.01,
 Gaussian 16:  ES64L-G16RevB.01 20-Dec-2017

 -------------------------
 #P B3LYP/6-311+g(d) force
 -------------------------

 -----
 DPGEN
 -----
 Symbolic Z-matrix:
 Charge =  0 Multiplicity = 2

                         Standard orientation:
 ---------------------------------------------------------------------
 Center     Atomic      Atomic             Coordinates (Angstroms)
 Number     Number       Type             X           Y           Z
 ---------------------------------------------------------------------
      1         11           0        0.016151   -1.365098   -0.146465
      2         11           0       -0.932901    2.248809   -1.197286
      3         11           0        2.198419    0.851472   -1.423707
      4         11           0        3.327346   -1.639343    0.136992
      5         11           0        0.887782    1.144731    1.934331
      6         11           0       -2.025869    0.263328    1.562890
      7         11           0       -3.470928   -1.503899   -0.866755
 ---------------------------------------------------------------------

 SCF Done:  E(UB3LYP) =  -1136.12728778     A.U. after   23 cycles

 The electronic state is 2-A.
 Alpha  occ. eigenvalues --  -38.44022 -38.43722 -38.43719 -38.43702 -38.43598
 Alpha  occ. eigenvalues --  -38.43559 -38.43502  -2.19938  -2.19685  -2.19624
 Alpha  occ. eigenvalues --   -2.19573  -2.19460  -2.19439  -2.19370  -1.13637
 Alpha  occ. eigenvalues --   -1.13605  -1.13560  -1.13498  -1.13364  -1.13325
 Alpha  occ. eigenvalues --   -1.13281  -1.13243  -1.13233  -1.13224  -1.13214
 Alpha  occ. eigenvalues --   -1.13195  -1.13172  -1.13134  -1.13115  -1.13081
 Alpha  occ. eigenvalues --   -1.13054  -1.13048  -1.13029  -1.13023  -1.12989
 Alpha  occ. eigenvalues --   -0.18760  -0.13769  -0.11698  -0.11421
 Alpha virt. eigenvalues --   -0.05904  -0.05100  -0.04573  -0.03389  -0.02843
 Alpha virt. eigenvalues --   -0.02329  -0.01986  -0.01052  -0.00760  -0.00001
 Alpha virt. eigenvalues --    0.00192   0.00428   0.00464   0.00637   0.00788

  Beta  occ. eigenvalues --  -38.43983 -38.43721 -38.43684 -38.43637 -38.43553
  Beta  occ. eigenvalues --  -38.43548 -38.43487  -2.19868  -2.19624  -2.19573
  Beta  occ. eigenvalues --   -2.19508  -2.19439  -2.19358  -2.19349  -1.13589
  Beta  occ. eigenvalues --   -1.13550  -1.13512  -1.13434  -1.13305  -1.13279
  Beta  occ. eigenvalues --   -1.13240  -1.13218  -1.13215  -1.13205  -1.13139
  Beta  occ. eigenvalues --   -1.13129  -1.13123  -1.13113  -1.13051  -1.13035
  Beta  occ. eigenvalues --   -1.13020  -1.13013  -1.13005  -1.13003  -1.12976
  Beta  occ. eigenvalues --   -0.18021  -0.13603  -0.11175
  Beta virt. eigenvalues --   -0.07634  -0.05729  -0.05001  -0.04044  -0.02912
  Beta virt. eigenvalues --   -0.02352  -0.01927  -0.01691  -0.00872  -0.00338
  Beta virt. eigenvalues --    0.00084   0.00243   0.00467   0.00597   0.00718

 Mulliken charges and spin densities:
               1          2
     1  Na  -2.327500   0.465186
     2  Na  -0.425388   0.282287
     3  Na   0.279386   0.029976
     4  Na   1.136755  -0.027777
     5  Na  -0.067784   0.202066
     6  Na   0.667263   0.000918
     7  Na   0.737268   0.047343
 Sum of Mulliken charges =  -0.00000   1.00000

 Dipole moment (field-independent basis, Debye):
    X=              0.3500    Y=              0.4846    Z=             -0.0141  Tot=              0.5979
 Quadrupole moment (field-independent basis, Debye-Ang):
   XX=            -54.7824   YY=            -73.0764   ZZ=            -67.0094
   XY=             -1.8845   XZ=              2.6028   YZ=             -0.8702

 Normal termination of Gaussian 16 at Thu Dec  7 16:05:34 2023.
