 Gaussian 16, Revision B.01,
 Gaussian 16:  ES64L-G16RevB.01 20-Dec-2017

 -------------------------
 #P B3LYP/6-311+g(d) force
 -------------------------

 -----
 DPGEN
 -----
 Symbolic Z-matrix:
 Charge =  0 Multiplicity = 2

                         Standard orientation:
 ---------------------------------------------------------------------
 Center     Atomic      Atomic             Coordinates (Angstroms)
 Number     Number       Type             X           Y           Z
 ---------------------------------------------------------------------
      1         11           0       -0.895618    0.336318   -1.787372
      2         11           0        3.995226   -0.219544    0.378041
      3         11           0        0.596035    2.545045   -0.192598
      4         11           0       -2.739563   -2.048109    0.145416
      5         11           0       -2.683187    1.405863    0.656828
      6         11           0        1.357321   -1.448569   -1.145593
      7         11           0        0.369786   -0.571004    1.945277
 ---------------------------------------------------------------------

 SCF Done:  E(UB3LYP) =  -1136.12303708     A.U. after   23 cycles

 The electronic state is 2-A.
 Alpha  occ. eigenvalues --  -38.45241 -38.44784 -38.44220 -38.43735 -38.43400
 Alpha  occ. eigenvalues --  -38.43327 -38.42575  -2.21011  -2.20613  -2.20082
 Alpha  occ. eigenvalues --   -2.19661  -2.19419  -2.19131  -2.18432  -1.14692
 Alpha  occ. eigenvalues --   -1.14665  -1.14641  -1.14312  -1.14264  -1.14208
 Alpha  occ. eigenvalues --   -1.13786  -1.13747  -1.13682  -1.13467  -1.13311
 Alpha  occ. eigenvalues --   -1.13249  -1.13085  -1.13045  -1.13004  -1.12805
 Alpha  occ. eigenvalues --   -1.12795  -1.12774  -1.12133  -1.12099  -1.12039
 Alpha  occ. eigenvalues --   -0.18546  -0.13471  -0.11406  -0.11281
 Alpha virt. eigenvalues --   -0.06842  -0.04838  -0.04019  -0.03274  -0.02938
 Alpha virt. eigenvalues --   -0.02591  -0.02448  -0.01001  -0.00577  -0.00130
 Alpha virt. eigenvalues --    0.00180   0.00255   0.00364   0.00704   0.00832

  Beta  occ. eigenvalues --  -38.45239 -38.44726 -38.44203 -38.43684 -38.43331
  Beta  occ. eigenvalues --  -38.43321 -38.42570  -2.21008  -2.20505  -2.20051
  Beta  occ. eigenvalues --   -2.19574  -2.19280  -2.19140  -2.18427  -1.14688
  Beta  occ. eigenvalues --   -1.14663  -1.14637  -1.14240  -1.14185  -1.14127
  Beta  occ. eigenvalues --   -1.13762  -1.13717  -1.13662  -1.13381  -1.13235
  Beta  occ. eigenvalues --   -1.13193  -1.12996  -1.12936  -1.12907  -1.12812
  Beta  occ. eigenvalues --   -1.12786  -1.12779  -1.12125  -1.12079  -1.12039
  Beta  occ. eigenvalues --   -0.17756  -0.13333  -0.11120
  Beta virt. eigenvalues --   -0.07366  -0.06634  -0.04786  -0.03577  -0.03090
  Beta virt. eigenvalues --   -0.02298  -0.01995  -0.01831  -0.00890  -0.00379
  Beta virt. eigenvalues --   -0.00076   0.00212   0.00279   0.00538   0.00760

 Mulliken charges and spin densities:
               1          2
     1  Na   0.651499   0.350369
     2  Na   0.133790   0.050443
     3  Na  -0.395604  -0.024643
     4  Na  -0.132826  -0.084242
     5  Na   0.086046   0.175721
     6  Na  -0.081731  -0.060794
     7  Na  -0.261174   0.593146
 Sum of Mulliken charges =  -0.00000   1.00000

 Dipole moment (field-independent basis, Debye):
    X=              0.8308    Y=              0.1146    Z=              0.7037  Tot=              1.0947
 Quadrupole moment (field-independent basis, Debye-Ang):
   XX=            -48.9480   YY=            -73.7950   ZZ=            -70.3147
   XY=              0.5617   XZ=              0.0891   YZ=              1.9535

 Normal termination of Gaussian 16 at Thu Dec  7 09:08:15 2023.
