 Gaussian 16, Revision B.01,
 Gaussian 16:  ES64L-G16RevB.01 20-Dec-2017

 -------------------------
 #P B3LYP/6-311+g(d) force
 -------------------------

 -----
 DPGEN
 -----
 Symbolic Z-matrix:
 Charge =  0 Multiplicity = 2

                         Standard orientation:
 ---------------------------------------------------------------------
 Center     Atomic      Atomic             Coordinates (Angstroms)
 Number     Number       Type             X           Y           Z
 ---------------------------------------------------------------------
      1         11           0        4.382318   -2.460472   -0.206721
      2         11           0       -4.201161    0.253117   -0.767667
      3         11           0        0.956336    4.277546    1.051955
      4         11           0        0.429254   -2.094502    0.394318
      5         11           0       -0.908741    1.599970   -0.758408
      6         11           0        2.444514    0.940989   -0.593960
      7         11           0       -3.102520   -2.516650    0.880482
 ---------------------------------------------------------------------

 SCF Done:  E(UB3LYP) =  -1136.11666055     A.U. after   23 cycles

 The electronic state is 2-A.
 Alpha  occ. eigenvalues --  -38.45055 -38.44851 -38.44512 -38.44428 -38.44298
 Alpha  occ. eigenvalues --  -38.43996 -38.43500  -2.20799  -2.20639  -2.20320
 Alpha  occ. eigenvalues --   -2.20180  -2.20082  -2.19796  -2.19322  -1.14475
 Alpha  occ. eigenvalues --   -1.14472  -1.14408  -1.14372  -1.14341  -1.14199
 Alpha  occ. eigenvalues --   -1.14029  -1.14012  -1.13904  -1.13849  -1.13845
 Alpha  occ. eigenvalues --   -1.13786  -1.13780  -1.13779  -1.13662  -1.13467
 Alpha  occ. eigenvalues --   -1.13444  -1.13437  -1.12976  -1.12971  -1.12945
 Alpha  occ. eigenvalues --   -0.16402  -0.13486  -0.12746  -0.10227
 Alpha virt. eigenvalues --   -0.07321  -0.05743  -0.04221  -0.03705  -0.02784
 Alpha virt. eigenvalues --   -0.02415  -0.02270  -0.01524  -0.01253  -0.00841
 Alpha virt. eigenvalues --   -0.00602  -0.00011   0.00206   0.00431   0.00557

  Beta  occ. eigenvalues --  -38.45043 -38.44852 -38.44492 -38.44394 -38.44258
  Beta  occ. eigenvalues --  -38.43965 -38.43442  -2.20777  -2.20640  -2.20286
  Beta  occ. eigenvalues --   -2.20115  -2.20011  -2.19742  -2.19213  -1.14459
  Beta  occ. eigenvalues --   -1.14456  -1.14393  -1.14374  -1.14341  -1.14197
  Beta  occ. eigenvalues --   -1.14008  -1.13988  -1.13863  -1.13804  -1.13799
  Beta  occ. eigenvalues --   -1.13746  -1.13736  -1.13734  -1.13590  -1.13433
  Beta  occ. eigenvalues --   -1.13406  -1.13381  -1.12903  -1.12887  -1.12879
  Beta  occ. eigenvalues --   -0.16083  -0.13039  -0.12254
  Beta virt. eigenvalues --   -0.07102  -0.06707  -0.05615  -0.03820  -0.03502
  Beta virt. eigenvalues --   -0.02545  -0.02200  -0.01864  -0.01331  -0.01009
  Beta virt. eigenvalues --   -0.00717  -0.00234   0.00248   0.00298   0.00569

 Mulliken charges and spin densities:
               1          2
     1  Na   0.758269   0.350387
     2  Na  -0.322537   0.287844
     3  Na   0.498510   0.011776
     4  Na  -1.281452   0.390007
     5  Na  -0.609276   0.109548
     6  Na   0.246662   0.112517
     7  Na   0.709824  -0.262079
 Sum of Mulliken charges =  -0.00000   1.00000

 Dipole moment (field-independent basis, Debye):
    X=              0.9927    Y=              0.9524    Z=              0.5922  Tot=              1.4977
 Quadrupole moment (field-independent basis, Debye-Ang):
   XX=            -61.0839   YY=            -61.3025   ZZ=            -71.6900
   XY=              2.7899   XZ=             -1.4679   YZ=              3.3401

 Normal termination of Gaussian 16 at Sun Dec  3 13:52:28 2023.
