 Gaussian 16, Revision B.01,
 Gaussian 16:  ES64L-G16RevB.01 20-Dec-2017

 -------------------------
 #P B3LYP/6-311+g(d) force
 -------------------------

 -----
 DPGEN
 -----
 Symbolic Z-matrix:
 Charge =  0 Multiplicity = 2

                         Standard orientation:
 ---------------------------------------------------------------------
 Center     Atomic      Atomic             Coordinates (Angstroms)
 Number     Number       Type             X           Y           Z
 ---------------------------------------------------------------------
      1         11           0        0.052098   -0.301887   -1.708735
      2         11           0       -0.940774    0.447620    1.832578
      3         11           0        0.890082   -2.237336    0.881440
      4         11           0       -2.214532    1.862772   -0.634404
      5         11           0        3.302437   -0.722679   -0.469371
      6         11           0        1.468857    2.824452    0.354015
      7         11           0       -2.558168   -1.872943   -0.255523
 ---------------------------------------------------------------------

 SCF Done:  E(UB3LYP) =  -1136.13360680     A.U. after   19 cycles

 The electronic state is 2-A.
 Alpha  occ. eigenvalues --  -38.43981 -38.43933 -38.43907 -38.43805 -38.43449
 Alpha  occ. eigenvalues --  -38.43448 -38.43237  -2.19804  -2.19743  -2.19730
 Alpha  occ. eigenvalues --   -2.19646  -2.19399  -2.19387  -2.19144  -1.13521
 Alpha  occ. eigenvalues --   -1.13494  -1.13427  -1.13422  -1.13403  -1.13397
 Alpha  occ. eigenvalues --   -1.13395  -1.13376  -1.13359  -1.13332  -1.13305
 Alpha  occ. eigenvalues --   -1.13284  -1.13093  -1.13062  -1.13042  -1.13038
 Alpha  occ. eigenvalues --   -1.13011  -1.12976  -1.12824  -1.12796  -1.12761
 Alpha  occ. eigenvalues --   -0.18578  -0.13051  -0.12199  -0.10956
 Alpha virt. eigenvalues --   -0.05694  -0.05376  -0.04366  -0.03331  -0.02923
 Alpha virt. eigenvalues --   -0.02594  -0.01551  -0.01239  -0.00443  -0.00061
 Alpha virt. eigenvalues --    0.00060   0.00363   0.00720   0.00775   0.00849

  Beta  occ. eigenvalues --  -38.43979 -38.43917 -38.43904 -38.43799 -38.43382
  Beta  occ. eigenvalues --  -38.43375 -38.43214  -2.19777  -2.19741  -2.19726
  Beta  occ. eigenvalues --   -2.19639  -2.19278  -2.19252  -2.19105  -1.13503
  Beta  occ. eigenvalues --   -1.13454  -1.13421  -1.13414  -1.13400  -1.13384
  Beta  occ. eigenvalues --   -1.13382  -1.13370  -1.13357  -1.13320  -1.13297
  Beta  occ. eigenvalues --   -1.13266  -1.13013  -1.12969  -1.12958  -1.12947
  Beta  occ. eigenvalues --   -1.12918  -1.12877  -1.12795  -1.12751  -1.12728
  Beta  occ. eigenvalues --   -0.17835  -0.12843  -0.11974
  Beta virt. eigenvalues --   -0.07011  -0.05682  -0.05270  -0.04236  -0.02697
  Beta virt. eigenvalues --   -0.02228  -0.01585  -0.01440  -0.01187  -0.00382
  Beta virt. eigenvalues --   -0.00005   0.00121   0.00402   0.00766   0.00881

 Mulliken charges and spin densities:
               1          2
     1  Na  -0.074215   0.572056
     2  Na   0.252575   0.573000
     3  Na  -0.283218   0.014822
     4  Na   0.050551  -0.037758
     5  Na   0.196660  -0.000404
     6  Na  -0.361054  -0.111985
     7  Na   0.218701  -0.009731
 Sum of Mulliken charges =  -0.00000   1.00000

 Dipole moment (field-independent basis, Debye):
    X=             -0.0937    Y=              0.1515    Z=             -0.1103  Tot=              0.2095
 Quadrupole moment (field-independent basis, Debye-Ang):
   XX=            -55.8418   YY=            -64.9355   ZZ=            -72.6360
   XY=              1.6264   XZ=              0.9591   YZ=             -0.8918

 Normal termination of Gaussian 16 at Thu Dec  7 07:15:54 2023.
