 Gaussian 16, Revision B.01,
 Gaussian 16:  ES64L-G16RevB.01 20-Dec-2017

 -------------------------
 #P B3LYP/6-311+g(d) force
 -------------------------

 -----
 DPGEN
 -----
 Symbolic Z-matrix:
 Charge =  0 Multiplicity = 2

                         Standard orientation:
 ---------------------------------------------------------------------
 Center     Atomic      Atomic             Coordinates (Angstroms)
 Number     Number       Type             X           Y           Z
 ---------------------------------------------------------------------
      1         11           0        2.203577    0.111100    1.929195
      2         11           0       -0.398140   -2.256655    1.419499
      3         11           0       -1.245462    2.128226    0.988816
      4         11           0       -3.620283   -0.419462   -0.148528
      5         11           0        2.546198   -1.469875   -1.412771
      6         11           0       -0.981863   -0.354763   -1.920297
      7         11           0        1.495974    2.261429   -0.855914
 ---------------------------------------------------------------------

 SCF Done:  E(UB3LYP) =  -1136.12991532     A.U. after   21 cycles

 The electronic state is 2-A.
 Alpha  occ. eigenvalues --  -38.44402 -38.44288 -38.44232 -38.44098 -38.44018
 Alpha  occ. eigenvalues --  -38.43477 -38.43072  -2.20219  -2.20094  -2.20074
 Alpha  occ. eigenvalues --   -2.19911  -2.19799  -2.19296  -2.18909  -1.13899
 Alpha  occ. eigenvalues --   -1.13865  -1.13836  -1.13780  -1.13767  -1.13742
 Alpha  occ. eigenvalues --   -1.13725  -1.13724  -1.13703  -1.13582  -1.13551
 Alpha  occ. eigenvalues --   -1.13542  -1.13486  -1.13454  -1.13414  -1.12979
 Alpha  occ. eigenvalues --   -1.12969  -1.12920  -1.12586  -1.12568  -1.12544
 Alpha  occ. eigenvalues --   -0.17781  -0.13077  -0.11746  -0.11487
 Alpha virt. eigenvalues --   -0.05831  -0.05220  -0.04641  -0.03471  -0.03268
 Alpha virt. eigenvalues --   -0.03035  -0.01617  -0.00894  -0.00548  -0.00213
 Alpha virt. eigenvalues --    0.00164   0.00243   0.00386   0.00608   0.00749

  Beta  occ. eigenvalues --  -38.44354 -38.44256 -38.44180 -38.44099 -38.43982
  Beta  occ. eigenvalues --  -38.43464 -38.43064  -2.20131  -2.20016  -2.19998
  Beta  occ. eigenvalues --   -2.19914  -2.19734  -2.19273  -2.18897  -1.13828
  Beta  occ. eigenvalues --   -1.13809  -1.13773  -1.13716  -1.13708  -1.13691
  Beta  occ. eigenvalues --   -1.13683  -1.13662  -1.13660  -1.13569  -1.13550
  Beta  occ. eigenvalues --   -1.13537  -1.13436  -1.13405  -1.13368  -1.12966
  Beta  occ. eigenvalues --   -1.12945  -1.12903  -1.12577  -1.12556  -1.12525
  Beta  occ. eigenvalues --   -0.17042  -0.12915  -0.11297
  Beta virt. eigenvalues --   -0.07863  -0.05677  -0.04887  -0.04243  -0.03212
  Beta virt. eigenvalues --   -0.02739  -0.02181  -0.01508  -0.00680  -0.00302
  Beta virt. eigenvalues --   -0.00096   0.00206   0.00331   0.00437   0.00706

 Mulliken charges and spin densities:
               1          2
     1  Na  -0.054315   0.255889
     2  Na  -0.235979   0.238814
     3  Na  -0.099573   0.085614
     4  Na   0.372287  -0.010092
     5  Na   0.214213   0.053833
     6  Na  -0.350181   0.251699
     7  Na   0.153547   0.124245
 Sum of Mulliken charges =  -0.00000   1.00000

 Dipole moment (field-independent basis, Debye):
    X=             -0.1425    Y=             -0.3115    Z=              0.1127  Tot=              0.3606
 Quadrupole moment (field-independent basis, Debye-Ang):
   XX=            -56.2725   YY=            -74.6879   ZZ=            -65.2854
   XY=              0.3035   XZ=             -2.1861   YZ=              0.6738

 Normal termination of Gaussian 16 at Sun Dec  3 13:24:19 2023.
