 Gaussian 16, Revision B.01,
 Gaussian 16:  ES64L-G16RevB.01 20-Dec-2017

 -------------------------
 #P B3LYP/6-311+g(d) force
 -------------------------

 -----
 DPGEN
 -----
 Symbolic Z-matrix:
 Charge =  0 Multiplicity = 2

                         Standard orientation:
 ---------------------------------------------------------------------
 Center     Atomic      Atomic             Coordinates (Angstroms)
 Number     Number       Type             X           Y           Z
 ---------------------------------------------------------------------
      1         11           0        2.560667    1.333848   -0.320907
      2         11           0       -1.153445    3.260635   -0.061041
      3         11           0       -0.884250   -2.607653    0.480367
      4         11           0       -0.327344    0.164302   -1.506748
      5         11           0       -3.337332   -0.805534   -0.252655
      6         11           0        2.633746   -1.839993   -0.472314
      7         11           0        0.507958    0.494394    2.133299
 ---------------------------------------------------------------------

 SCF Done:  E(UB3LYP) =  -1136.13148095     A.U. after   19 cycles

 The electronic state is 2-A.
 Alpha  occ. eigenvalues --  -38.44309 -38.44063 -38.43974 -38.43720 -38.43711
 Alpha  occ. eigenvalues --  -38.43417 -38.43285  -2.20131  -2.19948  -2.19738
 Alpha  occ. eigenvalues --   -2.19585  -2.19546  -2.19283  -2.19227  -1.13812
 Alpha  occ. eigenvalues --   -1.13797  -1.13766  -1.13646  -1.13629  -1.13575
 Alpha  occ. eigenvalues --   -1.13415  -1.13399  -1.13378  -1.13241  -1.13229
 Alpha  occ. eigenvalues --   -1.13207  -1.13205  -1.13189  -1.13180  -1.12975
 Alpha  occ. eigenvalues --   -1.12943  -1.12920  -1.12914  -1.12869  -1.12845
 Alpha  occ. eigenvalues --   -0.18275  -0.13145  -0.12213  -0.10661
 Alpha virt. eigenvalues --   -0.05951  -0.05386  -0.04608  -0.03205  -0.02836
 Alpha virt. eigenvalues --   -0.02524  -0.01639  -0.01499  -0.00420  -0.00355
 Alpha virt. eigenvalues --   -0.00043   0.00328   0.00717   0.00778   0.00820

  Beta  occ. eigenvalues --  -38.44309 -38.44050 -38.43977 -38.43701 -38.43619
  Beta  occ. eigenvalues --  -38.43405 -38.43237  -2.20131  -2.19929  -2.19744
  Beta  occ. eigenvalues --   -2.19531  -2.19399  -2.19264  -2.19140  -1.13814
  Beta  occ. eigenvalues --   -1.13784  -1.13768  -1.13638  -1.13585  -1.13560
  Beta  occ. eigenvalues --   -1.13408  -1.13404  -1.13382  -1.13199  -1.13188
  Beta  occ. eigenvalues --   -1.13165  -1.13118  -1.13100  -1.13049  -1.12958
  Beta  occ. eigenvalues --   -1.12919  -1.12898  -1.12854  -1.12804  -1.12783
  Beta  occ. eigenvalues --   -0.17567  -0.12922  -0.12025
  Beta virt. eigenvalues --   -0.06760  -0.05920  -0.05288  -0.04500  -0.02500
  Beta virt. eigenvalues --   -0.02167  -0.01616  -0.01516  -0.01355  -0.00434
  Beta virt. eigenvalues --   -0.00354   0.00123   0.00370   0.00738   0.00861

 Mulliken charges and spin densities:
               1          2
     1  Na   0.419027   0.062126
     2  Na  -0.104612  -0.090246
     3  Na   0.037370   0.129409
     4  Na   0.006156   0.207106
     5  Na   0.079377  -0.056640
     6  Na  -0.027904   0.086493
     7  Na  -0.409413   0.661753
 Sum of Mulliken charges =  -0.00000   1.00000

 Dipole moment (field-independent basis, Debye):
    X=             -0.2950    Y=              0.2030    Z=              0.0692  Tot=              0.3647
 Quadrupole moment (field-independent basis, Debye-Ang):
   XX=            -56.7759   YY=            -61.8406   ZZ=            -74.9294
   XY=             -1.3367   XZ=             -1.0198   YZ=             -0.2986

 Normal termination of Gaussian 16 at Thu Dec  7 23:33:28 2023.
