 Gaussian 16, Revision B.01,
 Gaussian 16:  ES64L-G16RevB.01 20-Dec-2017

 -------------------------
 #P B3LYP/6-311+g(d) force
 -------------------------

 -----
 DPGEN
 -----
 Symbolic Z-matrix:
 Charge =  0 Multiplicity = 2

                         Standard orientation:
 ---------------------------------------------------------------------
 Center     Atomic      Atomic             Coordinates (Angstroms)
 Number     Number       Type             X           Y           Z
 ---------------------------------------------------------------------
      1         11           0        4.220934   -0.804919    0.028546
      2         11           0       -1.395045    1.102607   -1.070025
      3         11           0       -4.278449    1.137873    0.055603
      4         11           0       -2.697596   -1.996679    0.212126
      5         11           0        1.097232   -1.653936   -1.198585
      6         11           0        2.696142    2.326385   -0.081932
      7         11           0        0.356782   -0.111331    2.054267
 ---------------------------------------------------------------------

 SCF Done:  E(UB3LYP) =  -1136.10923180     A.U. after   26 cycles

 The electronic state is 2-A.
 Alpha  occ. eigenvalues --  -38.44979 -38.44827 -38.44769 -38.44448 -38.43878
 Alpha  occ. eigenvalues --  -38.43795 -38.43495  -2.20787  -2.20675  -2.20558
 Alpha  occ. eigenvalues --   -2.20266  -2.19650  -2.19611  -2.19338  -1.14455
 Alpha  occ. eigenvalues --   -1.14430  -1.14388  -1.14387  -1.14326  -1.14316
 Alpha  occ. eigenvalues --   -1.14257  -1.14215  -1.14175  -1.13925  -1.13910
 Alpha  occ. eigenvalues --   -1.13889  -1.13333  -1.13326  -1.13301  -1.13297
 Alpha  occ. eigenvalues --   -1.13272  -1.13212  -1.13003  -1.12987  -1.12976
 Alpha  occ. eigenvalues --   -0.17555  -0.14370  -0.10772  -0.10583
 Alpha virt. eigenvalues --   -0.07570  -0.06178  -0.04069  -0.03488  -0.02974
 Alpha virt. eigenvalues --   -0.02173  -0.02140  -0.02018  -0.01090  -0.00786
 Alpha virt. eigenvalues --   -0.00515   0.00058   0.00312   0.00479   0.00488

  Beta  occ. eigenvalues --  -38.44900 -38.44830 -38.44768 -38.44379 -38.43867
  Beta  occ. eigenvalues --  -38.43778 -38.43475  -2.20683  -2.20640  -2.20558
  Beta  occ. eigenvalues --   -2.20140  -2.19632  -2.19582  -2.19301  -1.14402
  Beta  occ. eigenvalues --   -1.14354  -1.14337  -1.14324  -1.14300  -1.14279
  Beta  occ. eigenvalues --   -1.14255  -1.14218  -1.14162  -1.13835  -1.13822
  Beta  occ. eigenvalues --   -1.13803  -1.13324  -1.13304  -1.13290  -1.13265
  Beta  occ. eigenvalues --   -1.13253  -1.13179  -1.12985  -1.12962  -1.12944
  Beta  occ. eigenvalues --   -0.17013  -0.13797  -0.10563
  Beta virt. eigenvalues --   -0.07335  -0.07048  -0.05967  -0.03668  -0.03080
  Beta virt. eigenvalues --   -0.02801  -0.02094  -0.01685  -0.01483  -0.00819
  Beta virt. eigenvalues --   -0.00606  -0.00223   0.00121   0.00413   0.00531

 Mulliken charges and spin densities:
               1          2
     1  Na   0.253652   0.293367
     2  Na  -0.364771   0.024133
     3  Na   0.341047   0.056438
     4  Na   0.102980   0.031607
     5  Na  -0.127746   0.203588
     6  Na  -0.125412   0.105958
     7  Na  -0.079750   0.284909
 Sum of Mulliken charges =  -0.00000   1.00000

 Dipole moment (field-independent basis, Debye):
    X=             -0.3493    Y=             -0.7346    Z=              1.0399  Tot=              1.3202
 Quadrupole moment (field-independent basis, Debye-Ang):
   XX=            -64.3659   YY=            -75.6021   ZZ=            -64.4853
   XY=              4.0906   XZ=             -1.1506   YZ=             -2.1772

 Normal termination of Gaussian 16 at Fri Dec  8 04:46:02 2023.
