 Gaussian 16, Revision B.01,
 Gaussian 16:  ES64L-G16RevB.01 20-Dec-2017

 -------------------------
 #P B3LYP/6-311+g(d) force
 -------------------------

 -----
 DPGEN
 -----
 Symbolic Z-matrix:
 Charge =  0 Multiplicity = 2

                         Standard orientation:
 ---------------------------------------------------------------------
 Center     Atomic      Atomic             Coordinates (Angstroms)
 Number     Number       Type             X           Y           Z
 ---------------------------------------------------------------------
      1         11           0       -0.144708   -0.436382    2.157540
      2         11           0       -3.029256    0.446601   -0.144148
      3         11           0        2.672284    1.383879   -0.301461
      4         11           0       -0.368209    3.083749    0.223751
      5         11           0        0.121889    0.149420   -1.544886
      6         11           0        2.383282   -2.204280    0.077832
      7         11           0       -1.635283   -2.422988   -0.468628
 ---------------------------------------------------------------------

 SCF Done:  E(UB3LYP) =  -1136.13730507     A.U. after   19 cycles

 The electronic state is 2-A.
 Alpha  occ. eigenvalues --  -38.43828 -38.43824 -38.43815 -38.43756 -38.43628
 Alpha  occ. eigenvalues --  -38.43464 -38.43145  -2.19680  -2.19678  -2.19614
 Alpha  occ. eigenvalues --   -2.19609  -2.19499  -2.19281  -2.19138  -1.13412
 Alpha  occ. eigenvalues --   -1.13378  -1.13345  -1.13334  -1.13327  -1.13299
 Alpha  occ. eigenvalues --   -1.13287  -1.13276  -1.13261  -1.13252  -1.13243
 Alpha  occ. eigenvalues --   -1.13220  -1.13187  -1.13145  -1.13115  -1.12957
 Alpha  occ. eigenvalues --   -1.12946  -1.12921  -1.12816  -1.12785  -1.12747
 Alpha  occ. eigenvalues --   -0.18472  -0.13043  -0.12371  -0.10739
 Alpha virt. eigenvalues --   -0.05412  -0.05280  -0.04917  -0.03148  -0.02928
 Alpha virt. eigenvalues --   -0.02595  -0.01433  -0.01236  -0.00435  -0.00405
 Alpha virt. eigenvalues --   -0.00018   0.00352   0.00798   0.00856   0.00864

  Beta  occ. eigenvalues --  -38.43824 -38.43817 -38.43814 -38.43656 -38.43615
  Beta  occ. eigenvalues --  -38.43461 -38.43090  -2.19675  -2.19668  -2.19613
  Beta  occ. eigenvalues --   -2.19478  -2.19426  -2.19278  -2.19039  -1.13396
  Beta  occ. eigenvalues --   -1.13374  -1.13335  -1.13315  -1.13309  -1.13298
  Beta  occ. eigenvalues --   -1.13271  -1.13266  -1.13251  -1.13172  -1.13146
  Beta  occ. eigenvalues --   -1.13129  -1.13110  -1.13094  -1.13086  -1.12952
  Beta  occ. eigenvalues --   -1.12936  -1.12916  -1.12745  -1.12709  -1.12680
  Beta  occ. eigenvalues --   -0.17762  -0.12791  -0.12175
  Beta virt. eigenvalues --   -0.06817  -0.05399  -0.05246  -0.04829  -0.02390
  Beta virt. eigenvalues --   -0.02190  -0.01545  -0.01331  -0.01148  -0.00473
  Beta virt. eigenvalues --   -0.00451   0.00138   0.00386   0.00855   0.00860

 Mulliken charges and spin densities:
               1          2
     1  Na  -0.611157   0.814657
     2  Na   0.149907   0.015549
     3  Na   0.224355  -0.019439
     4  Na  -0.007202   0.008838
     5  Na  -0.142462   0.236616
     6  Na   0.088243  -0.057831
     7  Na   0.298315   0.001609
 Sum of Mulliken charges =  -0.00000   1.00000

 Dipole moment (field-independent basis, Debye):
    X=              0.0383    Y=             -0.0905    Z=              0.1744  Tot=              0.2002
 Quadrupole moment (field-independent basis, Debye-Ang):
   XX=            -58.1554   YY=            -60.8413   ZZ=            -74.5626
   XY=             -0.8615   XZ=              0.3215   YZ=              1.3303

 Normal termination of Gaussian 16 at Fri Dec  8 01:27:00 2023.
