 Gaussian 16, Revision B.01,
 Gaussian 16:  ES64L-G16RevB.01 20-Dec-2017

 -------------------------
 #P B3LYP/6-311+g(d) force
 -------------------------

 -----
 DPGEN
 -----
 Symbolic Z-matrix:
 Charge =  0 Multiplicity = 2

                         Standard orientation:
 ---------------------------------------------------------------------
 Center     Atomic      Atomic             Coordinates (Angstroms)
 Number     Number       Type             X           Y           Z
 ---------------------------------------------------------------------
      1         11           0       -0.424384    0.113115    1.942423
      2         11           0        0.014876   -0.123309   -1.690814
      3         11           0        1.175472    2.846142   -0.386141
      4         11           0        1.147219   -2.615936   -0.219685
      5         11           0       -2.579268    1.579232   -0.000183
      6         11           0       -2.419165   -1.694951   -0.083846
      7         11           0        3.085251   -0.104294    0.438247
 ---------------------------------------------------------------------

 SCF Done:  E(UB3LYP) =  -1136.13724482     A.U. after   19 cycles

 The electronic state is 2-A.
 Alpha  occ. eigenvalues --  -38.44013 -38.43916 -38.43662 -38.43624 -38.43434
 Alpha  occ. eigenvalues --  -38.43180 -38.43155  -2.19849  -2.19784  -2.19553
 Alpha  occ. eigenvalues --   -2.19541  -2.19242  -2.19147  -2.19068  -1.13523
 Alpha  occ. eigenvalues --   -1.13514  -1.13489  -1.13489  -1.13458  -1.13415
 Alpha  occ. eigenvalues --   -1.13256  -1.13232  -1.13196  -1.13176  -1.13164
 Alpha  occ. eigenvalues --   -1.13144  -1.12933  -1.12899  -1.12891  -1.12879
 Alpha  occ. eigenvalues --   -1.12804  -1.12759  -1.12716  -1.12702  -1.12685
 Alpha  occ. eigenvalues --   -0.18836  -0.13278  -0.12318  -0.10807
 Alpha virt. eigenvalues --   -0.05596  -0.05236  -0.04567  -0.03365  -0.02826
 Alpha virt. eigenvalues --   -0.02508  -0.01474  -0.01099  -0.00370  -0.00206
 Alpha virt. eigenvalues --    0.00006   0.00369   0.00821   0.00882   0.00910

  Beta  occ. eigenvalues --  -38.44005 -38.43910 -38.43654 -38.43540 -38.43428
  Beta  occ. eigenvalues --  -38.43174 -38.43081  -2.19837  -2.19778  -2.19544
  Beta  occ. eigenvalues --   -2.19388  -2.19233  -2.19063  -2.19013  -1.13518
  Beta  occ. eigenvalues --   -1.13490  -1.13481  -1.13481  -1.13438  -1.13403
  Beta  occ. eigenvalues --   -1.13238  -1.13197  -1.13165  -1.13104  -1.13059
  Beta  occ. eigenvalues --   -1.13039  -1.12914  -1.12886  -1.12877  -1.12836
  Beta  occ. eigenvalues --   -1.12722  -1.12699  -1.12693  -1.12662  -1.12628
  Beta  occ. eigenvalues --   -0.18105  -0.13035  -0.12052
  Beta virt. eigenvalues --   -0.06924  -0.05515  -0.05225  -0.04531  -0.02567
  Beta virt. eigenvalues --   -0.02078  -0.01481  -0.01375  -0.01027  -0.00394
  Beta virt. eigenvalues --   -0.00256   0.00132   0.00391   0.00865   0.00892

 Mulliken charges and spin densities:
               1          2
     1  Na  -0.403476   0.661236
     2  Na  -0.175403   0.567618
     3  Na  -0.047839  -0.071227
     4  Na   0.182636  -0.049335
     5  Na   0.198003  -0.078923
     6  Na   0.259476  -0.065889
     7  Na  -0.013398   0.036520
 Sum of Mulliken charges =  -0.00000   1.00000

 Dipole moment (field-independent basis, Debye):
    X=             -0.1447    Y=              0.1138    Z=              0.1767  Tot=              0.2552
 Quadrupole moment (field-independent basis, Debye-Ang):
   XX=            -56.5738   YY=            -63.1334   ZZ=            -74.0070
   XY=             -0.0091   XZ=              1.3393   YZ=             -0.5252

 Normal termination of Gaussian 16 at Tue Dec  5 09:51:24 2023.
