 Gaussian 16, Revision B.01,
 Gaussian 16:  ES64L-G16RevB.01 20-Dec-2017

 -------------------------
 #P B3LYP/6-311+g(d) force
 -------------------------

 -----
 DPGEN
 -----
 Symbolic Z-matrix:
 Charge =  0 Multiplicity = 2

                         Standard orientation:
 ---------------------------------------------------------------------
 Center     Atomic      Atomic             Coordinates (Angstroms)
 Number     Number       Type             X           Y           Z
 ---------------------------------------------------------------------
      1         11           0        1.525390   -1.210768   -1.786048
      2         11           0       -2.799246    0.210378    1.717190
      3         11           0        0.526979   -1.055064    1.994481
      4         11           0       -2.154476    1.359733   -1.507833
      5         11           0       -1.136532   -2.557136   -0.781421
      6         11           0        3.745568    0.597748    0.647857
      7         11           0        0.292316    2.655110   -0.284225
 ---------------------------------------------------------------------

 SCF Done:  E(UB3LYP) =  -1136.12510848     A.U. after   20 cycles

 The electronic state is 2-A.
 Alpha  occ. eigenvalues --  -38.44729 -38.44462 -38.44347 -38.44150 -38.43645
 Alpha  occ. eigenvalues --  -38.43635 -38.43301  -2.20528  -2.20279  -2.20179
 Alpha  occ. eigenvalues --   -2.19912  -2.19499  -2.19439  -2.19143  -1.14207
 Alpha  occ. eigenvalues --   -1.14171  -1.14150  -1.13960  -1.13931  -1.13892
 Alpha  occ. eigenvalues --   -1.13866  -1.13828  -1.13799  -1.13586  -1.13568
 Alpha  occ. eigenvalues --   -1.13545  -1.13291  -1.13140  -1.13132  -1.13100
 Alpha  occ. eigenvalues --   -1.13088  -1.13016  -1.12835  -1.12793  -1.12769
 Alpha  occ. eigenvalues --   -0.17582  -0.12862  -0.11903  -0.11784
 Alpha virt. eigenvalues --   -0.05964  -0.05103  -0.04463  -0.03685  -0.03285
 Alpha virt. eigenvalues --   -0.03116  -0.01715  -0.00884  -0.00606  -0.00209
 Alpha virt. eigenvalues --    0.00117   0.00210   0.00350   0.00628   0.00773

  Beta  occ. eigenvalues --  -38.44685 -38.44406 -38.44299 -38.44140 -38.43630
  Beta  occ. eigenvalues --  -38.43623 -38.43282  -2.20448  -2.20178  -2.20092
  Beta  occ. eigenvalues --   -2.19894  -2.19459  -2.19432  -2.19111  -1.14141
  Beta  occ. eigenvalues --   -1.14123  -1.14093  -1.13893  -1.13859  -1.13812
  Beta  occ. eigenvalues --   -1.13804  -1.13769  -1.13727  -1.13568  -1.13557
  Beta  occ. eigenvalues --   -1.13534  -1.13268  -1.13115  -1.13103  -1.13084
  Beta  occ. eigenvalues --   -1.13080  -1.13005  -1.12805  -1.12770  -1.12736
  Beta  occ. eigenvalues --   -0.16869  -0.12651  -0.11607
  Beta virt. eigenvalues --   -0.07989  -0.05819  -0.04573  -0.04279  -0.03482
  Beta virt. eigenvalues --   -0.02701  -0.02296  -0.01573  -0.00622  -0.00465
  Beta virt. eigenvalues --   -0.00057   0.00162   0.00326   0.00384   0.00761

 Mulliken charges and spin densities:
               1          2
     1  Na  -0.055030   0.158325
     2  Na   0.294750   0.066737
     3  Na  -0.408759   0.517896
     4  Na  -0.044959   0.268038
     5  Na   0.163791   0.054627
     6  Na   0.287584   0.000227
     7  Na  -0.237377  -0.065849
 Sum of Mulliken charges =  -0.00000   1.00000

 Dipole moment (field-independent basis, Debye):
    X=             -0.0301    Y=             -0.1687    Z=              0.3357  Tot=              0.3769
 Quadrupole moment (field-independent basis, Debye-Ang):
   XX=            -57.5098   YY=            -74.7873   ZZ=            -65.2295
   XY=              1.7210   XZ=             -0.4288   YZ=              1.9269

 Normal termination of Gaussian 16 at Sun Dec  3 22:55:16 2023.
