 Gaussian 16, Revision B.01,
 Gaussian 16:  ES64L-G16RevB.01 20-Dec-2017

 -------------------------
 #P B3LYP/6-311+g(d) force
 -------------------------

 -----
 DPGEN
 -----
 Symbolic Z-matrix:
 Charge =  0 Multiplicity = 2

                         Standard orientation:
 ---------------------------------------------------------------------
 Center     Atomic      Atomic             Coordinates (Angstroms)
 Number     Number       Type             X           Y           Z
 ---------------------------------------------------------------------
      1         11           0       -3.036748   -0.613737   -0.122753
      2         11           0       -0.432497    0.099342    1.902149
      3         11           0        2.263465    2.137982    0.065750
      4         11           0       -1.522731    2.543791   -0.226797
      5         11           0        2.875695   -1.339947    0.134213
      6         11           0       -0.409658   -2.691241   -0.044307
      7         11           0        0.262474   -0.136190   -1.708256
 ---------------------------------------------------------------------

 SCF Done:  E(UB3LYP) =  -1136.13928153     A.U. after   18 cycles

 The electronic state is 2-A.
 Alpha  occ. eigenvalues --  -38.43974 -38.43962 -38.43845 -38.43492 -38.43333
 Alpha  occ. eigenvalues --  -38.43136 -38.43078  -2.19826  -2.19801  -2.19656
 Alpha  occ. eigenvalues --   -2.19334  -2.19261  -2.19111  -2.18990  -1.13503
 Alpha  occ. eigenvalues --   -1.13487  -1.13477  -1.13473  -1.13462  -1.13447
 Alpha  occ. eigenvalues --   -1.13334  -1.13319  -1.13289  -1.13022  -1.13009
 Alpha  occ. eigenvalues --   -1.12963  -1.12940  -1.12883  -1.12877  -1.12843
 Alpha  occ. eigenvalues --   -1.12762  -1.12722  -1.12650  -1.12636  -1.12604
 Alpha  occ. eigenvalues --   -0.18793  -0.13131  -0.12454  -0.10595
 Alpha virt. eigenvalues --   -0.05588  -0.05437  -0.04557  -0.03184  -0.02834
 Alpha virt. eigenvalues --   -0.02374  -0.01561  -0.01145  -0.00421  -0.00277
 Alpha virt. eigenvalues --    0.00000   0.00363   0.00790   0.00875   0.00902

  Beta  occ. eigenvalues --  -38.43972 -38.43956 -38.43844 -38.43486 -38.43249
  Beta  occ. eigenvalues --  -38.43069 -38.43064  -2.19820  -2.19799  -2.19656
  Beta  occ. eigenvalues --   -2.19325  -2.19106  -2.18984  -2.18974  -1.13497
  Beta  occ. eigenvalues --   -1.13474  -1.13471  -1.13456  -1.13450  -1.13448
  Beta  occ. eigenvalues --   -1.13324  -1.13310  -1.13293  -1.13012  -1.12976
  Beta  occ. eigenvalues --   -1.12961  -1.12843  -1.12781  -1.12769  -1.12766
  Beta  occ. eigenvalues --   -1.12674  -1.12630  -1.12622  -1.12600  -1.12576
  Beta  occ. eigenvalues --   -0.18054  -0.12914  -0.12201
  Beta virt. eigenvalues --   -0.06690  -0.05531  -0.05445  -0.04532  -0.02408
  Beta virt. eigenvalues --   -0.02044  -0.01475  -0.01331  -0.01083  -0.00475
  Beta virt. eigenvalues --   -0.00329   0.00140   0.00384   0.00844   0.00866

 Mulliken charges and spin densities:
               1          2
     1  Na   0.319918  -0.022046
     2  Na  -0.444748   0.777947
     3  Na  -0.013107  -0.123634
     4  Na   0.045141  -0.118619
     5  Na   0.056507  -0.072443
     6  Na   0.279344  -0.067675
     7  Na  -0.243055   0.626469
 Sum of Mulliken charges =  -0.00000   1.00000

 Dipole moment (field-independent basis, Debye):
    X=              0.1078    Y=              0.1230    Z=              0.0794  Tot=              0.1818
 Quadrupole moment (field-independent basis, Debye-Ang):
   XX=            -54.9077   YY=            -62.9315   ZZ=            -74.9713
   XY=             -0.0666   XZ=              1.6041   YZ=             -0.5514

 Normal termination of Gaussian 16 at Thu Dec  7 12:18:59 2023.
