 Gaussian 16, Revision B.01,
 Gaussian 16:  ES64L-G16RevB.01 20-Dec-2017

 -------------------------
 #P B3LYP/6-311+g(d) force
 -------------------------

 -----
 DPGEN
 -----
 Symbolic Z-matrix:
 Charge =  0 Multiplicity = 2

                         Standard orientation:
 ---------------------------------------------------------------------
 Center     Atomic      Atomic             Coordinates (Angstroms)
 Number     Number       Type             X           Y           Z
 ---------------------------------------------------------------------
      1         11           0       -0.145185   -0.330963   -1.711052
      2         11           0        2.701844   -0.044775   -0.413672
      3         11           0        1.056661   -2.135895    0.490194
      4         11           0        1.036948    2.137696    0.217377
      5         11           0       -0.339900    0.364459    1.772567
      6         11           0       -2.068668    1.492727   -0.395062
      7         11           0       -2.241699   -1.483249    0.039648
 ---------------------------------------------------------------------

 SCF Done:  E(UB3LYP) =  -1136.10649134     A.U. after   19 cycles

 The electronic state is 2-A.
 Alpha  occ. eigenvalues --  -38.44086 -38.43851 -38.43610 -38.43535 -38.43527
 Alpha  occ. eigenvalues --  -38.43269 -38.43259  -2.20118  -2.20008  -2.19771
 Alpha  occ. eigenvalues --   -2.19584  -2.19532  -2.19337  -2.19285  -1.13891
 Alpha  occ. eigenvalues --   -1.13884  -1.13833  -1.13740  -1.13702  -1.13632
 Alpha  occ. eigenvalues --   -1.13562  -1.13458  -1.13411  -1.13295  -1.13209
 Alpha  occ. eigenvalues --   -1.13194  -1.13175  -1.13150  -1.13080  -1.12974
 Alpha  occ. eigenvalues --   -1.12954  -1.12951  -1.12920  -1.12907  -1.12882
 Alpha  occ. eigenvalues --   -0.20850  -0.13885  -0.12667  -0.11873
 Alpha virt. eigenvalues --   -0.05297  -0.04667  -0.03984  -0.03736  -0.03064
 Alpha virt. eigenvalues --   -0.02782  -0.01152  -0.00654  -0.00077   0.00360
 Alpha virt. eigenvalues --    0.00579   0.00614   0.00962   0.01053   0.01087

  Beta  occ. eigenvalues --  -38.44076 -38.43762 -38.43530 -38.43519 -38.43517
  Beta  occ. eigenvalues --  -38.43257 -38.43243  -2.20104  -2.19848  -2.19628
  Beta  occ. eigenvalues --   -2.19559  -2.19520  -2.19320  -2.19260  -1.13883
  Beta  occ. eigenvalues --   -1.13871  -1.13743  -1.13693  -1.13613  -1.13520
  Beta  occ. eigenvalues --   -1.13477  -1.13371  -1.13322  -1.13270  -1.13180
  Beta  occ. eigenvalues --   -1.13146  -1.13125  -1.13103  -1.13072  -1.12956
  Beta  occ. eigenvalues --   -1.12936  -1.12922  -1.12880  -1.12874  -1.12854
  Beta  occ. eigenvalues --   -0.20054  -0.13551  -0.12361
  Beta virt. eigenvalues --   -0.07734  -0.05288  -0.04663  -0.03946  -0.02828
  Beta virt. eigenvalues --   -0.02238  -0.01649  -0.01075  -0.00605   0.00071
  Beta virt. eigenvalues --    0.00382   0.00550   0.00594   0.01014   0.01052

 Mulliken charges and spin densities:
               1          2
     1  Na  -0.409053   0.425253
     2  Na   0.089299  -0.020324
     3  Na   0.124198   0.093635
     4  Na   0.275703   0.138609
     5  Na  -0.391571   0.411366
     6  Na   0.207709   0.004243
     7  Na   0.103716  -0.052782
 Sum of Mulliken charges =  -0.00000   1.00000

 Dipole moment (field-independent basis, Debye):
    X=             -0.1518    Y=             -0.1534    Z=             -0.0338  Tot=              0.2184
 Quadrupole moment (field-independent basis, Debye-Ang):
   XX=            -58.9390   YY=            -68.1172   ZZ=            -69.7561
   XY=              0.2161   XZ=             -0.1407   YZ=             -1.5919

 Normal termination of Gaussian 16 at Sat Dec  9 07:25:53 2023.
