 Gaussian 16, Revision B.01,
 Gaussian 16:  ES64L-G16RevB.01 20-Dec-2017

 -------------------------
 #P B3LYP/6-311+g(d) force
 -------------------------

 -----
 DPGEN
 -----
 Symbolic Z-matrix:
 Charge =  0 Multiplicity = 2

                         Standard orientation:
 ---------------------------------------------------------------------
 Center     Atomic      Atomic             Coordinates (Angstroms)
 Number     Number       Type             X           Y           Z
 ---------------------------------------------------------------------
      1         11           0        1.190656   -1.410842   -0.902282
      2         11           0       -1.679363   -0.457064    1.184207
      3         11           0        0.963812    1.418238    0.457450
      4         11           0        2.405994   -0.453453    2.012000
      5         11           0       -4.174539   -1.538585   -0.686737
      6         11           0       -3.077386    2.209767   -0.528802
      7         11           0        4.370826    0.231939   -1.535836
 ---------------------------------------------------------------------

 SCF Done:  E(UB3LYP) =  -1136.10570112     A.U. after   29 cycles

 The electronic state is 2-A.
 Alpha  occ. eigenvalues --  -38.45256 -38.45053 -38.44700 -38.44310 -38.44135
 Alpha  occ. eigenvalues --  -38.43499 -38.43094  -2.21132  -2.20921  -2.20496
 Alpha  occ. eigenvalues --   -2.20279  -2.19943  -2.19410  -2.18886  -1.14939
 Alpha  occ. eigenvalues --   -1.14811  -1.14716  -1.14660  -1.14584  -1.14506
 Alpha  occ. eigenvalues --   -1.14163  -1.14141  -1.14105  -1.13975  -1.13932
 Alpha  occ. eigenvalues --   -1.13859  -1.13612  -1.13589  -1.13558  -1.13122
 Alpha  occ. eigenvalues --   -1.13101  -1.13002  -1.12554  -1.12546  -1.12504
 Alpha  occ. eigenvalues --   -0.18143  -0.14529  -0.11018  -0.10702
 Alpha virt. eigenvalues --   -0.06889  -0.05890  -0.05093  -0.03059  -0.02805
 Alpha virt. eigenvalues --   -0.02227  -0.02077  -0.01570  -0.01206  -0.00367
 Alpha virt. eigenvalues --   -0.00135   0.00018   0.00098   0.00276   0.00402

  Beta  occ. eigenvalues --  -38.45286 -38.45057 -38.44628 -38.44294 -38.44074
  Beta  occ. eigenvalues --  -38.43473 -38.43062  -2.21189  -2.20932  -2.20362
  Beta  occ. eigenvalues --   -2.20250  -2.19830  -2.19371  -2.18823  -1.14982
  Beta  occ. eigenvalues --   -1.14843  -1.14745  -1.14666  -1.14597  -1.14495
  Beta  occ. eigenvalues --   -1.14074  -1.14048  -1.14003  -1.13963  -1.13903
  Beta  occ. eigenvalues --   -1.13833  -1.13531  -1.13511  -1.13482  -1.13096
  Beta  occ. eigenvalues --   -1.13030  -1.12970  -1.12510  -1.12504  -1.12467
  Beta  occ. eigenvalues --   -0.17652  -0.13922  -0.10705
  Beta virt. eigenvalues --   -0.07307  -0.06926  -0.05132  -0.04741  -0.02814
  Beta virt. eigenvalues --   -0.02568  -0.01826  -0.01705  -0.01420  -0.00869
  Beta virt. eigenvalues --   -0.00177  -0.00015   0.00261   0.00274   0.00329

 Mulliken charges and spin densities:
               1          2
     1  Na  -0.600220  -0.213460
     2  Na   0.167349   0.042786
     3  Na  -0.657868   0.027960
     4  Na   0.903628   0.143505
     5  Na   0.297939   0.257804
     6  Na  -0.178443   0.481945
     7  Na   0.067615   0.259460
 Sum of Mulliken charges =  -0.00000   1.00000

 Dipole moment (field-independent basis, Debye):
    X=             -0.1719    Y=             -0.1845    Z=              0.7226  Tot=              0.7653
 Quadrupole moment (field-independent basis, Debye-Ang):
   XX=            -63.5901   YY=            -68.2349   ZZ=            -70.7487
   XY=             -1.1034   XZ=              8.8032   YZ=             -2.4665

 Normal termination of Gaussian 16 at Tue Dec  5 22:13:07 2023.
