 Gaussian 16, Revision B.01,
 Gaussian 16:  ES64L-G16RevB.01 20-Dec-2017

 -------------------------
 #P B3LYP/6-311+g(d) force
 -------------------------

 -----
 DPGEN
 -----
 Symbolic Z-matrix:
 Charge =  0 Multiplicity = 2

                         Standard orientation:
 ---------------------------------------------------------------------
 Center     Atomic      Atomic             Coordinates (Angstroms)
 Number     Number       Type             X           Y           Z
 ---------------------------------------------------------------------
      1         11           0        0.362516    3.088188   -0.150629
      2         11           0        1.830328   -2.158355   -0.088258
      3         11           0        0.037230   -0.351053    2.165392
      4         11           0        2.677803    0.444744   -0.060372
      5         11           0       -0.354350    0.411983   -1.764812
      6         11           0       -1.787649   -2.219662   -0.621949
      7         11           0       -2.765879    0.784155    0.520628
 ---------------------------------------------------------------------

 SCF Done:  E(UB3LYP) =  -1136.13240726     A.U. after   19 cycles

 The electronic state is 2-A.
 Alpha  occ. eigenvalues --  -38.44101 -38.43894 -38.43653 -38.43510 -38.43498
 Alpha  occ. eigenvalues --  -38.43409 -38.43327  -2.19992  -2.19756  -2.19603
 Alpha  occ. eigenvalues --   -2.19437  -2.19391  -2.19371  -2.19160  -1.13656
 Alpha  occ. eigenvalues --   -1.13631  -1.13618  -1.13556  -1.13437  -1.13427
 Alpha  occ. eigenvalues --   -1.13382  -1.13239  -1.13234  -1.13131  -1.13065
 Alpha  occ. eigenvalues --   -1.13063  -1.13050  -1.13022  -1.13012  -1.12997
 Alpha  occ. eigenvalues --   -1.12985  -1.12972  -1.12828  -1.12810  -1.12794
 Alpha  occ. eigenvalues --   -0.18996  -0.13139  -0.12438  -0.11419
 Alpha virt. eigenvalues --   -0.05314  -0.04835  -0.04606  -0.03591  -0.03128
 Alpha virt. eigenvalues --   -0.02960  -0.01132  -0.01072  -0.00169   0.00015
 Alpha virt. eigenvalues --    0.00093   0.00381   0.00898   0.00919   0.00961

  Beta  occ. eigenvalues --  -38.44006 -38.43880 -38.43648 -38.43506 -38.43481
  Beta  occ. eigenvalues --  -38.43345 -38.43327  -2.19817  -2.19735  -2.19598
  Beta  occ. eigenvalues --   -2.19432  -2.19344  -2.19274  -2.19162  -1.13572
  Beta  occ. eigenvalues --   -1.13537  -1.13499  -1.13496  -1.13423  -1.13380
  Beta  occ. eigenvalues --   -1.13372  -1.13233  -1.13204  -1.13083  -1.13054
  Beta  occ. eigenvalues --   -1.13023  -1.12994  -1.12987  -1.12978  -1.12968
  Beta  occ. eigenvalues --   -1.12944  -1.12924  -1.12811  -1.12804  -1.12793
  Beta  occ. eigenvalues --   -0.18230  -0.12895  -0.12212
  Beta virt. eigenvalues --   -0.07431  -0.05257  -0.04749  -0.04604  -0.02753
  Beta virt. eigenvalues --   -0.02375  -0.01927  -0.01041  -0.00981  -0.00115
  Beta virt. eigenvalues --    0.00051   0.00101   0.00409   0.00919   0.00948

 Mulliken charges and spin densities:
               1          2
     1  Na   0.170729  -0.047825
     2  Na   0.195800   0.037152
     3  Na  -0.506415   0.558525
     4  Na   0.119559  -0.016141
     5  Na  -0.340764   0.396553
     6  Na   0.268709   0.010673
     7  Na   0.092383   0.061063
 Sum of Mulliken charges =  -0.00000   1.00000

 Dipole moment (field-independent basis, Debye):
    X=             -0.3875    Y=              0.0482    Z=              0.2751  Tot=              0.4776
 Quadrupole moment (field-independent basis, Debye-Ang):
   XX=            -62.5227   YY=            -62.8979   ZZ=            -70.6738
   XY=             -0.0232   XZ=             -0.7592   YZ=              1.9495

 Normal termination of Gaussian 16 at Tue Dec  5 13:51:10 2023.
