 Gaussian 16, Revision B.01,
 Gaussian 16:  ES64L-G16RevB.01 20-Dec-2017

 -------------------------
 #P B3LYP/6-311+g(d) force
 -------------------------

 -----
 DPGEN
 -----
 Symbolic Z-matrix:
 Charge =  0 Multiplicity = 2

                         Standard orientation:
 ---------------------------------------------------------------------
 Center     Atomic      Atomic             Coordinates (Angstroms)
 Number     Number       Type             X           Y           Z
 ---------------------------------------------------------------------
      1         11           0        0.567377   -2.058512   -1.020957
      2         11           0        0.731978    1.450335   -1.210109
      3         11           0        3.965906   -0.031280    0.017343
      4         11           0       -1.768880    3.012343    0.518332
      5         11           0       -2.198904   -2.670638    0.723043
      6         11           0       -2.149614    0.189002   -1.024220
      7         11           0        0.852138    0.108750    1.996567
 ---------------------------------------------------------------------

 SCF Done:  E(UB3LYP) =  -1136.13210109     A.U. after   20 cycles

 The electronic state is 2-A.
 Alpha  occ. eigenvalues --  -38.44476 -38.44126 -38.43678 -38.43549 -38.43531
 Alpha  occ. eigenvalues --  -38.43373 -38.43334  -2.20237  -2.19954  -2.19547
 Alpha  occ. eigenvalues --   -2.19378  -2.19357  -2.19310  -2.19267  -1.13914
 Alpha  occ. eigenvalues --   -1.13906  -1.13863  -1.13638  -1.13596  -1.13556
 Alpha  occ. eigenvalues --   -1.13258  -1.13225  -1.13155  -1.13102  -1.13073
 Alpha  occ. eigenvalues --   -1.13044  -1.13034  -1.13022  -1.13001  -1.12993
 Alpha  occ. eigenvalues --   -1.12960  -1.12946  -1.12928  -1.12879  -1.12827
 Alpha  occ. eigenvalues --   -0.18209  -0.12830  -0.12427  -0.10666
 Alpha virt. eigenvalues --   -0.06146  -0.04928  -0.04579  -0.03273  -0.03011
 Alpha virt. eigenvalues --   -0.02457  -0.01946  -0.01215  -0.00559  -0.00189
 Alpha virt. eigenvalues --    0.00213   0.00297   0.00654   0.00736   0.00808

  Beta  occ. eigenvalues --  -38.44480 -38.44049 -38.43651 -38.43544 -38.43522
  Beta  occ. eigenvalues --  -38.43352 -38.43294  -2.20247  -2.19812  -2.19501
  Beta  occ. eigenvalues --   -2.19370  -2.19340  -2.19275  -2.19198  -1.13922
  Beta  occ. eigenvalues --   -1.13901  -1.13871  -1.13542  -1.13494  -1.13452
  Beta  occ. eigenvalues --   -1.13226  -1.13167  -1.13129  -1.13083  -1.13051
  Beta  occ. eigenvalues --   -1.13031  -1.13017  -1.13005  -1.12982  -1.12977
  Beta  occ. eigenvalues --   -1.12921  -1.12911  -1.12867  -1.12842  -1.12785
  Beta  occ. eigenvalues --   -0.17441  -0.12697  -0.12281
  Beta virt. eigenvalues --   -0.06786  -0.05976  -0.04801  -0.04439  -0.02698
  Beta virt. eigenvalues --   -0.02464  -0.01909  -0.01483  -0.01109  -0.00334
  Beta virt. eigenvalues --   -0.00125   0.00261   0.00365   0.00766   0.00774

 Mulliken charges and spin densities:
               1          2
     1  Na  -0.096491   0.032191
     2  Na  -0.144058   0.190992
     3  Na   0.380210  -0.054767
     4  Na   0.095615  -0.138553
     5  Na   0.168498  -0.098896
     6  Na   0.160411   0.359094
     7  Na  -0.564184   0.709938
 Sum of Mulliken charges =  -0.00000   1.00000

 Dipole moment (field-independent basis, Debye):
    X=              0.5435    Y=             -0.0013    Z=              0.2611  Tot=              0.6030
 Quadrupole moment (field-independent basis, Debye-Ang):
   XX=            -54.9592   YY=            -64.8722   ZZ=            -72.2527
   XY=             -0.8528   XZ=             -2.6515   YZ=              0.6205

 Normal termination of Gaussian 16 at Fri Dec  8 05:04:01 2023.
