 Gaussian 16, Revision B.01,
 Gaussian 16:  ES64L-G16RevB.01 20-Dec-2017

 -------------------------
 #P B3LYP/6-311+g(d) force
 -------------------------

 -----
 DPGEN
 -----
 Symbolic Z-matrix:
 Charge =  0 Multiplicity = 2

                         Standard orientation:
 ---------------------------------------------------------------------
 Center     Atomic      Atomic             Coordinates (Angstroms)
 Number     Number       Type             X           Y           Z
 ---------------------------------------------------------------------
      1         11           0        2.881970    2.177100   -0.323304
      2         11           0        2.978222   -1.341918   -1.199507
      3         11           0       -2.529126    2.472982    0.557948
      4         11           0        2.145720   -0.470369    1.772741
      5         11           0       -1.166474   -2.560377    0.626980
      6         11           0       -0.193722    0.218547   -0.781035
      7         11           0       -4.116590   -0.495964   -0.653822
 ---------------------------------------------------------------------

 SCF Done:  E(UB3LYP) =  -1136.11384612     A.U. after   29 cycles

 The electronic state is 2-A.
 Alpha  occ. eigenvalues --  -38.45205 -38.44569 -38.44243 -38.44238 -38.44167
 Alpha  occ. eigenvalues --  -38.44112 -38.43259  -2.20975  -2.20369  -2.20144
 Alpha  occ. eigenvalues --   -2.20031  -2.20003  -2.19993  -2.19054  -1.14657
 Alpha  occ. eigenvalues --   -1.14610  -1.14604  -1.14051  -1.14030  -1.14005
 Alpha  occ. eigenvalues --   -1.13870  -1.13814  -1.13784  -1.13755  -1.13688
 Alpha  occ. eigenvalues --   -1.13675  -1.13669  -1.13652  -1.13637  -1.13631
 Alpha  occ. eigenvalues --   -1.13605  -1.13594  -1.12753  -1.12721  -1.12673
 Alpha  occ. eigenvalues --   -0.17707  -0.14208  -0.11201  -0.09812
 Alpha virt. eigenvalues --   -0.06969  -0.06557  -0.04593  -0.03095  -0.02810
 Alpha virt. eigenvalues --   -0.02224  -0.01975  -0.01509  -0.01274  -0.00498
 Alpha virt. eigenvalues --   -0.00381   0.00088   0.00276   0.00343   0.00548

  Beta  occ. eigenvalues --  -38.45183 -38.44559 -38.44244 -38.44234 -38.44100
  Beta  occ. eigenvalues --  -38.44056 -38.43259  -2.20933  -2.20353  -2.20131
  Beta  occ. eigenvalues --   -2.20015  -2.19909  -2.19891  -2.19056  -1.14627
  Beta  occ. eigenvalues --   -1.14585  -1.14576  -1.14039  -1.14020  -1.13973
  Beta  occ. eigenvalues --   -1.13829  -1.13804  -1.13778  -1.13684  -1.13676
  Beta  occ. eigenvalues --   -1.13671  -1.13641  -1.13607  -1.13575  -1.13541
  Beta  occ. eigenvalues --   -1.13524  -1.13517  -1.12757  -1.12718  -1.12664
  Beta  occ. eigenvalues --   -0.17117  -0.13970  -0.11048
  Beta virt. eigenvalues --   -0.06709  -0.06451  -0.06098  -0.04319  -0.02882
  Beta virt. eigenvalues --   -0.02631  -0.01764  -0.01596  -0.01249  -0.00829
  Beta virt. eigenvalues --   -0.00349  -0.00034   0.00200   0.00368   0.00522

 Mulliken charges and spin densities:
               1          2
     1  Na   0.199724   0.091746
     2  Na   0.350883   0.428673
     3  Na   0.156705  -0.202274
     4  Na  -0.241970   0.218100
     5  Na  -0.181279  -0.086046
     6  Na  -0.914469   0.400967
     7  Na   0.630406   0.148835
 Sum of Mulliken charges =  -0.00000   1.00000

 Dipole moment (field-independent basis, Debye):
    X=             -0.5530    Y=              0.2216    Z=              0.4128  Tot=              0.7248
 Quadrupole moment (field-independent basis, Debye-Ang):
   XX=            -51.9405   YY=            -68.5919   ZZ=            -73.7957
   XY=              2.9732   XZ=              2.8429   YZ=              0.3271

 Normal termination of Gaussian 16 at Tue Dec  5 09:56:51 2023.
