 Gaussian 16, Revision B.01,
 Gaussian 16:  ES64L-G16RevB.01 20-Dec-2017

 -------------------------
 #P B3LYP/6-311+g(d) force
 -------------------------

 -----
 DPGEN
 -----
 Symbolic Z-matrix:
 Charge =  0 Multiplicity = 2

                         Standard orientation:
 ---------------------------------------------------------------------
 Center     Atomic      Atomic             Coordinates (Angstroms)
 Number     Number       Type             X           Y           Z
 ---------------------------------------------------------------------
      1         11           0        3.070093   -1.512333    0.224821
      2         11           0       -2.631780   -1.623418   -1.295825
      3         11           0        0.781576   -0.810542    2.192678
      4         11           0       -1.240851    1.748655   -0.664409
      5         11           0       -3.156621    0.722838    1.525956
      6         11           0        0.427940   -0.603176   -1.564062
      7         11           0        2.749644    2.077976   -0.419159
 ---------------------------------------------------------------------

 SCF Done:  E(UB3LYP) =  -1136.11565558     A.U. after   29 cycles

 The electronic state is 2-A.
 Alpha  occ. eigenvalues --  -38.45105 -38.44472 -38.44209 -38.43964 -38.43697
 Alpha  occ. eigenvalues --  -38.43607 -38.43537  -2.20941  -2.20307  -2.19991
 Alpha  occ. eigenvalues --   -2.19834  -2.19660  -2.19518  -2.19346  -1.14626
 Alpha  occ. eigenvalues --   -1.14574  -1.14546  -1.14015  -1.13936  -1.13923
 Alpha  occ. eigenvalues --   -1.13670  -1.13640  -1.13615  -1.13534  -1.13513
 Alpha  occ. eigenvalues --   -1.13460  -1.13448  -1.13292  -1.13272  -1.13188
 Alpha  occ. eigenvalues --   -1.13170  -1.13104  -1.13021  -1.13014  -1.12972
 Alpha  occ. eigenvalues --   -0.18175  -0.14122  -0.11825  -0.10765
 Alpha virt. eigenvalues --   -0.06378  -0.05835  -0.04563  -0.03341  -0.02624
 Alpha virt. eigenvalues --   -0.02481  -0.02229  -0.01498  -0.00672  -0.00045
 Alpha virt. eigenvalues --    0.00129   0.00215   0.00228   0.00521   0.00591

  Beta  occ. eigenvalues --  -38.45037 -38.44424 -38.44187 -38.43961 -38.43652
  Beta  occ. eigenvalues --  -38.43585 -38.43537  -2.20818  -2.20220  -2.19949
  Beta  occ. eigenvalues --   -2.19828  -2.19583  -2.19481  -2.19347  -1.14526
  Beta  occ. eigenvalues --   -1.14492  -1.14462  -1.13946  -1.13876  -1.13867
  Beta  occ. eigenvalues --   -1.13639  -1.13611  -1.13589  -1.13523  -1.13509
  Beta  occ. eigenvalues --   -1.13449  -1.13413  -1.13243  -1.13191  -1.13159
  Beta  occ. eigenvalues --   -1.13113  -1.13081  -1.13024  -1.13008  -1.12972
  Beta  occ. eigenvalues --   -0.17525  -0.13830  -0.10614
  Beta virt. eigenvalues --   -0.07900  -0.06245  -0.05220  -0.04356  -0.02929
  Beta virt. eigenvalues --   -0.02232  -0.02032  -0.01854  -0.01070  -0.00522
  Beta virt. eigenvalues --    0.00169   0.00213   0.00275   0.00332   0.00575

 Mulliken charges and spin densities:
               1          2
     1  Na   0.978580  -0.075703
     2  Na   0.303146   0.042754
     3  Na  -0.689018   0.022987
     4  Na  -0.392210   0.502238
     5  Na   0.331598   0.084630
     6  Na  -0.600008   0.376143
     7  Na   0.067912   0.046952
 Sum of Mulliken charges =  -0.00000   1.00000

 Dipole moment (field-independent basis, Debye):
    X=             -0.3750    Y=             -0.2168    Z=             -0.0556  Tot=              0.4367
 Quadrupole moment (field-independent basis, Debye-Ang):
   XX=            -50.8514   YY=            -70.3467   ZZ=            -74.7956
   XY=              2.7514   XZ=             -1.0010   YZ=              8.0524

 Normal termination of Gaussian 16 at Thu Dec  7 19:51:22 2023.
