 Gaussian 16, Revision B.01,
 Gaussian 16:  ES64L-G16RevB.01 20-Dec-2017

 -------------------------
 #P B3LYP/6-311+g(d) force
 -------------------------

 -----
 DPGEN
 -----
 Symbolic Z-matrix:
 Charge =  0 Multiplicity = 2

                         Standard orientation:
 ---------------------------------------------------------------------
 Center     Atomic      Atomic             Coordinates (Angstroms)
 Number     Number       Type             X           Y           Z
 ---------------------------------------------------------------------
      1         11           0       -0.310447    0.833713   -1.646201
      2         11           0       -3.830298   -0.179344    0.768964
      3         11           0        0.096597   -0.190387    1.827643
      4         11           0        0.057733    3.507687    0.128107
      5         11           0        2.633414   -2.308435    0.556404
      6         11           0        2.838303    0.693039   -0.380059
      7         11           0       -1.485300   -2.356273   -1.254859
 ---------------------------------------------------------------------

 SCF Done:  E(UB3LYP) =  -1136.12527982     A.U. after   21 cycles

 The electronic state is 2-A.
 Alpha  occ. eigenvalues --  -38.44851 -38.44356 -38.44313 -38.43910 -38.43585
 Alpha  occ. eigenvalues --  -38.43539 -38.43268  -2.20590  -2.20188  -2.20170
 Alpha  occ. eigenvalues --   -2.19710  -2.19382  -2.19363  -2.19181  -1.14261
 Alpha  occ. eigenvalues --   -1.14250  -1.14213  -1.13887  -1.13866  -1.13848
 Alpha  occ. eigenvalues --   -1.13832  -1.13791  -1.13790  -1.13394  -1.13359
 Alpha  occ. eigenvalues --   -1.13323  -1.13079  -1.13039  -1.13038  -1.13021
 Alpha  occ. eigenvalues --   -1.13015  -1.13003  -1.12868  -1.12833  -1.12779
 Alpha  occ. eigenvalues --   -0.17697  -0.12878  -0.12068  -0.10678
 Alpha virt. eigenvalues --   -0.06369  -0.05303  -0.04617  -0.03308  -0.02862
 Alpha virt. eigenvalues --   -0.02479  -0.02053  -0.01422  -0.00659  -0.00337
 Alpha virt. eigenvalues --   -0.00069   0.00253   0.00455   0.00690   0.00749

  Beta  occ. eigenvalues --  -38.44829 -38.44310 -38.44297 -38.43865 -38.43587
  Beta  occ. eigenvalues --  -38.43539 -38.43216  -2.20551  -2.20166  -2.20080
  Beta  occ. eigenvalues --   -2.19630  -2.19387  -2.19363  -2.19086  -1.14234
  Beta  occ. eigenvalues --   -1.14214  -1.14190  -1.13864  -1.13832  -1.13801
  Beta  occ. eigenvalues --   -1.13792  -1.13760  -1.13710  -1.13330  -1.13302
  Beta  occ. eigenvalues --   -1.13267  -1.13078  -1.13041  -1.13035  -1.13023
  Beta  occ. eigenvalues --   -1.13009  -1.12998  -1.12808  -1.12762  -1.12703
  Beta  occ. eigenvalues --   -0.17047  -0.12620  -0.11930
  Beta virt. eigenvalues --   -0.06961  -0.06053  -0.05202  -0.04453  -0.02799
  Beta virt. eigenvalues --   -0.02367  -0.01850  -0.01624  -0.01336  -0.00531
  Beta virt. eigenvalues --   -0.00228   0.00045   0.00329   0.00575   0.00731

 Mulliken charges and spin densities:
               1          2
     1  Na   0.572415   0.275639
     2  Na  -0.160279   0.125518
     3  Na  -0.130370   0.567830
     4  Na  -0.227510  -0.041124
     5  Na   0.152390   0.028442
     6  Na  -0.141671  -0.056946
     7  Na  -0.064975   0.100641
 Sum of Mulliken charges =  -0.00000   1.00000

 Dipole moment (field-independent basis, Debye):
    X=             -0.2041    Y=              0.1166    Z=              0.2634  Tot=              0.3530
 Quadrupole moment (field-independent basis, Debye-Ang):
   XX=            -58.0203   YY=            -61.9887   ZZ=            -73.9143
   XY=             -1.1436   XZ=             -2.0350   YZ=              2.2048

 Normal termination of Gaussian 16 at Thu Dec  7 03:01:50 2023.
