 Gaussian 16, Revision B.01,
 Gaussian 16:  ES64L-G16RevB.01 20-Dec-2017

 -------------------------
 #P B3LYP/6-311+g(d) force
 -------------------------

 -----
 DPGEN
 -----
 Symbolic Z-matrix:
 Charge =  0 Multiplicity = 2

                         Standard orientation:
 ---------------------------------------------------------------------
 Center     Atomic      Atomic             Coordinates (Angstroms)
 Number     Number       Type             X           Y           Z
 ---------------------------------------------------------------------
      1         11           0       -6.861834    0.373628   -0.196227
      2         11           0        5.667317   -0.579637   -0.438052
      3         11           0        3.321550    2.571946   -0.097880
      4         11           0        2.634266   -1.527389   -0.542210
      5         11           0       -1.001113   -2.096179    0.867041
      6         11           0       -3.998151    0.252193   -0.864145
      7         11           0        0.237965    1.005438    1.271473
 ---------------------------------------------------------------------

 SCF Done:  E(UB3LYP) =  -1136.11495430     A.U. after   19 cycles

 The electronic state is 2-A.
 Alpha  occ. eigenvalues --  -38.45104 -38.44829 -38.44712 -38.44218 -38.44195
 Alpha  occ. eigenvalues --  -38.43533 -38.43418  -2.20888  -2.20647  -2.20515
 Alpha  occ. eigenvalues --   -2.20013  -2.20001  -2.19351  -2.19227  -1.14556
 Alpha  occ. eigenvalues --   -1.14538  -1.14487  -1.14342  -1.14308  -1.14264
 Alpha  occ. eigenvalues --   -1.14199  -1.14182  -1.14135  -1.13683  -1.13672
 Alpha  occ. eigenvalues --   -1.13662  -1.13657  -1.13643  -1.13619  -1.13132
 Alpha  occ. eigenvalues --   -1.13015  -1.12999  -1.12869  -1.12868  -1.12807
 Alpha  occ. eigenvalues --   -0.16484  -0.13669  -0.11943  -0.11746
 Alpha virt. eigenvalues --   -0.06131  -0.05644  -0.04963  -0.03302  -0.03187
 Alpha virt. eigenvalues --   -0.02426  -0.02279  -0.01601  -0.01248  -0.01002
 Alpha virt. eigenvalues --   -0.00642  -0.00179   0.00146   0.00267   0.00629

  Beta  occ. eigenvalues --  -38.45021 -38.44784 -38.44680 -38.44202 -38.44170
  Beta  occ. eigenvalues --  -38.43533 -38.43420  -2.20735  -2.20566  -2.20458
  Beta  occ. eigenvalues --   -2.19982  -2.19956  -2.19349  -2.19231  -1.14454
  Beta  occ. eigenvalues --   -1.14429  -1.14376  -1.14287  -1.14250  -1.14198
  Beta  occ. eigenvalues --   -1.14164  -1.14147  -1.14068  -1.13661  -1.13640
  Beta  occ. eigenvalues --   -1.13632  -1.13624  -1.13622  -1.13593  -1.13133
  Beta  occ. eigenvalues --   -1.13013  -1.12998  -1.12872  -1.12871  -1.12809
  Beta  occ. eigenvalues --   -0.15743  -0.13507  -0.11782
  Beta virt. eigenvalues --   -0.07797  -0.05966  -0.04998  -0.04861  -0.03023
  Beta virt. eigenvalues --   -0.02544  -0.02274  -0.02041  -0.01565  -0.00882
  Beta virt. eigenvalues --   -0.00630  -0.00414  -0.00043   0.00343   0.00369

 Mulliken charges and spin densities:
               1          2
     1  Na   0.675135   0.012038
     2  Na   0.412998  -0.017957
     3  Na  -0.006642   0.317434
     4  Na  -0.548047   0.347884
     5  Na   0.480038   0.097555
     6  Na  -0.752079  -0.088325
     7  Na  -0.261403   0.331371
 Sum of Mulliken charges =  -0.00000   1.00000

 Dipole moment (field-independent basis, Debye):
    X=              1.7980    Y=             -0.0842    Z=              0.4261  Tot=              1.8497
 Quadrupole moment (field-independent basis, Debye-Ang):
   XX=            -62.7439   YY=            -66.1532   ZZ=            -72.1032
   XY=              4.2828   XZ=             -4.2850   YZ=             -0.3944

 Normal termination of Gaussian 16 at Mon Dec  4 01:54:32 2023.
