 Gaussian 16, Revision B.01,
 Gaussian 16:  ES64L-G16RevB.01 20-Dec-2017

 -------------------------
 #P B3LYP/6-311+g(d) force
 -------------------------

 -----
 DPGEN
 -----
 Symbolic Z-matrix:
 Charge =  0 Multiplicity = 2

                         Standard orientation:
 ---------------------------------------------------------------------
 Center     Atomic      Atomic             Coordinates (Angstroms)
 Number     Number       Type             X           Y           Z
 ---------------------------------------------------------------------
      1         11           0        2.425361   -2.080784    1.194801
      2         11           0       -0.095669    2.487389   -1.125951
      3         11           0       -5.591288   -0.285310    0.449643
      4         11           0       -1.729327   -0.599216   -0.227590
      5         11           0        0.897937    1.257146    1.963650
      6         11           0        3.306208    0.848351   -0.347077
      7         11           0        0.786777   -1.627575   -1.907477
 ---------------------------------------------------------------------

 SCF Done:  E(UB3LYP) =  -1136.11184420     A.U. after   27 cycles

 The electronic state is 2-A.
 Alpha  occ. eigenvalues --  -38.45222 -38.45217 -38.44618 -38.43661 -38.43614
 Alpha  occ. eigenvalues --  -38.43585 -38.43419  -2.21024  -2.20988  -2.20463
 Alpha  occ. eigenvalues --   -2.19485  -2.19471  -2.19399  -2.19229  -1.14727
 Alpha  occ. eigenvalues --   -1.14705  -1.14645  -1.14625  -1.14623  -1.14588
 Alpha  occ. eigenvalues --   -1.14134  -1.14107  -1.14078  -1.13171  -1.13162
 Alpha  occ. eigenvalues --   -1.13142  -1.13124  -1.13120  -1.13072  -1.13064
 Alpha  occ. eigenvalues --   -1.13058  -1.13025  -1.12935  -1.12881  -1.12877
 Alpha  occ. eigenvalues --   -0.17692  -0.13083  -0.11533  -0.11394
 Alpha virt. eigenvalues --   -0.07686  -0.04768  -0.04049  -0.03475  -0.03168
 Alpha virt. eigenvalues --   -0.02771  -0.02272  -0.01207  -0.01107  -0.00820
 Alpha virt. eigenvalues --   -0.00576  -0.00152   0.00191   0.00614   0.00697

  Beta  occ. eigenvalues --  -38.45244 -38.45104 -38.44575 -38.43647 -38.43567
  Beta  occ. eigenvalues --  -38.43559 -38.43441  -2.21078  -2.20766  -2.20383
  Beta  occ. eigenvalues --   -2.19460  -2.19369  -2.19364  -2.19276  -1.14743
  Beta  occ. eigenvalues --   -1.14738  -1.14689  -1.14474  -1.14472  -1.14441
  Beta  occ. eigenvalues --   -1.14086  -1.14062  -1.14006  -1.13149  -1.13128
  Beta  occ. eigenvalues --   -1.13111  -1.13089  -1.13051  -1.13049  -1.13034
  Beta  occ. eigenvalues --   -1.13004  -1.12999  -1.12961  -1.12915  -1.12872
  Beta  occ. eigenvalues --   -0.17331  -0.12223  -0.11445
  Beta virt. eigenvalues --   -0.07809  -0.07301  -0.04600  -0.03641  -0.03231
  Beta virt. eigenvalues --   -0.02843  -0.02629  -0.01867  -0.00853  -0.00632
  Beta virt. eigenvalues --   -0.00518  -0.00328   0.00042   0.00215   0.00664

 Mulliken charges and spin densities:
               1          2
     1  Na   0.298244   0.106991
     2  Na   0.345217   0.035885
     3  Na  -0.256853   0.488870
     4  Na  -1.921576  -0.087057
     5  Na   0.315379   0.310155
     6  Na  -0.212978  -0.154090
     7  Na   1.432568   0.299245
 Sum of Mulliken charges =  -0.00000   1.00000

 Dipole moment (field-independent basis, Debye):
    X=              0.8150    Y=              0.6517    Z=              0.0402  Tot=              1.0443
 Quadrupole moment (field-independent basis, Debye-Ang):
   XX=            -60.7627   YY=            -74.4521   ZZ=            -63.6476
   XY=             -0.1417   XZ=             -4.2906   YZ=             -4.7871

 Normal termination of Gaussian 16 at Tue Dec  5 16:32:44 2023.
