 Gaussian 16, Revision B.01,
 Gaussian 16:  ES64L-G16RevB.01 20-Dec-2017

 -------------------------
 #P B3LYP/6-311+g(d) force
 -------------------------

 -----
 DPGEN
 -----
 Symbolic Z-matrix:
 Charge =  0 Multiplicity = 2

                         Standard orientation:
 ---------------------------------------------------------------------
 Center     Atomic      Atomic             Coordinates (Angstroms)
 Number     Number       Type             X           Y           Z
 ---------------------------------------------------------------------
      1         11           0       -1.163645   -2.680084   -0.302020
      2         11           0       -0.483250    2.895594   -0.169509
      3         11           0       -0.085055    0.090181   -1.633395
      4         11           0        2.724981    1.321607   -0.046969
      5         11           0       -0.028900   -0.086667    2.057605
      6         11           0       -3.175342    0.354383    0.110149
      7         11           0        2.211211   -1.895013   -0.015861
 ---------------------------------------------------------------------

 SCF Done:  E(UB3LYP) =  -1136.14048140     A.U. after   19 cycles

 The electronic state is 2-A.
 Alpha  occ. eigenvalues --  -38.44093 -38.43639 -38.43589 -38.43441 -38.43418
 Alpha  occ. eigenvalues --  -38.43397 -38.43061  -2.19903  -2.19499  -2.19479
 Alpha  occ. eigenvalues --   -2.19300  -2.19292  -2.19256  -2.19063  -1.13578
 Alpha  occ. eigenvalues --   -1.13562  -1.13543  -1.13195  -1.13165  -1.13152
 Alpha  occ. eigenvalues --   -1.13142  -1.13107  -1.13095  -1.13014  -1.12986
 Alpha  occ. eigenvalues --   -1.12960  -1.12955  -1.12950  -1.12939  -1.12910
 Alpha  occ. eigenvalues --   -1.12908  -1.12872  -1.12736  -1.12688  -1.12676
 Alpha  occ. eigenvalues --   -0.18793  -0.12934  -0.12582  -0.10777
 Alpha virt. eigenvalues --   -0.05598  -0.04983  -0.04797  -0.03126  -0.02912
 Alpha virt. eigenvalues --   -0.02592  -0.01483  -0.01102  -0.00340  -0.00273
 Alpha virt. eigenvalues --   -0.00005   0.00367   0.00827   0.00904   0.00915

  Beta  occ. eigenvalues --  -38.44091 -38.43635 -38.43493 -38.43435 -38.43413
  Beta  occ. eigenvalues --  -38.43389 -38.42995  -2.19901  -2.19495  -2.19303
  Beta  occ. eigenvalues --   -2.19294  -2.19285  -2.19245  -2.18944  -1.13564
  Beta  occ. eigenvalues --   -1.13554  -1.13546  -1.13193  -1.13150  -1.13134
  Beta  occ. eigenvalues --   -1.13037  -1.13004  -1.12986  -1.12974  -1.12967
  Beta  occ. eigenvalues --   -1.12949  -1.12931  -1.12929  -1.12920  -1.12908
  Beta  occ. eigenvalues --   -1.12884  -1.12868  -1.12656  -1.12602  -1.12592
  Beta  occ. eigenvalues --   -0.18055  -0.12711  -0.12323
  Beta virt. eigenvalues --   -0.06841  -0.05577  -0.05001  -0.04744  -0.02332
  Beta virt. eigenvalues --   -0.02124  -0.01508  -0.01395  -0.01028  -0.00397
  Beta virt. eigenvalues --   -0.00335   0.00131   0.00384   0.00857   0.00899

 Mulliken charges and spin densities:
               1          2
     1  Na   0.200063  -0.051336
     2  Na   0.157815  -0.086930
     3  Na  -0.286026   0.463785
     4  Na   0.157940  -0.046307
     5  Na  -0.559517   0.796681
     6  Na   0.087930  -0.065081
     7  Na   0.241794  -0.010811
 Sum of Mulliken charges =  -0.00000   1.00000

 Dipole moment (field-independent basis, Debye):
    X=             -0.2415    Y=              0.0816    Z=              0.1834  Tot=              0.3140
 Quadrupole moment (field-independent basis, Debye-Ang):
   XX=            -56.8579   YY=            -62.0341   ZZ=            -74.3467
   XY=              0.0798   XZ=             -0.2054   YZ=              0.4316

 Normal termination of Gaussian 16 at Thu Dec  7 14:31:44 2023.
