 Gaussian 16, Revision B.01,
 Gaussian 16:  ES64L-G16RevB.01 20-Dec-2017

 -------------------------
 #P B3LYP/6-311+g(d) force
 -------------------------

 -----
 DPGEN
 -----
 Symbolic Z-matrix:
 Charge =  0 Multiplicity = 2

                         Standard orientation:
 ---------------------------------------------------------------------
 Center     Atomic      Atomic             Coordinates (Angstroms)
 Number     Number       Type             X           Y           Z
 ---------------------------------------------------------------------
      1         11           0        3.716528   -2.254392    0.262596
      2         11           0        0.261654   -2.598297   -0.888745
      3         11           0       -2.738469   -1.712088    0.989958
      4         11           0       -1.752566    2.058934    0.723869
      5         11           0        4.221068    1.182095    0.090266
      6         11           0        1.159383    3.180242   -0.477616
      7         11           0       -4.867598    0.143507   -0.700328
 ---------------------------------------------------------------------

 SCF Done:  E(UB3LYP) =  -1136.11308226     A.U. after   20 cycles

 The electronic state is 2-A.
 Alpha  occ. eigenvalues --  -38.44951 -38.44745 -38.44701 -38.44601 -38.44362
 Alpha  occ. eigenvalues --  -38.44041 -38.43370  -2.20750  -2.20528  -2.20516
 Alpha  occ. eigenvalues --   -2.20375  -2.20122  -2.19818  -2.19152  -1.14445
 Alpha  occ. eigenvalues --   -1.14418  -1.14391  -1.14218  -1.14205  -1.14164
 Alpha  occ. eigenvalues --   -1.14160  -1.14134  -1.14117  -1.14048  -1.14029
 Alpha  occ. eigenvalues --   -1.13999  -1.13804  -1.13787  -1.13765  -1.13479
 Alpha  occ. eigenvalues --   -1.13473  -1.13435  -1.12825  -1.12820  -1.12798
 Alpha  occ. eigenvalues --   -0.16033  -0.13974  -0.12502  -0.10791
 Alpha virt. eigenvalues --   -0.06920  -0.05966  -0.04212  -0.03179  -0.03061
 Alpha virt. eigenvalues --   -0.02942  -0.02114  -0.01698  -0.00925  -0.00628
 Alpha virt. eigenvalues --   -0.00453  -0.00276   0.00091   0.00341   0.00508

  Beta  occ. eigenvalues --  -38.44942 -38.44714 -38.44625 -38.44557 -38.44368
  Beta  occ. eigenvalues --  -38.43987 -38.43365  -2.20738  -2.20474  -2.20374
  Beta  occ. eigenvalues --   -2.20294  -2.20135  -2.19717  -2.19147  -1.14436
  Beta  occ. eigenvalues --   -1.14414  -1.14343  -1.14184  -1.14168  -1.14081
  Beta  occ. eigenvalues --   -1.14064  -1.14060  -1.14029  -1.13993  -1.13977
  Beta  occ. eigenvalues --   -1.13942  -1.13816  -1.13798  -1.13751  -1.13410
  Beta  occ. eigenvalues --   -1.13404  -1.13370  -1.12823  -1.12814  -1.12783
  Beta  occ. eigenvalues --   -0.15437  -0.13446  -0.11987
  Beta virt. eigenvalues --   -0.07501  -0.06905  -0.05460  -0.03963  -0.02835
  Beta virt. eigenvalues --   -0.02747  -0.02638  -0.01836  -0.01532  -0.00659
  Beta virt. eigenvalues --   -0.00483  -0.00194   0.00039   0.00234   0.00334

 Mulliken charges and spin densities:
               1          2
     1  Na   0.308080   0.017834
     2  Na  -0.421154   0.221803
     3  Na   0.241802   0.077554
     4  Na  -0.420500   0.154790
     5  Na  -0.101171   0.213478
     6  Na   0.100932  -0.038385
     7  Na   0.292010   0.352926
 Sum of Mulliken charges =  -0.00000   1.00000

 Dipole moment (field-independent basis, Debye):
    X=             -0.9715    Y=             -0.3033    Z=              0.0325  Tot=              1.0182
 Quadrupole moment (field-independent basis, Debye-Ang):
   XX=            -60.9571   YY=            -70.9120   ZZ=            -67.8979
   XY=              0.0298   XZ=              1.3327   YZ=             -2.4216

 Normal termination of Gaussian 16 at Mon Dec  4 02:01:52 2023.
