 Gaussian 16, Revision B.01,
 Gaussian 16:  ES64L-G16RevB.01 20-Dec-2017

 -------------------------
 #P B3LYP/6-311+g(d) force
 -------------------------

 -----
 DPGEN
 -----
 Symbolic Z-matrix:
 Charge =  0 Multiplicity = 2

                         Standard orientation:
 ---------------------------------------------------------------------
 Center     Atomic      Atomic             Coordinates (Angstroms)
 Number     Number       Type             X           Y           Z
 ---------------------------------------------------------------------
      1         11           0        0.131183   -0.095387    1.950777
      2         11           0       -0.424361    0.092316   -1.661479
      3         11           0       -1.876866    2.497115    0.021374
      4         11           0       -3.143518   -1.388204    0.313391
      5         11           0        1.670795    2.317519   -0.348641
      6         11           0        0.602228   -2.834483   -0.608712
      7         11           0        3.040540   -0.588876    0.333290
 ---------------------------------------------------------------------

 SCF Done:  E(UB3LYP) =  -1136.13606600     A.U. after   19 cycles

 The electronic state is 2-A.
 Alpha  occ. eigenvalues --  -38.44430 -38.43877 -38.43668 -38.43642 -38.43563
 Alpha  occ. eigenvalues --  -38.43400 -38.43142  -2.20191  -2.19699  -2.19557
 Alpha  occ. eigenvalues --   -2.19506  -2.19401  -2.19273  -2.19105  -1.13869
 Alpha  occ. eigenvalues --   -1.13838  -1.13835  -1.13393  -1.13366  -1.13324
 Alpha  occ. eigenvalues --   -1.13252  -1.13208  -1.13189  -1.13176  -1.13157
 Alpha  occ. eigenvalues --   -1.13138  -1.13103  -1.13049  -1.13018  -1.12971
 Alpha  occ. eigenvalues --   -1.12928  -1.12898  -1.12781  -1.12738  -1.12719
 Alpha  occ. eigenvalues --   -0.18481  -0.12857  -0.12435  -0.10706
 Alpha virt. eigenvalues --   -0.05873  -0.05239  -0.04558  -0.03168  -0.02943
 Alpha virt. eigenvalues --   -0.02477  -0.01652  -0.01262  -0.00446  -0.00289
 Alpha virt. eigenvalues --    0.00002   0.00348   0.00761   0.00828   0.00869

  Beta  occ. eigenvalues --  -38.44426 -38.43875 -38.43636 -38.43585 -38.43544
  Beta  occ. eigenvalues --  -38.43392 -38.43076  -2.20185  -2.19698  -2.19499
  Beta  occ. eigenvalues --   -2.19405  -2.19369  -2.19262  -2.18985  -1.13854
  Beta  occ. eigenvalues --   -1.13834  -1.13832  -1.13386  -1.13358  -1.13320
  Beta  occ. eigenvalues --   -1.13199  -1.13177  -1.13136  -1.13124  -1.13082
  Beta  occ. eigenvalues --   -1.13069  -1.13048  -1.13016  -1.13001  -1.12956
  Beta  occ. eigenvalues --   -1.12908  -1.12887  -1.12702  -1.12649  -1.12633
  Beta  occ. eigenvalues --   -0.17764  -0.12634  -0.12166
  Beta virt. eigenvalues --   -0.06856  -0.05823  -0.05169  -0.04512  -0.02445
  Beta virt. eigenvalues --   -0.02216  -0.01556  -0.01434  -0.01191  -0.00451
  Beta virt. eigenvalues --   -0.00323   0.00123   0.00377   0.00791   0.00863

 Mulliken charges and spin densities:
               1          2
     1  Na  -0.346643   0.719532
     2  Na   0.021510   0.386010
     3  Na   0.022993  -0.074610
     4  Na  -0.108702  -0.043687
     5  Na   0.117041  -0.028599
     6  Na   0.044820  -0.035288
     7  Na   0.248982   0.076642
 Sum of Mulliken charges =  -0.00000   1.00000

 Dipole moment (field-independent basis, Debye):
    X=             -0.4453    Y=             -0.0287    Z=              0.1940  Tot=              0.4865
 Quadrupole moment (field-independent basis, Debye-Ang):
   XX=            -56.0144   YY=            -62.2774   ZZ=            -74.5568
   XY=             -0.1106   XZ=             -1.2253   YZ=              0.3165

 Normal termination of Gaussian 16 at Tue Dec  5 12:03:39 2023.
