 Gaussian 16, Revision B.01,
 Gaussian 16:  ES64L-G16RevB.01 20-Dec-2017

 -------------------------
 #P B3LYP/6-311+g(d) force
 -------------------------

 -----
 DPGEN
 -----
 Symbolic Z-matrix:
 Charge =  0 Multiplicity = 2

                         Standard orientation:
 ---------------------------------------------------------------------
 Center     Atomic      Atomic             Coordinates (Angstroms)
 Number     Number       Type             X           Y           Z
 ---------------------------------------------------------------------
      1         11           0        4.738736   -0.335096    0.090770
      2         11           0       -4.207818   -0.266040   -1.060332
      3         11           0       -1.026504   -2.394701   -1.106513
      4         11           0        4.965893    2.623088   -0.770310
      5         11           0       -4.919527    2.260777    0.511050
      6         11           0        1.705350   -2.115603    1.095813
      7         11           0       -1.256131    0.227576    1.239523
 ---------------------------------------------------------------------

 SCF Done:  E(UB3LYP) =  -1136.11316401     A.U. after   22 cycles

 The electronic state is 2-A.
 Alpha  occ. eigenvalues --  -38.46263 -38.44281 -38.44003 -38.43965 -38.43959
 Alpha  occ. eigenvalues --  -38.43942 -38.43616  -2.22017  -2.20124  -2.19824
 Alpha  occ. eigenvalues --   -2.19777  -2.19772  -2.19767  -2.19418  -1.15730
 Alpha  occ. eigenvalues --   -1.15703  -1.15603  -1.13818  -1.13800  -1.13778
 Alpha  occ. eigenvalues --   -1.13473  -1.13470  -1.13452  -1.13448  -1.13448
 Alpha  occ. eigenvalues --   -1.13440  -1.13435  -1.13431  -1.13411  -1.13410
 Alpha  occ. eigenvalues --   -1.13410  -1.13361  -1.13085  -1.13077  -1.13063
 Alpha  occ. eigenvalues --   -0.16475  -0.14070  -0.12365  -0.10438
 Alpha virt. eigenvalues --   -0.07288  -0.05445  -0.04389  -0.03816  -0.02831
 Alpha virt. eigenvalues --   -0.02605  -0.02207  -0.01775  -0.01206  -0.01021
 Alpha virt. eigenvalues --   -0.00403  -0.00094   0.00064   0.00335   0.00516

  Beta  occ. eigenvalues --  -38.46260 -38.44261 -38.43973 -38.43929 -38.43921
  Beta  occ. eigenvalues --  -38.43885 -38.43623  -2.22012  -2.20092  -2.19767
  Beta  occ. eigenvalues --   -2.19700  -2.19699  -2.19674  -2.19435  -1.15728
  Beta  occ. eigenvalues --   -1.15681  -1.15601  -1.13785  -1.13779  -1.13740
  Beta  occ. eigenvalues --   -1.13434  -1.13430  -1.13408  -1.13401  -1.13397
  Beta  occ. eigenvalues --   -1.13384  -1.13378  -1.13369  -1.13364  -1.13363
  Beta  occ. eigenvalues --   -1.13354  -1.13287  -1.13100  -1.13091  -1.13046
  Beta  occ. eigenvalues --   -0.15951  -0.13718  -0.12066
  Beta virt. eigenvalues --   -0.07178  -0.06801  -0.05035  -0.04041  -0.03664
  Beta virt. eigenvalues --   -0.02422  -0.02382  -0.02032  -0.01568  -0.00888
  Beta virt. eigenvalues --   -0.00768  -0.00135   0.00084   0.00276   0.00406

 Mulliken charges and spin densities:
               1          2
     1  Na  -0.361566  -0.031779
     2  Na  -0.054411   0.052352
     3  Na  -0.001175   0.294453
     4  Na   0.348483   0.161182
     5  Na   0.592460   0.185258
     6  Na   0.485209   0.227783
     7  Na  -1.009000   0.110751
 Sum of Mulliken charges =  -0.00000   1.00000

 Dipole moment (field-independent basis, Debye):
    X=             -1.1657    Y=              0.2347    Z=              0.2402  Tot=              1.2131
 Quadrupole moment (field-independent basis, Debye-Ang):
   XX=            -73.7219   YY=            -61.3006   ZZ=            -70.5164
   XY=             -4.1697   XZ=              0.2963   YZ=              1.0206

 Normal termination of Gaussian 16 at Sun Dec  3 13:37:26 2023.
