 Gaussian 16, Revision B.01,
 Gaussian 16:  ES64L-G16RevB.01 20-Dec-2017

 -------------------------
 #P B3LYP/6-311+g(d) force
 -------------------------

 -----
 DPGEN
 -----
 Symbolic Z-matrix:
 Charge =  0 Multiplicity = 2

                         Standard orientation:
 ---------------------------------------------------------------------
 Center     Atomic      Atomic             Coordinates (Angstroms)
 Number     Number       Type             X           Y           Z
 ---------------------------------------------------------------------
      1         11           0       -3.943765   -0.289976   -0.302085
      2         11           0        3.321333   -0.233696   -1.041375
      3         11           0       -1.735984    2.897583   -0.156878
      4         11           0        0.952642    0.099389    1.990960
      5         11           0       -2.026937   -2.721026   -0.238227
      6         11           0        1.496427    3.244138   -0.236963
      7         11           0        1.936285   -2.996411   -0.015433
 ---------------------------------------------------------------------

 SCF Done:  E(UB3LYP) =  -1136.11381986     A.U. after   22 cycles

 The electronic state is 2-A.
 Alpha  occ. eigenvalues --  -38.45101 -38.44777 -38.44721 -38.44690 -38.44289
 Alpha  occ. eigenvalues --  -38.43974 -38.43786  -2.20861  -2.20552  -2.20507
 Alpha  occ. eigenvalues --   -2.20475  -2.20083  -2.19777  -2.19612  -1.14548
 Alpha  occ. eigenvalues --   -1.14524  -1.14510  -1.14245  -1.14225  -1.14193
 Alpha  occ. eigenvalues --   -1.14190  -1.14172  -1.14152  -1.14150  -1.14125
 Alpha  occ. eigenvalues --   -1.14122  -1.13747  -1.13732  -1.13690  -1.13442
 Alpha  occ. eigenvalues --   -1.13432  -1.13414  -1.13270  -1.13248  -1.13244
 Alpha  occ. eigenvalues --   -0.16597  -0.13454  -0.13148  -0.09914
 Alpha virt. eigenvalues --   -0.07071  -0.06872  -0.04125  -0.03312  -0.03021
 Alpha virt. eigenvalues --   -0.02456  -0.02112  -0.01790  -0.01476  -0.01412
 Alpha virt. eigenvalues --    0.00028   0.00284   0.00454   0.00487   0.00501

  Beta  occ. eigenvalues --  -38.45103 -38.44780 -38.44719 -38.44688 -38.44202
  Beta  occ. eigenvalues --  -38.43958 -38.43717  -2.20866  -2.20558  -2.20508
  Beta  occ. eigenvalues --   -2.20473  -2.19922  -2.19747  -2.19483  -1.14552
  Beta  occ. eigenvalues --   -1.14524  -1.14510  -1.14250  -1.14230  -1.14190
  Beta  occ. eigenvalues --   -1.14184  -1.14176  -1.14149  -1.14127  -1.14125
  Beta  occ. eigenvalues --   -1.14107  -1.13637  -1.13621  -1.13574  -1.13424
  Beta  occ. eigenvalues --   -1.13410  -1.13393  -1.13182  -1.13161  -1.13152
  Beta  occ. eigenvalues --   -0.16061  -0.13101  -0.13059
  Beta virt. eigenvalues --   -0.06940  -0.06716  -0.06184  -0.03969  -0.02726
  Beta virt. eigenvalues --   -0.02484  -0.02375  -0.01963  -0.01461  -0.01421
  Beta virt. eigenvalues --   -0.01005   0.00334   0.00416   0.00526   0.00575

 Mulliken charges and spin densities:
               1          2
     1  Na   0.312740   0.110704
     2  Na  -0.175376   0.361162
     3  Na  -0.230517  -0.025336
     4  Na  -0.227124   0.442468
     5  Na  -0.292500  -0.038660
     6  Na   0.314845   0.080563
     7  Na   0.297933   0.069099
 Sum of Mulliken charges =  -0.00000   1.00000

 Dipole moment (field-independent basis, Debye):
    X=             -0.3547    Y=              0.2029    Z=              0.0955  Tot=              0.4196
 Quadrupole moment (field-independent basis, Debye-Ang):
   XX=            -68.8301   YY=            -55.9108   ZZ=            -76.8927
   XY=             -1.0466   XZ=              1.3889   YZ=             -0.0659

 Normal termination of Gaussian 16 at Mon Dec  4 02:40:20 2023.
