 Gaussian 16, Revision B.01,
 Gaussian 16:  ES64L-G16RevB.01 20-Dec-2017

 -------------------------
 #P B3LYP/6-311+g(d) force
 -------------------------

 -----
 DPGEN
 -----
 Symbolic Z-matrix:
 Charge =  0 Multiplicity = 2

                         Standard orientation:
 ---------------------------------------------------------------------
 Center     Atomic      Atomic             Coordinates (Angstroms)
 Number     Number       Type             X           Y           Z
 ---------------------------------------------------------------------
      1         11           0        1.325396   -1.261870    0.868518
      2         11           0        5.359181   -1.870968   -0.242397
      3         11           0       -3.935913   -0.743157   -0.094671
      4         11           0       -6.847539   -0.444206   -1.043233
      5         11           0        1.266570    2.633299   -0.177538
      6         11           0       -1.146171    0.841803    1.929081
      7         11           0        3.978476    0.845100   -1.239759
 ---------------------------------------------------------------------

 SCF Done:  E(UB3LYP) =  -1136.11634579     A.U. after   20 cycles

 The electronic state is 2-A.
 Alpha  occ. eigenvalues --  -38.45667 -38.44669 -38.44337 -38.44322 -38.44211
 Alpha  occ. eigenvalues --  -38.43677 -38.43535  -2.21444  -2.20493  -2.20132
 Alpha  occ. eigenvalues --   -2.20129  -2.20051  -2.19474  -2.19336  -1.15142
 Alpha  occ. eigenvalues --   -1.15107  -1.15037  -1.14158  -1.14153  -1.14092
 Alpha  occ. eigenvalues --   -1.13827  -1.13800  -1.13791  -1.13790  -1.13770
 Alpha  occ. eigenvalues --   -1.13762  -1.13725  -1.13716  -1.13650  -1.13187
 Alpha  occ. eigenvalues --   -1.13123  -1.13122  -1.13007  -1.13003  -1.12932
 Alpha  occ. eigenvalues --   -0.16689  -0.13806  -0.12187  -0.11499
 Alpha virt. eigenvalues --   -0.06634  -0.05684  -0.04555  -0.03612  -0.03070
 Alpha virt. eigenvalues --   -0.02701  -0.02029  -0.01820  -0.01204  -0.00943
 Alpha virt. eigenvalues --   -0.00614  -0.00148   0.00028   0.00255   0.00553

  Beta  occ. eigenvalues --  -38.45623 -38.44584 -38.44316 -38.44311 -38.44182
  Beta  occ. eigenvalues --  -38.43662 -38.43538  -2.21362  -2.20339  -2.20111
  Beta  occ. eigenvalues --   -2.20092  -2.20002  -2.19446  -2.19344  -1.15087
  Beta  occ. eigenvalues --   -1.15049  -1.14972  -1.14052  -1.14047  -1.13980
  Beta  occ. eigenvalues --   -1.13798  -1.13784  -1.13767  -1.13763  -1.13757
  Beta  occ. eigenvalues --   -1.13739  -1.13698  -1.13684  -1.13587  -1.13172
  Beta  occ. eigenvalues --   -1.13104  -1.13104  -1.13014  -1.13010  -1.12924
  Beta  occ. eigenvalues --   -0.15959  -0.13567  -0.11934
  Beta virt. eigenvalues --   -0.07802  -0.06343  -0.05356  -0.04152  -0.03251
  Beta virt. eigenvalues --   -0.02604  -0.02486  -0.01896  -0.01687  -0.00918
  Beta virt. eigenvalues --   -0.00702  -0.00169   0.00010   0.00130   0.00395

 Mulliken charges and spin densities:
               1          2
     1  Na  -0.541956   0.354480
     2  Na   0.319020   0.114869
     3  Na  -0.406185  -0.037650
     4  Na   0.571768   0.067824
     5  Na  -0.145694   0.453407
     6  Na   0.079342   0.051384
     7  Na   0.123704  -0.004315
 Sum of Mulliken charges =  -0.00000   1.00000

 Dipole moment (field-independent basis, Debye):
    X=              1.3705    Y=              0.0906    Z=              0.4640  Tot=              1.4498
 Quadrupole moment (field-independent basis, Debye-Ang):
   XX=            -64.0042   YY=            -66.7206   ZZ=            -70.2698
   XY=             -6.8556   XZ=              0.5558   YZ=              0.1187

 Normal termination of Gaussian 16 at Sun Dec  3 16:02:14 2023.
