 Gaussian 16, Revision B.01,
 Gaussian 16:  ES64L-G16RevB.01 20-Dec-2017

 -------------------------
 #P B3LYP/6-311+g(d) force
 -------------------------

 -----
 DPGEN
 -----
 Symbolic Z-matrix:
 Charge =  0 Multiplicity = 2

                         Standard orientation:
 ---------------------------------------------------------------------
 Center     Atomic      Atomic             Coordinates (Angstroms)
 Number     Number       Type             X           Y           Z
 ---------------------------------------------------------------------
      1         11           0        1.823973    1.242151    0.838727
      2         11           0       -3.695246    0.215983   -1.239224
      3         11           0        5.105890   -0.736190   -0.398026
      4         11           0       -2.458397   -2.324632    0.379697
      5         11           0       -1.314455    0.243250    1.910055
      6         11           0        1.318467   -0.973501   -0.855840
      7         11           0       -0.780233    2.332940   -0.635389
 ---------------------------------------------------------------------

 SCF Done:  E(UB3LYP) =  -1136.11539294     A.U. after   23 cycles

 The electronic state is 2-A.
 Alpha  occ. eigenvalues --  -38.45459 -38.44395 -38.44289 -38.44123 -38.43834
 Alpha  occ. eigenvalues --  -38.43305 -38.43159  -2.21291  -2.20201  -2.20146
 Alpha  occ. eigenvalues --   -2.19963  -2.19789  -2.19162  -2.19052  -1.15080
 Alpha  occ. eigenvalues --   -1.14960  -1.14856  -1.13880  -1.13867  -1.13824
 Alpha  occ. eigenvalues --   -1.13818  -1.13815  -1.13753  -1.13623  -1.13603
 Alpha  occ. eigenvalues --   -1.13592  -1.13537  -1.13458  -1.13343  -1.12839
 Alpha  occ. eigenvalues --   -1.12813  -1.12802  -1.12726  -1.12715  -1.12673
 Alpha  occ. eigenvalues --   -0.18179  -0.13963  -0.11589  -0.10990
 Alpha virt. eigenvalues --   -0.07066  -0.05071  -0.04591  -0.03241  -0.03140
 Alpha virt. eigenvalues --   -0.02565  -0.02079  -0.01298  -0.00876  -0.00381
 Alpha virt. eigenvalues --   -0.00302   0.00011   0.00339   0.00582   0.00778

  Beta  occ. eigenvalues --  -38.45462 -38.44371 -38.44240 -38.44055 -38.43827
  Beta  occ. eigenvalues --  -38.43289 -38.43130  -2.21300  -2.20114  -2.20100
  Beta  occ. eigenvalues --   -2.19836  -2.19779  -2.19135  -2.19000  -1.15087
  Beta  occ. eigenvalues --   -1.14957  -1.14858  -1.13817  -1.13794  -1.13786
  Beta  occ. eigenvalues --   -1.13784  -1.13760  -1.13724  -1.13538  -1.13532
  Beta  occ. eigenvalues --   -1.13521  -1.13495  -1.13439  -1.13335  -1.12815
  Beta  occ. eigenvalues --   -1.12799  -1.12768  -1.12694  -1.12684  -1.12615
  Beta  occ. eigenvalues --   -0.17591  -0.13604  -0.11325
  Beta virt. eigenvalues --   -0.07312  -0.06810  -0.04927  -0.04002  -0.03017
  Beta virt. eigenvalues --   -0.02899  -0.02080  -0.01536  -0.01185  -0.00479
  Beta virt. eigenvalues --   -0.00252  -0.00209   0.00158   0.00424   0.00702

 Mulliken charges and spin densities:
               1          2
     1  Na   0.354585  -0.042636
     2  Na  -0.028677   0.252235
     3  Na   0.344180   0.165355
     4  Na   0.308755   0.035040
     5  Na  -0.152906   0.396662
     6  Na  -0.676388  -0.044716
     7  Na  -0.149549   0.238061
 Sum of Mulliken charges =  -0.00000   1.00000

 Dipole moment (field-independent basis, Debye):
    X=              0.4916    Y=              0.2234    Z=              0.3646  Tot=              0.6516
 Quadrupole moment (field-independent basis, Debye-Ang):
   XX=            -60.7207   YY=            -71.7617   ZZ=            -67.6655
   XY=              0.8664   XZ=              0.8328   YZ=              1.9463

 Normal termination of Gaussian 16 at Tue Dec  5 17:20:19 2023.
