 Gaussian 16, Revision B.01,
 Gaussian 16:  ES64L-G16RevB.01 20-Dec-2017

 -------------------------
 #P B3LYP/6-311+g(d) force
 -------------------------

 -----
 DPGEN
 -----
 Symbolic Z-matrix:
 Charge =  0 Multiplicity = 2

                         Standard orientation:
 ---------------------------------------------------------------------
 Center     Atomic      Atomic             Coordinates (Angstroms)
 Number     Number       Type             X           Y           Z
 ---------------------------------------------------------------------
      1         11           0        0.342614    1.355102   -0.476736
      2         11           0        0.544476   -2.124838   -1.145864
      3         11           0        3.795393    1.404874   -0.551245
      4         11           0        1.867745   -1.138967    1.440929
      5         11           0       -1.332913   -0.928554    1.652470
      6         11           0       -2.613002    2.234015    0.469130
      7         11           0       -2.604314   -0.801632   -1.388684
 ---------------------------------------------------------------------

 SCF Done:  E(UB3LYP) =  -1136.12888564     A.U. after   21 cycles

 The electronic state is 2-A.
 Alpha  occ. eigenvalues --  -38.44296 -38.44067 -38.43720 -38.43634 -38.43596
 Alpha  occ. eigenvalues --  -38.43461 -38.43224  -2.20174  -2.19844  -2.19647
 Alpha  occ. eigenvalues --   -2.19580  -2.19441  -2.19366  -2.19146  -1.13853
 Alpha  occ. eigenvalues --   -1.13840  -1.13776  -1.13514  -1.13505  -1.13475
 Alpha  occ. eigenvalues --   -1.13393  -1.13357  -1.13264  -1.13239  -1.13224
 Alpha  occ. eigenvalues --   -1.13160  -1.13132  -1.13093  -1.13069  -1.13047
 Alpha  occ. eigenvalues --   -1.13009  -1.12974  -1.12853  -1.12830  -1.12741
 Alpha  occ. eigenvalues --   -0.18742  -0.13567  -0.11774  -0.11202
 Alpha virt. eigenvalues --   -0.06231  -0.05263  -0.04337  -0.03364  -0.02686
 Alpha virt. eigenvalues --   -0.02324  -0.02040  -0.01127  -0.00610  -0.00102
 Alpha virt. eigenvalues --    0.00182   0.00237   0.00423   0.00597   0.00813

  Beta  occ. eigenvalues --  -38.44247 -38.44061 -38.43683 -38.43588 -38.43577
  Beta  occ. eigenvalues --  -38.43435 -38.43212  -2.20085  -2.19833  -2.19582
  Beta  occ. eigenvalues --   -2.19477  -2.19427  -2.19320  -2.19126  -1.13795
  Beta  occ. eigenvalues --   -1.13773  -1.13706  -1.13503  -1.13499  -1.13468
  Beta  occ. eigenvalues --   -1.13349  -1.13295  -1.13206  -1.13174  -1.13141
  Beta  occ. eigenvalues --   -1.13125  -1.13094  -1.13070  -1.13055  -1.13014
  Beta  occ. eigenvalues --   -1.12956  -1.12944  -1.12830  -1.12801  -1.12731
  Beta  occ. eigenvalues --   -0.18034  -0.13394  -0.11472
  Beta virt. eigenvalues --   -0.07272  -0.06058  -0.05188  -0.03839  -0.03020
  Beta virt. eigenvalues --   -0.02177  -0.01956  -0.01495  -0.00972  -0.00230
  Beta virt. eigenvalues --   -0.00069   0.00241   0.00295   0.00499   0.00659

 Mulliken charges and spin densities:
               1          2
     1  Na  -2.065153   0.257218
     2  Na  -0.225563   0.231746
     3  Na   0.179959   0.010615
     4  Na   0.754992   0.071848
     5  Na  -0.315391   0.370410
     6  Na   1.236354  -0.129864
     7  Na   0.434802   0.188027
 Sum of Mulliken charges =  -0.00000   1.00000

 Dipole moment (field-independent basis, Debye):
    X=             -0.2097    Y=             -0.2822    Z=             -0.0161  Tot=              0.3520
 Quadrupole moment (field-independent basis, Debye-Ang):
   XX=            -52.4687   YY=            -71.5465   ZZ=            -69.2452
   XY=             -1.7862   XZ=              0.0620   YZ=              0.9203

 Normal termination of Gaussian 16 at Tue Dec  5 15:07:22 2023.
