 Gaussian 16, Revision B.01,
 Gaussian 16:  ES64L-G16RevB.01 20-Dec-2017

 -------------------------
 #P B3LYP/6-311+g(d) force
 -------------------------

 -----
 DPGEN
 -----
 Symbolic Z-matrix:
 Charge =  0 Multiplicity = 2

                         Standard orientation:
 ---------------------------------------------------------------------
 Center     Atomic      Atomic             Coordinates (Angstroms)
 Number     Number       Type             X           Y           Z
 ---------------------------------------------------------------------
      1         11           0        3.258300    0.149679    0.718565
      2         11           0        2.229671    3.640913   -0.036387
      3         11           0       -4.319494    0.969318   -0.113460
      4         11           0        3.980915   -3.015958   -0.320163
      5         11           0       -5.741466   -1.558145    0.252491
      6         11           0       -0.109817    1.513013   -0.401160
      7         11           0        0.701892   -1.698821   -0.099885
 ---------------------------------------------------------------------

 SCF Done:  E(UB3LYP) =  -1136.11665413     A.U. after   19 cycles

 The electronic state is 2-A.
 Alpha  occ. eigenvalues --  -38.44567 -38.44329 -38.44306 -38.44079 -38.43970
 Alpha  occ. eigenvalues --  -38.43680 -38.43489  -2.20420  -2.20203  -2.20108
 Alpha  occ. eigenvalues --   -2.19900  -2.19777  -2.19506  -2.19362  -1.14143
 Alpha  occ. eigenvalues --   -1.14116  -1.14006  -1.13888  -1.13869  -1.13796
 Alpha  occ. eigenvalues --   -1.13771  -1.13767  -1.13718  -1.13701  -1.13537
 Alpha  occ. eigenvalues --   -1.13535  -1.13428  -1.13411  -1.13361  -1.13192
 Alpha  occ. eigenvalues --   -1.13157  -1.13141  -1.13041  -1.13032  -1.12959
 Alpha  occ. eigenvalues --   -0.16920  -0.13587  -0.12654  -0.10748
 Alpha virt. eigenvalues --   -0.06380  -0.05545  -0.04137  -0.03715  -0.03141
 Alpha virt. eigenvalues --   -0.02433  -0.02086  -0.01359  -0.01092  -0.01044
 Alpha virt. eigenvalues --   -0.00234  -0.00014   0.00247   0.00462   0.00581

  Beta  occ. eigenvalues --  -38.44539 -38.44290 -38.44268 -38.44049 -38.43976
  Beta  occ. eigenvalues --  -38.43644 -38.43451  -2.20370  -2.20092  -2.20078
  Beta  occ. eigenvalues --   -2.19847  -2.19789  -2.19438  -2.19298  -1.14091
  Beta  occ. eigenvalues --   -1.14085  -1.13966  -1.13814  -1.13796  -1.13751
  Beta  occ. eigenvalues --   -1.13747  -1.13721  -1.13678  -1.13670  -1.13503
  Beta  occ. eigenvalues --   -1.13498  -1.13437  -1.13414  -1.13345  -1.13149
  Beta  occ. eigenvalues --   -1.13111  -1.13089  -1.12994  -1.12990  -1.12894
  Beta  occ. eigenvalues --   -0.16196  -0.13301  -0.12371
  Beta virt. eigenvalues --   -0.07192  -0.06118  -0.05187  -0.03845  -0.03379
  Beta virt. eigenvalues --   -0.02655  -0.02347  -0.01931  -0.01272  -0.00875
  Beta virt. eigenvalues --   -0.00582   0.00083   0.00153   0.00411   0.00545

 Mulliken charges and spin densities:
               1          2
     1  Na  -0.348731   0.340879
     2  Na   0.768263   0.215229
     3  Na  -0.116313   0.013923
     4  Na   1.098099   0.213745
     5  Na   0.059113   0.103093
     6  Na  -0.702788   0.069569
     7  Na  -0.757643   0.043562
 Sum of Mulliken charges =  -0.00000   1.00000

 Dipole moment (field-independent basis, Debye):
    X=              0.9290    Y=             -1.1099    Z=             -0.1360  Tot=              1.4538
 Quadrupole moment (field-independent basis, Debye-Ang):
   XX=            -68.0110   YY=            -56.1233   ZZ=            -72.8128
   XY=             -0.3795   XZ=             -0.9984   YZ=              0.0799

 Normal termination of Gaussian 16 at Wed Nov 29 03:39:06 2023.
