 Gaussian 16, Revision B.01,
 Gaussian 16:  ES64L-G16RevB.01 20-Dec-2017

 -------------------------
 #P B3LYP/6-311+g(d) force
 -------------------------

 -----
 DPGEN
 -----
 Symbolic Z-matrix:
 Charge =  0 Multiplicity = 2

                         Standard orientation:
 ---------------------------------------------------------------------
 Center     Atomic      Atomic             Coordinates (Angstroms)
 Number     Number       Type             X           Y           Z
 ---------------------------------------------------------------------
      1         11           0       -0.540978    2.817152   -0.305528
      2         11           0        2.875452   -0.941141    1.641567
      3         11           0       -2.305722   -2.448033   -0.665968
      4         11           0        1.098674   -1.867214   -1.146724
      5         11           0        2.543460    1.507346   -1.234506
      6         11           0       -0.176571    0.017976    1.192994
      7         11           0       -3.494314    0.913913    0.518164
 ---------------------------------------------------------------------

 SCF Done:  E(UB3LYP) =  -1136.12968641     A.U. after   20 cycles

 The electronic state is 2-A.
 Alpha  occ. eigenvalues --  -38.44526 -38.44143 -38.44016 -38.43655 -38.43616
 Alpha  occ. eigenvalues --  -38.43562 -38.43367  -2.20320  -2.20010  -2.19842
 Alpha  occ. eigenvalues --   -2.19532  -2.19488  -2.19450  -2.19199  -1.14002
 Alpha  occ. eigenvalues --   -1.13970  -1.13949  -1.13690  -1.13644  -1.13622
 Alpha  occ. eigenvalues --   -1.13514  -1.13487  -1.13467  -1.13275  -1.13225
 Alpha  occ. eigenvalues --   -1.13161  -1.13156  -1.13137  -1.13126  -1.13117
 Alpha  occ. eigenvalues --   -1.13089  -1.13069  -1.12892  -1.12867  -1.12813
 Alpha  occ. eigenvalues --   -0.17980  -0.13537  -0.12268  -0.10699
 Alpha virt. eigenvalues --   -0.06201  -0.05504  -0.04704  -0.03263  -0.02749
 Alpha virt. eigenvalues --   -0.02215  -0.01967  -0.01206  -0.00697  -0.00277
 Alpha virt. eigenvalues --   -0.00252   0.00249   0.00506   0.00606   0.00744

  Beta  occ. eigenvalues --  -38.44519 -38.44072 -38.43968 -38.43641 -38.43592
  Beta  occ. eigenvalues --  -38.43530 -38.43367  -2.20306  -2.19879  -2.19755
  Beta  occ. eigenvalues --   -2.19476  -2.19446  -2.19425  -2.19204  -1.13988
  Beta  occ. eigenvalues --   -1.13961  -1.13943  -1.13591  -1.13557  -1.13534
  Beta  occ. eigenvalues --   -1.13445  -1.13430  -1.13407  -1.13234  -1.13189
  Beta  occ. eigenvalues --   -1.13123  -1.13114  -1.13103  -1.13100  -1.13086
  Beta  occ. eigenvalues --   -1.13070  -1.13041  -1.12896  -1.12869  -1.12798
  Beta  occ. eigenvalues --   -0.17434  -0.13277  -0.11858
  Beta virt. eigenvalues --   -0.07097  -0.06039  -0.05260  -0.04314  -0.02968
  Beta virt. eigenvalues --   -0.02254  -0.01985  -0.01268  -0.01018  -0.00443
  Beta virt. eigenvalues --   -0.00200  -0.00076   0.00317   0.00663   0.00728

 Mulliken charges and spin densities:
               1          2
     1  Na  -0.143628   0.102070
     2  Na   0.659056  -0.006580
     3  Na  -0.347982  -0.014168
     4  Na  -0.091440   0.388709
     5  Na  -0.211597   0.159863
     6  Na  -0.915733   0.337577
     7  Na   1.051325   0.032528
 Sum of Mulliken charges =  -0.00000   1.00000

 Dipole moment (field-independent basis, Debye):
    X=             -0.1841    Y=              0.0761    Z=             -0.1168  Tot=              0.2309
 Quadrupole moment (field-independent basis, Debye-Ang):
   XX=            -50.6648   YY=            -69.9525   ZZ=            -72.7224
   XY=             -1.1417   XZ=             -0.2939   YZ=             -0.2027

 Normal termination of Gaussian 16 at Tue Dec  5 23:21:37 2023.
