 Gaussian 16, Revision B.01,
 Gaussian 16:  ES64L-G16RevB.01 20-Dec-2017

 -------------------------
 #P B3LYP/6-311+g(d) force
 -------------------------

 -----
 DPGEN
 -----
 Symbolic Z-matrix:
 Charge =  0 Multiplicity = 2

                         Standard orientation:
 ---------------------------------------------------------------------
 Center     Atomic      Atomic             Coordinates (Angstroms)
 Number     Number       Type             X           Y           Z
 ---------------------------------------------------------------------
      1         11           0       -3.434040   -1.071717    0.374354
      2         11           0        2.508847   -1.927984    0.940500
      3         11           0        2.307161    0.085756   -1.342555
      4         11           0       -0.543614   -2.181121   -1.193227
      5         11           0       -0.334032    0.069729    2.015494
      6         11           0        0.535720    3.187669    0.775290
      7         11           0       -1.040041    1.837668   -1.569856
 ---------------------------------------------------------------------

 SCF Done:  E(UB3LYP) =  -1136.13158585     A.U. after   19 cycles

 The electronic state is 2-A.
 Alpha  occ. eigenvalues --  -38.44113 -38.44044 -38.43985 -38.43948 -38.43703
 Alpha  occ. eigenvalues --  -38.43526 -38.43514  -2.19965  -2.19880  -2.19809
 Alpha  occ. eigenvalues --   -2.19805  -2.19554  -2.19348  -2.19310  -1.13629
 Alpha  occ. eigenvalues --   -1.13609  -1.13590  -1.13557  -1.13551  -1.13527
 Alpha  occ. eigenvalues --   -1.13507  -1.13502  -1.13482  -1.13472  -1.13429
 Alpha  occ. eigenvalues --   -1.13412  -1.13204  -1.13203  -1.13175  -1.13010
 Alpha  occ. eigenvalues --   -1.13008  -1.12983  -1.12979  -1.12972  -1.12951
 Alpha  occ. eigenvalues --   -0.17929  -0.12682  -0.12257  -0.11456
 Alpha virt. eigenvalues --   -0.05349  -0.04979  -0.04971  -0.03555  -0.03294
 Alpha virt. eigenvalues --   -0.03055  -0.01316  -0.01036  -0.00719   0.00030
 Alpha virt. eigenvalues --    0.00328   0.00482   0.00542   0.00623   0.00758

  Beta  occ. eigenvalues --  -38.44029 -38.44010 -38.43962 -38.43922 -38.43691
  Beta  occ. eigenvalues --  -38.43528 -38.43508  -2.19819  -2.19811  -2.19767
  Beta  occ. eigenvalues --   -2.19759  -2.19532  -2.19339  -2.19315  -1.13532
  Beta  occ. eigenvalues --   -1.13519  -1.13499  -1.13497  -1.13494  -1.13478
  Beta  occ. eigenvalues --   -1.13467  -1.13461  -1.13441  -1.13433  -1.13399
  Beta  occ. eigenvalues --   -1.13384  -1.13190  -1.13178  -1.13155  -1.13006
  Beta  occ. eigenvalues --   -1.12989  -1.12977  -1.12973  -1.12973  -1.12955
  Beta  occ. eigenvalues --   -0.17141  -0.12540  -0.12133
  Beta virt. eigenvalues --   -0.07566  -0.05237  -0.04726  -0.04615  -0.03083
  Beta virt. eigenvalues --   -0.02746  -0.02172  -0.01243  -0.00980  -0.00394
  Beta virt. eigenvalues --    0.00071   0.00375   0.00519   0.00677   0.00747

 Mulliken charges and spin densities:
               1          2
     1  Na   0.221411  -0.112956
     2  Na   0.191676  -0.109991
     3  Na   0.098790   0.227800
     4  Na  -0.289011   0.184147
     5  Na  -0.151189   0.685344
     6  Na   0.077565  -0.149410
     7  Na  -0.149242   0.275067
 Sum of Mulliken charges =  -0.00000   1.00000

 Dipole moment (field-independent basis, Debye):
    X=              0.1006    Y=             -0.0013    Z=             -0.0610  Tot=              0.1176
 Quadrupole moment (field-independent basis, Debye-Ang):
   XX=            -63.2806   YY=            -66.0254   ZZ=            -67.1714
   XY=             -0.5545   XZ=              1.1851   YZ=             -0.1398

 Normal termination of Gaussian 16 at Sun Dec  3 23:20:12 2023.
