 Gaussian 16, Revision B.01,
 Gaussian 16:  ES64L-G16RevB.01 20-Dec-2017

 -------------------------
 #P B3LYP/6-311+g(d) force
 -------------------------

 -----
 DPGEN
 -----
 Symbolic Z-matrix:
 Charge =  0 Multiplicity = 2

                         Standard orientation:
 ---------------------------------------------------------------------
 Center     Atomic      Atomic             Coordinates (Angstroms)
 Number     Number       Type             X           Y           Z
 ---------------------------------------------------------------------
      1         11           0        3.111168    0.353628   -0.523318
      2         11           0       -2.887671    0.790162   -0.358583
      3         11           0       -0.158050   -0.035931   -1.801933
      4         11           0        0.523801    2.759672   -0.090629
      5         11           0       -1.054919    0.316514    2.329062
      6         11           0       -1.054680   -2.495289   -0.829172
      7         11           0        1.520351   -1.688756    1.274573
 ---------------------------------------------------------------------

 SCF Done:  E(UB3LYP) =  -1136.12723312     A.U. after   20 cycles

 The electronic state is 2-A.
 Alpha  occ. eigenvalues --  -38.44744 -38.43921 -38.43915 -38.43719 -38.43492
 Alpha  occ. eigenvalues --  -38.43442 -38.43303  -2.20608  -2.19944  -2.19777
 Alpha  occ. eigenvalues --   -2.19562  -2.19380  -2.19342  -2.19127  -1.14267
 Alpha  occ. eigenvalues --   -1.14244  -1.14218  -1.13751  -1.13614  -1.13563
 Alpha  occ. eigenvalues --   -1.13460  -1.13426  -1.13383  -1.13274  -1.13228
 Alpha  occ. eigenvalues --   -1.13190  -1.13057  -1.13033  -1.13021  -1.13009
 Alpha  occ. eigenvalues --   -1.12946  -1.12921  -1.12821  -1.12800  -1.12739
 Alpha  occ. eigenvalues --   -0.18747  -0.12887  -0.12187  -0.12064
 Alpha virt. eigenvalues --   -0.05527  -0.04518  -0.04348  -0.03659  -0.03582
 Alpha virt. eigenvalues --   -0.03278  -0.01271  -0.00736  -0.00379   0.00204
 Alpha virt. eigenvalues --    0.00300   0.00407   0.00670   0.00843   0.00939

  Beta  occ. eigenvalues --  -38.44646 -38.43916 -38.43846 -38.43718 -38.43461
  Beta  occ. eigenvalues --  -38.43425 -38.43301  -2.20426  -2.19820  -2.19773
  Beta  occ. eigenvalues --   -2.19562  -2.19324  -2.19314  -2.19126  -1.14136
  Beta  occ. eigenvalues --   -1.14127  -1.14088  -1.13666  -1.13548  -1.13476
  Beta  occ. eigenvalues --   -1.13441  -1.13399  -1.13377  -1.13270  -1.13218
  Beta  occ. eigenvalues --   -1.13191  -1.13017  -1.12994  -1.12980  -1.12965
  Beta  occ. eigenvalues --   -1.12924  -1.12899  -1.12812  -1.12792  -1.12738
  Beta  occ. eigenvalues --   -0.17977  -0.12677  -0.11826
  Beta virt. eigenvalues --   -0.08113  -0.05468  -0.04333  -0.04022  -0.03164
  Beta virt. eigenvalues --   -0.02578  -0.02557  -0.01243  -0.00692  -0.00112
  Beta virt. eigenvalues --    0.00248   0.00313   0.00440   0.00790   0.00868

 Mulliken charges and spin densities:
               1          2
     1  Na   0.129178   0.015633
     2  Na   0.062002  -0.015024
     3  Na   0.397128   0.234738
     4  Na  -0.326070  -0.022917
     5  Na  -0.044764   0.467136
     6  Na  -0.124754   0.088486
     7  Na  -0.092720   0.231948
 Sum of Mulliken charges =  -0.00000   1.00000

 Dipole moment (field-independent basis, Debye):
    X=             -0.2833    Y=              0.1997    Z=              0.3214  Tot=              0.4727
 Quadrupole moment (field-independent basis, Debye-Ang):
   XX=            -60.9157   YY=            -69.1784   ZZ=            -66.6024
   XY=             -0.1625   XZ=             -0.2414   YZ=             -0.1803

 Normal termination of Gaussian 16 at Tue Dec  5 13:44:51 2023.
