 Gaussian 16, Revision B.01,
 Gaussian 16:  ES64L-G16RevB.01 20-Dec-2017

 -------------------------
 #P B3LYP/6-311+g(d) force
 -------------------------

 -----
 DPGEN
 -----
 Symbolic Z-matrix:
 Charge =  0 Multiplicity = 2

                         Standard orientation:
 ---------------------------------------------------------------------
 Center     Atomic      Atomic             Coordinates (Angstroms)
 Number     Number       Type             X           Y           Z
 ---------------------------------------------------------------------
      1         11           0        1.713728    2.357547    0.188622
      2         11           0       -0.326187   -0.145844    2.171530
      3         11           0       -0.650682   -2.701248    0.052043
      4         11           0        2.321641   -1.909178    0.193586
      5         11           0        3.785003    0.489947   -1.448598
      6         11           0       -4.474963   -0.595116   -1.287310
      7         11           0       -2.368540    2.503891    0.130128
 ---------------------------------------------------------------------

 SCF Done:  E(UB3LYP) =  -1136.11702528     A.U. after   21 cycles

 The electronic state is 2-A.
 Alpha  occ. eigenvalues --  -38.45105 -38.44781 -38.44547 -38.44032 -38.43908
 Alpha  occ. eigenvalues --  -38.43746 -38.43630  -2.20869  -2.20606  -2.20268
 Alpha  occ. eigenvalues --   -2.19827  -2.19780  -2.19584  -2.19476  -1.14515
 Alpha  occ. eigenvalues --   -1.14502  -1.14475  -1.14282  -1.14274  -1.14200
 Alpha  occ. eigenvalues --   -1.13965  -1.13938  -1.13910  -1.13522  -1.13506
 Alpha  occ. eigenvalues --   -1.13505  -1.13458  -1.13452  -1.13435  -1.13247
 Alpha  occ. eigenvalues --   -1.13240  -1.13201  -1.13123  -1.13120  -1.13105
 Alpha  occ. eigenvalues --   -0.16922  -0.13515  -0.12203  -0.11373
 Alpha virt. eigenvalues --   -0.06214  -0.05686  -0.04798  -0.03678  -0.03209
 Alpha virt. eigenvalues --   -0.02294  -0.01895  -0.01237  -0.01058  -0.00685
 Alpha virt. eigenvalues --   -0.00459   0.00165   0.00202   0.00321   0.00523

  Beta  occ. eigenvalues --  -38.44993 -38.44724 -38.44566 -38.44026 -38.43898
  Beta  occ. eigenvalues --  -38.43748 -38.43597  -2.20659  -2.20501  -2.20306
  Beta  occ. eigenvalues --   -2.19818  -2.19764  -2.19589  -2.19414  -1.14372
  Beta  occ. eigenvalues --   -1.14358  -1.14336  -1.14213  -1.14205  -1.14120
  Beta  occ. eigenvalues --   -1.13994  -1.13967  -1.13912  -1.13514  -1.13502
  Beta  occ. eigenvalues --   -1.13498  -1.13439  -1.13429  -1.13420  -1.13248
  Beta  occ. eigenvalues --   -1.13242  -1.13194  -1.13079  -1.13078  -1.13069
  Beta  occ. eigenvalues --   -0.16447  -0.12712  -0.12129
  Beta virt. eigenvalues --   -0.07871  -0.05971  -0.05323  -0.04285  -0.03617
  Beta virt. eigenvalues --   -0.02630  -0.01927  -0.01517  -0.01086  -0.00914
  Beta virt. eigenvalues --   -0.00534  -0.00242   0.00354   0.00418   0.00510

 Mulliken charges and spin densities:
               1          2
     1  Na  -0.479228  -0.026565
     2  Na   0.466788   0.078493
     3  Na  -0.082884   0.074694
     4  Na  -0.288458   0.092809
     5  Na   0.471913   0.206991
     6  Na   0.008583   0.600625
     7  Na  -0.096714  -0.027048
 Sum of Mulliken charges =  -0.00000   1.00000

 Dipole moment (field-independent basis, Debye):
    X=             -0.1529    Y=             -0.1251    Z=              0.0989  Tot=              0.2209
 Quadrupole moment (field-independent basis, Debye-Ang):
   XX=            -65.5958   YY=            -68.2461   ZZ=            -67.6015
   XY=             -0.3037   XZ=             -0.0872   YZ=              1.3783

 Normal termination of Gaussian 16 at Wed Nov 29 02:17:52 2023.
