 Gaussian 16, Revision B.01,
 Gaussian 16:  ES64L-G16RevB.01 20-Dec-2017

 -------------------------
 #P B3LYP/6-311+g(d) force
 -------------------------

 -----
 DPGEN
 -----
 Symbolic Z-matrix:
 Charge =  0 Multiplicity = 2

                         Standard orientation:
 ---------------------------------------------------------------------
 Center     Atomic      Atomic             Coordinates (Angstroms)
 Number     Number       Type             X           Y           Z
 ---------------------------------------------------------------------
      1         11           0        2.679935    1.464906   -0.039702
      2         11           0        0.419751   -0.052275    2.037028
      3         11           0       -1.137516    2.470891   -0.206253
      4         11           0       -2.961755   -0.020771    0.405494
      5         11           0       -1.215731   -2.314568   -0.358638
      6         11           0       -0.034464    0.212575   -1.714634
      7         11           0        2.249779   -1.760758   -0.123296
 ---------------------------------------------------------------------

 SCF Done:  E(UB3LYP) =  -1136.13148739     A.U. after   21 cycles

 The electronic state is 2-A.
 Alpha  occ. eigenvalues --  -38.44042 -38.43965 -38.43857 -38.43565 -38.43375
 Alpha  occ. eigenvalues --  -38.43156 -38.42961  -2.19959  -2.19828  -2.19776
 Alpha  occ. eigenvalues --   -2.19466  -2.19425  -2.19070  -2.18899  -1.13671
 Alpha  occ. eigenvalues --   -1.13622  -1.13596  -1.13524  -1.13506  -1.13464
 Alpha  occ. eigenvalues --   -1.13441  -1.13409  -1.13386  -1.13182  -1.13147
 Alpha  occ. eigenvalues --   -1.13131  -1.13097  -1.13084  -1.13026  -1.12736
 Alpha  occ. eigenvalues --   -1.12713  -1.12675  -1.12583  -1.12552  -1.12516
 Alpha  occ. eigenvalues --   -0.19375  -0.13601  -0.12216  -0.11242
 Alpha virt. eigenvalues --   -0.05667  -0.05107  -0.04007  -0.03644  -0.02856
 Alpha virt. eigenvalues --   -0.02787  -0.01515  -0.00894  -0.00103   0.00045
 Alpha virt. eigenvalues --    0.00123   0.00376   0.00818   0.00934   0.00970

  Beta  occ. eigenvalues --  -38.44035 -38.43960 -38.43769 -38.43558 -38.43298
  Beta  occ. eigenvalues --  -38.43149 -38.42951  -2.19948  -2.19824  -2.19613
  Beta  occ. eigenvalues --   -2.19458  -2.19285  -2.19061  -2.18885  -1.13668
  Beta  occ. eigenvalues --   -1.13618  -1.13563  -1.13518  -1.13479  -1.13458
  Beta  occ. eigenvalues --   -1.13342  -1.13296  -1.13273  -1.13140  -1.13103
  Beta  occ. eigenvalues --   -1.13090  -1.13077  -1.13000  -1.12932  -1.12717
  Beta  occ. eigenvalues --   -1.12680  -1.12671  -1.12573  -1.12527  -1.12496
  Beta  occ. eigenvalues --   -0.18614  -0.13352  -0.11936
  Beta virt. eigenvalues --   -0.07277  -0.05603  -0.05105  -0.03996  -0.02798
  Beta virt. eigenvalues --   -0.02051  -0.01715  -0.01412  -0.00840  -0.00067
  Beta virt. eigenvalues --    0.00063   0.00131   0.00394   0.00889   0.00930

 Mulliken charges and spin densities:
               1          2
     1  Na   0.190187  -0.086364
     2  Na  -0.643019   0.626570
     3  Na   0.343849  -0.027347
     4  Na   0.011956   0.091854
     5  Na   0.315671   0.027880
     6  Na  -0.474071   0.391921
     7  Na   0.255426  -0.024514
 Sum of Mulliken charges =  -0.00000   1.00000

 Dipole moment (field-independent basis, Debye):
    X=              0.3592    Y=              0.1332    Z=              0.3274  Tot=              0.5039
 Quadrupole moment (field-independent basis, Debye-Ang):
   XX=            -55.9962   YY=            -67.2257   ZZ=            -71.7750
   XY=              0.2909   XZ=             -1.3668   YZ=              0.6388

 Normal termination of Gaussian 16 at Fri Dec  8 00:22:29 2023.
