 Gaussian 16, Revision B.01,
 Gaussian 16:  ES64L-G16RevB.01 20-Dec-2017

 -------------------------
 #P B3LYP/6-311+g(d) force
 -------------------------

 -----
 DPGEN
 -----
 Symbolic Z-matrix:
 Charge =  0 Multiplicity = 2

                         Standard orientation:
 ---------------------------------------------------------------------
 Center     Atomic      Atomic             Coordinates (Angstroms)
 Number     Number       Type             X           Y           Z
 ---------------------------------------------------------------------
      1         11           0        0.053186   -0.065382    2.326163
      2         11           0        0.804547   -2.678714   -0.166774
      3         11           0       -3.931042   -0.025615   -0.128870
      4         11           0       -1.327081   -0.249241   -0.494021
      5         11           0        2.608426    0.098054    0.699278
      6         11           0        1.343994    0.181840   -2.203281
      7         11           0        0.447970    2.739058   -0.032494
 ---------------------------------------------------------------------

 SCF Done:  E(UB3LYP) =  -1136.11405071     A.U. after   23 cycles

 The electronic state is 2-A.
 Alpha  occ. eigenvalues --  -38.45097 -38.44759 -38.44575 -38.44214 -38.42810
 Alpha  occ. eigenvalues --  -38.42744 -38.42693  -2.21026  -2.20601  -2.20513
 Alpha  occ. eigenvalues --   -2.20170  -2.18914  -2.18599  -2.18572  -1.14722
 Alpha  occ. eigenvalues --   -1.14686  -1.14596  -1.14464  -1.14208  -1.14203
 Alpha  occ. eigenvalues --   -1.14196  -1.14185  -1.14077  -1.13890  -1.13823
 Alpha  occ. eigenvalues --   -1.13742  -1.12621  -1.12590  -1.12487  -1.12277
 Alpha  occ. eigenvalues --   -1.12264  -1.12251  -1.12234  -1.12221  -1.12211
 Alpha  occ. eigenvalues --   -0.19332  -0.12869  -0.12401  -0.11693
 Alpha virt. eigenvalues --   -0.06247  -0.04238  -0.03982  -0.03535  -0.03103
 Alpha virt. eigenvalues --   -0.02983  -0.01751  -0.00690  -0.00528   0.00136
 Alpha virt. eigenvalues --    0.00287   0.00326   0.00459   0.00857   0.00997

  Beta  occ. eigenvalues --  -38.44996 -38.44767 -38.44488 -38.44189 -38.42789
  Beta  occ. eigenvalues --  -38.42742 -38.42690  -2.20841  -2.20617  -2.20353
  Beta  occ. eigenvalues --   -2.20132  -2.18881  -2.18599  -2.18570  -1.14601
  Beta  occ. eigenvalues --   -1.14547  -1.14473  -1.14465  -1.14212  -1.14208
  Beta  occ. eigenvalues --   -1.14091  -1.14087  -1.13960  -1.13827  -1.13783
  Beta  occ. eigenvalues --   -1.13725  -1.12610  -1.12522  -1.12470  -1.12280
  Beta  occ. eigenvalues --   -1.12250  -1.12240  -1.12236  -1.12214  -1.12193
  Beta  occ. eigenvalues --   -0.18426  -0.12747  -0.11451
  Beta virt. eigenvalues --   -0.08230  -0.06080  -0.04058  -0.03254  -0.03057
  Beta virt. eigenvalues --   -0.02614  -0.02236  -0.01695  -0.00650  -0.00227
  Beta virt. eigenvalues --    0.00222   0.00297   0.00461   0.00538   0.00891

 Mulliken charges and spin densities:
               1          2
     1  Na   0.101020   0.444936
     2  Na  -0.269047  -0.050801
     3  Na   0.015884  -0.054182
     4  Na  -0.548932   0.274878
     5  Na   0.451119   0.137325
     6  Na   0.511633   0.296786
     7  Na  -0.261678  -0.048942
 Sum of Mulliken charges =  -0.00000   1.00000

 Dipole moment (field-independent basis, Debye):
    X=              0.2311    Y=              0.1036    Z=              0.2653  Tot=              0.3668
 Quadrupole moment (field-independent basis, Debye-Ang):
   XX=            -58.7733   YY=            -71.6675   ZZ=            -63.4670
   XY=             -0.9278   XZ=             -1.3441   YZ=              0.5057

 Normal termination of Gaussian 16 at Thu Dec  7 16:10:28 2023.
