 Gaussian 16, Revision B.01,
 Gaussian 16:  ES64L-G16RevB.01 20-Dec-2017

 -------------------------
 #P B3LYP/6-311+g(d) force
 -------------------------

 -----
 DPGEN
 -----
 Symbolic Z-matrix:
 Charge =  0 Multiplicity = 2

                         Standard orientation:
 ---------------------------------------------------------------------
 Center     Atomic      Atomic             Coordinates (Angstroms)
 Number     Number       Type             X           Y           Z
 ---------------------------------------------------------------------
      1         11           0        3.613743    0.316172   -0.061014
      2         11           0       -0.236489    0.371989   -1.732990
      3         11           0        0.619086    2.578368    0.350080
      4         11           0        1.542072   -2.050801   -0.270102
      5         11           0       -2.124924   -1.880779   -0.066508
      6         11           0       -0.202417   -0.448482    1.856823
      7         11           0       -3.211072    1.113533   -0.076290
 ---------------------------------------------------------------------

 SCF Done:  E(UB3LYP) =  -1136.12701450     A.U. after   22 cycles

 The electronic state is 2-A.
 Alpha  occ. eigenvalues --  -38.45273 -38.44815 -38.43539 -38.43370 -38.43344
 Alpha  occ. eigenvalues --  -38.42995 -38.42948  -2.21064  -2.20639  -2.19501
 Alpha  occ. eigenvalues --   -2.19316  -2.19298  -2.18869  -2.18844  -1.14752
 Alpha  occ. eigenvalues --   -1.14726  -1.14688  -1.14323  -1.14302  -1.14267
 Alpha  occ. eigenvalues --   -1.13205  -1.13166  -1.13115  -1.13090  -1.12985
 Alpha  occ. eigenvalues --   -1.12952  -1.12938  -1.12919  -1.12872  -1.12554
 Alpha  occ. eigenvalues --   -1.12544  -1.12534  -1.12514  -1.12492  -1.12444
 Alpha  occ. eigenvalues --   -0.18932  -0.13678  -0.11798  -0.10721
 Alpha virt. eigenvalues --   -0.06876  -0.04973  -0.03755  -0.03430  -0.02663
 Alpha virt. eigenvalues --   -0.02425  -0.02321  -0.01161  -0.00247  -0.00104
 Alpha virt. eigenvalues --    0.00011   0.00266   0.00675   0.00777   0.00864

  Beta  occ. eigenvalues --  -38.45276 -38.44811 -38.43474 -38.43360 -38.43256
  Beta  occ. eigenvalues --  -38.42983 -38.42937  -2.21071  -2.20634  -2.19382
  Beta  occ. eigenvalues --   -2.19287  -2.19151  -2.18853  -2.18825  -1.14758
  Beta  occ. eigenvalues --   -1.14719  -1.14694  -1.14323  -1.14278  -1.14265
  Beta  occ. eigenvalues --   -1.13127  -1.13082  -1.13040  -1.13021  -1.12929
  Beta  occ. eigenvalues --   -1.12914  -1.12876  -1.12817  -1.12783  -1.12544
  Beta  occ. eigenvalues --   -1.12531  -1.12498  -1.12476  -1.12474  -1.12436
  Beta  occ. eigenvalues --   -0.18186  -0.13459  -0.11541
  Beta virt. eigenvalues --   -0.06871  -0.06719  -0.04973  -0.03736  -0.02676
  Beta virt. eigenvalues --   -0.02348  -0.01864  -0.01282  -0.01140  -0.00249
  Beta virt. eigenvalues --   -0.00021   0.00069   0.00285   0.00816   0.00834

 Mulliken charges and spin densities:
               1          2
     1  Na  -0.108716  -0.087057
     2  Na  -0.542767   0.565047
     3  Na   0.056082  -0.109317
     4  Na   0.343032  -0.009463
     5  Na   0.595452   0.045153
     6  Na  -0.518797   0.658416
     7  Na   0.175713  -0.062778
 Sum of Mulliken charges =  -0.00000   1.00000

 Dipole moment (field-independent basis, Debye):
    X=              0.1151    Y=              0.3259    Z=              0.0455  Tot=              0.3486
 Quadrupole moment (field-independent basis, Debye-Ang):
   XX=            -46.5266   YY=            -70.8504   ZZ=            -74.4258
   XY=             -0.0274   XZ=             -0.0850   YZ=              1.5993

 Normal termination of Gaussian 16 at Fri Dec  8 07:51:00 2023.
