 Gaussian 16, Revision B.01,
 Gaussian 16:  ES64L-G16RevB.01 20-Dec-2017

 -------------------------
 #P B3LYP/6-311+g(d) force
 -------------------------

 -----
 DPGEN
 -----
 Symbolic Z-matrix:
 Charge =  0 Multiplicity = 2

                         Standard orientation:
 ---------------------------------------------------------------------
 Center     Atomic      Atomic             Coordinates (Angstroms)
 Number     Number       Type             X           Y           Z
 ---------------------------------------------------------------------
      1         11           0        4.025406   -0.219502   -0.849803
      2         11           0        1.166531    2.290752    0.732209
      3         11           0       -3.247506   -1.489745   -0.909574
      4         11           0       -2.360382    1.887987   -0.319422
      5         11           0       -0.053704   -0.026557   -1.291678
      6         11           0       -1.363399   -0.721540    1.891661
      7         11           0        1.833054   -1.721395    0.746607
 ---------------------------------------------------------------------

 SCF Done:  E(UB3LYP) =  -1136.12476819     A.U. after   24 cycles

 The electronic state is 2-A.
 Alpha  occ. eigenvalues --  -38.44751 -38.44334 -38.43780 -38.43751 -38.43727
 Alpha  occ. eigenvalues --  -38.43545 -38.42968  -2.20567  -2.20295  -2.19673
 Alpha  occ. eigenvalues --   -2.19627  -2.19564  -2.19434  -2.18791  -1.14248
 Alpha  occ. eigenvalues --   -1.14215  -1.14187  -1.14021  -1.13971  -1.13911
 Alpha  occ. eigenvalues --   -1.13352  -1.13335  -1.13329  -1.13294  -1.13278
 Alpha  occ. eigenvalues --   -1.13235  -1.13231  -1.13195  -1.13186  -1.13132
 Alpha  occ. eigenvalues --   -1.13080  -1.13065  -1.12481  -1.12460  -1.12404
 Alpha  occ. eigenvalues --   -0.18474  -0.14129  -0.11191  -0.10897
 Alpha virt. eigenvalues --   -0.06675  -0.05270  -0.04443  -0.03086  -0.02708
 Alpha virt. eigenvalues --   -0.02468  -0.02065  -0.01113  -0.00980  -0.00264
 Alpha virt. eigenvalues --    0.00104   0.00272   0.00385   0.00620   0.00724

  Beta  occ. eigenvalues --  -38.44719 -38.44317 -38.43739 -38.43706 -38.43702
  Beta  occ. eigenvalues --  -38.43525 -38.42961  -2.20507  -2.20266  -2.19607
  Beta  occ. eigenvalues --   -2.19538  -2.19520  -2.19403  -2.18779  -1.14210
  Beta  occ. eigenvalues --   -1.14171  -1.14145  -1.13974  -1.13955  -1.13891
  Beta  occ. eigenvalues --   -1.13311  -1.13294  -1.13256  -1.13223  -1.13205
  Beta  occ. eigenvalues --   -1.13197  -1.13196  -1.13156  -1.13149  -1.13118
  Beta  occ. eigenvalues --   -1.13056  -1.13008  -1.12476  -1.12437  -1.12399
  Beta  occ. eigenvalues --   -0.17797  -0.13769  -0.10938
  Beta virt. eigenvalues --   -0.07197  -0.06376  -0.05208  -0.03968  -0.02907
  Beta virt. eigenvalues --   -0.02398  -0.01886  -0.01387  -0.01076  -0.00564
  Beta virt. eigenvalues --   -0.00132   0.00169   0.00301   0.00530   0.00696

 Mulliken charges and spin densities:
               1          2
     1  Na   0.447026   0.189717
     2  Na  -0.372167   0.072146
     3  Na   0.138721   0.176802
     4  Na   0.258862   0.110291
     5  Na  -0.390560   0.000588
     6  Na   0.150860   0.291467
     7  Na  -0.232742   0.158990
 Sum of Mulliken charges =  -0.00000   1.00000

 Dipole moment (field-independent basis, Debye):
    X=              0.2442    Y=              0.2738    Z=              0.0252  Tot=              0.3677
 Quadrupole moment (field-independent basis, Debye-Ang):
   XX=            -50.9737   YY=            -74.6672   ZZ=            -68.5932
   XY=              1.0158   XZ=             -1.3819   YZ=              1.3970

 Normal termination of Gaussian 16 at Tue Dec  5 16:10:15 2023.
