 Gaussian 16, Revision B.01,
 Gaussian 16:  ES64L-G16RevB.01 20-Dec-2017

 -------------------------
 #P B3LYP/6-311+g(d) force
 -------------------------

 -----
 DPGEN
 -----
 Symbolic Z-matrix:
 Charge =  0 Multiplicity = 2

                         Standard orientation:
 ---------------------------------------------------------------------
 Center     Atomic      Atomic             Coordinates (Angstroms)
 Number     Number       Type             X           Y           Z
 ---------------------------------------------------------------------
      1         11           0        0.207976    0.404378    1.939376
      2         11           0       -2.180951   -1.929756    1.041656
      3         11           0       -4.901411   -1.246278   -0.760766
      4         11           0       -6.942400    1.227881   -0.938994
      5         11           0        6.501212   -1.745498   -0.929683
      6         11           0        1.792949    2.331155    0.105498
      7         11           0        5.522626    0.958118   -0.457088
 ---------------------------------------------------------------------

 SCF Done:  E(UB3LYP) =  -1136.10482173     A.U. after   18 cycles

 The electronic state is 2-A.
 Alpha  occ. eigenvalues --  -38.44902 -38.44661 -38.44585 -38.44241 -38.44239
 Alpha  occ. eigenvalues --  -38.43979 -38.43923  -2.20703  -2.20477  -2.20405
 Alpha  occ. eigenvalues --   -2.20063  -2.20041  -2.19781  -2.19735  -1.14340
 Alpha  occ. eigenvalues --   -1.14338  -1.14337  -1.14157  -1.14117  -1.14102
 Alpha  occ. eigenvalues --   -1.14052  -1.14047  -1.14035  -1.13821  -1.13712
 Alpha  occ. eigenvalues --   -1.13708  -1.13697  -1.13695  -1.13695  -1.13453
 Alpha  occ. eigenvalues --   -1.13452  -1.13451  -1.13390  -1.13382  -1.13360
 Alpha  occ. eigenvalues --   -0.15384  -0.14228  -0.12884  -0.11496
 Alpha virt. eigenvalues --   -0.06935  -0.05146  -0.03894  -0.03458  -0.03297
 Alpha virt. eigenvalues --   -0.02594  -0.02427  -0.01823  -0.01545  -0.01052
 Alpha virt. eigenvalues --   -0.00658  -0.00512  -0.00253   0.00358   0.00542

  Beta  occ. eigenvalues --  -38.44822 -38.44598 -38.44503 -38.44254 -38.44212
  Beta  occ. eigenvalues --  -38.43990 -38.43929  -2.20553  -2.20359  -2.20253
  Beta  occ. eigenvalues --   -2.20075  -2.20010  -2.19810  -2.19749  -1.14242
  Beta  occ. eigenvalues --   -1.14237  -1.14235  -1.14086  -1.14035  -1.14023
  Beta  occ. eigenvalues --   -1.13953  -1.13944  -1.13939  -1.13790  -1.13736
  Beta  occ. eigenvalues --   -1.13734  -1.13678  -1.13661  -1.13659  -1.13479
  Beta  occ. eigenvalues --   -1.13477  -1.13418  -1.13401  -1.13391  -1.13346
  Beta  occ. eigenvalues --   -0.14764  -0.13634  -0.12311
  Beta virt. eigenvalues --   -0.08415  -0.06447  -0.04756  -0.03617  -0.03306
  Beta virt. eigenvalues --   -0.02965  -0.02353  -0.02278  -0.01560  -0.01211
  Beta virt. eigenvalues --   -0.00840  -0.00325  -0.00241  -0.00022   0.00349

 Mulliken charges and spin densities:
               1          2
     1  Na  -0.425054  -0.061504
     2  Na   0.261041   0.358908
     3  Na  -0.190635  -0.036651
     4  Na   0.177238   0.363081
     5  Na   0.473084   0.119035
     6  Na   0.092139   0.277276
     7  Na  -0.387814  -0.020145
 Sum of Mulliken charges =  -0.00000   1.00000

 Dipole moment (field-independent basis, Debye):
    X=             -0.5246    Y=              0.2419    Z=             -0.0682  Tot=              0.5817
 Quadrupole moment (field-independent basis, Debye-Ang):
   XX=            -67.6441   YY=            -59.1747   ZZ=            -71.6445
   XY=             -8.2366   XZ=              0.4472   YZ=             -1.2085

 Normal termination of Gaussian 16 at Mon Dec  4 01:37:47 2023.
