 Gaussian 16, Revision B.01,
 Gaussian 16:  ES64L-G16RevB.01 20-Dec-2017

 -------------------------
 #P B3LYP/6-311+g(d) force
 -------------------------

 -----
 DPGEN
 -----
 Symbolic Z-matrix:
 Charge =  0 Multiplicity = 2

                         Standard orientation:
 ---------------------------------------------------------------------
 Center     Atomic      Atomic             Coordinates (Angstroms)
 Number     Number       Type             X           Y           Z
 ---------------------------------------------------------------------
      1         11           0       -1.301240    2.407034   -0.469066
      2         11           0       -0.273391   -0.024394   -1.684607
      3         11           0        2.929779   -1.240764   -0.300371
      4         11           0        1.920372    2.034820    0.152068
      5         11           0       -3.191905   -0.962852    0.065078
      6         11           0        0.056441   -2.699200    0.193807
      7         11           0       -0.140055    0.485356    2.043092
 ---------------------------------------------------------------------

 SCF Done:  E(UB3LYP) =  -1136.13500496     A.U. after   20 cycles

 The electronic state is 2-A.
 Alpha  occ. eigenvalues --  -38.44112 -38.43706 -38.43622 -38.43505 -38.43390
 Alpha  occ. eigenvalues --  -38.43384 -38.43346  -2.19907  -2.19624  -2.19459
 Alpha  occ. eigenvalues --   -2.19443  -2.19389  -2.19294  -2.19216  -1.13582
 Alpha  occ. eigenvalues --   -1.13557  -1.13556  -1.13334  -1.13299  -1.13255
 Alpha  occ. eigenvalues --   -1.13250  -1.13140  -1.13126  -1.13114  -1.13088
 Alpha  occ. eigenvalues --   -1.13060  -1.13047  -1.12990  -1.12967  -1.12958
 Alpha  occ. eigenvalues --   -1.12940  -1.12906  -1.12887  -1.12884  -1.12824
 Alpha  occ. eigenvalues --   -0.18925  -0.12842  -0.12707  -0.11011
 Alpha virt. eigenvalues --   -0.05621  -0.04994  -0.04541  -0.03137  -0.03085
 Alpha virt. eigenvalues --   -0.02714  -0.01586  -0.01012  -0.00198  -0.00072
 Alpha virt. eigenvalues --    0.00004   0.00344   0.00839   0.00895   0.00942

  Beta  occ. eigenvalues --  -38.44112 -38.43620 -38.43613 -38.43487 -38.43382
  Beta  occ. eigenvalues --  -38.43341 -38.43314  -2.19909  -2.19458  -2.19451
  Beta  occ. eigenvalues --   -2.19412  -2.19284  -2.19265  -2.19208  -1.13571
  Beta  occ. eigenvalues --   -1.13560  -1.13556  -1.13275  -1.13198  -1.13142
  Beta  occ. eigenvalues --   -1.13139  -1.13127  -1.13120  -1.13101  -1.13044
  Beta  occ. eigenvalues --   -1.13031  -1.12978  -1.12953  -1.12923  -1.12907
  Beta  occ. eigenvalues --   -1.12904  -1.12877  -1.12868  -1.12847  -1.12821
  Beta  occ. eigenvalues --   -0.18180  -0.12617  -0.12454
  Beta virt. eigenvalues --   -0.07040  -0.05603  -0.04959  -0.04496  -0.02364
  Beta virt. eigenvalues --   -0.02306  -0.01638  -0.01510  -0.00945  -0.00207
  Beta virt. eigenvalues --   -0.00103   0.00120   0.00368   0.00881   0.00890

 Mulliken charges and spin densities:
               1          2
     1  Na   0.414194  -0.065814
     2  Na  -0.309442   0.468158
     3  Na  -0.058171  -0.054257
     4  Na   0.383493   0.070830
     5  Na   0.033283  -0.087590
     6  Na   0.055889  -0.000319
     7  Na  -0.519246   0.668993
 Sum of Mulliken charges =  -0.00000   1.00000

 Dipole moment (field-independent basis, Debye):
    X=             -0.2907    Y=             -0.0454    Z=              0.1918  Tot=              0.3512
 Quadrupole moment (field-independent basis, Debye-Ang):
   XX=            -56.2958   YY=            -64.6737   ZZ=            -73.0738
   XY=              0.5803   XZ=             -0.6934   YZ=             -0.9043

 Normal termination of Gaussian 16 at Thu Dec  7 15:31:13 2023.
