 Gaussian 16, Revision B.01,
 Gaussian 16:  ES64L-G16RevB.01 20-Dec-2017

 -------------------------
 #P B3LYP/6-311+g(d) force
 -------------------------

 -----
 DPGEN
 -----
 Symbolic Z-matrix:
 Charge =  0 Multiplicity = 2

                         Standard orientation:
 ---------------------------------------------------------------------
 Center     Atomic      Atomic             Coordinates (Angstroms)
 Number     Number       Type             X           Y           Z
 ---------------------------------------------------------------------
      1         11           0       -1.353864   -2.806415   -0.356246
      2         11           0       -3.080911    0.145802    0.391407
      3         11           0       -0.178824    0.215724   -1.751414
      4         11           0       -0.779654    3.020788   -0.061526
      5         11           0        0.324821   -0.537858    1.842728
      6         11           0        2.756386   -1.561628   -0.193477
      7         11           0        2.312045    1.523587    0.128527
 ---------------------------------------------------------------------

 SCF Done:  E(UB3LYP) =  -1136.13774269     A.U. after   19 cycles

 The electronic state is 2-A.
 Alpha  occ. eigenvalues --  -38.44169 -38.43924 -38.43746 -38.43503 -38.43387
 Alpha  occ. eigenvalues --  -38.43284 -38.43169  -2.19984  -2.19781  -2.19565
 Alpha  occ. eigenvalues --   -2.19423  -2.19306  -2.19120  -2.19113  -1.13659
 Alpha  occ. eigenvalues --   -1.13649  -1.13619  -1.13484  -1.13445  -1.13419
 Alpha  occ. eigenvalues --   -1.13239  -1.13228  -1.13202  -1.13123  -1.13093
 Alpha  occ. eigenvalues --   -1.13046  -1.12977  -1.12937  -1.12916  -1.12830
 Alpha  occ. eigenvalues --   -1.12788  -1.12773  -1.12764  -1.12739  -1.12712
 Alpha  occ. eigenvalues --   -0.18625  -0.13168  -0.12427  -0.10556
 Alpha virt. eigenvalues --   -0.05678  -0.05114  -0.04900  -0.03280  -0.02855
 Alpha virt. eigenvalues --   -0.02329  -0.01502  -0.01203  -0.00483  -0.00310
 Alpha virt. eigenvalues --    0.00007   0.00367   0.00798   0.00852   0.00885

  Beta  occ. eigenvalues --  -38.44161 -38.43921 -38.43739 -38.43494 -38.43313
  Beta  occ. eigenvalues --  -38.43283 -38.43095  -2.19972  -2.19778  -2.19554
  Beta  occ. eigenvalues --   -2.19411  -2.19169  -2.19120  -2.18979  -1.13643
  Beta  occ. eigenvalues --   -1.13630  -1.13614  -1.13484  -1.13434  -1.13401
  Beta  occ. eigenvalues --   -1.13226  -1.13209  -1.13194  -1.13112  -1.13059
  Beta  occ. eigenvalues --   -1.13034  -1.12889  -1.12840  -1.12817  -1.12806
  Beta  occ. eigenvalues --   -1.12773  -1.12757  -1.12700  -1.12645  -1.12623
  Beta  occ. eigenvalues --   -0.17899  -0.12932  -0.12212
  Beta virt. eigenvalues --   -0.06694  -0.05621  -0.05081  -0.04848  -0.02484
  Beta virt. eigenvalues --   -0.02140  -0.01409  -0.01328  -0.01123  -0.00527
  Beta virt. eigenvalues --   -0.00330   0.00146   0.00391   0.00821   0.00868

 Mulliken charges and spin densities:
               1          2
     1  Na   0.022804  -0.089192
     2  Na   0.008096  -0.008483
     3  Na  -0.219171   0.637940
     4  Na   0.045120  -0.049273
     5  Na  -0.292116   0.564523
     6  Na   0.217677  -0.071671
     7  Na   0.217590   0.016157
 Sum of Mulliken charges =  -0.00000   1.00000

 Dipole moment (field-independent basis, Debye):
    X=             -0.1560    Y=             -0.3072    Z=              0.0489  Tot=              0.3480
 Quadrupole moment (field-independent basis, Debye-Ang):
   XX=            -57.4194   YY=            -60.8225   ZZ=            -74.9826
   XY=             -1.1240   XZ=             -1.3627   YZ=              1.8179

 Normal termination of Gaussian 16 at Thu Dec  7 16:52:44 2023.
