 Gaussian 16, Revision B.01,
 Gaussian 16:  ES64L-G16RevB.01 20-Dec-2017

 -------------------------
 #P B3LYP/6-311+g(d) force
 -------------------------

 -----
 DPGEN
 -----
 Symbolic Z-matrix:
 Charge =  0 Multiplicity = 2

                         Standard orientation:
 ---------------------------------------------------------------------
 Center     Atomic      Atomic             Coordinates (Angstroms)
 Number     Number       Type             X           Y           Z
 ---------------------------------------------------------------------
      1         11           0       -2.208715    2.399544    0.088761
      2         11           0        2.569186    2.262692   -0.367969
      3         11           0       -0.202136    0.369288   -1.424313
      4         11           0       -2.980718   -0.838176   -0.035027
      5         11           0        2.959933   -1.462689   -0.054454
      6         11           0        0.353896    0.059625    2.119217
      7         11           0       -0.491445   -2.790284   -0.326215
 ---------------------------------------------------------------------

 SCF Done:  E(UB3LYP) =  -1136.13158446     A.U. after   20 cycles

 The electronic state is 2-A.
 Alpha  occ. eigenvalues --  -38.44635 -38.44295 -38.44018 -38.43939 -38.43612
 Alpha  occ. eigenvalues --  -38.43173 -38.42912  -2.20416  -2.20071  -2.19902
 Alpha  occ. eigenvalues --   -2.19767  -2.19461  -2.19143  -2.18782  -1.14096
 Alpha  occ. eigenvalues --   -1.14073  -1.14054  -1.13746  -1.13723  -1.13708
 Alpha  occ. eigenvalues --   -1.13592  -1.13568  -1.13556  -1.13452  -1.13413
 Alpha  occ. eigenvalues --   -1.13401  -1.13131  -1.13084  -1.13074  -1.12842
 Alpha  occ. eigenvalues --   -1.12793  -1.12766  -1.12465  -1.12443  -1.12413
 Alpha  occ. eigenvalues --   -0.18305  -0.13300  -0.12100  -0.10388
 Alpha virt. eigenvalues --   -0.06106  -0.05762  -0.04399  -0.03251  -0.02569
 Alpha virt. eigenvalues --   -0.02346  -0.01823  -0.01498  -0.00748  -0.00380
 Alpha virt. eigenvalues --   -0.00024   0.00306   0.00690   0.00719   0.00882

  Beta  occ. eigenvalues --  -38.44634 -38.44285 -38.44014 -38.43937 -38.43509
  Beta  occ. eigenvalues --  -38.43127 -38.42904  -2.20416  -2.20055  -2.19897
  Beta  occ. eigenvalues --   -2.19766  -2.19272  -2.19060  -2.18771  -1.14078
  Beta  occ. eigenvalues --   -1.14073  -1.14056  -1.13723  -1.13710  -1.13700
  Beta  occ. eigenvalues --   -1.13588  -1.13571  -1.13530  -1.13447  -1.13404
  Beta  occ. eigenvalues --   -1.13398  -1.13004  -1.12953  -1.12938  -1.12777
  Beta  occ. eigenvalues --   -1.12732  -1.12705  -1.12458  -1.12430  -1.12393
  Beta  occ. eigenvalues --   -0.17622  -0.13092  -0.11875
  Beta virt. eigenvalues --   -0.06532  -0.06054  -0.05667  -0.04378  -0.02504
  Beta virt. eigenvalues --   -0.01903  -0.01705  -0.01446  -0.01269  -0.00796
  Beta virt. eigenvalues --   -0.00399   0.00148   0.00354   0.00726   0.00770

 Mulliken charges and spin densities:
               1          2
     1  Na   0.279208   0.022842
     2  Na   0.039563  -0.008989
     3  Na  -0.263961   0.148071
     4  Na   0.244141   0.083046
     5  Na   0.153810   0.015840
     6  Na  -0.494730   0.703037
     7  Na   0.041969   0.036153
 Sum of Mulliken charges =  -0.00000   1.00000

 Dipole moment (field-independent basis, Debye):
    X=              0.3721    Y=              0.2892    Z=              0.1467  Tot=              0.4936
 Quadrupole moment (field-independent basis, Debye-Ang):
   XX=            -53.1048   YY=            -62.8597   ZZ=            -76.5847
   XY=             -1.1388   XZ=             -1.1457   YZ=              0.5968

 Normal termination of Gaussian 16 at Thu Dec  7 11:36:13 2023.
