 Gaussian 16, Revision B.01,
 Gaussian 16:  ES64L-G16RevB.01 20-Dec-2017

 -------------------------
 #P B3LYP/6-311+g(d) force
 -------------------------

 -----
 DPGEN
 -----
 Symbolic Z-matrix:
 Charge =  0 Multiplicity = 2

                         Standard orientation:
 ---------------------------------------------------------------------
 Center     Atomic      Atomic             Coordinates (Angstroms)
 Number     Number       Type             X           Y           Z
 ---------------------------------------------------------------------
      1         11           0       -1.785665   -1.332564    0.996653
      2         11           0       -5.174403   -1.045617   -0.512584
      3         11           0       -5.299105    1.823467    0.288515
      4         11           0       -0.814977    1.006004   -0.841149
      5         11           0        1.232894   -1.245914   -0.374620
      6         11           0        4.866654    0.623087    1.261152
      7         11           0        6.974602    0.171536   -0.817967
 ---------------------------------------------------------------------

 SCF Done:  E(UB3LYP) =  -1136.10586109     A.U. after   19 cycles

 The electronic state is 2-A.
 Alpha  occ. eigenvalues --  -38.44727 -38.44697 -38.44617 -38.44384 -38.43900
 Alpha  occ. eigenvalues --  -38.43861 -38.43682  -2.20542  -2.20525  -2.20417
 Alpha  occ. eigenvalues --   -2.20260  -2.19732  -2.19678  -2.19573  -1.14286
 Alpha  occ. eigenvalues --   -1.14249  -1.14205  -1.14182  -1.14175  -1.14173
 Alpha  occ. eigenvalues --   -1.14069  -1.14058  -1.14004  -1.13950  -1.13910
 Alpha  occ. eigenvalues --   -1.13850  -1.13529  -1.13391  -1.13374  -1.13319
 Alpha  occ. eigenvalues --   -1.13306  -1.13257  -1.13249  -1.13234  -1.13161
 Alpha  occ. eigenvalues --   -0.16545  -0.14016  -0.12717  -0.09679
 Alpha virt. eigenvalues --   -0.06582  -0.05474  -0.05393  -0.03473  -0.02939
 Alpha virt. eigenvalues --   -0.02593  -0.02067  -0.02015  -0.01062  -0.00734
 Alpha virt. eigenvalues --   -0.00517  -0.00102   0.00269   0.00332   0.00465

  Beta  occ. eigenvalues --  -38.44725 -38.44695 -38.44618 -38.44336 -38.43889
  Beta  occ. eigenvalues --  -38.43830 -38.43616  -2.20540  -2.20520  -2.20418
  Beta  occ. eigenvalues --   -2.20172  -2.19713  -2.19621  -2.19453  -1.14284
  Beta  occ. eigenvalues --   -1.14235  -1.14206  -1.14171  -1.14170  -1.14166
  Beta  occ. eigenvalues --   -1.14070  -1.14058  -1.14003  -1.13884  -1.13848
  Beta  occ. eigenvalues --   -1.13791  -1.13504  -1.13380  -1.13346  -1.13278
  Beta  occ. eigenvalues --   -1.13264  -1.13216  -1.13169  -1.13147  -1.13074
  Beta  occ. eigenvalues --   -0.15977  -0.13886  -0.12561
  Beta virt. eigenvalues --   -0.06487  -0.06037  -0.05364  -0.04789  -0.03182
  Beta virt. eigenvalues --   -0.02837  -0.02426  -0.01889  -0.01424  -0.01023
  Beta virt. eigenvalues --   -0.00394  -0.00252   0.00153   0.00363   0.00493

 Mulliken charges and spin densities:
               1          2
     1  Na  -0.025052   0.550031
     2  Na   0.234787  -0.002399
     3  Na  -0.031168   0.148854
     4  Na  -0.074754   0.242394
     5  Na  -0.165248   0.052539
     6  Na  -0.119131  -0.008195
     7  Na   0.180566   0.016776
 Sum of Mulliken charges =  -0.00000   1.00000

 Dipole moment (field-independent basis, Debye):
    X=              1.9683    Y=             -0.1630    Z=             -0.3615  Tot=              2.0079
 Quadrupole moment (field-independent basis, Debye-Ang):
   XX=            -60.1829   YY=            -72.6471   ZZ=            -66.6976
   XY=             -2.6263   XZ=             -4.4902   YZ=              5.6717

 Normal termination of Gaussian 16 at Wed Nov 29 03:43:09 2023.
