 Gaussian 16, Revision B.01,
 Gaussian 16:  ES64L-G16RevB.01 20-Dec-2017

 -------------------------
 #P B3LYP/6-311+g(d) force
 -------------------------

 -----
 DPGEN
 -----
 Symbolic Z-matrix:
 Charge =  0 Multiplicity = 2

                         Standard orientation:
 ---------------------------------------------------------------------
 Center     Atomic      Atomic             Coordinates (Angstroms)
 Number     Number       Type             X           Y           Z
 ---------------------------------------------------------------------
      1         11           0       -0.792665   -2.684285    0.311169
      2         11           0       -0.744484    2.886986   -0.012049
      3         11           0        2.453214    1.547168    0.389652
      4         11           0        0.003379   -0.339507    1.930910
      5         11           0       -0.289137    0.064742   -1.714871
      6         11           0        2.629031   -1.454045   -0.708118
      7         11           0       -3.259337   -0.021060   -0.196694
 ---------------------------------------------------------------------

 SCF Done:  E(UB3LYP) =  -1136.13640052     A.U. after   20 cycles

 The electronic state is 2-A.
 Alpha  occ. eigenvalues --  -38.44303 -38.43646 -38.43628 -38.43527 -38.43369
 Alpha  occ. eigenvalues --  -38.43343 -38.43341  -2.20114  -2.19574  -2.19504
 Alpha  occ. eigenvalues --   -2.19400  -2.19307  -2.19262  -2.19173  -1.13803
 Alpha  occ. eigenvalues --   -1.13769  -1.13744  -1.13329  -1.13229  -1.13209
 Alpha  occ. eigenvalues --   -1.13178  -1.13175  -1.13131  -1.13066  -1.13051
 Alpha  occ. eigenvalues --   -1.13024  -1.12995  -1.12971  -1.12932  -1.12930
 Alpha  occ. eigenvalues --   -1.12897  -1.12857  -1.12845  -1.12833  -1.12798
 Alpha  occ. eigenvalues --   -0.18772  -0.13061  -0.12420  -0.10981
 Alpha virt. eigenvalues --   -0.05740  -0.04782  -0.04676  -0.03297  -0.03010
 Alpha virt. eigenvalues --   -0.02609  -0.01625  -0.00997  -0.00281  -0.00169
 Alpha virt. eigenvalues --    0.00032   0.00351   0.00824   0.00903   0.00924

  Beta  occ. eigenvalues --  -38.44298 -38.43626 -38.43540 -38.43520 -38.43356
  Beta  occ. eigenvalues --  -38.43341 -38.43278  -2.20109  -2.19470  -2.19412
  Beta  occ. eigenvalues --   -2.19389  -2.19244  -2.19188  -2.19175  -1.13787
  Beta  occ. eigenvalues --   -1.13764  -1.13741  -1.13231  -1.13199  -1.13137
  Beta  occ. eigenvalues --   -1.13118  -1.13102  -1.13069  -1.13043  -1.13032
  Beta  occ. eigenvalues --   -1.13010  -1.12927  -1.12917  -1.12883  -1.12861
  Beta  occ. eigenvalues --   -1.12849  -1.12840  -1.12829  -1.12814  -1.12791
  Beta  occ. eigenvalues --   -0.18054  -0.12803  -0.12146
  Beta virt. eigenvalues --   -0.07087  -0.05702  -0.04737  -0.04610  -0.02557
  Beta virt. eigenvalues --   -0.02233  -0.01605  -0.01504  -0.00914  -0.00271
  Beta virt. eigenvalues --   -0.00196   0.00127   0.00383   0.00855   0.00922

 Mulliken charges and spin densities:
               1          2
     1  Na   0.241847  -0.006582
     2  Na  -0.085093  -0.091840
     3  Na   0.085768   0.016493
     4  Na  -0.174417   0.562403
     5  Na  -0.132224   0.558161
     6  Na   0.055785   0.071226
     7  Na   0.008333  -0.109860
 Sum of Mulliken charges =  -0.00000   1.00000

 Dipole moment (field-independent basis, Debye):
    X=             -0.3844    Y=             -0.0199    Z=              0.0124  Tot=              0.3851
 Quadrupole moment (field-independent basis, Debye-Ang):
   XX=            -56.4166   YY=            -64.1212   ZZ=            -73.2476
   XY=             -0.3178   XZ=             -0.5405   YZ=              1.4860

 Normal termination of Gaussian 16 at Thu Dec  7 11:33:19 2023.
