 Gaussian 16, Revision B.01,
 Gaussian 16:  ES64L-G16RevB.01 20-Dec-2017

 -------------------------
 #P B3LYP/6-311+g(d) force
 -------------------------

 -----
 DPGEN
 -----
 Symbolic Z-matrix:
 Charge =  0 Multiplicity = 2

                         Standard orientation:
 ---------------------------------------------------------------------
 Center     Atomic      Atomic             Coordinates (Angstroms)
 Number     Number       Type             X           Y           Z
 ---------------------------------------------------------------------
      1         11           0       -2.757855   -1.321833    0.594436
      2         11           0       -0.804871    0.327562   -0.769879
      3         11           0        2.842891   -0.203512   -1.267977
      4         11           0        1.819509   -0.743946    1.747490
      5         11           0       -0.366975   -2.980218   -0.537930
      6         11           0        1.868707    2.295405    0.415162
      7         11           0       -2.601406    2.626543   -0.181301
 ---------------------------------------------------------------------

 SCF Done:  E(UB3LYP) =  -1136.12146447     A.U. after   21 cycles

 The electronic state is 2-A.
 Alpha  occ. eigenvalues --  -38.44654 -38.44453 -38.43915 -38.43858 -38.43601
 Alpha  occ. eigenvalues --  -38.43579 -38.42864  -2.20537  -2.20313  -2.19749
 Alpha  occ. eigenvalues --   -2.19726  -2.19491  -2.19438  -2.18923  -1.14295
 Alpha  occ. eigenvalues --   -1.14178  -1.14144  -1.14001  -1.13987  -1.13939
 Alpha  occ. eigenvalues --   -1.13456  -1.13420  -1.13402  -1.13377  -1.13374
 Alpha  occ. eigenvalues --   -1.13351  -1.13156  -1.13132  -1.13123  -1.13101
 Alpha  occ. eigenvalues --   -1.13086  -1.13074  -1.12619  -1.12577  -1.12548
 Alpha  occ. eigenvalues --   -0.18333  -0.13897  -0.12310  -0.09966
 Alpha virt. eigenvalues --   -0.06068  -0.05586  -0.04899  -0.03511  -0.02451
 Alpha virt. eigenvalues --   -0.01951  -0.01547  -0.01311  -0.00732  -0.00549
 Alpha virt. eigenvalues --   -0.00048   0.00324   0.00532   0.00691   0.00791

  Beta  occ. eigenvalues --  -38.44650 -38.44439 -38.43919 -38.43812 -38.43572
  Beta  occ. eigenvalues --  -38.43532 -38.42842  -2.20530  -2.20291  -2.19734
  Beta  occ. eigenvalues --   -2.19666  -2.19427  -2.19363  -2.18886  -1.14290
  Beta  occ. eigenvalues --   -1.14167  -1.14141  -1.13991  -1.13953  -1.13911
  Beta  occ. eigenvalues --   -1.13459  -1.13376  -1.13360  -1.13357  -1.13345
  Beta  occ. eigenvalues --   -1.13306  -1.13117  -1.13076  -1.13066  -1.13060
  Beta  occ. eigenvalues --   -1.13039  -1.13003  -1.12577  -1.12551  -1.12515
  Beta  occ. eigenvalues --   -0.17726  -0.13664  -0.12192
  Beta virt. eigenvalues --   -0.06161  -0.05910  -0.05386  -0.04840  -0.02886
  Beta virt. eigenvalues --   -0.01942  -0.01630  -0.01331  -0.00886  -0.00643
  Beta virt. eigenvalues --   -0.00428   0.00186   0.00418   0.00690   0.00748

 Mulliken charges and spin densities:
               1          2
     1  Na   0.085510  -0.105869
     2  Na  -1.260873   0.391366
     3  Na   0.500060   0.238220
     4  Na  -0.624040   0.350044
     5  Na   0.676861   0.076868
     6  Na   0.241860   0.143387
     7  Na   0.380622  -0.094017
 Sum of Mulliken charges =  -0.00000   1.00000

 Dipole moment (field-independent basis, Debye):
    X=             -0.3103    Y=              0.0644    Z=              0.2856  Tot=              0.4266
 Quadrupole moment (field-independent basis, Debye-Ang):
   XX=            -57.2070   YY=            -59.1393   ZZ=            -76.5186
   XY=              0.7044   XZ=             -3.4328   YZ=              0.8985

 Normal termination of Gaussian 16 at Thu Dec  7 06:00:37 2023.
