 Gaussian 16, Revision B.01,
 Gaussian 16:  ES64L-G16RevB.01 20-Dec-2017

 -------------------------
 #P B3LYP/6-311+g(d) force
 -------------------------

 -----
 DPGEN
 -----
 Symbolic Z-matrix:
 Charge =  0 Multiplicity = 2

                         Standard orientation:
 ---------------------------------------------------------------------
 Center     Atomic      Atomic             Coordinates (Angstroms)
 Number     Number       Type             X           Y           Z
 ---------------------------------------------------------------------
      1         11           0       -1.408275    2.060525   -0.286873
      2         11           0        5.558539    0.188648    0.280569
      3         11           0        2.684098    1.593815   -0.465971
      4         11           0        2.781705   -2.186245   -0.089483
      5         11           0       -0.346364   -1.258796   -0.112568
      6         11           0       -3.340807    0.332805    1.350454
      7         11           0       -5.928897   -0.730751   -0.676128
 ---------------------------------------------------------------------

 SCF Done:  E(UB3LYP) =  -1136.11335635     A.U. after   24 cycles

 The electronic state is 2-A.
 Alpha  occ. eigenvalues --  -38.44919 -38.44731 -38.44342 -38.44191 -38.44030
 Alpha  occ. eigenvalues --  -38.43936 -38.43650  -2.20726  -2.20571  -2.20192
 Alpha  occ. eigenvalues --   -2.20043  -2.19886  -2.19749  -2.19390  -1.14421
 Alpha  occ. eigenvalues --   -1.14388  -1.14332  -1.14249  -1.14239  -1.14167
 Alpha  occ. eigenvalues --   -1.13914  -1.13848  -1.13807  -1.13727  -1.13706
 Alpha  occ. eigenvalues --   -1.13653  -1.13577  -1.13539  -1.13476  -1.13415
 Alpha  occ. eigenvalues --   -1.13406  -1.13374  -1.13068  -1.13067  -1.13032
 Alpha  occ. eigenvalues --   -0.16965  -0.14534  -0.11871  -0.10901
 Alpha virt. eigenvalues --   -0.06704  -0.05607  -0.04552  -0.03696  -0.03274
 Alpha virt. eigenvalues --   -0.02468  -0.02021  -0.01484  -0.00926  -0.00803
 Alpha virt. eigenvalues --   -0.00346  -0.00070   0.00209   0.00314   0.00567

  Beta  occ. eigenvalues --  -38.44873 -38.44660 -38.44307 -38.44146 -38.44021
  Beta  occ. eigenvalues --  -38.43911 -38.43677  -2.20642  -2.20444  -2.20127
  Beta  occ. eigenvalues --   -2.19965  -2.19868  -2.19703  -2.19439  -1.14366
  Beta  occ. eigenvalues --   -1.14330  -1.14258  -1.14158  -1.14156  -1.14059
  Beta  occ. eigenvalues --   -1.13867  -1.13804  -1.13762  -1.13679  -1.13648
  Beta  occ. eigenvalues --   -1.13574  -1.13552  -1.13525  -1.13476  -1.13376
  Beta  occ. eigenvalues --   -1.13371  -1.13350  -1.13102  -1.13101  -1.13063
  Beta  occ. eigenvalues --   -0.16291  -0.14254  -0.10890
  Beta virt. eigenvalues --   -0.07833  -0.06522  -0.05033  -0.04383  -0.03496
  Beta virt. eigenvalues --   -0.02519  -0.02121  -0.01751  -0.01403  -0.00687
  Beta virt. eigenvalues --   -0.00488  -0.00250   0.00056   0.00335   0.00430

 Mulliken charges and spin densities:
               1          2
     1  Na   0.086654   0.303233
     2  Na   0.717646   0.060601
     3  Na  -0.584159   0.232413
     4  Na  -0.095118  -0.024373
     5  Na  -0.504684   0.431770
     6  Na   0.276992   0.135250
     7  Na   0.102668  -0.138894
 Sum of Mulliken charges =  -0.00000   1.00000

 Dipole moment (field-independent basis, Debye):
    X=              1.5860    Y=              0.1741    Z=             -0.1523  Tot=              1.6027
 Quadrupole moment (field-independent basis, Debye-Ang):
   XX=            -69.8091   YY=            -66.3520   ZZ=            -68.7653
   XY=             -2.9669   XZ=              3.8902   YZ=              0.1031

 Normal termination of Gaussian 16 at Tue Nov 28 22:30:54 2023.
