 Gaussian 16, Revision B.01,
 Gaussian 16:  ES64L-G16RevB.01 20-Dec-2017

 -------------------------
 #P B3LYP/6-311+g(d) force
 -------------------------

 -----
 DPGEN
 -----
 Symbolic Z-matrix:
 Charge =  0 Multiplicity = 2

                         Standard orientation:
 ---------------------------------------------------------------------
 Center     Atomic      Atomic             Coordinates (Angstroms)
 Number     Number       Type             X           Y           Z
 ---------------------------------------------------------------------
      1         11           0        2.086134   -1.058194    1.014632
      2         11           0        2.307118    2.454942    1.136796
      3         11           0       -1.033290   -2.120042   -0.555605
      4         11           0       -3.525087    1.287074   -0.545267
      5         11           0       -0.462043    1.351870   -1.323876
      6         11           0       -1.484231   -0.989937    2.342946
      7         11           0        2.111399   -0.925713   -2.069627
 ---------------------------------------------------------------------

 SCF Done:  E(UB3LYP) =  -1136.12253557     A.U. after   22 cycles

 The electronic state is 2-A.
 Alpha  occ. eigenvalues --  -38.44615 -38.44603 -38.44040 -38.43863 -38.43852
 Alpha  occ. eigenvalues --  -38.43780 -38.42919  -2.20470  -2.20399  -2.19860
 Alpha  occ. eigenvalues --   -2.19727  -2.19652  -2.19643  -2.18784  -1.14155
 Alpha  occ. eigenvalues --   -1.14123  -1.14072  -1.14057  -1.14041  -1.14014
 Alpha  occ. eigenvalues --   -1.13561  -1.13519  -1.13474  -1.13427  -1.13401
 Alpha  occ. eigenvalues --   -1.13339  -1.13336  -1.13323  -1.13317  -1.13298
 Alpha  occ. eigenvalues --   -1.13281  -1.13254  -1.12471  -1.12463  -1.12408
 Alpha  occ. eigenvalues --   -0.17972  -0.13010  -0.12011  -0.11468
 Alpha virt. eigenvalues --   -0.05840  -0.05120  -0.04895  -0.03335  -0.03047
 Alpha virt. eigenvalues --   -0.02930  -0.01597  -0.00977  -0.00823  -0.00011
 Alpha virt. eigenvalues --    0.00151   0.00237   0.00360   0.00424   0.00701

  Beta  occ. eigenvalues --  -38.44546 -38.44542 -38.44001 -38.43866 -38.43837
  Beta  occ. eigenvalues --  -38.43774 -38.42907  -2.20358  -2.20271  -2.19788
  Beta  occ. eigenvalues --   -2.19703  -2.19658  -2.19637  -2.18765  -1.14086
  Beta  occ. eigenvalues --   -1.14037  -1.13993  -1.13963  -1.13952  -1.13934
  Beta  occ. eigenvalues --   -1.13521  -1.13466  -1.13422  -1.13394  -1.13373
  Beta  occ. eigenvalues --   -1.13342  -1.13329  -1.13319  -1.13309  -1.13287
  Beta  occ. eigenvalues --   -1.13266  -1.13249  -1.12456  -1.12432  -1.12400
  Beta  occ. eigenvalues --   -0.17250  -0.12751  -0.11234
  Beta virt. eigenvalues --   -0.08185  -0.05712  -0.04572  -0.04471  -0.03135
  Beta virt. eigenvalues --   -0.02597  -0.02238  -0.01512  -0.00754  -0.00503
  Beta virt. eigenvalues --    0.00131   0.00235   0.00291   0.00474   0.00533

 Mulliken charges and spin densities:
               1          2
     1  Na   0.180930   0.208538
     2  Na  -0.084638   0.185217
     3  Na  -0.051923   0.113805
     4  Na   0.165069  -0.138202
     5  Na  -0.579829   0.173053
     6  Na  -0.008070   0.196213
     7  Na   0.378462   0.261375
 Sum of Mulliken charges =  -0.00000   1.00000

 Dipole moment (field-independent basis, Debye):
    X=              0.2001    Y=             -0.1492    Z=              0.2600  Tot=              0.3604
 Quadrupole moment (field-independent basis, Debye-Ang):
   XX=            -59.4139   YY=            -72.1761   ZZ=            -64.4058
   XY=              0.1394   XZ=             -2.2516   YZ=              6.5822

 Normal termination of Gaussian 16 at Mon Dec  4 04:37:54 2023.
