 Gaussian 16, Revision B.01,
 Gaussian 16:  ES64L-G16RevB.01 20-Dec-2017

 -------------------------
 #P B3LYP/6-311+g(d) force
 -------------------------

 -----
 DPGEN
 -----
 Symbolic Z-matrix:
 Charge =  0 Multiplicity = 2

                         Standard orientation:
 ---------------------------------------------------------------------
 Center     Atomic      Atomic             Coordinates (Angstroms)
 Number     Number       Type             X           Y           Z
 ---------------------------------------------------------------------
      1         11           0       -1.161522    0.210979    1.219638
      2         11           0        2.455497    0.559982    0.888578
      3         11           0        0.699004   -2.419844    0.028597
      4         11           0       -3.923697    1.159900   -0.675106
      5         11           0       -2.908323   -2.060001   -0.301456
      6         11           0        4.774603   -0.221394   -0.899360
      7         11           0        0.064439    2.770378   -0.260890
 ---------------------------------------------------------------------

 SCF Done:  E(UB3LYP) =  -1136.12429300     A.U. after   19 cycles

 The electronic state is 2-A.
 Alpha  occ. eigenvalues --  -38.44623 -38.44459 -38.43786 -38.43691 -38.43578
 Alpha  occ. eigenvalues --  -38.43482 -38.43442  -2.20459  -2.20278  -2.19629
 Alpha  occ. eigenvalues --   -2.19543  -2.19505  -2.19380  -2.19263  -1.14137
 Alpha  occ. eigenvalues --   -1.14079  -1.14064  -1.13941  -1.13926  -1.13895
 Alpha  occ. eigenvalues --   -1.13346  -1.13306  -1.13260  -1.13251  -1.13218
 Alpha  occ. eigenvalues --   -1.13183  -1.13181  -1.13154  -1.13106  -1.13080
 Alpha  occ. eigenvalues --   -1.13047  -1.13019  -1.12929  -1.12919  -1.12883
 Alpha  occ. eigenvalues --   -0.17513  -0.14364  -0.11757  -0.11255
 Alpha virt. eigenvalues --   -0.05548  -0.05463  -0.04918  -0.03643  -0.02476
 Alpha virt. eigenvalues --   -0.02240  -0.01974  -0.01401  -0.00735  -0.00393
 Alpha virt. eigenvalues --   -0.00342   0.00145   0.00434   0.00538   0.00591

  Beta  occ. eigenvalues --  -38.44524 -38.44398 -38.43780 -38.43669 -38.43552
  Beta  occ. eigenvalues --  -38.43472 -38.43436  -2.20274  -2.20166  -2.19621
  Beta  occ. eigenvalues --   -2.19500  -2.19467  -2.19372  -2.19252  -1.14013
  Beta  occ. eigenvalues --   -1.13953  -1.13940  -1.13865  -1.13852  -1.13815
  Beta  occ. eigenvalues --   -1.13343  -1.13304  -1.13228  -1.13216  -1.13177
  Beta  occ. eigenvalues --   -1.13157  -1.13142  -1.13121  -1.13082  -1.13066
  Beta  occ. eigenvalues --   -1.13027  -1.12983  -1.12923  -1.12905  -1.12876
  Beta  occ. eigenvalues --   -0.16936  -0.13445  -0.11559
  Beta virt. eigenvalues --   -0.07752  -0.05417  -0.05326  -0.04227  -0.03509
  Beta virt. eigenvalues --   -0.02152  -0.01820  -0.01399  -0.01172  -0.00585
  Beta virt. eigenvalues --   -0.00313  -0.00117   0.00315   0.00524   0.00626

 Mulliken charges and spin densities:
               1          2
     1  Na   0.310508  -0.135394
     2  Na  -0.166524   0.058627
     3  Na  -0.273700   0.051234
     4  Na   0.028854   0.400202
     5  Na   0.079262   0.157445
     6  Na   0.194764   0.434590
     7  Na  -0.173164   0.033296
 Sum of Mulliken charges =  -0.00000   1.00000

 Dipole moment (field-independent basis, Debye):
    X=             -0.4001    Y=             -0.0232    Z=             -0.8440  Tot=              0.9343
 Quadrupole moment (field-independent basis, Debye-Ang):
   XX=            -60.7108   YY=            -69.1287   ZZ=            -67.0489
   XY=             -0.9030   XZ=             -0.6310   YZ=             -0.5540

 Normal termination of Gaussian 16 at Tue Nov 28 21:20:29 2023.
