 Gaussian 16, Revision B.01,
 Gaussian 16:  ES64L-G16RevB.01 20-Dec-2017

 -------------------------
 #P B3LYP/6-311+g(d) force
 -------------------------

 -----
 DPGEN
 -----
 Symbolic Z-matrix:
 Charge =  0 Multiplicity = 2

                         Standard orientation:
 ---------------------------------------------------------------------
 Center     Atomic      Atomic             Coordinates (Angstroms)
 Number     Number       Type             X           Y           Z
 ---------------------------------------------------------------------
      1         11           0       -0.102835    3.002199   -0.105103
      2         11           0       -3.088802    0.908514   -0.040513
      3         11           0       -0.522601   -0.301708   -1.527659
      4         11           0        2.826355    1.268291   -0.177784
      5         11           0        0.673426   -0.101413    1.980034
      6         11           0       -1.948155   -2.376519    0.361563
      7         11           0        2.162613   -2.399365   -0.490539
 ---------------------------------------------------------------------

 SCF Done:  E(UB3LYP) =  -1136.13591616     A.U. after   19 cycles

 The electronic state is 2-A.
 Alpha  occ. eigenvalues --  -38.44067 -38.44048 -38.44008 -38.43901 -38.43392
 Alpha  occ. eigenvalues --  -38.43375 -38.43150  -2.19901  -2.19882  -2.19846
 Alpha  occ. eigenvalues --   -2.19701  -2.19273  -2.19201  -2.19115  -1.13603
 Alpha  occ. eigenvalues --   -1.13568  -1.13566  -1.13550  -1.13548  -1.13532
 Alpha  occ. eigenvalues --   -1.13516  -1.13500  -1.13459  -1.13374  -1.13352
 Alpha  occ. eigenvalues --   -1.13341  -1.12944  -1.12904  -1.12891  -1.12881
 Alpha  occ. eigenvalues --   -1.12865  -1.12839  -1.12802  -1.12754  -1.12735
 Alpha  occ. eigenvalues --   -0.18323  -0.13171  -0.12405  -0.10323
 Alpha virt. eigenvalues --   -0.05711  -0.05500  -0.04895  -0.03226  -0.02767
 Alpha virt. eigenvalues --   -0.02205  -0.01557  -0.01321  -0.00644  -0.00528
 Alpha virt. eigenvalues --   -0.00006   0.00346   0.00774   0.00803   0.00839

  Beta  occ. eigenvalues --  -38.44065 -38.44043 -38.43999 -38.43886 -38.43373
  Beta  occ. eigenvalues --  -38.43306 -38.43099  -2.19901  -2.19878  -2.19831
  Beta  occ. eigenvalues --   -2.19675  -2.19200  -2.19113  -2.19022  -1.13599
  Beta  occ. eigenvalues --   -1.13558  -1.13550  -1.13548  -1.13536  -1.13525
  Beta  occ. eigenvalues --   -1.13510  -1.13472  -1.13453  -1.13343  -1.13331
  Beta  occ. eigenvalues --   -1.13325  -1.12878  -1.12862  -1.12836  -1.12831
  Beta  occ. eigenvalues --   -1.12792  -1.12773  -1.12731  -1.12692  -1.12664
  Beta  occ. eigenvalues --   -0.17651  -0.12961  -0.12166
  Beta virt. eigenvalues --   -0.06519  -0.05678  -0.05420  -0.04805  -0.02489
  Beta virt. eigenvalues --   -0.02076  -0.01451  -0.01247  -0.01210  -0.00681
  Beta virt. eigenvalues --   -0.00560   0.00155   0.00396   0.00803   0.00841

 Mulliken charges and spin densities:
               1          2
     1  Na  -0.045708  -0.091920
     2  Na   0.156726  -0.026892
     3  Na  -0.087233   0.455544
     4  Na   0.180832   0.000864
     5  Na  -0.351864   0.685081
     6  Na   0.102012  -0.010694
     7  Na   0.045235  -0.011983
 Sum of Mulliken charges =  -0.00000   1.00000

 Dipole moment (field-independent basis, Debye):
    X=             -0.0936    Y=             -0.1695    Z=              0.0980  Tot=              0.2170
 Quadrupole moment (field-independent basis, Debye-Ang):
   XX=            -55.7503   YY=            -61.0136   ZZ=            -76.0672
   XY=             -0.1274   XZ=             -2.3552   YZ=             -0.4543

 Normal termination of Gaussian 16 at Thu Dec  7 04:36:08 2023.
