 Gaussian 16, Revision B.01,
 Gaussian 16:  ES64L-G16RevB.01 20-Dec-2017

 -------------------------
 #P B3LYP/6-311+g(d) force
 -------------------------

 -----
 DPGEN
 -----
 Symbolic Z-matrix:
 Charge =  0 Multiplicity = 2

                         Standard orientation:
 ---------------------------------------------------------------------
 Center     Atomic      Atomic             Coordinates (Angstroms)
 Number     Number       Type             X           Y           Z
 ---------------------------------------------------------------------
      1         11           0       -2.716536    1.242243   -0.303107
      2         11           0       -2.350122   -1.956579   -0.054045
      3         11           0       -0.155817   -0.303591    1.827112
      4         11           0        0.256678   -0.035887   -1.639052
      5         11           0        0.324908    2.820870    0.285392
      6         11           0        3.000246    0.530221   -0.108068
      7         11           0        1.640644   -2.297275   -0.008232
 ---------------------------------------------------------------------

 SCF Done:  E(UB3LYP) =  -1136.13668239     A.U. after   19 cycles

 The electronic state is 2-A.
 Alpha  occ. eigenvalues --  -38.44055 -38.43849 -38.43692 -38.43437 -38.43165
 Alpha  occ. eigenvalues --  -38.43164 -38.42961  -2.19950  -2.19718  -2.19554
 Alpha  occ. eigenvalues --   -2.19363  -2.19184  -2.19134  -2.18824  -1.13655
 Alpha  occ. eigenvalues --   -1.13612  -1.13584  -1.13410  -1.13384  -1.13367
 Alpha  occ. eigenvalues --   -1.13229  -1.13209  -1.13184  -1.13100  -1.13039
 Alpha  occ. eigenvalues --   -1.12980  -1.12870  -1.12806  -1.12801  -1.12793
 Alpha  occ. eigenvalues --   -1.12753  -1.12748  -1.12497  -1.12487  -1.12462
 Alpha  occ. eigenvalues --   -0.19176  -0.13520  -0.12374  -0.10700
 Alpha virt. eigenvalues --   -0.05656  -0.05229  -0.04442  -0.03336  -0.02740
 Alpha virt. eigenvalues --   -0.02315  -0.01579  -0.01053  -0.00227  -0.00186
 Alpha virt. eigenvalues --    0.00030   0.00364   0.00803   0.00905   0.00924

  Beta  occ. eigenvalues --  -38.44049 -38.43842 -38.43688 -38.43428 -38.43096
  Beta  occ. eigenvalues --  -38.43078 -38.42954  -2.19943  -2.19708  -2.19550
  Beta  occ. eigenvalues --   -2.19352  -2.19061  -2.18975  -2.18815  -1.13648
  Beta  occ. eigenvalues --   -1.13602  -1.13563  -1.13405  -1.13369  -1.13348
  Beta  occ. eigenvalues --   -1.13219  -1.13193  -1.13179  -1.13085  -1.12997
  Beta  occ. eigenvalues --   -1.12970  -1.12787  -1.12719  -1.12712  -1.12694
  Beta  occ. eigenvalues --   -1.12641  -1.12633  -1.12490  -1.12461  -1.12455
  Beta  occ. eigenvalues --   -0.18445  -0.13242  -0.12118
  Beta virt. eigenvalues --   -0.06783  -0.05603  -0.05233  -0.04428  -0.02502
  Beta virt. eigenvalues --   -0.01969  -0.01484  -0.01277  -0.00996  -0.00288
  Beta virt. eigenvalues --   -0.00208   0.00153   0.00390   0.00864   0.00894

 Mulliken charges and spin densities:
               1          2
     1  Na   0.025590  -0.008095
     2  Na   0.199375  -0.098728
     3  Na  -0.429871   0.740591
     4  Na  -0.399144   0.514280
     5  Na   0.024618  -0.046894
     6  Na   0.235763  -0.000915
     7  Na   0.343669  -0.100239
 Sum of Mulliken charges =  -0.00000   1.00000

 Dipole moment (field-independent basis, Debye):
    X=             -0.0231    Y=             -0.0892    Z=              0.0440  Tot=              0.1021
 Quadrupole moment (field-independent basis, Debye-Ang):
   XX=            -55.0248   YY=            -63.4955   ZZ=            -74.7175
   XY=              0.4509   XZ=              0.9178   YZ=              0.5015

 Normal termination of Gaussian 16 at Thu Dec  7 19:39:17 2023.
