 Gaussian 16, Revision B.01,
 Gaussian 16:  ES64L-G16RevB.01 20-Dec-2017

 -------------------------
 #P B3LYP/6-311+g(d) force
 -------------------------

 -----
 DPGEN
 -----
 Symbolic Z-matrix:
 Charge =  0 Multiplicity = 2

                         Standard orientation:
 ---------------------------------------------------------------------
 Center     Atomic      Atomic             Coordinates (Angstroms)
 Number     Number       Type             X           Y           Z
 ---------------------------------------------------------------------
      1         11           0       -2.275998   -0.200559    1.402911
      2         11           0       -3.631188    0.661830   -1.094896
      3         11           0        2.085972    4.125136    0.467166
      4         11           0        3.493866   -2.038187   -0.775641
      5         11           0       -0.298317   -1.545159   -1.791008
      6         11           0        0.241212   -2.706450    1.886912
      7         11           0        0.384453    1.703389   -0.095445
 ---------------------------------------------------------------------

 SCF Done:  E(UB3LYP) =  -1136.11140200     A.U. after   22 cycles

 The electronic state is 2-A.
 Alpha  occ. eigenvalues --  -38.45556 -38.45422 -38.44712 -38.44669 -38.44309
 Alpha  occ. eigenvalues --  -38.42806 -38.42726  -2.21274  -2.21198  -2.20505
 Alpha  occ. eigenvalues --   -2.20500  -2.20195  -2.18612  -2.18576  -1.14945
 Alpha  occ. eigenvalues --   -1.14938  -1.14901  -1.14890  -1.14868  -1.14781
 Alpha  occ. eigenvalues --   -1.14249  -1.14169  -1.14162  -1.14137  -1.14124
 Alpha  occ. eigenvalues --   -1.14105  -1.13863  -1.13834  -1.13812  -1.12394
 Alpha  occ. eigenvalues --   -1.12274  -1.12261  -1.12243  -1.12215  -1.12138
 Alpha  occ. eigenvalues --   -0.17352  -0.12902  -0.11922  -0.11215
 Alpha virt. eigenvalues --   -0.07000  -0.05754  -0.04575  -0.03085  -0.03000
 Alpha virt. eigenvalues --   -0.02579  -0.02140  -0.01379  -0.01152  -0.00443
 Alpha virt. eigenvalues --   -0.00225  -0.00028   0.00132   0.00423   0.00436

  Beta  occ. eigenvalues --  -38.45536 -38.45385 -38.44650 -38.44632 -38.44280
  Beta  occ. eigenvalues --  -38.42808 -38.42722  -2.21238  -2.21129  -2.20464
  Beta  occ. eigenvalues --   -2.20361  -2.20145  -2.18614  -2.18571  -1.14917
  Beta  occ. eigenvalues --   -1.14912  -1.14868  -1.14852  -1.14815  -1.14727
  Beta  occ. eigenvalues --   -1.14226  -1.14112  -1.14093  -1.14074  -1.14060
  Beta  occ. eigenvalues --   -1.13995  -1.13832  -1.13803  -1.13749  -1.12394
  Beta  occ. eigenvalues --   -1.12268  -1.12262  -1.12236  -1.12213  -1.12137
  Beta  occ. eigenvalues --   -0.16694  -0.12676  -0.11606
  Beta virt. eigenvalues --   -0.07562  -0.06732  -0.05436  -0.04127  -0.02929
  Beta virt. eigenvalues --   -0.02398  -0.02301  -0.01731  -0.01255  -0.00773
  Beta virt. eigenvalues --   -0.00372  -0.00048   0.00059   0.00188   0.00474

 Mulliken charges and spin densities:
               1          2
     1  Na   0.266720   0.109639
     2  Na   0.984014   0.104284
     3  Na  -0.496446   0.086108
     4  Na   0.024827   0.104736
     5  Na   0.392069   0.274215
     6  Na   0.002234   0.265096
     7  Na  -1.173418   0.055921
 Sum of Mulliken charges =  -0.00000   1.00000

 Dipole moment (field-independent basis, Debye):
    X=             -0.2109    Y=             -1.7680    Z=             -0.5300  Tot=              1.8578
 Quadrupole moment (field-independent basis, Debye-Ang):
   XX=            -54.4743   YY=            -71.2755   ZZ=            -68.8844
   XY=             -5.6803   XZ=              2.6722   YZ=             -0.3743

 Normal termination of Gaussian 16 at Sun Dec  3 21:04:21 2023.
