 Gaussian 16, Revision B.01,
 Gaussian 16:  ES64L-G16RevB.01 20-Dec-2017

 -------------------------
 #P B3LYP/6-311+g(d) force
 -------------------------

 -----
 DPGEN
 -----
 Symbolic Z-matrix:
 Charge =  0 Multiplicity = 2

                         Standard orientation:
 ---------------------------------------------------------------------
 Center     Atomic      Atomic             Coordinates (Angstroms)
 Number     Number       Type             X           Y           Z
 ---------------------------------------------------------------------
      1         11           0        3.533237    0.621123   -0.990081
      2         11           0       -0.149377   -0.484159   -1.518309
      3         11           0       -1.237977   -0.719573    1.784516
      4         11           0        2.295527   -2.018010    0.382754
      5         11           0       -1.907331    1.996769   -0.257498
      6         11           0        1.280043    1.489223    1.255167
      7         11           0       -3.814122   -0.885372   -0.656549
 ---------------------------------------------------------------------

 SCF Done:  E(UB3LYP) =  -1136.12279637     A.U. after   29 cycles

 The electronic state is 2-A.
 Alpha  occ. eigenvalues --  -38.44818 -38.44676 -38.44324 -38.43986 -38.43749
 Alpha  occ. eigenvalues --  -38.43542 -38.42326  -2.20668  -2.20560  -2.20118
 Alpha  occ. eigenvalues --   -2.19895  -2.19603  -2.19427  -2.18234  -1.14340
 Alpha  occ. eigenvalues --   -1.14311  -1.14301  -1.14274  -1.14234  -1.14157
 Alpha  occ. eigenvalues --   -1.13801  -1.13793  -1.13760  -1.13580  -1.13524
 Alpha  occ. eigenvalues --   -1.13505  -1.13276  -1.13259  -1.13244  -1.13135
 Alpha  occ. eigenvalues --   -1.13086  -1.13023  -1.11923  -1.11905  -1.11853
 Alpha  occ. eigenvalues --   -0.18670  -0.14363  -0.11211  -0.10722
 Alpha virt. eigenvalues --   -0.07004  -0.05317  -0.04612  -0.02960  -0.02882
 Alpha virt. eigenvalues --   -0.02352  -0.02287  -0.01072  -0.00932  -0.00276
 Alpha virt. eigenvalues --    0.00081   0.00232   0.00336   0.00600   0.00762

  Beta  occ. eigenvalues --  -38.44785 -38.44637 -38.44346 -38.43908 -38.43729
  Beta  occ. eigenvalues --  -38.43531 -38.42304  -2.20607  -2.20492  -2.20162
  Beta  occ. eigenvalues --   -2.19754  -2.19568  -2.19406  -2.18197  -1.14300
  Beta  occ. eigenvalues --   -1.14268  -1.14255  -1.14214  -1.14175  -1.14110
  Beta  occ. eigenvalues --   -1.13830  -1.13816  -1.13786  -1.13487  -1.13415
  Beta  occ. eigenvalues --   -1.13405  -1.13250  -1.13237  -1.13196  -1.13119
  Beta  occ. eigenvalues --   -1.13068  -1.13007  -1.11895  -1.11847  -1.11840
  Beta  occ. eigenvalues --   -0.17925  -0.14190  -0.10533
  Beta virt. eigenvalues --   -0.07365  -0.06772  -0.05060  -0.04185  -0.02773
  Beta virt. eigenvalues --   -0.02595  -0.01706  -0.01597  -0.00897  -0.00585
  Beta virt. eigenvalues --   -0.00255   0.00121   0.00263   0.00424   0.00674

 Mulliken charges and spin densities:
               1          2
     1  Na   0.333829  -0.002955
     2  Na  -0.447542   0.363736
     3  Na  -0.204617   0.380628
     4  Na   0.042658   0.110911
     5  Na  -0.043068   0.035100
     6  Na  -0.028894   0.245491
     7  Na   0.347635  -0.132911
 Sum of Mulliken charges =  -0.00000   1.00000

 Dipole moment (field-independent basis, Debye):
    X=             -0.0746    Y=              0.1486    Z=             -0.2190  Tot=              0.2749
 Quadrupole moment (field-independent basis, Debye-Ang):
   XX=            -50.7409   YY=            -74.6764   ZZ=            -69.7563
   XY=              0.5117   XZ=             -1.0451   YZ=             -5.1681

 Normal termination of Gaussian 16 at Wed Dec  6 00:32:09 2023.
