 Gaussian 16, Revision B.01,
 Gaussian 16:  ES64L-G16RevB.01 20-Dec-2017

 -------------------------
 #P B3LYP/6-311+g(d) force
 -------------------------

 -----
 DPGEN
 -----
 Symbolic Z-matrix:
 Charge =  0 Multiplicity = 2

                         Standard orientation:
 ---------------------------------------------------------------------
 Center     Atomic      Atomic             Coordinates (Angstroms)
 Number     Number       Type             X           Y           Z
 ---------------------------------------------------------------------
      1         11           0       -4.892173   -1.714040   -1.067129
      2         11           0        0.034381    0.977891   -0.346554
      3         11           0       -3.761257   -0.480132    1.702466
      4         11           0       -3.768025    1.871073   -0.193729
      5         11           0        5.926303   -0.968697    0.284116
      6         11           0        2.798038   -1.638019   -0.196386
      7         11           0        3.662733    1.951924   -0.182785
 ---------------------------------------------------------------------

 SCF Done:  E(UB3LYP) =  -1136.10180510     A.U. after   27 cycles

 The electronic state is 2-A.
 Alpha  occ. eigenvalues --  -38.46242 -38.45642 -38.45183 -38.44164 -38.43704
 Alpha  occ. eigenvalues --  -38.42439 -38.42142  -2.21997  -2.21446  -2.21033
 Alpha  occ. eigenvalues --   -2.20029  -2.19542  -2.18272  -2.17929  -1.15699
 Alpha  occ. eigenvalues --   -1.15645  -1.15603  -1.15145  -1.15105  -1.15058
 Alpha  occ. eigenvalues --   -1.14741  -1.14691  -1.14672  -1.13703  -1.13658
 Alpha  occ. eigenvalues --   -1.13634  -1.13193  -1.13181  -1.13154  -1.11938
 Alpha  occ. eigenvalues --   -1.11925  -1.11914  -1.11628  -1.11620  -1.11551
 Alpha  occ. eigenvalues --   -0.16141  -0.15171  -0.11113  -0.09750
 Alpha virt. eigenvalues --   -0.07287  -0.06136  -0.04675  -0.03385  -0.02821
 Alpha virt. eigenvalues --   -0.02297  -0.02004  -0.01594  -0.01501  -0.00816
 Alpha virt. eigenvalues --   -0.00396  -0.00233   0.00072   0.00152   0.00419

  Beta  occ. eigenvalues --  -38.46237 -38.45640 -38.45179 -38.44093 -38.43616
  Beta  occ. eigenvalues --  -38.42417 -38.42145  -2.21988  -2.21443  -2.21033
  Beta  occ. eigenvalues --   -2.19898  -2.19377  -2.18229  -2.17939  -1.15693
  Beta  occ. eigenvalues --   -1.15640  -1.15593  -1.15145  -1.15106  -1.15042
  Beta  occ. eigenvalues --   -1.14733  -1.14693  -1.14636  -1.13612  -1.13570
  Beta  occ. eigenvalues --   -1.13542  -1.13077  -1.13069  -1.13046  -1.11910
  Beta  occ. eigenvalues --   -1.11895  -1.11887  -1.11637  -1.11629  -1.11535
  Beta  occ. eigenvalues --   -0.15691  -0.14788  -0.10521
  Beta virt. eigenvalues --   -0.07241  -0.06370  -0.05858  -0.04315  -0.03317
  Beta virt. eigenvalues --   -0.02626  -0.02192  -0.01543  -0.01318  -0.01056
  Beta virt. eigenvalues --   -0.00482  -0.00185   0.00088   0.00154   0.00219

 Mulliken charges and spin densities:
               1          2
     1  Na  -0.062160   0.443107
     2  Na  -1.167083   0.047234
     3  Na   0.130530   0.155964
     4  Na   0.023020   0.360511
     5  Na  -0.092063   0.214236
     6  Na   0.447685  -0.138820
     7  Na   0.720072  -0.082233
 Sum of Mulliken charges =  -0.00000   1.00000

 Dipole moment (field-independent basis, Debye):
    X=              0.2791    Y=              0.7765    Z=              0.3583  Tot=              0.8995
 Quadrupole moment (field-independent basis, Debye-Ang):
   XX=            -76.3276   YY=            -66.9202   ZZ=            -66.6818
   XY=              5.8995   XZ=             -0.5689   YZ=             -3.1803

 Normal termination of Gaussian 16 at Fri Dec  8 18:19:31 2023.
