 Gaussian 16, Revision B.01,
 Gaussian 16:  ES64L-G16RevB.01 20-Dec-2017

 -------------------------
 #P B3LYP/6-311+g(d) force
 -------------------------

 -----
 DPGEN
 -----
 Symbolic Z-matrix:
 Charge =  0 Multiplicity = 2

                         Standard orientation:
 ---------------------------------------------------------------------
 Center     Atomic      Atomic             Coordinates (Angstroms)
 Number     Number       Type             X           Y           Z
 ---------------------------------------------------------------------
      1         11           0        0.980659   -2.207290   -0.232897
      2         11           0        2.332004    1.149982    0.253554
      3         11           0       -1.265466    1.038050    0.564415
      4         11           0       -2.106549   -2.306078    0.516362
      5         11           0       -4.249281   -0.258866   -0.623613
      6         11           0        0.201391    4.038902   -0.192459
      7         11           0        4.107243   -1.454700   -0.285363
 ---------------------------------------------------------------------

 SCF Done:  E(UB3LYP) =  -1136.12990156     A.U. after   19 cycles

 The electronic state is 2-A.
 Alpha  occ. eigenvalues --  -38.44090 -38.43992 -38.43975 -38.43685 -38.43669
 Alpha  occ. eigenvalues --  -38.43478 -38.43459  -2.19948  -2.19839  -2.19783
 Alpha  occ. eigenvalues --   -2.19595  -2.19534  -2.19379  -2.19332  -1.13660
 Alpha  occ. eigenvalues --   -1.13646  -1.13560  -1.13555  -1.13541  -1.13472
 Alpha  occ. eigenvalues --   -1.13449  -1.13434  -1.13387  -1.13319  -1.13270
 Alpha  occ. eigenvalues --   -1.13250  -1.13172  -1.13164  -1.13119  -1.13060
 Alpha  occ. eigenvalues --   -1.13043  -1.13040  -1.12982  -1.12966  -1.12916
 Alpha  occ. eigenvalues --   -0.17380  -0.14256  -0.12959  -0.10405
 Alpha virt. eigenvalues --   -0.05965  -0.05467  -0.04657  -0.03607  -0.02342
 Alpha virt. eigenvalues --   -0.02249  -0.01717  -0.01575  -0.01272  -0.00809
 Alpha virt. eigenvalues --   -0.00016   0.00142   0.00617   0.00658   0.00701

  Beta  occ. eigenvalues --  -38.44078 -38.43996 -38.43970 -38.43655 -38.43586
  Beta  occ. eigenvalues --  -38.43433 -38.43416  -2.19930  -2.19832  -2.19790
  Beta  occ. eigenvalues --   -2.19549  -2.19377  -2.19304  -2.19251  -1.13642
  Beta  occ. eigenvalues --   -1.13637  -1.13550  -1.13533  -1.13518  -1.13471
  Beta  occ. eigenvalues --   -1.13454  -1.13435  -1.13389  -1.13242  -1.13231
  Beta  occ. eigenvalues --   -1.13213  -1.13064  -1.13056  -1.13030  -1.13007
  Beta  occ. eigenvalues --   -1.12996  -1.12977  -1.12919  -1.12911  -1.12849
  Beta  occ. eigenvalues --   -0.16847  -0.13633  -0.12677
  Beta virt. eigenvalues --   -0.06728  -0.05779  -0.05369  -0.04391  -0.03029
  Beta virt. eigenvalues --   -0.02118  -0.02062  -0.01571  -0.01203  -0.01040
  Beta virt. eigenvalues --   -0.00387   0.00232   0.00447   0.00669   0.00751

 Mulliken charges and spin densities:
               1          2
     1  Na  -0.495018   0.220559
     2  Na  -0.786783   0.105177
     3  Na  -1.320535   0.057280
     4  Na   0.148492  -0.089460
     5  Na   0.685510   0.387520
     6  Na   0.899702  -0.009450
     7  Na   0.868632   0.328375
 Sum of Mulliken charges =  -0.00000   1.00000

 Dipole moment (field-independent basis, Debye):
    X=              0.2304    Y=              0.4266    Z=             -0.2390  Tot=              0.5406
 Quadrupole moment (field-independent basis, Debye-Ang):
   XX=            -67.2430   YY=            -58.8378   ZZ=            -70.6338
   XY=              0.5567   XZ=              0.2248   YZ=             -1.1687

 Normal termination of Gaussian 16 at Tue Nov 28 22:51:32 2023.
