 Gaussian 16, Revision B.01,
 Gaussian 16:  ES64L-G16RevB.01 20-Dec-2017

 -------------------------
 #P B3LYP/6-311+g(d) force
 -------------------------

 -----
 DPGEN
 -----
 Symbolic Z-matrix:
 Charge =  0 Multiplicity = 2

                         Standard orientation:
 ---------------------------------------------------------------------
 Center     Atomic      Atomic             Coordinates (Angstroms)
 Number     Number       Type             X           Y           Z
 ---------------------------------------------------------------------
      1         11           0        0.219441    1.588463   -0.156772
      2         11           0        2.637873    3.469664   -0.459552
      3         11           0        3.214459    0.104059    1.090038
      4         11           0        2.858656   -2.905010   -0.879684
      5         11           0        0.077395   -2.009012    0.544048
      6         11           0       -3.081412   -1.000498   -0.211931
      7         11           0       -5.926411    0.752333    0.073853
 ---------------------------------------------------------------------

 SCF Done:  E(UB3LYP) =  -1136.12187531     A.U. after   19 cycles

 The electronic state is 2-A.
 Alpha  occ. eigenvalues --  -38.45140 -38.44326 -38.44279 -38.44246 -38.43933
 Alpha  occ. eigenvalues --  -38.43483 -38.42962  -2.20945  -2.20178  -2.20099
 Alpha  occ. eigenvalues --   -2.20054  -2.19740  -2.19367  -2.18772  -1.14653
 Alpha  occ. eigenvalues --   -1.14623  -1.14526  -1.13896  -1.13860  -1.13855
 Alpha  occ. eigenvalues --   -1.13752  -1.13738  -1.13728  -1.13713  -1.13679
 Alpha  occ. eigenvalues --   -1.13673  -1.13372  -1.13371  -1.13360  -1.13057
 Alpha  occ. eigenvalues --   -1.13039  -1.12974  -1.12459  -1.12450  -1.12425
 Alpha  occ. eigenvalues --   -0.17019  -0.13570  -0.12771  -0.10747
 Alpha virt. eigenvalues --   -0.06497  -0.05485  -0.04512  -0.03637  -0.02646
 Alpha virt. eigenvalues --   -0.02347  -0.02192  -0.01394  -0.01034  -0.00851
 Alpha virt. eigenvalues --   -0.00442  -0.00309   0.00400   0.00421   0.00544

  Beta  occ. eigenvalues --  -38.45115 -38.44303 -38.44279 -38.44229 -38.43826
  Beta  occ. eigenvalues --  -38.43448 -38.42963  -2.20900  -2.20138  -2.20098
  Beta  occ. eigenvalues --   -2.20022  -2.19540  -2.19305  -2.18784  -1.14615
  Beta  occ. eigenvalues --   -1.14595  -1.14491  -1.13874  -1.13839  -1.13830
  Beta  occ. eigenvalues --   -1.13751  -1.13732  -1.13706  -1.13692  -1.13655
  Beta  occ. eigenvalues --   -1.13654  -1.13236  -1.13234  -1.13230  -1.13017
  Beta  occ. eigenvalues --   -1.12998  -1.12914  -1.12475  -1.12463  -1.12371
  Beta  occ. eigenvalues --   -0.16564  -0.13000  -0.12293
  Beta virt. eigenvalues --   -0.07300  -0.06383  -0.05139  -0.04113  -0.03328
  Beta virt. eigenvalues --   -0.02541  -0.02075  -0.01892  -0.01169  -0.00731
  Beta virt. eigenvalues --   -0.00531  -0.00216   0.00013   0.00520   0.00530

 Mulliken charges and spin densities:
               1          2
     1  Na  -1.596616  -0.048078
     2  Na   1.433537   0.163147
     3  Na   0.032472   0.269993
     4  Na   0.577475   0.152158
     5  Na  -0.584456  -0.061617
     6  Na  -0.237982   0.132334
     7  Na   0.375570   0.392063
 Sum of Mulliken charges =  -0.00000   1.00000

 Dipole moment (field-independent basis, Debye):
    X=              2.5444    Y=              0.6697    Z=             -0.2311  Tot=              2.6412
 Quadrupole moment (field-independent basis, Debye-Ang):
   XX=            -68.8821   YY=            -61.8464   ZZ=            -68.0688
   XY=              1.1447   XZ=             -1.1499   YZ=              0.8971

 Normal termination of Gaussian 16 at Wed Nov 29 04:09:14 2023.
