 Gaussian 16, Revision B.01,
 Gaussian 16:  ES64L-G16RevB.01 20-Dec-2017

 -------------------------
 #P B3LYP/6-311+g(d) force
 -------------------------

 -----
 DPGEN
 -----
 Symbolic Z-matrix:
 Charge =  0 Multiplicity = 2

                         Standard orientation:
 ---------------------------------------------------------------------
 Center     Atomic      Atomic             Coordinates (Angstroms)
 Number     Number       Type             X           Y           Z
 ---------------------------------------------------------------------
      1         11           0        1.150271   -1.096487   -1.219651
      2         11           0       -4.717329    0.457418    0.273390
      3         11           0        2.671163    2.026905   -0.474883
      4         11           0        0.511476    0.167206    1.592596
      5         11           0       -2.255711   -1.703442   -0.184244
      6         11           0       -1.451561    1.178072   -0.483214
      7         11           0        4.091692   -1.029671    0.496005
 ---------------------------------------------------------------------

 SCF Done:  E(UB3LYP) =  -1136.10981854     A.U. after   32 cycles

 The electronic state is 2-A.
 Alpha  occ. eigenvalues --  -38.45902 -38.44419 -38.44042 -38.43848 -38.43634
 Alpha  occ. eigenvalues --  -38.43204 -38.42451  -2.21835  -2.20263  -2.20022
 Alpha  occ. eigenvalues --   -2.19683  -2.19561  -2.19155  -2.18292  -1.15565
 Alpha  occ. eigenvalues --   -1.15491  -1.15414  -1.13926  -1.13906  -1.13867
 Alpha  occ. eigenvalues --   -1.13757  -1.13724  -1.13612  -1.13379  -1.13343
 Alpha  occ. eigenvalues --   -1.13307  -1.13262  -1.13240  -1.13124  -1.12853
 Alpha  occ. eigenvalues --   -1.12845  -1.12744  -1.11958  -1.11944  -1.11929
 Alpha  occ. eigenvalues --   -0.18811  -0.14700  -0.11407  -0.10301
 Alpha virt. eigenvalues --   -0.07406  -0.05397  -0.04391  -0.03388  -0.02837
 Alpha virt. eigenvalues --   -0.02034  -0.01788  -0.01395  -0.01203  -0.00558
 Alpha virt. eigenvalues --   -0.00381   0.00119   0.00349   0.00517   0.00628

  Beta  occ. eigenvalues --  -38.45868 -38.44343 -38.44013 -38.43832 -38.43617
  Beta  occ. eigenvalues --  -38.43192 -38.42427  -2.21779  -2.20120  -2.19975
  Beta  occ. eigenvalues --   -2.19657  -2.19529  -2.19138  -2.18248  -1.15494
  Beta  occ. eigenvalues --   -1.15462  -1.15366  -1.13826  -1.13807  -1.13775
  Beta  occ. eigenvalues --   -1.13727  -1.13682  -1.13559  -1.13366  -1.13327
  Beta  occ. eigenvalues --   -1.13259  -1.13241  -1.13220  -1.13089  -1.12841
  Beta  occ. eigenvalues --   -1.12808  -1.12732  -1.11921  -1.11914  -1.11907
  Beta  occ. eigenvalues --   -0.18096  -0.14220  -0.10111
  Beta virt. eigenvalues --   -0.07642  -0.07226  -0.04975  -0.03984  -0.03212
  Beta virt. eigenvalues --   -0.02514  -0.01448  -0.01375  -0.01148  -0.01046
  Beta virt. eigenvalues --   -0.00374  -0.00207   0.00205   0.00417   0.00580

 Mulliken charges and spin densities:
               1          2
     1  Na  -0.260590   0.121365
     2  Na   0.516506   0.102998
     3  Na   0.037173  -0.072189
     4  Na  -0.079350   0.323424
     5  Na   0.141322   0.207769
     6  Na  -0.608368  -0.009225
     7  Na   0.253307   0.325858
 Sum of Mulliken charges =  -0.00000   1.00000

 Dipole moment (field-independent basis, Debye):
    X=              1.2943    Y=             -0.7864    Z=              0.6056  Tot=              1.6311
 Quadrupole moment (field-independent basis, Debye-Ang):
   XX=            -75.3164   YY=            -73.1916   ZZ=            -60.5656
   XY=              0.6265   XZ=             -0.0188   YZ=             -3.3224

 Normal termination of Gaussian 16 at Thu Dec  7 08:16:56 2023.
