 Gaussian 16, Revision B.01,
 Gaussian 16:  ES64L-G16RevB.01 20-Dec-2017

 -------------------------
 #P B3LYP/6-311+g(d) force
 -------------------------

 -----
 DPGEN
 -----
 Symbolic Z-matrix:
 Charge =  0 Multiplicity = 2

                         Standard orientation:
 ---------------------------------------------------------------------
 Center     Atomic      Atomic             Coordinates (Angstroms)
 Number     Number       Type             X           Y           Z
 ---------------------------------------------------------------------
      1         11           0        2.880307    1.919208   -0.100670
      2         11           0       -3.519592   -0.098854   -0.202194
      3         11           0        2.812457   -1.810517   -0.235579
      4         11           0       -1.553853    2.286257    0.093663
      5         11           0        0.329584   -0.160278    2.148747
      6         11           0       -1.199690   -2.314503   -0.072772
      7         11           0        0.250787    0.178688   -1.631194
 ---------------------------------------------------------------------

 SCF Done:  E(UB3LYP) =  -1136.12741888     A.U. after   23 cycles

 The electronic state is 2-A.
 Alpha  occ. eigenvalues --  -38.44788 -38.44555 -38.44440 -38.43696 -38.43668
 Alpha  occ. eigenvalues --  -38.43342 -38.42935  -2.20636  -2.20342  -2.20215
 Alpha  occ. eigenvalues --   -2.19632  -2.19534  -2.19207  -2.18815  -1.14319
 Alpha  occ. eigenvalues --   -1.14291  -1.14282  -1.14024  -1.13998  -1.13977
 Alpha  occ. eigenvalues --   -1.13893  -1.13865  -1.13860  -1.13337  -1.13285
 Alpha  occ. eigenvalues --   -1.13249  -1.13200  -1.13154  -1.13150  -1.12890
 Alpha  occ. eigenvalues --   -1.12863  -1.12844  -1.12510  -1.12481  -1.12441
 Alpha  occ. eigenvalues --   -0.18421  -0.13625  -0.11586  -0.10707
 Alpha virt. eigenvalues --   -0.06492  -0.05850  -0.03673  -0.03445  -0.02692
 Alpha virt. eigenvalues --   -0.02478  -0.02212  -0.01533  -0.00554  -0.00111
 Alpha virt. eigenvalues --   -0.00052   0.00233   0.00604   0.00773   0.00780

  Beta  occ. eigenvalues --  -38.44786 -38.44550 -38.44439 -38.43644 -38.43561
  Beta  occ. eigenvalues --  -38.43336 -38.42927  -2.20635  -2.20336  -2.20216
  Beta  occ. eigenvalues --   -2.19537  -2.19336  -2.19198  -2.18804  -1.14322
  Beta  occ. eigenvalues --   -1.14292  -1.14267  -1.14003  -1.13996  -1.13973
  Beta  occ. eigenvalues --   -1.13880  -1.13868  -1.13859  -1.13269  -1.13217
  Beta  occ. eigenvalues --   -1.13178  -1.13068  -1.13016  -1.13008  -1.12884
  Beta  occ. eigenvalues --   -1.12849  -1.12824  -1.12505  -1.12448  -1.12431
  Beta  occ. eigenvalues --   -0.17705  -0.13426  -0.11366
  Beta virt. eigenvalues --   -0.06769  -0.06381  -0.05870  -0.03650  -0.02734
  Beta virt. eigenvalues --   -0.02161  -0.01769  -0.01536  -0.01450  -0.00594
  Beta virt. eigenvalues --   -0.00081   0.00068   0.00274   0.00689   0.00775

 Mulliken charges and spin densities:
               1          2
     1  Na   0.121703  -0.053052
     2  Na  -0.068703  -0.010688
     3  Na   0.191965  -0.048842
     4  Na   0.419246   0.035958
     5  Na  -0.602814   0.693381
     6  Na   0.410893   0.040815
     7  Na  -0.472291   0.342428
 Sum of Mulliken charges =  -0.00000   1.00000

 Dipole moment (field-independent basis, Debye):
    X=              0.4460    Y=             -0.0293    Z=              0.0632  Tot=              0.4514
 Quadrupole moment (field-independent basis, Debye-Ang):
   XX=            -48.4911   YY=            -69.4901   ZZ=            -74.7798
   XY=             -0.0675   XZ=              0.2982   YZ=              0.8931

 Normal termination of Gaussian 16 at Thu Dec  7 19:15:15 2023.
