 Gaussian 16, Revision B.01,
 Gaussian 16:  ES64L-G16RevB.01 20-Dec-2017

 -------------------------
 #P B3LYP/6-311+g(d) force
 -------------------------

 -----
 DPGEN
 -----
 Symbolic Z-matrix:
 Charge =  0 Multiplicity = 2

                         Standard orientation:
 ---------------------------------------------------------------------
 Center     Atomic      Atomic             Coordinates (Angstroms)
 Number     Number       Type             X           Y           Z
 ---------------------------------------------------------------------
      1         11           0        2.362384   -2.382857   -0.485843
      2         11           0       -3.687298    1.823131    0.146867
      3         11           0        2.735106    1.357225   -0.781748
      4         11           0       -4.167346   -1.294699    0.736886
      5         11           0       -0.037428    3.294349   -0.292218
      6         11           0        4.339274   -0.162033    1.348015
      7         11           0       -1.544692   -2.635117   -0.671959
 ---------------------------------------------------------------------

 SCF Done:  E(UB3LYP) =  -1136.11166017     A.U. after   21 cycles

 The electronic state is 2-A.
 Alpha  occ. eigenvalues --  -38.45136 -38.44893 -38.44629 -38.44576 -38.44174
 Alpha  occ. eigenvalues --  -38.44129 -38.43242  -2.20916  -2.20665  -2.20479
 Alpha  occ. eigenvalues --   -2.20435  -2.20005  -2.19909  -2.19021  -1.14612
 Alpha  occ. eigenvalues --   -1.14591  -1.14523  -1.14347  -1.14335  -1.14300
 Alpha  occ. eigenvalues --   -1.14249  -1.14147  -1.14130  -1.14065  -1.14058
 Alpha  occ. eigenvalues --   -1.14001  -1.13685  -1.13663  -1.13662  -1.13583
 Alpha  occ. eigenvalues --   -1.13573  -1.13515  -1.12687  -1.12685  -1.12653
 Alpha  occ. eigenvalues --   -0.16290  -0.14512  -0.12437  -0.10828
 Alpha virt. eigenvalues --   -0.07109  -0.05527  -0.04134  -0.03695  -0.03206
 Alpha virt. eigenvalues --   -0.02544  -0.02006  -0.01542  -0.01323  -0.00749
 Alpha virt. eigenvalues --   -0.00330  -0.00103   0.00046   0.00514   0.00538

  Beta  occ. eigenvalues --  -38.45106 -38.44877 -38.44603 -38.44511 -38.44163
  Beta  occ. eigenvalues --  -38.44104 -38.43209  -2.20864  -2.20639  -2.20437
  Beta  occ. eigenvalues --   -2.20313  -2.19986  -2.19862  -2.18963  -1.14579
  Beta  occ. eigenvalues --   -1.14560  -1.14452  -1.14328  -1.14319  -1.14271
  Beta  occ. eigenvalues --   -1.14191  -1.14119  -1.14086  -1.13981  -1.13974
  Beta  occ. eigenvalues --   -1.13929  -1.13676  -1.13651  -1.13636  -1.13553
  Beta  occ. eigenvalues --   -1.13541  -1.13477  -1.12649  -1.12643  -1.12610
  Beta  occ. eigenvalues --   -0.15655  -0.14164  -0.11768
  Beta virt. eigenvalues --   -0.07459  -0.07166  -0.05056  -0.03789  -0.03501
  Beta virt. eigenvalues --   -0.02659  -0.02322  -0.01877  -0.01381  -0.00939
  Beta virt. eigenvalues --   -0.00595  -0.00138   0.00178   0.00280   0.00508

 Mulliken charges and spin densities:
               1          2
     1  Na   0.028171   0.173861
     2  Na  -0.080977   0.133445
     3  Na  -0.419888   0.081702
     4  Na   0.202018   0.090920
     5  Na   0.048722   0.101987
     6  Na   0.515952   0.348676
     7  Na  -0.293997   0.069409
 Sum of Mulliken charges =  -0.00000   1.00000

 Dipole moment (field-independent basis, Debye):
    X=              0.6992    Y=             -0.6096    Z=              0.5859  Tot=              1.0972
 Quadrupole moment (field-independent basis, Debye-Ang):
   XX=            -57.8226   YY=            -71.2408   ZZ=            -69.2692
   XY=             -1.6787   XZ=              0.2654   YZ=              0.1027

 Normal termination of Gaussian 16 at Sun Dec  3 23:44:23 2023.
