 Gaussian 16, Revision B.01,
 Gaussian 16:  ES64L-G16RevB.01 20-Dec-2017

 -------------------------
 #P B3LYP/6-311+g(d) force
 -------------------------

 -----
 DPGEN
 -----
 Symbolic Z-matrix:
 Charge =  0 Multiplicity = 2

                         Standard orientation:
 ---------------------------------------------------------------------
 Center     Atomic      Atomic             Coordinates (Angstroms)
 Number     Number       Type             X           Y           Z
 ---------------------------------------------------------------------
      1         11           0       -0.918638    0.742436    1.383237
      2         11           0        2.283577   -0.163356    1.961086
      3         11           0       -1.715935   -2.348727   -1.906970
      4         11           0       -1.225631    3.655584   -0.710571
      5         11           0        2.712991   -2.019294   -0.533658
      6         11           0       -2.978581   -1.397663    1.150670
      7         11           0        1.842217    1.531019   -1.343793
 ---------------------------------------------------------------------

 SCF Done:  E(UB3LYP) =  -1136.11643486     A.U. after   19 cycles

 The electronic state is 2-A.
 Alpha  occ. eigenvalues --  -38.44688 -38.44684 -38.44408 -38.44373 -38.43902
 Alpha  occ. eigenvalues --  -38.43733 -38.43490  -2.20471  -2.20447  -2.20270
 Alpha  occ. eigenvalues --   -2.20175  -2.19730  -2.19495  -2.19389  -1.14166
 Alpha  occ. eigenvalues --   -1.14144  -1.14107  -1.14091  -1.14070  -1.14063
 Alpha  occ. eigenvalues --   -1.13976  -1.13937  -1.13900  -1.13834  -1.13821
 Alpha  occ. eigenvalues --   -1.13780  -1.13499  -1.13372  -1.13351  -1.13166
 Alpha  occ. eigenvalues --   -1.13161  -1.13127  -1.13060  -1.13035  -1.12993
 Alpha  occ. eigenvalues --   -0.17118  -0.13121  -0.12066  -0.11201
 Alpha virt. eigenvalues --   -0.05990  -0.05828  -0.04865  -0.03392  -0.03272
 Alpha virt. eigenvalues --   -0.02633  -0.01636  -0.01059  -0.00672  -0.00374
 Alpha virt. eigenvalues --   -0.00134   0.00012   0.00217   0.00401   0.00653

  Beta  occ. eigenvalues --  -38.44656 -38.44629 -38.44369 -38.44359 -38.43905
  Beta  occ. eigenvalues --  -38.43729 -38.43444  -2.20412  -2.20344  -2.20181
  Beta  occ. eigenvalues --   -2.20167  -2.19737  -2.19487  -2.19306  -1.14123
  Beta  occ. eigenvalues --   -1.14103  -1.14036  -1.14020  -1.14020  -1.14004
  Beta  occ. eigenvalues --   -1.13936  -1.13870  -1.13840  -1.13820  -1.13814
  Beta  occ. eigenvalues --   -1.13752  -1.13490  -1.13379  -1.13348  -1.13161
  Beta  occ. eigenvalues --   -1.13153  -1.13120  -1.13003  -1.12983  -1.12924
  Beta  occ. eigenvalues --   -0.16466  -0.12992  -0.11762
  Beta virt. eigenvalues --   -0.07721  -0.05728  -0.05124  -0.04552  -0.03130
  Beta virt. eigenvalues --   -0.02822  -0.02118  -0.01545  -0.01031  -0.00257
  Beta virt. eigenvalues --   -0.00093  -0.00065   0.00249   0.00307   0.00505

 Mulliken charges and spin densities:
               1          2
     1  Na   0.545023   0.176150
     2  Na   0.126599   0.061008
     3  Na  -0.139314   0.283022
     4  Na  -0.008890   0.015441
     5  Na  -0.088965   0.157178
     6  Na  -0.145806   0.008957
     7  Na  -0.288646   0.298244
 Sum of Mulliken charges =  -0.00000   1.00000

 Dipole moment (field-independent basis, Debye):
    X=              0.5204    Y=             -0.3708    Z=             -0.3857  Tot=              0.7464
 Quadrupole moment (field-independent basis, Debye-Ang):
   XX=            -63.5190   YY=            -67.6704   ZZ=            -66.1778
   XY=             -2.3027   XZ=             -0.3777   YZ=              0.9014

 Normal termination of Gaussian 16 at Sun Dec  3 17:37:53 2023.
