 Gaussian 16, Revision B.01,
 Gaussian 16:  ES64L-G16RevB.01 20-Dec-2017

 -------------------------
 #P B3LYP/6-311+g(d) force
 -------------------------

 -----
 DPGEN
 -----
 Symbolic Z-matrix:
 Charge =  0 Multiplicity = 2

                         Standard orientation:
 ---------------------------------------------------------------------
 Center     Atomic      Atomic             Coordinates (Angstroms)
 Number     Number       Type             X           Y           Z
 ---------------------------------------------------------------------
      1         11           0       -3.137095   -1.988193    0.026552
      2         11           0       -0.011174   -0.063606   -0.346564
      3         11           0       -0.190075    3.109828    0.755210
      4         11           0       -3.355656    1.751591   -0.340367
      5         11           0        3.331454   -1.507470    0.166056
      6         11           0        3.212270    1.779470   -0.468058
      7         11           0        0.150277   -3.081620    0.207172
 ---------------------------------------------------------------------

 SCF Done:  E(UB3LYP) =  -1136.12597301     A.U. after   25 cycles

 The electronic state is 2-A.
 Alpha  occ. eigenvalues --  -38.44591 -38.44375 -38.44051 -38.44021 -38.43704
 Alpha  occ. eigenvalues --  -38.43493 -38.43307  -2.20373  -2.20199  -2.19859
 Alpha  occ. eigenvalues --   -2.19842  -2.19635  -2.19323  -2.19189  -1.14061
 Alpha  occ. eigenvalues --   -1.14028  -1.13999  -1.13878  -1.13865  -1.13838
 Alpha  occ. eigenvalues --   -1.13538  -1.13516  -1.13515  -1.13491  -1.13488
 Alpha  occ. eigenvalues --   -1.13467  -1.13363  -1.13328  -1.13250  -1.12987
 Alpha  occ. eigenvalues --   -1.12967  -1.12949  -1.12857  -1.12835  -1.12802
 Alpha  occ. eigenvalues --   -0.17291  -0.13756  -0.13228  -0.09561
 Alpha virt. eigenvalues --   -0.06934  -0.05545  -0.04411  -0.03072  -0.02913
 Alpha virt. eigenvalues --   -0.02265  -0.02102  -0.01686  -0.01268  -0.00196
 Alpha virt. eigenvalues --    0.00187   0.00208   0.00340   0.00687   0.00710

  Beta  occ. eigenvalues --  -38.44567 -38.44352 -38.44021 -38.43978 -38.43698
  Beta  occ. eigenvalues --  -38.43450 -38.43276  -2.20332  -2.20162  -2.19804
  Beta  occ. eigenvalues --   -2.19766  -2.19624  -2.19244  -2.19132  -1.14038
  Beta  occ. eigenvalues --   -1.14005  -1.13939  -1.13858  -1.13844  -1.13769
  Beta  occ. eigenvalues --   -1.13503  -1.13483  -1.13467  -1.13446  -1.13427
  Beta  occ. eigenvalues --   -1.13386  -1.13349  -1.13312  -1.13259  -1.12931
  Beta  occ. eigenvalues --   -1.12914  -1.12901  -1.12818  -1.12795  -1.12772
  Beta  occ. eigenvalues --   -0.16974  -0.12949  -0.12857
  Beta virt. eigenvalues --   -0.06972  -0.06233  -0.05368  -0.04222  -0.02597
  Beta virt. eigenvalues --   -0.02192  -0.02112  -0.01930  -0.01400  -0.01112
  Beta virt. eigenvalues --   -0.00092   0.00296   0.00453   0.00479   0.00707

 Mulliken charges and spin densities:
               1          2
     1  Na   1.059631   0.323614
     2  Na  -3.833980  -0.213401
     3  Na   0.585863   0.146204
     4  Na   0.369738   0.198732
     5  Na   0.939392   0.172774
     6  Na   0.530763   0.339773
     7  Na   0.348593   0.032304
 Sum of Mulliken charges =  -0.00000   1.00000

 Dipole moment (field-independent basis, Debye):
    X=              0.0434    Y=              0.0057    Z=              0.3581  Tot=              0.3607
 Quadrupole moment (field-independent basis, Debye-Ang):
   XX=            -70.1180   YY=            -56.6830   ZZ=            -71.3723
   XY=             -2.9341   XZ=              0.7829   YZ=             -1.3432

 Normal termination of Gaussian 16 at Tue Dec  5 14:56:59 2023.
