 Gaussian 16, Revision B.01,
 Gaussian 16:  ES64L-G16RevB.01 20-Dec-2017

 -------------------------
 #P B3LYP/6-311+g(d) force
 -------------------------

 -----
 DPGEN
 -----
 Symbolic Z-matrix:
 Charge =  0 Multiplicity = 2

                         Standard orientation:
 ---------------------------------------------------------------------
 Center     Atomic      Atomic             Coordinates (Angstroms)
 Number     Number       Type             X           Y           Z
 ---------------------------------------------------------------------
      1         11           0        1.242365    1.942171    0.494885
      2         11           0       -1.620966    1.927070   -1.107918
      3         11           0        1.790748   -1.123729    1.358791
      4         11           0       -1.265800    0.022689    1.755923
      5         11           0       -0.289348   -1.571412   -1.437043
      6         11           0        3.951715   -0.291356   -0.913872
      7         11           0       -3.808714   -0.905433   -0.150766
 ---------------------------------------------------------------------

 SCF Done:  E(UB3LYP) =  -1136.12110400     A.U. after   27 cycles

 The electronic state is 2-A.
 Alpha  occ. eigenvalues --  -38.44969 -38.44861 -38.44688 -38.43711 -38.43496
 Alpha  occ. eigenvalues --  -38.43399 -38.42388  -2.20743  -2.20665  -2.20493
 Alpha  occ. eigenvalues --   -2.19652  -2.19458  -2.19275  -2.18294  -1.14454
 Alpha  occ. eigenvalues --   -1.14439  -1.14339  -1.14333  -1.14308  -1.14289
 Alpha  occ. eigenvalues --   -1.14185  -1.14144  -1.14114  -1.13361  -1.13305
 Alpha  occ. eigenvalues --   -1.13277  -1.13147  -1.13103  -1.13061  -1.12962
 Alpha  occ. eigenvalues --   -1.12915  -1.12887  -1.11989  -1.11971  -1.11914
 Alpha  occ. eigenvalues --   -0.18526  -0.14082  -0.11277  -0.10971
 Alpha virt. eigenvalues --   -0.07350  -0.04732  -0.04624  -0.03119  -0.02964
 Alpha virt. eigenvalues --   -0.02453  -0.02278  -0.01217  -0.00854  -0.00148
 Alpha virt. eigenvalues --    0.00009   0.00214   0.00259   0.00738   0.00773

  Beta  occ. eigenvalues --  -38.44976 -38.44822 -38.44678 -38.43668 -38.43432
  Beta  occ. eigenvalues --  -38.43355 -38.42382  -2.20758  -2.20590  -2.20476
  Beta  occ. eigenvalues --   -2.19577  -2.19344  -2.19193  -2.18288  -1.14461
  Beta  occ. eigenvalues --   -1.14433  -1.14353  -1.14283  -1.14257  -1.14241
  Beta  occ. eigenvalues --   -1.14169  -1.14128  -1.14103  -1.13301  -1.13260
  Beta  occ. eigenvalues --   -1.13195  -1.13068  -1.13005  -1.12984  -1.12902
  Beta  occ. eigenvalues --   -1.12862  -1.12825  -1.11985  -1.11938  -1.11911
  Beta  occ. eigenvalues --   -0.17830  -0.13770  -0.10826
  Beta virt. eigenvalues --   -0.07389  -0.07113  -0.04571  -0.04082  -0.02956
  Beta virt. eigenvalues --   -0.02719  -0.01967  -0.01590  -0.00980  -0.00514
  Beta virt. eigenvalues --   -0.00041   0.00065   0.00289   0.00389   0.00789

 Mulliken charges and spin densities:
               1          2
     1  Na  -0.345322   0.331210
     2  Na  -0.043868   0.153670
     3  Na   0.384210   0.021905
     4  Na  -0.163298   0.141724
     5  Na  -0.490647   0.117131
     6  Na   0.200157   0.159433
     7  Na   0.458768   0.074927
 Sum of Mulliken charges =  -0.00000   1.00000

 Dipole moment (field-independent basis, Debye):
    X=             -0.2062    Y=             -0.1535    Z=             -0.4203  Tot=              0.4927
 Quadrupole moment (field-independent basis, Debye-Ang):
   XX=            -49.1551   YY=            -77.8968   ZZ=            -67.9434
   XY=              0.7880   XZ=             -1.7521   YZ=             -2.2118

 Normal termination of Gaussian 16 at Fri Dec  8 05:59:24 2023.
