 Gaussian 16, Revision B.01,
 Gaussian 16:  ES64L-G16RevB.01 20-Dec-2017

 -------------------------
 #P B3LYP/6-311+g(d) force
 -------------------------

 -----
 DPGEN
 -----
 Symbolic Z-matrix:
 Charge =  0 Multiplicity = 2

                         Standard orientation:
 ---------------------------------------------------------------------
 Center     Atomic      Atomic             Coordinates (Angstroms)
 Number     Number       Type             X           Y           Z
 ---------------------------------------------------------------------
      1         11           0       -2.277108   -2.094638    0.475433
      2         11           0        1.488889   -2.762895   -0.224051
      3         11           0        0.112440    0.088763    1.482801
      4         11           0       -2.984185    1.419905   -0.390830
      5         11           0        3.668335    0.818987   -0.042561
      6         11           0       -0.169174   -0.485111   -1.359072
      7         11           0        0.160804    3.014989    0.058279
 ---------------------------------------------------------------------

 SCF Done:  E(UB3LYP) =  -1136.12497390     A.U. after   23 cycles

 The electronic state is 2-A.
 Alpha  occ. eigenvalues --  -38.45106 -38.43980 -38.43923 -38.43831 -38.43796
 Alpha  occ. eigenvalues --  -38.43087 -38.42923  -2.20829  -2.19823  -2.19745
 Alpha  occ. eigenvalues --   -2.19693  -2.19617  -2.19123  -2.18922  -1.14515
 Alpha  occ. eigenvalues --   -1.14484  -1.14463  -1.13556  -1.13477  -1.13430
 Alpha  occ. eigenvalues --   -1.13416  -1.13404  -1.13396  -1.13374  -1.13357
 Alpha  occ. eigenvalues --   -1.13321  -1.13312  -1.13285  -1.13229  -1.12969
 Alpha  occ. eigenvalues --   -1.12730  -1.12721  -1.12591  -1.12533  -1.12499
 Alpha  occ. eigenvalues --   -0.18470  -0.12855  -0.12643  -0.09661
 Alpha virt. eigenvalues --   -0.06401  -0.05388  -0.04949  -0.02681  -0.02598
 Alpha virt. eigenvalues --   -0.02153  -0.01574  -0.01460  -0.00780  -0.00675
 Alpha virt. eigenvalues --    0.00016   0.00264   0.00674   0.00734   0.00807

  Beta  occ. eigenvalues --  -38.45112 -38.43965 -38.43907 -38.43809 -38.43792
  Beta  occ. eigenvalues --  -38.43037 -38.42854  -2.20842  -2.19801  -2.19718
  Beta  occ. eigenvalues --   -2.19656  -2.19612  -2.19034  -2.18799  -1.14519
  Beta  occ. eigenvalues --   -1.14489  -1.14472  -1.13536  -1.13446  -1.13413
  Beta  occ. eigenvalues --   -1.13392  -1.13382  -1.13370  -1.13353  -1.13311
  Beta  occ. eigenvalues --   -1.13301  -1.13291  -1.13272  -1.13221  -1.12890
  Beta  occ. eigenvalues --   -1.12669  -1.12653  -1.12502  -1.12448  -1.12404
  Beta  occ. eigenvalues --   -0.17818  -0.12571  -0.12399
  Beta virt. eigenvalues --   -0.06384  -0.05955  -0.05231  -0.04895  -0.02117
  Beta virt. eigenvalues --   -0.02040  -0.01882  -0.01440  -0.00812  -0.00680
  Beta virt. eigenvalues --   -0.00616   0.00169   0.00337   0.00703   0.00771

 Mulliken charges and spin densities:
               1          2
     1  Na   0.172251   0.102083
     2  Na   0.183817  -0.022241
     3  Na   0.022132   0.451238
     4  Na   0.131810   0.092290
     5  Na  -0.136225  -0.100715
     6  Na  -0.302466   0.533489
     7  Na  -0.071320  -0.056144
 Sum of Mulliken charges =  -0.00000   1.00000

 Dipole moment (field-independent basis, Debye):
    X=              0.4529    Y=              0.0209    Z=              0.0946  Tot=              0.4631
 Quadrupole moment (field-independent basis, Debye-Ang):
   XX=            -50.2123   YY=            -58.9721   ZZ=            -79.4676
   XY=              0.7746   XZ=             -0.5228   YZ=             -1.4410

 Normal termination of Gaussian 16 at Fri Dec  8 07:17:40 2023.
