 Gaussian 16, Revision B.01,
 Gaussian 16:  ES64L-G16RevB.01 20-Dec-2017

 -------------------------
 #P B3LYP/6-311+g(d) force
 -------------------------

 -----
 DPGEN
 -----
 Symbolic Z-matrix:
 Charge =  0 Multiplicity = 2

                         Standard orientation:
 ---------------------------------------------------------------------
 Center     Atomic      Atomic             Coordinates (Angstroms)
 Number     Number       Type             X           Y           Z
 ---------------------------------------------------------------------
      1         11           0       -1.166814   -1.254293   -1.474835
      2         11           0       -3.039292    1.813807   -0.085772
      3         11           0        0.776914    1.863090   -1.196156
      4         11           0        4.025998    0.746245    0.376564
      5         11           0        0.662349    0.032800    2.126141
      6         11           0        2.179254   -2.035185   -0.552360
      7         11           0       -3.438409   -1.166464    0.806418
 ---------------------------------------------------------------------

 SCF Done:  E(UB3LYP) =  -1136.11317974     A.U. after   34 cycles

 The electronic state is 2-A.
 Alpha  occ. eigenvalues --  -38.46203 -38.45564 -38.44632 -38.44187 -38.43427
 Alpha  occ. eigenvalues --  -38.43370 -38.43109  -2.21961  -2.21341  -2.20481
 Alpha  occ. eigenvalues --   -2.19994  -2.19243  -2.19184  -2.18980  -1.15641
 Alpha  occ. eigenvalues --   -1.15607  -1.15576  -1.15018  -1.14995  -1.14968
 Alpha  occ. eigenvalues --   -1.14165  -1.14138  -1.14120  -1.13665  -1.13655
 Alpha  occ. eigenvalues --   -1.13633  -1.12918  -1.12913  -1.12888  -1.12871
 Alpha  occ. eigenvalues --   -1.12839  -1.12796  -1.12658  -1.12650  -1.12596
 Alpha  occ. eigenvalues --   -0.17766  -0.14336  -0.10960  -0.10626
 Alpha virt. eigenvalues --   -0.07564  -0.05731  -0.04637  -0.03093  -0.03051
 Alpha virt. eigenvalues --   -0.02569  -0.02362  -0.01368  -0.01047  -0.00576
 Alpha virt. eigenvalues --   -0.00017   0.00128   0.00155   0.00517   0.00572

  Beta  occ. eigenvalues --  -38.46155 -38.45554 -38.44609 -38.44184 -38.43421
  Beta  occ. eigenvalues --  -38.43318 -38.43068  -2.21871  -2.21323  -2.20438
  Beta  occ. eigenvalues --   -2.19991  -2.19235  -2.19089  -2.18907  -1.15574
  Beta  occ. eigenvalues --   -1.15548  -1.15509  -1.15004  -1.14977  -1.14956
  Beta  occ. eigenvalues --   -1.14140  -1.14104  -1.14088  -1.13660  -1.13653
  Beta  occ. eigenvalues --   -1.13619  -1.12914  -1.12903  -1.12868  -1.12809
  Beta  occ. eigenvalues --   -1.12761  -1.12730  -1.12611  -1.12581  -1.12544
  Beta  occ. eigenvalues --   -0.17086  -0.14110  -0.10377
  Beta virt. eigenvalues --   -0.07350  -0.07165  -0.05792  -0.03979  -0.02856
  Beta virt. eigenvalues --   -0.02829  -0.02014  -0.01673  -0.01317  -0.00650
  Beta virt. eigenvalues --   -0.00512   0.00028   0.00140   0.00327   0.00587

 Mulliken charges and spin densities:
               1          2
     1  Na  -0.176067   0.166988
     2  Na  -0.134679   0.001363
     3  Na  -0.352394   0.203935
     4  Na   0.570572   0.134880
     5  Na  -0.265715   0.274352
     6  Na  -0.116843  -0.006716
     7  Na   0.475126   0.225199
 Sum of Mulliken charges =  -0.00000   1.00000

 Dipole moment (field-independent basis, Debye):
    X=              0.7374    Y=              0.1046    Z=              0.9441  Tot=              1.2026
 Quadrupole moment (field-independent basis, Debye-Ang):
   XX=            -46.4406   YY=            -79.4986   ZZ=            -69.7476
   XY=              0.9394   XZ=             -1.6517   YZ=             -1.3886

 Normal termination of Gaussian 16 at Thu Dec  7 10:34:29 2023.
