 Gaussian 16, Revision B.01,
 Gaussian 16:  ES64L-G16RevB.01 20-Dec-2017

 -------------------------
 #P B3LYP/6-311+g(d) force
 -------------------------

 -----
 DPGEN
 -----
 Symbolic Z-matrix:
 Charge =  0 Multiplicity = 2

                         Standard orientation:
 ---------------------------------------------------------------------
 Center     Atomic      Atomic             Coordinates (Angstroms)
 Number     Number       Type             X           Y           Z
 ---------------------------------------------------------------------
      1         11           0        1.706218    2.510260    0.033362
      2         11           0       -2.729620   -1.563376    0.043881
      3         11           0        0.429656   -2.536079   -0.677654
      4         11           0        3.109871   -0.878795    0.196521
      5         11           0       -0.210733    0.888270   -1.695435
      6         11           0        0.044433   -0.346093    1.803740
      7         11           0       -2.349825    1.925814    0.295584
 ---------------------------------------------------------------------

 SCF Done:  E(UB3LYP) =  -1136.13536087     A.U. after   18 cycles

 The electronic state is 2-A.
 Alpha  occ. eigenvalues --  -38.44075 -38.44051 -38.43871 -38.43844 -38.43333
 Alpha  occ. eigenvalues --  -38.43180 -38.43082  -2.19905  -2.19903  -2.19711
 Alpha  occ. eigenvalues --   -2.19686  -2.19265  -2.19144  -2.18980  -1.13618
 Alpha  occ. eigenvalues --   -1.13581  -1.13573  -1.13563  -1.13543  -1.13525
 Alpha  occ. eigenvalues --   -1.13419  -1.13382  -1.13376  -1.13351  -1.13339
 Alpha  occ. eigenvalues --   -1.13301  -1.12958  -1.12905  -1.12878  -1.12807
 Alpha  occ. eigenvalues --   -1.12780  -1.12764  -1.12653  -1.12630  -1.12615
 Alpha  occ. eigenvalues --   -0.18715  -0.13120  -0.12559  -0.10580
 Alpha virt. eigenvalues --   -0.05769  -0.05466  -0.04390  -0.03209  -0.03026
 Alpha virt. eigenvalues --   -0.02288  -0.01594  -0.01250  -0.00413  -0.00145
 Alpha virt. eigenvalues --    0.00014   0.00360   0.00778   0.00804   0.00940

  Beta  occ. eigenvalues --  -38.44072 -38.44044 -38.43868 -38.43840 -38.43259
  Beta  occ. eigenvalues --  -38.43115 -38.43061  -2.19902  -2.19892  -2.19708
  Beta  occ. eigenvalues --   -2.19681  -2.19130  -2.19025  -2.18944  -1.13605
  Beta  occ. eigenvalues --   -1.13580  -1.13552  -1.13544  -1.13538  -1.13519
  Beta  occ. eigenvalues --   -1.13407  -1.13383  -1.13355  -1.13347  -1.13321
  Beta  occ. eigenvalues --   -1.13301  -1.12867  -1.12812  -1.12777  -1.12727
  Beta  occ. eigenvalues --   -1.12697  -1.12677  -1.12627  -1.12596  -1.12576
  Beta  occ. eigenvalues --   -0.18002  -0.12884  -0.12325
  Beta virt. eigenvalues --   -0.06720  -0.05751  -0.05417  -0.04296  -0.02458
  Beta virt. eigenvalues --   -0.02275  -0.01503  -0.01281  -0.01216  -0.00451
  Beta virt. eigenvalues --   -0.00127   0.00144   0.00387   0.00800   0.00842

 Mulliken charges and spin densities:
               1          2
     1  Na   0.067661  -0.143415
     2  Na   0.105314  -0.004456
     3  Na   0.017975   0.099359
     4  Na   0.052909  -0.006589
     5  Na  -0.058800   0.527645
     6  Na  -0.288535   0.634565
     7  Na   0.103475  -0.107110
 Sum of Mulliken charges =  -0.00000   1.00000

 Dipole moment (field-independent basis, Debye):
    X=             -0.0267    Y=              0.2162    Z=              0.1764  Tot=              0.2803
 Quadrupole moment (field-independent basis, Debye-Ang):
   XX=            -54.3912   YY=            -64.0844   ZZ=            -74.6922
   XY=              0.2996   XZ=             -0.2221   YZ=              2.2600

 Normal termination of Gaussian 16 at Fri Dec  8 01:47:40 2023.
