 Gaussian 16, Revision B.01,
 Gaussian 16:  ES64L-G16RevB.01 20-Dec-2017

 -------------------------
 #P B3LYP/6-311+g(d) force
 -------------------------

 -----
 DPGEN
 -----
 Symbolic Z-matrix:
 Charge =  0 Multiplicity = 2

                         Standard orientation:
 ---------------------------------------------------------------------
 Center     Atomic      Atomic             Coordinates (Angstroms)
 Number     Number       Type             X           Y           Z
 ---------------------------------------------------------------------
      1         11           0        3.280674   -0.984548    0.672730
      2         11           0       -2.880879    1.048384   -0.602927
      3         11           0       -0.327013    3.173342    0.222354
      4         11           0        0.437713   -1.989020   -1.275684
      5         11           0       -2.701058   -2.216908    0.391829
      6         11           0        2.180826    0.995428   -1.041081
      7         11           0        0.009737   -0.026679    1.632777
 ---------------------------------------------------------------------

 SCF Done:  E(UB3LYP) =  -1136.12753308     A.U. after   21 cycles

 The electronic state is 2-A.
 Alpha  occ. eigenvalues --  -38.44732 -38.44727 -38.43922 -38.43877 -38.43841
 Alpha  occ. eigenvalues --  -38.43204 -38.43068  -2.20618  -2.20527  -2.19853
 Alpha  occ. eigenvalues --   -2.19727  -2.19654  -2.19121  -2.18894  -1.14401
 Alpha  occ. eigenvalues --   -1.14246  -1.14235  -1.14206  -1.14190  -1.14163
 Alpha  occ. eigenvalues --   -1.13525  -1.13515  -1.13459  -1.13418  -1.13395
 Alpha  occ. eigenvalues --   -1.13340  -1.13319  -1.13314  -1.13287  -1.12815
 Alpha  occ. eigenvalues --   -1.12757  -1.12738  -1.12557  -1.12554  -1.12547
 Alpha  occ. eigenvalues --   -0.18262  -0.13760  -0.12282  -0.10104
 Alpha virt. eigenvalues --   -0.06416  -0.05604  -0.04630  -0.03587  -0.02650
 Alpha virt. eigenvalues --   -0.02063  -0.01971  -0.01156  -0.00730  -0.00400
 Alpha virt. eigenvalues --    0.00038   0.00308   0.00603   0.00680   0.00764

  Beta  occ. eigenvalues --  -38.44721 -38.44719 -38.43893 -38.43842 -38.43838
  Beta  occ. eigenvalues --  -38.43127 -38.43066  -2.20598  -2.20518  -2.19802
  Beta  occ. eigenvalues --   -2.19658  -2.19655  -2.18981  -2.18894  -1.14389
  Beta  occ. eigenvalues --   -1.14233  -1.14192  -1.14190  -1.14183  -1.14159
  Beta  occ. eigenvalues --   -1.13486  -1.13478  -1.13408  -1.13374  -1.13332
  Beta  occ. eigenvalues --   -1.13323  -1.13313  -1.13304  -1.13260  -1.12718
  Beta  occ. eigenvalues --   -1.12661  -1.12632  -1.12553  -1.12549  -1.12539
  Beta  occ. eigenvalues --   -0.17590  -0.13558  -0.12105
  Beta virt. eigenvalues --   -0.06363  -0.06266  -0.05504  -0.04548  -0.02873
  Beta virt. eigenvalues --   -0.02077  -0.01932  -0.01219  -0.01043  -0.00732
  Beta virt. eigenvalues --   -0.00232   0.00196   0.00372   0.00713   0.00778

 Mulliken charges and spin densities:
               1          2
     1  Na   0.643916   0.034142
     2  Na  -0.173820   0.009744
     3  Na   0.291931   0.005194
     4  Na  -0.366973   0.225461
     5  Na   0.387795  -0.015705
     6  Na  -0.144268   0.290203
     7  Na  -0.638581   0.450961
 Sum of Mulliken charges =  -0.00000   1.00000

 Dipole moment (field-independent basis, Debye):
    X=             -0.0962    Y=             -0.3938    Z=             -0.0300  Tot=              0.4064
 Quadrupole moment (field-independent basis, Debye-Ang):
   XX=            -52.5150   YY=            -65.3293   ZZ=            -75.8389
   XY=             -0.3247   XZ=              1.6909   YZ=             -1.4169

 Normal termination of Gaussian 16 at Thu Dec  7 18:48:49 2023.
