 Gaussian 16, Revision B.01,
 Gaussian 16:  ES64L-G16RevB.01 20-Dec-2017

 -------------------------
 #P B3LYP/6-311+g(d) force
 -------------------------

 -----
 DPGEN
 -----
 Symbolic Z-matrix:
 Charge =  0 Multiplicity = 2

                         Standard orientation:
 ---------------------------------------------------------------------
 Center     Atomic      Atomic             Coordinates (Angstroms)
 Number     Number       Type             X           Y           Z
 ---------------------------------------------------------------------
      1         11           0       -0.304403   -0.809941   -1.355609
      2         11           0       -4.164262   -0.125091   -1.308275
      3         11           0       -0.949694   -1.667898    2.040755
      4         11           0       -1.292405    1.672987    1.052326
      5         11           0        1.933228    2.344369   -0.777239
      6         11           0        3.108700   -1.639761   -1.139532
      7         11           0        1.668836    0.225336    1.487573
 ---------------------------------------------------------------------

 SCF Done:  E(UB3LYP) =  -1136.12112961     A.U. after   26 cycles

 The electronic state is 2-A.
 Alpha  occ. eigenvalues --  -38.45036 -38.44674 -38.44492 -38.43585 -38.43410
 Alpha  occ. eigenvalues --  -38.43306 -38.43124  -2.20893  -2.20419  -2.20334
 Alpha  occ. eigenvalues --   -2.19429  -2.19383  -2.19167  -2.18924  -1.14565
 Alpha  occ. eigenvalues --   -1.14511  -1.14503  -1.14084  -1.14079  -1.14030
 Alpha  occ. eigenvalues --   -1.14021  -1.13992  -1.13923  -1.13155  -1.13139
 Alpha  occ. eigenvalues --   -1.13087  -1.13074  -1.13014  -1.12983  -1.12868
 Alpha  occ. eigenvalues --   -1.12842  -1.12764  -1.12600  -1.12577  -1.12561
 Alpha  occ. eigenvalues --   -0.18321  -0.13044  -0.11985  -0.11104
 Alpha virt. eigenvalues --   -0.06296  -0.05198  -0.04692  -0.03178  -0.02694
 Alpha virt. eigenvalues --   -0.02572  -0.02078  -0.01157  -0.01080  -0.00143
 Alpha virt. eigenvalues --    0.00038   0.00153   0.00351   0.00616   0.00641

  Beta  occ. eigenvalues --  -38.44947 -38.44635 -38.44439 -38.43584 -38.43393
  Beta  occ. eigenvalues --  -38.43301 -38.43122  -2.20730  -2.20346  -2.20235
  Beta  occ. eigenvalues --   -2.19431  -2.19359  -2.19161  -2.18922  -1.14446
  Beta  occ. eigenvalues --   -1.14398  -1.14393  -1.14032  -1.14030  -1.13983
  Beta  occ. eigenvalues --   -1.13961  -1.13921  -1.13852  -1.13151  -1.13125
  Beta  occ. eigenvalues --   -1.13071  -1.13016  -1.13012  -1.12974  -1.12867
  Beta  occ. eigenvalues --   -1.12810  -1.12765  -1.12598  -1.12573  -1.12560
  Beta  occ. eigenvalues --   -0.17600  -0.12666  -0.10875
  Beta virt. eigenvalues --   -0.08239  -0.05965  -0.04806  -0.04308  -0.02837
  Beta virt. eigenvalues --   -0.02257  -0.02122  -0.01824  -0.01025  -0.00701
  Beta virt. eigenvalues --    0.00057   0.00160   0.00234   0.00397   0.00664

 Mulliken charges and spin densities:
               1          2
     1  Na  -0.878331   0.176945
     2  Na   0.241249   0.018684
     3  Na   0.092526   0.097939
     4  Na  -0.205271   0.282435
     5  Na   0.055110   0.150837
     6  Na   0.152820   0.016725
     7  Na   0.541897   0.256435
 Sum of Mulliken charges =  -0.00000   1.00000

 Dipole moment (field-independent basis, Debye):
    X=             -0.4261    Y=              0.2521    Z=              0.4204  Tot=              0.6495
 Quadrupole moment (field-independent basis, Debye-Ang):
   XX=            -56.4999   YY=            -68.3359   ZZ=            -69.8532
   XY=              0.9445   XZ=             -0.8926   YZ=             -7.9658

 Normal termination of Gaussian 16 at Fri Dec  8 07:15:06 2023.
