 Gaussian 16, Revision B.01,
 Gaussian 16:  ES64L-G16RevB.01 20-Dec-2017

 -------------------------
 #P B3LYP/6-311+g(d) force
 -------------------------

 -----
 DPGEN
 -----
 Symbolic Z-matrix:
 Charge =  0 Multiplicity = 2

                         Standard orientation:
 ---------------------------------------------------------------------
 Center     Atomic      Atomic             Coordinates (Angstroms)
 Number     Number       Type             X           Y           Z
 ---------------------------------------------------------------------
      1         11           0        1.630029    1.084529    1.493301
      2         11           0       -1.848477   -1.162399    1.719627
      3         11           0       -1.446172    3.119178    0.303441
      4         11           0       -3.096524   -0.875149   -1.595513
      5         11           0        1.208983   -2.538713    0.589034
      6         11           0        3.593089    0.266640   -1.258114
      7         11           0       -0.040928    0.105914   -1.251775
 ---------------------------------------------------------------------

 SCF Done:  E(UB3LYP) =  -1136.12578256     A.U. after   21 cycles

 The electronic state is 2-A.
 Alpha  occ. eigenvalues --  -38.44541 -38.44368 -38.44146 -38.44011 -38.43655
 Alpha  occ. eigenvalues --  -38.43375 -38.43245  -2.20339  -2.20188  -2.19963
 Alpha  occ. eigenvalues --   -2.19855  -2.19468  -2.19322  -2.19002  -1.14009
 Alpha  occ. eigenvalues --   -1.13986  -1.13957  -1.13874  -1.13819  -1.13804
 Alpha  occ. eigenvalues --   -1.13637  -1.13606  -1.13599  -1.13561  -1.13512
 Alpha  occ. eigenvalues --   -1.13459  -1.13163  -1.13143  -1.13079  -1.13034
 Alpha  occ. eigenvalues --   -1.12963  -1.12949  -1.12678  -1.12653  -1.12647
 Alpha  occ. eigenvalues --   -0.17826  -0.13204  -0.11355  -0.11118
 Alpha virt. eigenvalues --   -0.06041  -0.05268  -0.04824  -0.03192  -0.02693
 Alpha virt. eigenvalues --   -0.02473  -0.02007  -0.01108  -0.01078  -0.00081
 Alpha virt. eigenvalues --    0.00129   0.00213   0.00322   0.00526   0.00745

  Beta  occ. eigenvalues --  -38.44505 -38.44314 -38.44117 -38.43985 -38.43643
  Beta  occ. eigenvalues --  -38.43344 -38.43243  -2.20271  -2.20089  -2.19911
  Beta  occ. eigenvalues --   -2.19808  -2.19449  -2.19269  -2.19000  -1.13958
  Beta  occ. eigenvalues --   -1.13941  -1.13914  -1.13796  -1.13758  -1.13738
  Beta  occ. eigenvalues --   -1.13598  -1.13565  -1.13556  -1.13532  -1.13461
  Beta  occ. eigenvalues --   -1.13425  -1.13153  -1.13115  -1.13062  -1.12974
  Beta  occ. eigenvalues --   -1.12929  -1.12913  -1.12674  -1.12653  -1.12641
  Beta  occ. eigenvalues --   -0.17179  -0.12818  -0.11079
  Beta virt. eigenvalues --   -0.07561  -0.05874  -0.04926  -0.04385  -0.03068
  Beta virt. eigenvalues --   -0.02103  -0.01822  -0.01791  -0.01012  -0.00634
  Beta virt. eigenvalues --    0.00031   0.00192   0.00293   0.00362   0.00644

 Mulliken charges and spin densities:
               1          2
     1  Na   0.088567   0.290063
     2  Na   0.134755   0.181903
     3  Na  -0.191076   0.060751
     4  Na   0.184896   0.157883
     5  Na  -0.208136   0.121890
     6  Na   0.356272   0.090505
     7  Na  -0.365278   0.097004
 Sum of Mulliken charges =  -0.00000   1.00000

 Dipole moment (field-independent basis, Debye):
    X=              0.2809    Y=             -0.4278    Z=              0.0739  Tot=              0.5171
 Quadrupole moment (field-independent basis, Debye-Ang):
   XX=            -53.4986   YY=            -72.4247   ZZ=            -66.5993
   XY=              0.2625   XZ=             -1.4011   YZ=              0.7041

 Normal termination of Gaussian 16 at Tue Dec  5 13:28:16 2023.
