 Gaussian 16, Revision B.01,
 Gaussian 16:  ES64L-G16RevB.01 20-Dec-2017

 -------------------------
 #P B3LYP/6-311+g(d) force
 -------------------------

 -----
 DPGEN
 -----
 Symbolic Z-matrix:
 Charge =  0 Multiplicity = 2

                         Standard orientation:
 ---------------------------------------------------------------------
 Center     Atomic      Atomic             Coordinates (Angstroms)
 Number     Number       Type             X           Y           Z
 ---------------------------------------------------------------------
      1         11           0       -0.182379    3.194434   -0.579806
      2         11           0        0.981359   -2.084012    0.307135
      3         11           0       -3.149951   -2.291207   -0.421675
      4         11           0        2.735081    1.408050    0.831971
      5         11           0        4.017683   -1.268295   -1.196245
      6         11           0       -1.220654   -0.016980    2.123368
      7         11           0       -3.181140    1.058010   -1.064748
 ---------------------------------------------------------------------

 SCF Done:  E(UB3LYP) =  -1136.12142800     A.U. after   21 cycles

 The electronic state is 2-A.
 Alpha  occ. eigenvalues --  -38.44846 -38.44694 -38.44454 -38.44211 -38.44188
 Alpha  occ. eigenvalues --  -38.44061 -38.43361  -2.20606  -2.20501  -2.20229
 Alpha  occ. eigenvalues --   -2.20001  -2.19993  -2.19866  -2.19119  -1.14300
 Alpha  occ. eigenvalues --   -1.14282  -1.14228  -1.14178  -1.14140  -1.14108
 Alpha  occ. eigenvalues --   -1.13909  -1.13894  -1.13861  -1.13697  -1.13693
 Alpha  occ. eigenvalues --   -1.13671  -1.13641  -1.13615  -1.13607  -1.13521
 Alpha  occ. eigenvalues --   -1.13513  -1.13481  -1.12803  -1.12775  -1.12768
 Alpha  occ. eigenvalues --   -0.16770  -0.13810  -0.11791  -0.10796
 Alpha virt. eigenvalues --   -0.06509  -0.05902  -0.04730  -0.03499  -0.02885
 Alpha virt. eigenvalues --   -0.02226  -0.01962  -0.01627  -0.01148  -0.00628
 Alpha virt. eigenvalues --   -0.00502   0.00190   0.00294   0.00367   0.00532

  Beta  occ. eigenvalues --  -38.44846 -38.44617 -38.44443 -38.44199 -38.44139
  Beta  occ. eigenvalues --  -38.44014 -38.43363  -2.20609  -2.20361  -2.20211
  Beta  occ. eigenvalues --   -2.19983  -2.19901  -2.19775  -2.19123  -1.14298
  Beta  occ. eigenvalues --   -1.14280  -1.14223  -1.14077  -1.14038  -1.14013
  Beta  occ. eigenvalues --   -1.13896  -1.13877  -1.13840  -1.13688  -1.13665
  Beta  occ. eigenvalues --   -1.13608  -1.13590  -1.13583  -1.13538  -1.13459
  Beta  occ. eigenvalues --   -1.13451  -1.13427  -1.12806  -1.12778  -1.12764
  Beta  occ. eigenvalues --   -0.16123  -0.13304  -0.11665
  Beta virt. eigenvalues --   -0.07273  -0.06324  -0.05669  -0.04201  -0.03353
  Beta virt. eigenvalues --   -0.02350  -0.01898  -0.01565  -0.01471  -0.00942
  Beta virt. eigenvalues --   -0.00497  -0.00183   0.00292   0.00409   0.00457

 Mulliken charges and spin densities:
               1          2
     1  Na  -0.068337  -0.049949
     2  Na  -0.567589  -0.053235
     3  Na   0.306768   0.055815
     4  Na   0.013856   0.057643
     5  Na   0.375544   0.257957
     6  Na   0.066719   0.413208
     7  Na  -0.126962   0.318561
 Sum of Mulliken charges =  -0.00000   1.00000

 Dipole moment (field-independent basis, Debye):
    X=              0.1569    Y=             -0.5439    Z=              0.1554  Tot=              0.5870
 Quadrupole moment (field-independent basis, Debye-Ang):
   XX=            -60.9377   YY=            -68.8860   ZZ=            -68.6041
   XY=              3.7050   XZ=             -1.5157   YZ=              2.7121

 Normal termination of Gaussian 16 at Sun Dec  3 16:02:35 2023.
