 Gaussian 16, Revision B.01,
 Gaussian 16:  ES64L-G16RevB.01 20-Dec-2017

 -------------------------
 #P B3LYP/6-311+g(d) force
 -------------------------

 -----
 DPGEN
 -----
 Symbolic Z-matrix:
 Charge =  0 Multiplicity = 2

                         Standard orientation:
 ---------------------------------------------------------------------
 Center     Atomic      Atomic             Coordinates (Angstroms)
 Number     Number       Type             X           Y           Z
 ---------------------------------------------------------------------
      1         11           0       -1.148042   -2.545390   -0.002345
      2         11           0       -3.052150   -0.346286    0.123323
      3         11           0       -1.180910    2.895089   -0.162848
      4         11           0        2.346653   -1.821724   -0.148483
      5         11           0       -0.042223    0.069685   -1.624920
      6         11           0        0.553969    0.352340    2.091783
      7         11           0        2.522703    1.396286   -0.276510
 ---------------------------------------------------------------------

 SCF Done:  E(UB3LYP) =  -1136.13401109     A.U. after   19 cycles

 The electronic state is 2-A.
 Alpha  occ. eigenvalues --  -38.44062 -38.43940 -38.43722 -38.43607 -38.43559
 Alpha  occ. eigenvalues --  -38.43246 -38.43134  -2.19932  -2.19846  -2.19611
 Alpha  occ. eigenvalues --   -2.19487  -2.19367  -2.19156  -2.19145  -1.13682
 Alpha  occ. eigenvalues --   -1.13582  -1.13559  -1.13554  -1.13530  -1.13469
 Alpha  occ. eigenvalues --   -1.13268  -1.13242  -1.13223  -1.13163  -1.13139
 Alpha  occ. eigenvalues --   -1.13128  -1.13054  -1.13026  -1.13004  -1.12878
 Alpha  occ. eigenvalues --   -1.12816  -1.12814  -1.12780  -1.12764  -1.12743
 Alpha  occ. eigenvalues --   -0.18906  -0.13339  -0.12390  -0.10869
 Alpha virt. eigenvalues --   -0.05633  -0.05195  -0.04554  -0.03365  -0.02850
 Alpha virt. eigenvalues --   -0.02622  -0.01393  -0.01152  -0.00303  -0.00156
 Alpha virt. eigenvalues --   -0.00021   0.00366   0.00814   0.00882   0.00926

  Beta  occ. eigenvalues --  -38.44061 -38.43929 -38.43627 -38.43600 -38.43557
  Beta  occ. eigenvalues --  -38.43242 -38.43068  -2.19932  -2.19830  -2.19478
  Beta  occ. eigenvalues --   -2.19435  -2.19366  -2.19152  -2.19025  -1.13685
  Beta  occ. eigenvalues --   -1.13565  -1.13557  -1.13550  -1.13475  -1.13464
  Beta  occ. eigenvalues --   -1.13167  -1.13145  -1.13129  -1.13118  -1.13113
  Beta  occ. eigenvalues --   -1.13086  -1.13043  -1.13016  -1.13006  -1.12854
  Beta  occ. eigenvalues --   -1.12803  -1.12767  -1.12738  -1.12685  -1.12664
  Beta  occ. eigenvalues --   -0.18168  -0.13103  -0.12161
  Beta virt. eigenvalues --   -0.06916  -0.05594  -0.05156  -0.04540  -0.02554
  Beta virt. eigenvalues --   -0.02084  -0.01554  -0.01302  -0.01089  -0.00353
  Beta virt. eigenvalues --   -0.00203   0.00139   0.00395   0.00853   0.00913

 Mulliken charges and spin densities:
               1          2
     1  Na   0.124297  -0.002668
     2  Na   0.013953  -0.019644
     3  Na   0.080027  -0.089394
     4  Na   0.284237   0.048409
     5  Na  -0.298809   0.373514
     6  Na  -0.695985   0.726790
     7  Na   0.492279  -0.037007
 Sum of Mulliken charges =  -0.00000   1.00000

 Dipole moment (field-independent basis, Debye):
    X=              0.0912    Y=              0.2326    Z=              0.1913  Tot=              0.3147
 Quadrupole moment (field-independent basis, Debye-Ang):
   XX=            -57.7405   YY=            -63.0022   ZZ=            -73.7924
   XY=             -1.0774   XZ=             -1.3086   YZ=             -0.4474

 Normal termination of Gaussian 16 at Thu Dec  7 21:55:01 2023.
