 Gaussian 16, Revision B.01,
 Gaussian 16:  ES64L-G16RevB.01 20-Dec-2017

 -------------------------
 #P B3LYP/6-311+g(d) force
 -------------------------

 -----
 DPGEN
 -----
 Symbolic Z-matrix:
 Charge =  0 Multiplicity = 2

                         Standard orientation:
 ---------------------------------------------------------------------
 Center     Atomic      Atomic             Coordinates (Angstroms)
 Number     Number       Type             X           Y           Z
 ---------------------------------------------------------------------
      1         11           0       -3.754374   -1.443210   -0.619188
      2         11           0       -0.664308   -3.041763   -0.842811
      3         11           0        0.876561   -2.245609    1.487124
      4         11           0        4.263930   -0.773957    0.182394
      5         11           0        2.690619    2.075643   -1.122745
      6         11           0       -3.194285    2.207892    0.586427
      7         11           0       -0.218143    3.221003    0.328800
 ---------------------------------------------------------------------

 SCF Done:  E(UB3LYP) =  -1136.10548575     A.U. after   24 cycles

 The electronic state is 2-A.
 Alpha  occ. eigenvalues --  -38.45386 -38.44746 -38.44594 -38.44572 -38.44242
 Alpha  occ. eigenvalues --  -38.43855 -38.43854  -2.21135  -2.20526  -2.20428
 Alpha  occ. eigenvalues --   -2.20353  -2.20086  -2.19670  -2.19654  -1.14813
 Alpha  occ. eigenvalues --   -1.14785  -1.14776  -1.14221  -1.14211  -1.14196
 Alpha  occ. eigenvalues --   -1.14167  -1.14080  -1.14057  -1.14024  -1.14017
 Alpha  occ. eigenvalues --   -1.13983  -1.13724  -1.13708  -1.13687  -1.13329
 Alpha  occ. eigenvalues --   -1.13327  -1.13314  -1.13306  -1.13283  -1.13283
 Alpha  occ. eigenvalues --   -0.15920  -0.13599  -0.13444  -0.10353
 Alpha virt. eigenvalues --   -0.07641  -0.05034  -0.04327  -0.03703  -0.03478
 Alpha virt. eigenvalues --   -0.02321  -0.01911  -0.01551  -0.01133  -0.01009
 Alpha virt. eigenvalues --   -0.00600  -0.00093   0.00161   0.00409   0.00568

  Beta  occ. eigenvalues --  -38.45371 -38.44736 -38.44590 -38.44551 -38.44182
  Beta  occ. eigenvalues --  -38.43829 -38.43768  -2.21110  -2.20515  -2.20428
  Beta  occ. eigenvalues --   -2.20315  -2.19976  -2.19626  -2.19493  -1.14798
  Beta  occ. eigenvalues --   -1.14771  -1.14738  -1.14196  -1.14192  -1.14190
  Beta  occ. eigenvalues --   -1.14138  -1.14086  -1.14040  -1.14000  -1.13991
  Beta  occ. eigenvalues --   -1.13949  -1.13656  -1.13630  -1.13617  -1.13300
  Beta  occ. eigenvalues --   -1.13297  -1.13279  -1.13196  -1.13178  -1.13174
  Beta  occ. eigenvalues --   -0.15453  -0.13014  -0.12717
  Beta virt. eigenvalues --   -0.07788  -0.07156  -0.04647  -0.03908  -0.03450
  Beta virt. eigenvalues --   -0.03061  -0.02212  -0.01663  -0.01175  -0.00993
  Beta virt. eigenvalues --   -0.00895  -0.00347   0.00041   0.00352   0.00527

 Mulliken charges and spin densities:
               1          2
     1  Na  -0.081953   0.415859
     2  Na   0.120342  -0.019937
     3  Na  -0.249494   0.322346
     4  Na   0.165464   0.043159
     5  Na   0.042739   0.174945
     6  Na   0.152678   0.031459
     7  Na  -0.149776   0.032168
 Sum of Mulliken charges =  -0.00000   1.00000

 Dipole moment (field-independent basis, Debye):
    X=              0.9996    Y=             -0.3079    Z=              0.1349  Tot=              1.0546
 Quadrupole moment (field-independent basis, Debye-Ang):
   XX=            -63.3832   YY=            -70.7981   ZZ=            -68.4290
   XY=             -5.2289   XZ=             -0.6663   YZ=              0.6936

 Normal termination of Gaussian 16 at Sun Dec  3 15:48:52 2023.
