 Gaussian 16, Revision B.01,
 Gaussian 16:  ES64L-G16RevB.01 20-Dec-2017

 -------------------------
 #P B3LYP/6-311+g(d) force
 -------------------------

 -----
 DPGEN
 -----
 Symbolic Z-matrix:
 Charge =  0 Multiplicity = 2

                         Standard orientation:
 ---------------------------------------------------------------------
 Center     Atomic      Atomic             Coordinates (Angstroms)
 Number     Number       Type             X           Y           Z
 ---------------------------------------------------------------------
      1         11           0       -3.108884   -0.490344    1.456709
      2         11           0       -1.735267    0.857926   -1.419488
      3         11           0       -1.126475   -2.316972   -0.726595
      4         11           0        3.628641   -0.042210    0.954186
      5         11           0        0.098950    3.068632   -0.504792
      6         11           0        0.130141    0.262528    1.347848
      7         11           0        2.112893   -1.339560   -1.107867
 ---------------------------------------------------------------------

 SCF Done:  E(UB3LYP) =  -1136.12457839     A.U. after   20 cycles

 The electronic state is 2-A.
 Alpha  occ. eigenvalues --  -38.44533 -38.44346 -38.43906 -38.43729 -38.43584
 Alpha  occ. eigenvalues --  -38.43231 -38.42762  -2.20390  -2.20211  -2.19805
 Alpha  occ. eigenvalues --   -2.19689  -2.19540  -2.19126  -2.18617  -1.14157
 Alpha  occ. eigenvalues --   -1.14026  -1.14003  -1.13882  -1.13856  -1.13822
 Alpha  occ. eigenvalues --   -1.13470  -1.13449  -1.13434  -1.13400  -1.13332
 Alpha  occ. eigenvalues --   -1.13322  -1.13223  -1.13195  -1.13179  -1.12809
 Alpha  occ. eigenvalues --   -1.12790  -1.12741  -1.12299  -1.12266  -1.12245
 Alpha  occ. eigenvalues --   -0.18568  -0.13816  -0.11933  -0.11159
 Alpha virt. eigenvalues --   -0.06268  -0.04898  -0.04378  -0.03505  -0.02736
 Alpha virt. eigenvalues --   -0.02492  -0.02049  -0.00881  -0.00688  -0.00020
 Alpha virt. eigenvalues --    0.00163   0.00249   0.00458   0.00805   0.00893

  Beta  occ. eigenvalues --  -38.44517 -38.44288 -38.43887 -38.43694 -38.43548
  Beta  occ. eigenvalues --  -38.43202 -38.42759  -2.20359  -2.20104  -2.19774
  Beta  occ. eigenvalues --   -2.19626  -2.19476  -2.19076  -2.18614  -1.14140
  Beta  occ. eigenvalues --   -1.14000  -1.13981  -1.13797  -1.13785  -1.13756
  Beta  occ. eigenvalues --   -1.13448  -1.13418  -1.13402  -1.13347  -1.13299
  Beta  occ. eigenvalues --   -1.13266  -1.13182  -1.13149  -1.13120  -1.12775
  Beta  occ. eigenvalues --   -1.12753  -1.12685  -1.12290  -1.12258  -1.12245
  Beta  occ. eigenvalues --   -0.17901  -0.13570  -0.11629
  Beta virt. eigenvalues --   -0.07404  -0.06052  -0.04330  -0.04251  -0.03328
  Beta virt. eigenvalues --   -0.02192  -0.02028  -0.01496  -0.00662  -0.00443
  Beta virt. eigenvalues --    0.00053   0.00273   0.00352   0.00568   0.00864

 Mulliken charges and spin densities:
               1          2
     1  Na   0.425934   0.043068
     2  Na   0.102719   0.380185
     3  Na   0.025487   0.216303
     4  Na   0.487360   0.130663
     5  Na  -0.128144  -0.027600
     6  Na  -0.584551   0.235405
     7  Na  -0.328805   0.021977
 Sum of Mulliken charges =  -0.00000   1.00000

 Dipole moment (field-independent basis, Debye):
    X=              0.1754    Y=             -0.1115    Z=              0.2312  Tot=              0.3109
 Quadrupole moment (field-independent basis, Debye-Ang):
   XX=            -53.9701   YY=            -72.0084   ZZ=            -68.7748
   XY=              2.3166   XZ=              0.3357   YZ=              1.4245

 Normal termination of Gaussian 16 at Thu Dec  7 12:04:29 2023.
