 Gaussian 16, Revision B.01,
 Gaussian 16:  ES64L-G16RevB.01 20-Dec-2017

 -------------------------
 #P B3LYP/6-311+g(d) force
 -------------------------

 -----
 DPGEN
 -----
 Symbolic Z-matrix:
 Charge =  0 Multiplicity = 2

                         Standard orientation:
 ---------------------------------------------------------------------
 Center     Atomic      Atomic             Coordinates (Angstroms)
 Number     Number       Type             X           Y           Z
 ---------------------------------------------------------------------
      1         11           0       -3.290085   -1.592203    0.945294
      2         11           0       -2.892257    2.023355   -0.068649
      3         11           0        0.809933    1.784692   -1.219035
      4         11           0       -0.954991   -1.191836   -1.417302
      5         11           0        3.789913    0.405247    1.027547
      6         11           0        0.340484    0.197073    1.593018
      7         11           0        2.197004   -1.626327   -0.860872
 ---------------------------------------------------------------------

 SCF Done:  E(UB3LYP) =  -1136.12162490     A.U. after   26 cycles

 The electronic state is 2-A.
 Alpha  occ. eigenvalues --  -38.45131 -38.44809 -38.44226 -38.43964 -38.43613
 Alpha  occ. eigenvalues --  -38.43329 -38.43003  -2.20993  -2.20652  -2.19986
 Alpha  occ. eigenvalues --   -2.19771  -2.19513  -2.19205  -2.18928  -1.14720
 Alpha  occ. eigenvalues --   -1.14638  -1.14605  -1.14320  -1.14301  -1.14268
 Alpha  occ. eigenvalues --   -1.13677  -1.13638  -1.13623  -1.13440  -1.13415
 Alpha  occ. eigenvalues --   -1.13405  -1.13208  -1.13168  -1.13151  -1.12912
 Alpha  occ. eigenvalues --   -1.12864  -1.12797  -1.12627  -1.12567  -1.12554
 Alpha  occ. eigenvalues --   -0.18481  -0.14103  -0.11364  -0.10787
 Alpha virt. eigenvalues --   -0.06803  -0.05503  -0.04599  -0.03021  -0.02736
 Alpha virt. eigenvalues --   -0.02578  -0.02203  -0.01228  -0.00922  -0.00211
 Alpha virt. eigenvalues --    0.00054   0.00247   0.00377   0.00496   0.00565

  Beta  occ. eigenvalues --  -38.45108 -38.44765 -38.44231 -38.43932 -38.43588
  Beta  occ. eigenvalues --  -38.43284 -38.42962  -2.20953  -2.20570  -2.19998
  Beta  occ. eigenvalues --   -2.19710  -2.19473  -2.19125  -2.18858  -1.14680
  Beta  occ. eigenvalues --   -1.14615  -1.14570  -1.14266  -1.14237  -1.14214
  Beta  occ. eigenvalues --   -1.13684  -1.13646  -1.13624  -1.13399  -1.13377
  Beta  occ. eigenvalues --   -1.13361  -1.13170  -1.13134  -1.13108  -1.12858
  Beta  occ. eigenvalues --   -1.12785  -1.12746  -1.12583  -1.12507  -1.12484
  Beta  occ. eigenvalues --   -0.17752  -0.13700  -0.10611
  Beta virt. eigenvalues --   -0.07596  -0.06567  -0.05385  -0.04005  -0.02824
  Beta virt. eigenvalues --   -0.02498  -0.02029  -0.01502  -0.01157  -0.00580
  Beta virt. eigenvalues --   -0.00096   0.00121   0.00269   0.00475   0.00596

 Mulliken charges and spin densities:
               1          2
     1  Na   0.185814   0.188940
     2  Na  -0.069264  -0.019975
     3  Na  -0.252313   0.172340
     4  Na   0.069115   0.079184
     5  Na   0.701405   0.279666
     6  Na  -0.504700   0.196395
     7  Na  -0.130056   0.103450
 Sum of Mulliken charges =  -0.00000   1.00000

 Dipole moment (field-independent basis, Debye):
    X=              0.5559    Y=              0.4198    Z=              0.4472  Tot=              0.8278
 Quadrupole moment (field-independent basis, Debye-Ang):
   XX=            -49.2804   YY=            -77.6964   ZZ=            -67.8281
   XY=             -0.4960   XZ=             -1.0072   YZ=             -1.5554

 Normal termination of Gaussian 16 at Fri Dec  8 04:10:03 2023.
