 Gaussian 16, Revision B.01,
 Gaussian 16:  ES64L-G16RevB.01 20-Dec-2017

 -------------------------
 #P B3LYP/6-311+g(d) force
 -------------------------

 -----
 DPGEN
 -----
 Symbolic Z-matrix:
 Charge =  0 Multiplicity = 2

                         Standard orientation:
 ---------------------------------------------------------------------
 Center     Atomic      Atomic             Coordinates (Angstroms)
 Number     Number       Type             X           Y           Z
 ---------------------------------------------------------------------
      1         11           0        3.867913   -0.829531    1.061581
      2         11           0       -2.317833   -1.752485   -1.132669
      3         11           0       -3.537870    0.142126    1.600084
      4         11           0        1.526321    2.451540   -0.534403
      5         11           0        0.474937   -0.364951    1.485890
      6         11           0       -1.419593    1.562748   -0.894386
      7         11           0        1.406123   -1.209447   -1.586097
 ---------------------------------------------------------------------

 SCF Done:  E(UB3LYP) =  -1136.12610816     A.U. after   24 cycles

 The electronic state is 2-A.
 Alpha  occ. eigenvalues --  -38.44667 -38.44520 -38.44512 -38.44216 -38.44123
 Alpha  occ. eigenvalues --  -38.42700 -38.42473  -2.20529  -2.20368  -2.20322
 Alpha  occ. eigenvalues --   -2.20046  -2.19919  -2.18616  -2.18331  -1.14264
 Alpha  occ. eigenvalues --   -1.14182  -1.14141  -1.14063  -1.14002  -1.13981
 Alpha  occ. eigenvalues --   -1.13974  -1.13974  -1.13941  -1.13728  -1.13706
 Alpha  occ. eigenvalues --   -1.13659  -1.13591  -1.13574  -1.13543  -1.12323
 Alpha  occ. eigenvalues --   -1.12295  -1.12260  -1.11996  -1.11977  -1.11962
 Alpha  occ. eigenvalues --   -0.18185  -0.13863  -0.11481  -0.10948
 Alpha virt. eigenvalues --   -0.06397  -0.05476  -0.04742  -0.03230  -0.02590
 Alpha virt. eigenvalues --   -0.02423  -0.02275  -0.01269  -0.00887  -0.00205
 Alpha virt. eigenvalues --    0.00103   0.00237   0.00365   0.00472   0.00604

  Beta  occ. eigenvalues --  -38.44644 -38.44466 -38.44466 -38.44177 -38.44109
  Beta  occ. eigenvalues --  -38.42693 -38.42473  -2.20488  -2.20271  -2.20234
  Beta  occ. eigenvalues --   -2.19977  -2.19893  -2.18607  -2.18332  -1.14220
  Beta  occ. eigenvalues --   -1.14153  -1.14110  -1.14001  -1.13933  -1.13920
  Beta  occ. eigenvalues --   -1.13908  -1.13889  -1.13888  -1.13681  -1.13660
  Beta  occ. eigenvalues --   -1.13589  -1.13568  -1.13555  -1.13528  -1.12320
  Beta  occ. eigenvalues --   -1.12273  -1.12246  -1.11991  -1.11977  -1.11964
  Beta  occ. eigenvalues --   -0.17491  -0.13620  -0.10840
  Beta virt. eigenvalues --   -0.07612  -0.06186  -0.04794  -0.04641  -0.02921
  Beta virt. eigenvalues --   -0.02326  -0.01880  -0.01801  -0.00928  -0.00669
  Beta virt. eigenvalues --   -0.00056   0.00160   0.00344   0.00489   0.00554

 Mulliken charges and spin densities:
               1          2
     1  Na   0.793792   0.064500
     2  Na  -0.024646   0.130559
     3  Na   0.703467   0.089917
     4  Na  -0.151201  -0.144306
     5  Na  -1.066971   0.339135
     6  Na  -0.158509   0.276171
     7  Na  -0.095931   0.244025
 Sum of Mulliken charges =  -0.00000   1.00000

 Dipole moment (field-independent basis, Debye):
    X=              0.0512    Y=             -0.3210    Z=              0.2065  Tot=              0.3851
 Quadrupole moment (field-independent basis, Debye-Ang):
   XX=            -51.8056   YY=            -76.8242   ZZ=            -66.9032
   XY=              1.4136   XZ=             -1.5318   YZ=              4.2411

 Normal termination of Gaussian 16 at Tue Dec  5 13:23:45 2023.
