 Gaussian 16, Revision B.01,
 Gaussian 16:  ES64L-G16RevB.01 20-Dec-2017

 -------------------------
 #P B3LYP/6-311+g(d) force
 -------------------------

 -----
 DPGEN
 -----
 Symbolic Z-matrix:
 Charge =  0 Multiplicity = 2

                         Standard orientation:
 ---------------------------------------------------------------------
 Center     Atomic      Atomic             Coordinates (Angstroms)
 Number     Number       Type             X           Y           Z
 ---------------------------------------------------------------------
      1         11           0       -2.446461    2.287448    0.042967
      2         11           0       -3.028918   -1.542133   -0.803883
      3         11           0       -0.932765   -0.834060    1.873317
      4         11           0       -0.091883    0.001477   -1.565100
      5         11           0        1.177931    1.845185    0.717009
      6         11           0        3.591486    0.546022   -0.598316
      7         11           0        1.730610   -2.303938    0.334007
 ---------------------------------------------------------------------

 SCF Done:  E(UB3LYP) =  -1136.12784943     A.U. after   21 cycles

 The electronic state is 2-A.
 Alpha  occ. eigenvalues --  -38.44522 -38.44414 -38.43984 -38.43948 -38.43617
 Alpha  occ. eigenvalues --  -38.43306 -38.43116  -2.20369  -2.20226  -2.19911
 Alpha  occ. eigenvalues --   -2.19732  -2.19445  -2.19203  -2.19032  -1.14073
 Alpha  occ. eigenvalues --   -1.14013  -1.13991  -1.13903  -1.13875  -1.13852
 Alpha  occ. eigenvalues --   -1.13635  -1.13553  -1.13525  -1.13411  -1.13380
 Alpha  occ. eigenvalues --   -1.13378  -1.13127  -1.13121  -1.13071  -1.12888
 Alpha  occ. eigenvalues --   -1.12838  -1.12810  -1.12735  -1.12688  -1.12649
 Alpha  occ. eigenvalues --   -0.18439  -0.13694  -0.11525  -0.10791
 Alpha virt. eigenvalues --   -0.06407  -0.05693  -0.03998  -0.03279  -0.02647
 Alpha virt. eigenvalues --   -0.02357  -0.02214  -0.01405  -0.00597  -0.00186
 Alpha virt. eigenvalues --    0.00131   0.00215   0.00468   0.00654   0.00764

  Beta  occ. eigenvalues --  -38.44510 -38.44382 -38.43948 -38.43942 -38.43607
  Beta  occ. eigenvalues --  -38.43232 -38.43098  -2.20347  -2.20170  -2.19837
  Beta  occ. eigenvalues --   -2.19735  -2.19432  -2.19068  -2.19004  -1.14060
  Beta  occ. eigenvalues --   -1.13992  -1.13977  -1.13850  -1.13841  -1.13813
  Beta  occ. eigenvalues --   -1.13571  -1.13507  -1.13469  -1.13406  -1.13383
  Beta  occ. eigenvalues --   -1.13371  -1.13119  -1.13091  -1.13061  -1.12796
  Beta  occ. eigenvalues --   -1.12741  -1.12721  -1.12708  -1.12635  -1.12633
  Beta  occ. eigenvalues --   -0.17765  -0.13409  -0.11292
  Beta virt. eigenvalues --   -0.06985  -0.06227  -0.05680  -0.03555  -0.03008
  Beta virt. eigenvalues --   -0.02160  -0.01880  -0.01437  -0.01338  -0.00454
  Beta virt. eigenvalues --   -0.00025   0.00130   0.00261   0.00588   0.00718

 Mulliken charges and spin densities:
               1          2
     1  Na   0.008956  -0.020741
     2  Na   0.044146   0.045522
     3  Na   0.127045   0.393239
     4  Na  -0.278679   0.364411
     5  Na  -0.269677   0.080731
     6  Na   0.568947   0.093050
     7  Na  -0.200737   0.043788
 Sum of Mulliken charges =  -0.00000   1.00000

 Dipole moment (field-independent basis, Debye):
    X=             -0.0753    Y=             -0.1485    Z=             -0.1398  Tot=              0.2174
 Quadrupole moment (field-independent basis, Debye-Ang):
   XX=            -49.3174   YY=            -70.8917   ZZ=            -72.3345
   XY=             -0.8161   XZ=             -0.9640   YZ=              0.9153

 Normal termination of Gaussian 16 at Tue Dec  5 14:44:21 2023.
