 Gaussian 16, Revision B.01,
 Gaussian 16:  ES64L-G16RevB.01 20-Dec-2017

 -------------------------
 #P B3LYP/6-311+g(d) force
 -------------------------

 -----
 DPGEN
 -----
 Symbolic Z-matrix:
 Charge =  0 Multiplicity = 2

                         Standard orientation:
 ---------------------------------------------------------------------
 Center     Atomic      Atomic             Coordinates (Angstroms)
 Number     Number       Type             X           Y           Z
 ---------------------------------------------------------------------
      1         11           0        0.150273    0.206432   -1.540589
      2         11           0       -1.346445    1.951361    1.282654
      3         11           0       -1.495833   -1.776709    0.748146
      4         11           0        2.954546   -1.718090   -0.718135
      5         11           0        1.411843   -0.733077    1.705788
      6         11           0        2.121714    2.350214   -0.476363
      7         11           0       -3.796098   -0.280131   -1.001501
 ---------------------------------------------------------------------

 SCF Done:  E(UB3LYP) =  -1136.12653113     A.U. after   21 cycles

 The electronic state is 2-A.
 Alpha  occ. eigenvalues --  -38.44555 -38.44030 -38.43953 -38.43861 -38.43522
 Alpha  occ. eigenvalues --  -38.43420 -38.43333  -2.20359  -2.19871  -2.19799
 Alpha  occ. eigenvalues --   -2.19761  -2.19411  -2.19363  -2.19161  -1.14025
 Alpha  occ. eigenvalues --   -1.14013  -1.13985  -1.13590  -1.13536  -1.13500
 Alpha  occ. eigenvalues --   -1.13492  -1.13472  -1.13439  -1.13425  -1.13401
 Alpha  occ. eigenvalues --   -1.13371  -1.13150  -1.13088  -1.13037  -1.13004
 Alpha  occ. eigenvalues --   -1.12999  -1.12959  -1.12857  -1.12813  -1.12776
 Alpha  occ. eigenvalues --   -0.18431  -0.13624  -0.11403  -0.11154
 Alpha virt. eigenvalues --   -0.06243  -0.05337  -0.04314  -0.03223  -0.02720
 Alpha virt. eigenvalues --   -0.02543  -0.02072  -0.01070  -0.00898   0.00001
 Alpha virt. eigenvalues --    0.00197   0.00323   0.00456   0.00616   0.00690

  Beta  occ. eigenvalues --  -38.44525 -38.44020 -38.43915 -38.43821 -38.43503
  Beta  occ. eigenvalues --  -38.43368 -38.43332  -2.20304  -2.19854  -2.19727
  Beta  occ. eigenvalues --   -2.19692  -2.19382  -2.19271  -2.19160  -1.13989
  Beta  occ. eigenvalues --   -1.13969  -1.13949  -1.13579  -1.13516  -1.13475
  Beta  occ. eigenvalues --   -1.13445  -1.13424  -1.13389  -1.13363  -1.13348
  Beta  occ. eigenvalues --   -1.13330  -1.13112  -1.13039  -1.13017  -1.12951
  Beta  occ. eigenvalues --   -1.12922  -1.12895  -1.12847  -1.12815  -1.12769
  Beta  occ. eigenvalues --   -0.17704  -0.13322  -0.11214
  Beta virt. eigenvalues --   -0.07369  -0.06009  -0.05168  -0.03878  -0.03036
  Beta virt. eigenvalues --   -0.02140  -0.02012  -0.01580  -0.01003  -0.00547
  Beta virt. eigenvalues --    0.00090   0.00238   0.00340   0.00576   0.00716

 Mulliken charges and spin densities:
               1          2
     1  Na  -0.355910   0.361573
     2  Na  -0.280876   0.179718
     3  Na  -0.095374   0.088044
     4  Na   0.064964   0.049049
     5  Na   0.380482   0.208428
     6  Na   0.021369  -0.015151
     7  Na   0.265345   0.128339
 Sum of Mulliken charges =  -0.00000   1.00000

 Dipole moment (field-independent basis, Debye):
    X=             -0.3970    Y=              0.2060    Z=             -0.1487  Tot=              0.4713
 Quadrupole moment (field-independent basis, Debye-Ang):
   XX=            -51.8002   YY=            -72.7407   ZZ=            -68.8681
   XY=             -1.3625   XZ=              0.0532   YZ=              2.7547

 Normal termination of Gaussian 16 at Wed Dec  6 01:09:24 2023.
