 Gaussian 16, Revision B.01,
 Gaussian 16:  ES64L-G16RevB.01 20-Dec-2017

 -------------------------
 #P B3LYP/6-311+g(d) force
 -------------------------

 -----
 DPGEN
 -----
 Symbolic Z-matrix:
 Charge =  0 Multiplicity = 2

                         Standard orientation:
 ---------------------------------------------------------------------
 Center     Atomic      Atomic             Coordinates (Angstroms)
 Number     Number       Type             X           Y           Z
 ---------------------------------------------------------------------
      1         11           0        3.134728   -0.247381   -0.005202
      2         11           0        0.078989   -0.501953   -1.596037
      3         11           0       -2.828163   -1.189125   -0.150089
      4         11           0        0.421919   -2.864279    0.250291
      5         11           0       -0.113636    0.120418    1.694588
      6         11           0        1.273356    2.433319   -0.177713
      7         11           0       -1.967193    2.249003   -0.015839
 ---------------------------------------------------------------------

 SCF Done:  E(UB3LYP) =  -1136.13729490     A.U. after   19 cycles

 The electronic state is 2-A.
 Alpha  occ. eigenvalues --  -38.43954 -38.43927 -38.43654 -38.43491 -38.43261
 Alpha  occ. eigenvalues --  -38.42910 -38.42864  -2.19804  -2.19775  -2.19542
 Alpha  occ. eigenvalues --   -2.19366  -2.19180  -2.18937  -2.18874  -1.13489
 Alpha  occ. eigenvalues --   -1.13469  -1.13454  -1.13439  -1.13436  -1.13417
 Alpha  occ. eigenvalues --   -1.13279  -1.13210  -1.13142  -1.13065  -1.13033
 Alpha  occ. eigenvalues --   -1.13006  -1.12871  -1.12839  -1.12804  -1.12644
 Alpha  occ. eigenvalues --   -1.12572  -1.12541  -1.12538  -1.12495  -1.12481
 Alpha  occ. eigenvalues --   -0.19169  -0.13065  -0.12879  -0.10397
 Alpha virt. eigenvalues --   -0.05649  -0.05078  -0.04825  -0.02938  -0.02885
 Alpha virt. eigenvalues --   -0.02043  -0.01574  -0.01175  -0.00353  -0.00201
 Alpha virt. eigenvalues --    0.00043   0.00359   0.00835   0.00886   0.00933

  Beta  occ. eigenvalues --  -38.43947 -38.43924 -38.43643 -38.43486 -38.43253
  Beta  occ. eigenvalues --  -38.42843 -38.42784  -2.19796  -2.19772  -2.19528
  Beta  occ. eigenvalues --   -2.19361  -2.19169  -2.18814  -2.18727  -1.13479
  Beta  occ. eigenvalues --   -1.13454  -1.13441  -1.13434  -1.13424  -1.13407
  Beta  occ. eigenvalues --   -1.13267  -1.13170  -1.13137  -1.13063  -1.13019
  Beta  occ. eigenvalues --   -1.12991  -1.12863  -1.12809  -1.12792  -1.12558
  Beta  occ. eigenvalues --   -1.12485  -1.12447  -1.12443  -1.12389  -1.12377
  Beta  occ. eigenvalues --   -0.18448  -0.12805  -0.12615
  Beta virt. eigenvalues --   -0.06487  -0.05637  -0.05061  -0.04808  -0.02149
  Beta virt. eigenvalues --   -0.02092  -0.01497  -0.01111  -0.01027  -0.00410
  Beta virt. eigenvalues --   -0.00244   0.00174   0.00392   0.00855   0.00899

 Mulliken charges and spin densities:
               1          2
     1  Na   0.179749  -0.054359
     2  Na  -0.450865   0.633990
     3  Na   0.201118  -0.079999
     4  Na   0.187928  -0.114078
     5  Na  -0.390586   0.692639
     6  Na   0.133962  -0.032825
     7  Na   0.138695  -0.045368
 Sum of Mulliken charges =  -0.00000   1.00000

 Dipole moment (field-independent basis, Debye):
    X=             -0.0522    Y=             -0.2500    Z=              0.0432  Tot=              0.2590
 Quadrupole moment (field-independent basis, Debye-Ang):
   XX=            -55.0185   YY=            -60.5886   ZZ=            -76.2372
   XY=             -0.3768   XZ=              0.4841   YZ=             -1.3264

 Normal termination of Gaussian 16 at Fri Dec  8 02:29:17 2023.
