 Gaussian 16, Revision B.01,
 Gaussian 16:  ES64L-G16RevB.01 20-Dec-2017

 -------------------------
 #P B3LYP/6-311+g(d) force
 -------------------------

 -----
 DPGEN
 -----
 Symbolic Z-matrix:
 Charge =  0 Multiplicity = 2

                         Standard orientation:
 ---------------------------------------------------------------------
 Center     Atomic      Atomic             Coordinates (Angstroms)
 Number     Number       Type             X           Y           Z
 ---------------------------------------------------------------------
      1         11           0        0.181839    1.150016    1.353284
      2         11           0        1.617018    3.506291   -0.406027
      3         11           0        3.065679    0.798812   -0.370665
      4         11           0        3.629161   -2.836711   -0.362444
      5         11           0        0.043235   -1.988770    0.621865
      6         11           0       -2.806658   -0.531835   -0.668788
      7         11           0       -5.730272   -0.097802   -0.167224
 ---------------------------------------------------------------------

 SCF Done:  E(UB3LYP) =  -1136.11967292     A.U. after   18 cycles

 The electronic state is 2-A.
 Alpha  occ. eigenvalues --  -38.44712 -38.44317 -38.44277 -38.43867 -38.43836
 Alpha  occ. eigenvalues --  -38.43729 -38.43563  -2.20605  -2.20153  -2.20150
 Alpha  occ. eigenvalues --   -2.19717  -2.19700  -2.19508  -2.19408  -1.14303
 Alpha  occ. eigenvalues --   -1.14273  -1.14215  -1.13846  -1.13837  -1.13833
 Alpha  occ. eigenvalues --   -1.13780  -1.13772  -1.13771  -1.13417  -1.13392
 Alpha  occ. eigenvalues --   -1.13362  -1.13342  -1.13328  -1.13307  -1.13172
 Alpha  occ. eigenvalues --   -1.13163  -1.13128  -1.13092  -1.13075  -1.13050
 Alpha  occ. eigenvalues --   -0.17248  -0.14000  -0.12400  -0.11302
 Alpha virt. eigenvalues --   -0.05907  -0.05322  -0.04692  -0.03699  -0.03050
 Alpha virt. eigenvalues --   -0.02212  -0.01518  -0.01452  -0.01328  -0.00924
 Alpha virt. eigenvalues --   -0.00534   0.00016   0.00389   0.00536   0.00567

  Beta  occ. eigenvalues --  -38.44670 -38.44245 -38.44235 -38.43831 -38.43829
  Beta  occ. eigenvalues --  -38.43692 -38.43564  -2.20531  -2.20097  -2.19998
  Beta  occ. eigenvalues --   -2.19688  -2.19655  -2.19438  -2.19420  -1.14256
  Beta  occ. eigenvalues --   -1.14226  -1.14143  -1.13809  -1.13791  -1.13739
  Beta  occ. eigenvalues --   -1.13735  -1.13668  -1.13667  -1.13371  -1.13350
  Beta  occ. eigenvalues --   -1.13345  -1.13334  -1.13322  -1.13256  -1.13125
  Beta  occ. eigenvalues --   -1.13108  -1.13095  -1.13091  -1.13086  -1.13006
  Beta  occ. eigenvalues --   -0.16658  -0.13264  -0.12018
  Beta virt. eigenvalues --   -0.07941  -0.05546  -0.05099  -0.04343  -0.03373
  Beta virt. eigenvalues --   -0.02735  -0.02032  -0.01379  -0.01115  -0.00997
  Beta virt. eigenvalues --   -0.00525  -0.00303   0.00168   0.00506   0.00595

 Mulliken charges and spin densities:
               1          2
     1  Na   0.178650   0.236478
     2  Na   0.349051   0.026072
     3  Na  -0.642522   0.277721
     4  Na   0.499303   0.180856
     5  Na  -0.354197  -0.101134
     6  Na  -0.366849   0.101196
     7  Na   0.336564   0.278811
 Sum of Mulliken charges =  -0.00000   1.00000

 Dipole moment (field-independent basis, Debye):
    X=              0.0212    Y=              0.8801    Z=              0.2859  Tot=              0.9256
 Quadrupole moment (field-independent basis, Debye-Ang):
   XX=            -65.9846   YY=            -63.2019   ZZ=            -69.2946
   XY=             -1.3795   XZ=             -3.0502   YZ=             -0.6826

 Normal termination of Gaussian 16 at Tue Nov 28 20:55:14 2023.
