 Gaussian 16, Revision B.01,
 Gaussian 16:  ES64L-G16RevB.01 20-Dec-2017

 -------------------------
 #P B3LYP/6-311+g(d) force
 -------------------------

 -----
 DPGEN
 -----
 Symbolic Z-matrix:
 Charge =  0 Multiplicity = 2

                         Standard orientation:
 ---------------------------------------------------------------------
 Center     Atomic      Atomic             Coordinates (Angstroms)
 Number     Number       Type             X           Y           Z
 ---------------------------------------------------------------------
      1         11           0       -1.033879    3.015969   -0.029236
      2         11           0       -0.972998   -2.695109   -0.185031
      3         11           0       -3.163264    0.007049   -0.526896
      4         11           0        0.131176   -0.242256   -1.320692
      5         11           0        2.580524   -1.671417    0.103255
      6         11           0        2.969003    1.630275   -0.278826
      7         11           0       -0.510563   -0.044511    2.237427
 ---------------------------------------------------------------------

 SCF Done:  E(UB3LYP) =  -1136.13201458     A.U. after   19 cycles

 The electronic state is 2-A.
 Alpha  occ. eigenvalues --  -38.44226 -38.44136 -38.43879 -38.43729 -38.43670
 Alpha  occ. eigenvalues --  -38.43296 -38.43146  -2.20058  -2.19930  -2.19733
 Alpha  occ. eigenvalues --   -2.19525  -2.19505  -2.19207  -2.19173  -1.13740
 Alpha  occ. eigenvalues --   -1.13715  -1.13686  -1.13604  -1.13600  -1.13569
 Alpha  occ. eigenvalues --   -1.13438  -1.13390  -1.13350  -1.13186  -1.13183
 Alpha  occ. eigenvalues --   -1.13169  -1.13154  -1.13146  -1.13130  -1.13073
 Alpha  occ. eigenvalues --   -1.12865  -1.12828  -1.12819  -1.12784  -1.12734
 Alpha  occ. eigenvalues --   -0.18405  -0.13174  -0.12195  -0.10599
 Alpha virt. eigenvalues --   -0.05881  -0.05317  -0.04737  -0.03091  -0.02708
 Alpha virt. eigenvalues --   -0.02500  -0.01704  -0.01174  -0.00725  -0.00449
 Alpha virt. eigenvalues --   -0.00035   0.00312   0.00745   0.00812   0.00853

  Beta  occ. eigenvalues --  -38.44209 -38.44135 -38.43876 -38.43729 -38.43559
  Beta  occ. eigenvalues --  -38.43287 -38.43106  -2.20031  -2.19928  -2.19731
  Beta  occ. eigenvalues --   -2.19507  -2.19319  -2.19190  -2.19108  -1.13713
  Beta  occ. eigenvalues --   -1.13691  -1.13665  -1.13601  -1.13594  -1.13569
  Beta  occ. eigenvalues --   -1.13435  -1.13377  -1.13348  -1.13175  -1.13165
  Beta  occ. eigenvalues --   -1.13150  -1.13062  -1.13035  -1.13013  -1.12984
  Beta  occ. eigenvalues --   -1.12822  -1.12799  -1.12775  -1.12743  -1.12696
  Beta  occ. eigenvalues --   -0.17710  -0.12948  -0.12004
  Beta virt. eigenvalues --   -0.06627  -0.05818  -0.05284  -0.04685  -0.02401
  Beta virt. eigenvalues --   -0.01954  -0.01633  -0.01412  -0.01116  -0.00730
  Beta virt. eigenvalues --   -0.00493   0.00154   0.00371   0.00810   0.00827

 Mulliken charges and spin densities:
               1          2
     1  Na  -0.052799  -0.025313
     2  Na   0.513330   0.142930
     3  Na   0.268669   0.057460
     4  Na  -0.460381   0.020073
     5  Na   0.283558   0.083801
     6  Na   0.029160  -0.015660
     7  Na  -0.581536   0.736710
 Sum of Mulliken charges =  -0.00000   1.00000

 Dipole moment (field-independent basis, Debye):
    X=              0.0418    Y=              0.1072    Z=              0.1793  Tot=              0.2130
 Quadrupole moment (field-independent basis, Debye-Ang):
   XX=            -55.3969   YY=            -61.9854   ZZ=            -75.5472
   XY=              0.3662   XZ=              1.3886   YZ=             -0.6787

 Normal termination of Gaussian 16 at Fri Dec  8 03:21:06 2023.
