 Gaussian 16, Revision B.01,
 Gaussian 16:  ES64L-G16RevB.01 20-Dec-2017

 -------------------------
 #P B3LYP/6-311+g(d) force
 -------------------------

 -----
 DPGEN
 -----
 Symbolic Z-matrix:
 Charge =  0 Multiplicity = 2

                         Standard orientation:
 ---------------------------------------------------------------------
 Center     Atomic      Atomic             Coordinates (Angstroms)
 Number     Number       Type             X           Y           Z
 ---------------------------------------------------------------------
      1         11           0        3.577088   -1.264163    0.553445
      2         11           0       -3.204297   -1.719306   -0.731868
      3         11           0       -0.831836    2.061503   -1.284898
      4         11           0       -2.887370    0.887385    1.657912
      5         11           0        0.775660   -0.122566    2.015026
      6         11           0        0.272176   -1.492175   -1.435716
      7         11           0        2.298580    1.649322   -0.773900
 ---------------------------------------------------------------------

 SCF Done:  E(UB3LYP) =  -1136.12353359     A.U. after   25 cycles

 The electronic state is 2-A.
 Alpha  occ. eigenvalues --  -38.44921 -38.44862 -38.44731 -38.44393 -38.44021
 Alpha  occ. eigenvalues --  -38.43354 -38.42379  -2.20750  -2.20691  -2.20528
 Alpha  occ. eigenvalues --   -2.20175  -2.19845  -2.19227  -2.18219  -1.14435
 Alpha  occ. eigenvalues --   -1.14406  -1.14374  -1.14363  -1.14329  -1.14306
 Alpha  occ. eigenvalues --   -1.14190  -1.14170  -1.14158  -1.13839  -1.13838
 Alpha  occ. eigenvalues --   -1.13810  -1.13515  -1.13511  -1.13484  -1.12910
 Alpha  occ. eigenvalues --   -1.12898  -1.12854  -1.11899  -1.11886  -1.11855
 Alpha  occ. eigenvalues --   -0.17931  -0.13817  -0.11787  -0.10986
 Alpha virt. eigenvalues --   -0.06574  -0.05579  -0.04737  -0.03446  -0.02814
 Alpha virt. eigenvalues --   -0.02511  -0.02343  -0.01337  -0.00741  -0.00218
 Alpha virt. eigenvalues --    0.00097   0.00213   0.00283   0.00400   0.00617

  Beta  occ. eigenvalues --  -38.44868 -38.44788 -38.44683 -38.44375 -38.44027
  Beta  occ. eigenvalues --  -38.43352 -38.42376  -2.20652  -2.20557  -2.20437
  Beta  occ. eigenvalues --   -2.20142  -2.19857  -2.19224  -2.18216  -1.14367
  Beta  occ. eigenvalues --   -1.14341  -1.14289  -1.14282  -1.14233  -1.14199
  Beta  occ. eigenvalues --   -1.14119  -1.14108  -1.14102  -1.13818  -1.13801
  Beta  occ. eigenvalues --   -1.13788  -1.13524  -1.13510  -1.13493  -1.12908
  Beta  occ. eigenvalues --   -1.12887  -1.12855  -1.11896  -1.11872  -1.11852
  Beta  occ. eigenvalues --   -0.17259  -0.13596  -0.10816
  Beta virt. eigenvalues --   -0.07892  -0.06371  -0.05161  -0.04376  -0.02996
  Beta virt. eigenvalues --   -0.02276  -0.02204  -0.01942  -0.00991  -0.00550
  Beta virt. eigenvalues --   -0.00172   0.00188   0.00273   0.00385   0.00485

 Mulliken charges and spin densities:
               1          2
     1  Na   1.019718   0.031648
     2  Na   0.062408  -0.044950
     3  Na  -0.366829   0.055005
     4  Na   0.262865   0.233245
     5  Na  -0.663901   0.273332
     6  Na  -0.461924   0.495042
     7  Na   0.147664  -0.043323
 Sum of Mulliken charges =  -0.00000   1.00000

 Dipole moment (field-independent basis, Debye):
    X=              0.1167    Y=             -0.3626    Z=              0.2946  Tot=              0.4816
 Quadrupole moment (field-independent basis, Debye-Ang):
   XX=            -51.5886   YY=            -75.4132   ZZ=            -70.3642
   XY=             -1.6256   XZ=             -1.3066   YZ=              5.5096

 Normal termination of Gaussian 16 at Fri Dec  8 02:46:32 2023.
