 Gaussian 16, Revision B.01,
 Gaussian 16:  ES64L-G16RevB.01 20-Dec-2017

 -------------------------
 #P B3LYP/6-311+g(d) force
 -------------------------

 -----
 DPGEN
 -----
 Symbolic Z-matrix:
 Charge =  0 Multiplicity = 2

                         Standard orientation:
 ---------------------------------------------------------------------
 Center     Atomic      Atomic             Coordinates (Angstroms)
 Number     Number       Type             X           Y           Z
 ---------------------------------------------------------------------
      1         11           0        1.536696    2.054597    0.949672
      2         11           0        1.365432   -1.626889    1.238468
      3         11           0       -0.044113    0.066726   -1.781066
      4         11           0       -2.084933    2.031646   -0.663953
      5         11           0       -1.492807   -0.027743    1.789785
      6         11           0        3.302957   -0.542337   -1.002570
      7         11           0       -2.583231   -1.956001   -0.530337
 ---------------------------------------------------------------------

 SCF Done:  E(UB3LYP) =  -1136.12920160     A.U. after   21 cycles

 The electronic state is 2-A.
 Alpha  occ. eigenvalues --  -38.44262 -38.43864 -38.43850 -38.43721 -38.43696
 Alpha  occ. eigenvalues --  -38.43513 -38.43352  -2.20112  -2.19798  -2.19681
 Alpha  occ. eigenvalues --   -2.19665  -2.19523  -2.19393  -2.19226  -1.13787
 Alpha  occ. eigenvalues --   -1.13777  -1.13739  -1.13499  -1.13457  -1.13421
 Alpha  occ. eigenvalues --   -1.13378  -1.13356  -1.13344  -1.13338  -1.13300
 Alpha  occ. eigenvalues --   -1.13288  -1.13195  -1.13158  -1.13147  -1.13080
 Alpha  occ. eigenvalues --   -1.13055  -1.13003  -1.12922  -1.12886  -1.12819
 Alpha  occ. eigenvalues --   -0.18711  -0.13626  -0.11733  -0.11273
 Alpha virt. eigenvalues --   -0.05676  -0.05322  -0.04587  -0.03266  -0.02908
 Alpha virt. eigenvalues --   -0.02806  -0.01637  -0.00984  -0.00596   0.00158
 Alpha virt. eigenvalues --    0.00326   0.00374   0.00483   0.00601   0.00781

  Beta  occ. eigenvalues --  -38.44244 -38.43839 -38.43784 -38.43689 -38.43666
  Beta  occ. eigenvalues --  -38.43488 -38.43345  -2.20079  -2.19679  -2.19636
  Beta  occ. eigenvalues --   -2.19565  -2.19513  -2.19351  -2.19217  -1.13769
  Beta  occ. eigenvalues --   -1.13741  -1.13719  -1.13417  -1.13373  -1.13341
  Beta  occ. eigenvalues --   -1.13325  -1.13297  -1.13291  -1.13278  -1.13270
  Beta  occ. eigenvalues --   -1.13230  -1.13175  -1.13143  -1.13125  -1.13046
  Beta  occ. eigenvalues --   -1.13003  -1.12980  -1.12899  -1.12879  -1.12809
  Beta  occ. eigenvalues --   -0.17923  -0.13425  -0.11073
  Beta virt. eigenvalues --   -0.07757  -0.05463  -0.05232  -0.04004  -0.03010
  Beta virt. eigenvalues --   -0.02275  -0.01974  -0.01528  -0.00836  -0.00338
  Beta virt. eigenvalues --    0.00213   0.00356   0.00387   0.00657   0.00699

 Mulliken charges and spin densities:
               1          2
     1  Na  -0.298194   0.100730
     2  Na  -0.252582   0.107139
     3  Na  -0.425245   0.548953
     4  Na   0.295271  -0.081858
     5  Na   0.200459   0.384666
     6  Na   0.470242  -0.007016
     7  Na   0.010049  -0.052613
 Sum of Mulliken charges =  -0.00000   1.00000

 Dipole moment (field-independent basis, Debye):
    X=              0.4315    Y=              0.0831    Z=             -0.1849  Tot=              0.4767
 Quadrupole moment (field-independent basis, Debye-Ang):
   XX=            -54.9567   YY=            -72.4968   ZZ=            -67.2703
   XY=              0.3591   XZ=             -0.1851   YZ=              2.8418

 Normal termination of Gaussian 16 at Thu Dec  7 16:26:35 2023.
