 Gaussian 16, Revision B.01,
 Gaussian 16:  ES64L-G16RevB.01 20-Dec-2017

 -------------------------
 #P B3LYP/6-311+g(d) force
 -------------------------

 -----
 DPGEN
 -----
 Symbolic Z-matrix:
 Charge =  0 Multiplicity = 2

                         Standard orientation:
 ---------------------------------------------------------------------
 Center     Atomic      Atomic             Coordinates (Angstroms)
 Number     Number       Type             X           Y           Z
 ---------------------------------------------------------------------
      1         11           0        0.235169   -0.400105   -1.478622
      2         11           0        3.233336   -1.420365    0.316832
      3         11           0       -0.262740    2.057658    1.675505
      4         11           0       -3.693875   -1.406323   -0.640531
      5         11           0       -0.080407   -1.703588    1.521147
      6         11           0       -2.751029    1.588096   -0.353894
      7         11           0        3.319546    1.284626   -1.040437
 ---------------------------------------------------------------------

 SCF Done:  E(UB3LYP) =  -1136.11506873     A.U. after   26 cycles

 The electronic state is 2-A.
 Alpha  occ. eigenvalues --  -38.45530 -38.44707 -38.44381 -38.44351 -38.43782
 Alpha  occ. eigenvalues --  -38.43661 -38.42958  -2.21361  -2.20562  -2.20228
 Alpha  occ. eigenvalues --   -2.20160  -2.19646  -2.19517  -2.18790  -1.15091
 Alpha  occ. eigenvalues --   -1.15016  -1.14975  -1.14286  -1.14224  -1.14198
 Alpha  occ. eigenvalues --   -1.13888  -1.13860  -1.13857  -1.13840  -1.13813
 Alpha  occ. eigenvalues --   -1.13770  -1.13324  -1.13308  -1.13290  -1.13203
 Alpha  occ. eigenvalues --   -1.13147  -1.13127  -1.12452  -1.12434  -1.12420
 Alpha  occ. eigenvalues --   -0.17920  -0.14361  -0.11339  -0.10959
 Alpha virt. eigenvalues --   -0.07005  -0.05604  -0.03865  -0.03427  -0.03136
 Alpha virt. eigenvalues --   -0.02892  -0.02218  -0.01324  -0.00564  -0.00531
 Alpha virt. eigenvalues --   -0.00029   0.00195   0.00420   0.00502   0.00642

  Beta  occ. eigenvalues --  -38.45528 -38.44698 -38.44340 -38.44313 -38.43776
  Beta  occ. eigenvalues --  -38.43591 -38.42911  -2.21359  -2.20550  -2.20153
  Beta  occ. eigenvalues --   -2.20091  -2.19639  -2.19389  -2.18703  -1.15070
  Beta  occ. eigenvalues --   -1.15020  -1.14977  -1.14267  -1.14212  -1.14175
  Beta  occ. eigenvalues --   -1.13839  -1.13811  -1.13807  -1.13784  -1.13760
  Beta  occ. eigenvalues --   -1.13728  -1.13322  -1.13305  -1.13259  -1.13121
  Beta  occ. eigenvalues --   -1.13049  -1.13038  -1.12393  -1.12372  -1.12361
  Beta  occ. eigenvalues --   -0.17321  -0.13806  -0.10696
  Beta virt. eigenvalues --   -0.07744  -0.06731  -0.05414  -0.03391  -0.03079
  Beta virt. eigenvalues --   -0.02774  -0.02602  -0.01556  -0.01268  -0.00404
  Beta virt. eigenvalues --   -0.00279   0.00106   0.00214   0.00530   0.00569

 Mulliken charges and spin densities:
               1          2
     1  Na  -0.634565  -0.010956
     2  Na   0.044307   0.021790
     3  Na  -0.377909   0.132257
     4  Na   0.260494   0.246153
     5  Na   0.015660   0.364787
     6  Na   0.197892   0.012493
     7  Na   0.494121   0.233475
 Sum of Mulliken charges =  -0.00000   1.00000

 Dipole moment (field-independent basis, Debye):
    X=              0.6786    Y=             -0.4528    Z=             -0.1861  Tot=              0.8368
 Quadrupole moment (field-independent basis, Debye-Ang):
   XX=            -54.6755   YY=            -75.9176   ZZ=            -68.0299
   XY=              0.6883   XZ=              1.6544   YZ=             -2.0822

 Normal termination of Gaussian 16 at Thu Dec  7 04:47:20 2023.
