 Gaussian 16, Revision B.01,
 Gaussian 16:  ES64L-G16RevB.01 20-Dec-2017

 -------------------------
 #P B3LYP/6-311+g(d) force
 -------------------------

 -----
 DPGEN
 -----
 Symbolic Z-matrix:
 Charge =  0 Multiplicity = 2

                         Standard orientation:
 ---------------------------------------------------------------------
 Center     Atomic      Atomic             Coordinates (Angstroms)
 Number     Number       Type             X           Y           Z
 ---------------------------------------------------------------------
      1         11           0       -0.224483    1.391272    0.349203
      2         11           0        1.689164    4.255479   -0.228416
      3         11           0        3.059026    0.595564    0.088029
      4         11           0        0.662702   -2.215030    0.471608
      5         11           0       -2.713944   -0.971354    1.323764
      6         11           0        3.541248   -2.955901   -0.897710
      7         11           0       -6.013713   -0.100030   -1.106478
 ---------------------------------------------------------------------

 SCF Done:  E(UB3LYP) =  -1136.12197646     A.U. after   20 cycles

 The electronic state is 2-A.
 Alpha  occ. eigenvalues --  -38.44932 -38.44866 -38.44390 -38.44024 -38.43934
 Alpha  occ. eigenvalues --  -38.43838 -38.43303  -2.20729  -2.20644  -2.20160
 Alpha  occ. eigenvalues --   -2.19831  -2.19779  -2.19685  -2.19080  -1.14458
 Alpha  occ. eigenvalues --   -1.14435  -1.14286  -1.14273  -1.14272  -1.14242
 Alpha  occ. eigenvalues --   -1.13833  -1.13829  -1.13775  -1.13522  -1.13492
 Alpha  occ. eigenvalues --   -1.13482  -1.13474  -1.13460  -1.13406  -1.13387
 Alpha  occ. eigenvalues --   -1.13345  -1.13251  -1.12769  -1.12753  -1.12717
 Alpha  occ. eigenvalues --   -0.16637  -0.13200  -0.12797  -0.11137
 Alpha virt. eigenvalues --   -0.06372  -0.05089  -0.05012  -0.03860  -0.02497
 Alpha virt. eigenvalues --   -0.02191  -0.01953  -0.01743  -0.01666  -0.00963
 Alpha virt. eigenvalues --   -0.00433  -0.00118   0.00015   0.00292   0.00553

  Beta  occ. eigenvalues --  -38.44928 -38.44716 -38.44386 -38.44008 -38.43918
  Beta  occ. eigenvalues --  -38.43826 -38.43310  -2.20721  -2.20365  -2.20151
  Beta  occ. eigenvalues --   -2.19803  -2.19751  -2.19664  -2.19099  -1.14449
  Beta  occ. eigenvalues --   -1.14430  -1.14280  -1.14084  -1.14083  -1.14056
  Beta  occ. eigenvalues --   -1.13826  -1.13823  -1.13770  -1.13502  -1.13473
  Beta  occ. eigenvalues --   -1.13464  -1.13456  -1.13439  -1.13393  -1.13373
  Beta  occ. eigenvalues --   -1.13313  -1.13228  -1.12786  -1.12770  -1.12696
  Beta  occ. eigenvalues --   -0.16365  -0.12740  -0.12308
  Beta virt. eigenvalues --   -0.07236  -0.06233  -0.04902  -0.04605  -0.03732
  Beta virt. eigenvalues --   -0.02408  -0.01814  -0.01699  -0.01364  -0.01202
  Beta virt. eigenvalues --   -0.00674  -0.00000   0.00038   0.00226   0.00492

 Mulliken charges and spin densities:
               1          2
     1  Na  -1.994502   0.012298
     2  Na   0.998148   0.059310
     3  Na  -0.230286   0.125408
     4  Na  -0.569688   0.019291
     5  Na   0.789567  -0.138718
     6  Na   0.892661   0.107805
     7  Na   0.114101   0.814607
 Sum of Mulliken charges =  -0.00000   1.00000

 Dipole moment (field-independent basis, Debye):
    X=              1.8066    Y=              0.4757    Z=             -0.3266  Tot=              1.8965
 Quadrupole moment (field-independent basis, Debye-Ang):
   XX=            -68.5617   YY=            -56.8559   ZZ=            -71.4102
   XY=             -0.9868   XZ=             -1.8396   YZ=             -0.2034

 Normal termination of Gaussian 16 at Wed Nov 29 01:13:25 2023.
