 Gaussian 16, Revision B.01,
 Gaussian 16:  ES64L-G16RevB.01 20-Dec-2017

 -------------------------
 #P B3LYP/6-311+g(d) force
 -------------------------

 -----
 DPGEN
 -----
 Symbolic Z-matrix:
 Charge =  0 Multiplicity = 2

                         Standard orientation:
 ---------------------------------------------------------------------
 Center     Atomic      Atomic             Coordinates (Angstroms)
 Number     Number       Type             X           Y           Z
 ---------------------------------------------------------------------
      1         11           0        1.934345    0.872325   -1.276254
      2         11           0       -0.890915    3.373671    0.160851
      3         11           0        0.102764   -2.565176   -0.561198
      4         11           0        3.740178   -0.773300    0.434009
      5         11           0       -1.768664    0.311333   -1.353594
      6         11           0       -3.252527   -1.531916    0.501174
      7         11           0        0.134819    0.313064    2.095013
 ---------------------------------------------------------------------

 SCF Done:  E(UB3LYP) =  -1136.12591268     A.U. after   20 cycles

 The electronic state is 2-A.
 Alpha  occ. eigenvalues --  -38.44601 -38.44532 -38.44461 -38.43957 -38.43752
 Alpha  occ. eigenvalues --  -38.43350 -38.43176  -2.20425  -2.20323  -2.20274
 Alpha  occ. eigenvalues --   -2.19778  -2.19623  -2.19271  -2.18957  -1.14153
 Alpha  occ. eigenvalues --   -1.14063  -1.14046  -1.14025  -1.14014  -1.14007
 Alpha  occ. eigenvalues --   -1.13916  -1.13913  -1.13898  -1.13447  -1.13409
 Alpha  occ. eigenvalues --   -1.13393  -1.13302  -1.13287  -1.13228  -1.12971
 Alpha  occ. eigenvalues --   -1.12942  -1.12865  -1.12629  -1.12621  -1.12597
 Alpha  occ. eigenvalues --   -0.17889  -0.13316  -0.11874  -0.10641
 Alpha virt. eigenvalues --   -0.06544  -0.05052  -0.04546  -0.03481  -0.02787
 Alpha virt. eigenvalues --   -0.02621  -0.02124  -0.01206  -0.00724  -0.00180
 Alpha virt. eigenvalues --    0.00019   0.00239   0.00493   0.00742   0.00764

  Beta  occ. eigenvalues --  -38.44600 -38.44520 -38.44463 -38.43863 -38.43722
  Beta  occ. eigenvalues --  -38.43315 -38.43180  -2.20423  -2.20303  -2.20279
  Beta  occ. eigenvalues --   -2.19603  -2.19569  -2.19208  -2.18967  -1.14151
  Beta  occ. eigenvalues --   -1.14051  -1.14046  -1.14015  -1.14009  -1.13974
  Beta  occ. eigenvalues --   -1.13912  -1.13905  -1.13898  -1.13329  -1.13286
  Beta  occ. eigenvalues --   -1.13269  -1.13258  -1.13243  -1.13191  -1.12918
  Beta  occ. eigenvalues --   -1.12895  -1.12822  -1.12636  -1.12614  -1.12604
  Beta  occ. eigenvalues --   -0.17166  -0.13201  -0.11714
  Beta virt. eigenvalues --   -0.06767  -0.06413  -0.04949  -0.04362  -0.02980
  Beta virt. eigenvalues --   -0.02158  -0.02011  -0.01652  -0.01093  -0.00508
  Beta virt. eigenvalues --   -0.00157   0.00105   0.00297   0.00578   0.00777

 Mulliken charges and spin densities:
               1          2
     1  Na  -0.360146   0.117829
     2  Na   0.012246  -0.124332
     3  Na  -0.187469   0.033419
     4  Na   0.483019  -0.025004
     5  Na   0.233969   0.271558
     6  Na   0.253910  -0.056200
     7  Na  -0.435530   0.782731
 Sum of Mulliken charges =  -0.00000   1.00000

 Dipole moment (field-independent basis, Debye):
    X=              0.0368    Y=             -0.7611    Z=              0.3300  Tot=              0.8304
 Quadrupole moment (field-independent basis, Debye-Ang):
   XX=            -54.4579   YY=            -65.6892   ZZ=            -73.4150
   XY=             -0.3770   XZ=             -0.5241   YZ=             -0.8829

 Normal termination of Gaussian 16 at Tue Dec  5 15:42:43 2023.
