 Gaussian 16, Revision B.01,
 Gaussian 16:  ES64L-G16RevB.01 20-Dec-2017

 -------------------------
 #P B3LYP/6-311+g(d) force
 -------------------------

 -----
 DPGEN
 -----
 Symbolic Z-matrix:
 Charge =  0 Multiplicity = 2

                         Standard orientation:
 ---------------------------------------------------------------------
 Center     Atomic      Atomic             Coordinates (Angstroms)
 Number     Number       Type             X           Y           Z
 ---------------------------------------------------------------------
      1         11           0        2.908495    1.343355    0.589165
      2         11           0        1.309560   -1.455419   -0.881001
      3         11           0       -4.111932   -1.631380   -0.334278
      4         11           0       -1.721279   -2.080130    1.462623
      5         11           0       -2.844766    1.682613   -0.848372
      6         11           0        4.720017   -1.394808   -0.366888
      7         11           0       -0.260094    3.535769    0.378750
 ---------------------------------------------------------------------

 SCF Done:  E(UB3LYP) =  -1136.11430444     A.U. after   23 cycles

 The electronic state is 2-A.
 Alpha  occ. eigenvalues --  -38.45388 -38.45300 -38.44134 -38.44105 -38.44078
 Alpha  occ. eigenvalues --  -38.44063 -38.42985  -2.21177  -2.21090  -2.19938
 Alpha  occ. eigenvalues --   -2.19920  -2.19912  -2.19885  -2.18762  -1.14871
 Alpha  occ. eigenvalues --   -1.14866  -1.14786  -1.14774  -1.14765  -1.14690
 Alpha  occ. eigenvalues --   -1.13718  -1.13610  -1.13596  -1.13592  -1.13580
 Alpha  occ. eigenvalues --   -1.13572  -1.13559  -1.13533  -1.13524  -1.13522
 Alpha  occ. eigenvalues --   -1.13517  -1.13469  -1.12436  -1.12425  -1.12409
 Alpha  occ. eigenvalues --   -0.16402  -0.14385  -0.12148  -0.10217
 Alpha virt. eigenvalues --   -0.07097  -0.05700  -0.04583  -0.03306  -0.03150
 Alpha virt. eigenvalues --   -0.02700  -0.01897  -0.01576  -0.00847  -0.00674
 Alpha virt. eigenvalues --   -0.00415  -0.00313   0.00294   0.00466   0.00563

  Beta  occ. eigenvalues --  -38.45372 -38.45274 -38.44103 -38.44090 -38.44035
  Beta  occ. eigenvalues --  -38.44021 -38.42986  -2.21151  -2.21044  -2.19913
  Beta  occ. eigenvalues --   -2.19862  -2.19834  -2.19805  -2.18764  -1.14857
  Beta  occ. eigenvalues --   -1.14848  -1.14745  -1.14743  -1.14730  -1.14640
  Beta  occ. eigenvalues --   -1.13699  -1.13579  -1.13571  -1.13559  -1.13541
  Beta  occ. eigenvalues --   -1.13497  -1.13495  -1.13485  -1.13478  -1.13475
  Beta  occ. eigenvalues --   -1.13458  -1.13436  -1.12439  -1.12431  -1.12402
  Beta  occ. eigenvalues --   -0.15855  -0.13946  -0.12007
  Beta virt. eigenvalues --   -0.06968  -0.06696  -0.05140  -0.04323  -0.03038
  Beta virt. eigenvalues --   -0.02884  -0.02431  -0.01654  -0.01285  -0.00774
  Beta virt. eigenvalues --   -0.00338  -0.00134  -0.00035   0.00395   0.00607

 Mulliken charges and spin densities:
               1          2
     1  Na  -0.175488   0.220104
     2  Na  -0.760066  -0.012868
     3  Na   0.485628   0.131241
     4  Na  -0.083631   0.150696
     5  Na  -0.353697   0.237555
     6  Na   0.862351   0.348490
     7  Na   0.024903  -0.075219
 Sum of Mulliken charges =  -0.00000   1.00000

 Dipole moment (field-independent basis, Debye):
    X=              1.2002    Y=             -1.0480    Z=              0.0596  Tot=              1.5945
 Quadrupole moment (field-independent basis, Debye-Ang):
   XX=            -63.4618   YY=            -70.8876   ZZ=            -67.3101
   XY=              3.6459   XZ=              1.8217   YZ=              2.9120

 Normal termination of Gaussian 16 at Sun Dec  3 18:07:17 2023.
