 Gaussian 16, Revision B.01,
 Gaussian 16:  ES64L-G16RevB.01 20-Dec-2017

 -------------------------
 #P B3LYP/6-311+g(d) force
 -------------------------

 -----
 DPGEN
 -----
 Symbolic Z-matrix:
 Charge =  0 Multiplicity = 2

                         Standard orientation:
 ---------------------------------------------------------------------
 Center     Atomic      Atomic             Coordinates (Angstroms)
 Number     Number       Type             X           Y           Z
 ---------------------------------------------------------------------
      1         11           0        0.960166    0.020430    1.981705
      2         11           0        0.315765   -2.488077   -0.107883
      3         11           0       -2.455776    1.453873   -0.026083
      4         11           0       -0.044067    0.427548   -1.968254
      5         11           0        1.326965    2.643806    0.210942
      6         11           0       -3.314441   -1.142340    0.307854
      7         11           0        3.211389   -0.915241   -0.398281
 ---------------------------------------------------------------------

 SCF Done:  E(UB3LYP) =  -1136.12518794     A.U. after   20 cycles

 The electronic state is 2-A.
 Alpha  occ. eigenvalues --  -38.44908 -38.44393 -38.44091 -38.43880 -38.43757
 Alpha  occ. eigenvalues --  -38.43209 -38.42985  -2.20732  -2.20248  -2.19993
 Alpha  occ. eigenvalues --   -2.19793  -2.19666  -2.19077  -2.18837  -1.14403
 Alpha  occ. eigenvalues --   -1.14390  -1.14371  -1.14164  -1.13875  -1.13852
 Alpha  occ. eigenvalues --   -1.13661  -1.13614  -1.13551  -1.13456  -1.13443
 Alpha  occ. eigenvalues --   -1.13412  -1.13334  -1.13292  -1.13289  -1.12772
 Alpha  occ. eigenvalues --   -1.12754  -1.12688  -1.12526  -1.12497  -1.12464
 Alpha  occ. eigenvalues --   -0.18521  -0.13665  -0.11933  -0.11000
 Alpha virt. eigenvalues --   -0.06410  -0.05066  -0.04040  -0.03637  -0.02857
 Alpha virt. eigenvalues --   -0.02778  -0.02049  -0.01012  -0.00220  -0.00122
 Alpha virt. eigenvalues --   -0.00071   0.00326   0.00575   0.00795   0.00864

  Beta  occ. eigenvalues --  -38.44903 -38.44390 -38.44087 -38.43802 -38.43673
  Beta  occ. eigenvalues --  -38.43200 -38.42978  -2.20726  -2.20243  -2.19988
  Beta  occ. eigenvalues --   -2.19649  -2.19511  -2.19063  -2.18829  -1.14392
  Beta  occ. eigenvalues --   -1.14373  -1.14369  -1.14163  -1.13862  -1.13850
  Beta  occ. eigenvalues --   -1.13642  -1.13603  -1.13551  -1.13363  -1.13338
  Beta  occ. eigenvalues --   -1.13312  -1.13232  -1.13184  -1.13176  -1.12766
  Beta  occ. eigenvalues --   -1.12712  -1.12683  -1.12514  -1.12475  -1.12457
  Beta  occ. eigenvalues --   -0.17796  -0.13456  -0.11680
  Beta virt. eigenvalues --   -0.07148  -0.06265  -0.05022  -0.03974  -0.02940
  Beta virt. eigenvalues --   -0.02116  -0.01951  -0.01749  -0.00967  -0.00242
  Beta virt. eigenvalues --   -0.00097   0.00059   0.00355   0.00811   0.00859

 Mulliken charges and spin densities:
               1          2
     1  Na  -0.328200   0.662450
     2  Na  -0.012670   0.106916
     3  Na   0.355061   0.029665
     4  Na  -0.258760   0.558252
     5  Na   0.080158  -0.180800
     6  Na  -0.226960  -0.074766
     7  Na   0.391372  -0.101717
 Sum of Mulliken charges =  -0.00000   1.00000

 Dipole moment (field-independent basis, Debye):
    X=              0.5276    Y=             -0.2188    Z=             -0.0887  Tot=              0.5780
 Quadrupole moment (field-independent basis, Debye-Ang):
   XX=            -53.9006   YY=            -69.4781   ZZ=            -72.3890
   XY=              0.6983   XZ=             -2.2609   YZ=              0.3203

 Normal termination of Gaussian 16 at Tue Dec  5 10:11:12 2023.
