 Gaussian 16, Revision B.01,
 Gaussian 16:  ES64L-G16RevB.01 20-Dec-2017

 -------------------------
 #P B3LYP/6-311+g(d) force
 -------------------------

 -----
 DPGEN
 -----
 Symbolic Z-matrix:
 Charge =  0 Multiplicity = 2

                         Standard orientation:
 ---------------------------------------------------------------------
 Center     Atomic      Atomic             Coordinates (Angstroms)
 Number     Number       Type             X           Y           Z
 ---------------------------------------------------------------------
      1         11           0        0.761161    3.131536   -0.162709
      2         11           0        0.071677   -0.419262    1.953563
      3         11           0        0.928811   -2.624835    0.044549
      4         11           0       -0.020245    0.111022   -1.792177
      5         11           0       -2.612941    1.471567    0.487191
      6         11           0       -2.167974   -1.729789   -0.536031
      7         11           0        3.039511    0.059762    0.005613
 ---------------------------------------------------------------------

 SCF Done:  E(UB3LYP) =  -1136.13678945     A.U. after   19 cycles

 The electronic state is 2-A.
 Alpha  occ. eigenvalues --  -38.43846 -38.43730 -38.43705 -38.43691 -38.43414
 Alpha  occ. eigenvalues --  -38.43311 -38.43289  -2.19643  -2.19629  -2.19562
 Alpha  occ. eigenvalues --   -2.19520  -2.19381  -2.19251  -2.19214  -1.13364
 Alpha  occ. eigenvalues --   -1.13315  -1.13294  -1.13281  -1.13271  -1.13265
 Alpha  occ. eigenvalues --   -1.13245  -1.13219  -1.13193  -1.13188  -1.13186
 Alpha  occ. eigenvalues --   -1.13155  -1.13113  -1.13030  -1.13003  -1.12937
 Alpha  occ. eigenvalues --   -1.12908  -1.12886  -1.12863  -1.12845  -1.12809
 Alpha  occ. eigenvalues --   -0.18889  -0.12804  -0.12628  -0.11077
 Alpha virt. eigenvalues --   -0.05472  -0.04937  -0.04748  -0.03243  -0.03066
 Alpha virt. eigenvalues --   -0.02724  -0.01223  -0.01166  -0.00320  -0.00152
 Alpha virt. eigenvalues --    0.00022   0.00367   0.00870   0.00900   0.00937

  Beta  occ. eigenvalues --  -38.43847 -38.43728 -38.43680 -38.43619 -38.43338
  Beta  occ. eigenvalues --  -38.43301 -38.43272  -2.19634  -2.19561  -2.19502
  Beta  occ. eigenvalues --   -2.19486  -2.19244  -2.19238  -2.19188  -1.13307
  Beta  occ. eigenvalues --   -1.13291  -1.13274  -1.13272  -1.13236  -1.13223
  Beta  occ. eigenvalues --   -1.13195  -1.13190  -1.13166  -1.13154  -1.13145
  Beta  occ. eigenvalues --   -1.13126  -1.13036  -1.12943  -1.12927  -1.12899
  Beta  occ. eigenvalues --   -1.12880  -1.12851  -1.12826  -1.12800  -1.12791
  Beta  occ. eigenvalues --   -0.18130  -0.12547  -0.12385
  Beta virt. eigenvalues --   -0.07127  -0.05474  -0.04837  -0.04733  -0.02445
  Beta virt. eigenvalues --   -0.02322  -0.01679  -0.01138  -0.01085  -0.00329
  Beta virt. eigenvalues --   -0.00180   0.00125   0.00393   0.00872   0.00924

 Mulliken charges and spin densities:
               1          2
     1  Na  -0.126555  -0.119482
     2  Na  -0.351685   0.657471
     3  Na   0.463268   0.013231
     4  Na  -0.186682   0.519277
     5  Na  -0.092631  -0.001163
     6  Na   0.382358   0.073771
     7  Na  -0.088074  -0.143104
 Sum of Mulliken charges =  -0.00000   1.00000

 Dipole moment (field-independent basis, Debye):
    X=              0.1398    Y=              0.2634    Z=              0.1236  Tot=              0.3228
 Quadrupole moment (field-independent basis, Debye-Ang):
   XX=            -60.3605   YY=            -61.2565   ZZ=            -72.6805
   XY=             -0.0632   XZ=             -0.3299   YZ=              1.2843

 Normal termination of Gaussian 16 at Tue Dec  5 20:46:57 2023.
