 Gaussian 16, Revision B.01,
 Gaussian 16:  ES64L-G16RevB.01 20-Dec-2017

 -------------------------
 #P B3LYP/6-311+g(d) force
 -------------------------

 -----
 DPGEN
 -----
 Symbolic Z-matrix:
 Charge =  0 Multiplicity = 2

                         Standard orientation:
 ---------------------------------------------------------------------
 Center     Atomic      Atomic             Coordinates (Angstroms)
 Number     Number       Type             X           Y           Z
 ---------------------------------------------------------------------
      1         11           0        0.069637   -0.290408    1.423029
      2         11           0        0.082933   -1.388407   -1.073071
      3         11           0       -2.391459   -1.480524    0.435329
      4         11           0       -1.524460    0.817952   -1.122771
      5         11           0       -0.374193    2.331253    0.827729
      6         11           0        1.528605    1.214819   -0.840671
      7         11           0        2.608937   -1.204686    0.350429
 ---------------------------------------------------------------------

 SCF Done:  E(UB3LYP) =  -1136.07405440     A.U. after   20 cycles

 The electronic state is 2-A.
 Alpha  occ. eigenvalues --  -38.43856 -38.43852 -38.43849 -38.43804 -38.43795
 Alpha  occ. eigenvalues --  -38.43644 -38.43464  -2.20238  -2.20069  -2.19969
 Alpha  occ. eigenvalues --   -2.19936  -2.19869  -2.19820  -2.19666  -1.14267
 Alpha  occ. eigenvalues --   -1.14192  -1.14069  -1.13984  -1.13900  -1.13761
 Alpha  occ. eigenvalues --   -1.13748  -1.13648  -1.13575  -1.13559  -1.13512
 Alpha  occ. eigenvalues --   -1.13479  -1.13452  -1.13422  -1.13412  -1.13377
 Alpha  occ. eigenvalues --   -1.13371  -1.13320  -1.13279  -1.13228  -1.13162
 Alpha  occ. eigenvalues --   -0.21508  -0.13794  -0.12934  -0.12106
 Alpha virt. eigenvalues --   -0.05189  -0.04315  -0.03893  -0.03502  -0.03111
 Alpha virt. eigenvalues --   -0.02628  -0.01130  -0.00639  -0.00175   0.00343
 Alpha virt. eigenvalues --    0.00840   0.00900   0.00970   0.01042   0.01125

  Beta  occ. eigenvalues --  -38.43842 -38.43831 -38.43785 -38.43772 -38.43757
  Beta  occ. eigenvalues --  -38.43594 -38.43433  -2.20102  -2.19991  -2.19922
  Beta  occ. eigenvalues --   -2.19871  -2.19844  -2.19804  -2.19615  -1.14206
  Beta  occ. eigenvalues --   -1.14117  -1.14004  -1.13907  -1.13824  -1.13720
  Beta  occ. eigenvalues --   -1.13682  -1.13611  -1.13553  -1.13520  -1.13466
  Beta  occ. eigenvalues --   -1.13426  -1.13400  -1.13377  -1.13355  -1.13342
  Beta  occ. eigenvalues --   -1.13320  -1.13269  -1.13244  -1.13153  -1.13134
  Beta  occ. eigenvalues --   -0.20658  -0.13521  -0.12685
  Beta virt. eigenvalues --   -0.07698  -0.05154  -0.04292  -0.03875  -0.02688
  Beta virt. eigenvalues --   -0.02341  -0.01424  -0.01086  -0.00592   0.00056
  Beta virt. eigenvalues --    0.00381   0.00868   0.00916   0.00969   0.01063

 Mulliken charges and spin densities:
               1          2
     1  Na  -0.879553   0.317621
     2  Na  -0.095473   0.379382
     3  Na   0.033179  -0.070204
     4  Na  -0.036526   0.208442
     5  Na   0.619300   0.016062
     6  Na  -0.630568   0.218936
     7  Na   0.989642  -0.070239
 Sum of Mulliken charges =  -0.00000   1.00000

 Dipole moment (field-independent basis, Debye):
    X=              0.0195    Y=             -0.1069    Z=              0.1651  Tot=              0.1976
 Quadrupole moment (field-independent basis, Debye-Ang):
   XX=            -59.0435   YY=            -67.7351   ZZ=            -68.8205
   XY=              0.0314   XZ=             -0.4680   YZ=             -0.5209

 Normal termination of Gaussian 16 at Fri Dec  8 20:08:00 2023.
