 Gaussian 16, Revision B.01,
 Gaussian 16:  ES64L-G16RevB.01 20-Dec-2017

 -------------------------
 #P B3LYP/6-311+g(d) force
 -------------------------

 -----
 DPGEN
 -----
 Symbolic Z-matrix:
 Charge =  0 Multiplicity = 2

                         Standard orientation:
 ---------------------------------------------------------------------
 Center     Atomic      Atomic             Coordinates (Angstroms)
 Number     Number       Type             X           Y           Z
 ---------------------------------------------------------------------
      1         11           0       -3.047289   -1.109051    1.446991
      2         11           0       -4.106537    0.876446   -0.840412
      3         11           0       -0.765442   -3.016091    0.271635
      4         11           0        2.285294   -2.474080   -1.349513
      5         11           0       -1.130179    2.795858   -0.572355
      6         11           0        2.328832    2.970389    0.486893
      7         11           0        4.435320   -0.043470    0.556761
 ---------------------------------------------------------------------

 SCF Done:  E(UB3LYP) =  -1136.10695351     A.U. after   24 cycles

 The electronic state is 2-A.
 Alpha  occ. eigenvalues --  -38.45301 -38.45151 -38.45067 -38.44734 -38.43788
 Alpha  occ. eigenvalues --  -38.43717 -38.43702  -2.21063  -2.20901  -2.20897
 Alpha  occ. eigenvalues --   -2.20485  -2.19628  -2.19517  -2.19494  -1.14753
 Alpha  occ. eigenvalues --   -1.14738  -1.14672  -1.14578  -1.14577  -1.14572
 Alpha  occ. eigenvalues --   -1.14551  -1.14535  -1.14530  -1.14171  -1.14157
 Alpha  occ. eigenvalues --   -1.14116  -1.13288  -1.13266  -1.13253  -1.13187
 Alpha  occ. eigenvalues --   -1.13178  -1.13165  -1.13154  -1.13153  -1.13123
 Alpha  occ. eigenvalues --   -0.15960  -0.13832  -0.13100  -0.10446
 Alpha virt. eigenvalues --   -0.07787  -0.04888  -0.04586  -0.03595  -0.03446
 Alpha virt. eigenvalues --   -0.02360  -0.02139  -0.01319  -0.01151  -0.00906
 Alpha virt. eigenvalues --   -0.00768  -0.00398   0.00212   0.00431   0.00627

  Beta  occ. eigenvalues --  -38.45260 -38.45131 -38.45036 -38.44736 -38.43729
  Beta  occ. eigenvalues --  -38.43682 -38.43673  -2.20993  -2.20863  -2.20850
  Beta  occ. eigenvalues --   -2.20491  -2.19519  -2.19465  -2.19432  -1.14712
  Beta  occ. eigenvalues --   -1.14697  -1.14578  -1.14554  -1.14544  -1.14532
  Beta  occ. eigenvalues --   -1.14530  -1.14498  -1.14474  -1.14174  -1.14164
  Beta  occ. eigenvalues --   -1.14113  -1.13214  -1.13192  -1.13179  -1.13149
  Beta  occ. eigenvalues --   -1.13144  -1.13124  -1.13113  -1.13111  -1.13072
  Beta  occ. eigenvalues --   -0.15381  -0.13382  -0.12383
  Beta virt. eigenvalues --   -0.07947  -0.07132  -0.04479  -0.04159  -0.03441
  Beta virt. eigenvalues --   -0.03086  -0.02231  -0.01716  -0.01101  -0.00991
  Beta virt. eigenvalues --   -0.00779  -0.00538  -0.00120   0.00309   0.00519

 Mulliken charges and spin densities:
               1          2
     1  Na   0.134994   0.116644
     2  Na   0.246222   0.291402
     3  Na  -0.318697   0.079322
     4  Na   0.114988   0.035641
     5  Na  -0.317663   0.309912
     6  Na   0.137874   0.021229
     7  Na   0.002282   0.145851
 Sum of Mulliken charges =  -0.00000   1.00000

 Dipole moment (field-independent basis, Debye):
    X=             -0.0480    Y=             -0.1531    Z=              0.0542  Tot=              0.1693
 Quadrupole moment (field-independent basis, Debye-Ang):
   XX=            -60.9557   YY=            -74.1932   ZZ=            -66.6286
   XY=              1.1710   XZ=              0.7978   YZ=              1.0578

 Normal termination of Gaussian 16 at Mon Dec  4 02:46:12 2023.
