 Gaussian 16, Revision B.01,
 Gaussian 16:  ES64L-G16RevB.01 20-Dec-2017

 -------------------------
 #P B3LYP/6-311+g(d) force
 -------------------------

 -----
 DPGEN
 -----
 Symbolic Z-matrix:
 Charge =  0 Multiplicity = 2

                         Standard orientation:
 ---------------------------------------------------------------------
 Center     Atomic      Atomic             Coordinates (Angstroms)
 Number     Number       Type             X           Y           Z
 ---------------------------------------------------------------------
      1         11           0       -3.325722    0.082254    0.077107
      2         11           0        2.366658   -1.777900    0.525787
      3         11           0       -0.013239   -0.106168   -1.828602
      4         11           0       -1.121916   -2.453431   -0.288505
      5         11           0        2.683958    1.363220   -0.555490
      6         11           0        0.137432    0.198311    1.920108
      7         11           0       -0.727171    2.693716    0.149595
 ---------------------------------------------------------------------

 SCF Done:  E(UB3LYP) =  -1136.13635498     A.U. after   19 cycles

 The electronic state is 2-A.
 Alpha  occ. eigenvalues --  -38.44408 -38.43877 -38.43626 -38.43585 -38.43515
 Alpha  occ. eigenvalues --  -38.43058 -38.43042  -2.20212  -2.19736  -2.19566
 Alpha  occ. eigenvalues --   -2.19554  -2.19384  -2.18954  -2.18905  -1.13889
 Alpha  occ. eigenvalues --   -1.13869  -1.13853  -1.13433  -1.13396  -1.13367
 Alpha  occ. eigenvalues --   -1.13269  -1.13240  -1.13231  -1.13197  -1.13181
 Alpha  occ. eigenvalues --   -1.13157  -1.13050  -1.13030  -1.13015  -1.12658
 Alpha  occ. eigenvalues --   -1.12606  -1.12601  -1.12573  -1.12559  -1.12515
 Alpha  occ. eigenvalues --   -0.18866  -0.13175  -0.12234  -0.11123
 Alpha virt. eigenvalues --   -0.05891  -0.04856  -0.04254  -0.03397  -0.02956
 Alpha virt. eigenvalues --   -0.02758  -0.01730  -0.00946  -0.00182  -0.00105
 Alpha virt. eigenvalues --    0.00045   0.00351   0.00811   0.00897   0.00920

  Beta  occ. eigenvalues --  -38.44409 -38.43862 -38.43543 -38.43508 -38.43501
  Beta  occ. eigenvalues --  -38.43050 -38.43036  -2.20217  -2.19710  -2.19416
  Beta  occ. eigenvalues --   -2.19411  -2.19361  -2.18943  -2.18899  -1.13888
  Beta  occ. eigenvalues --   -1.13868  -1.13854  -1.13406  -1.13364  -1.13351
  Beta  occ. eigenvalues --   -1.13174  -1.13141  -1.13125  -1.13098  -1.13080
  Beta  occ. eigenvalues --   -1.13059  -1.13016  -1.13006  -1.12993  -1.12640
  Beta  occ. eigenvalues --   -1.12592  -1.12584  -1.12553  -1.12550  -1.12510
  Beta  occ. eigenvalues --   -0.18125  -0.12937  -0.11950
  Beta virt. eigenvalues --   -0.07188  -0.05847  -0.04830  -0.04230  -0.02635
  Beta virt. eigenvalues --   -0.02165  -0.01708  -0.01627  -0.00852  -0.00186
  Beta virt. eigenvalues --   -0.00111   0.00112   0.00370   0.00869   0.00912

 Mulliken charges and spin densities:
               1          2
     1  Na  -0.074304  -0.103954
     2  Na   0.123836   0.035793
     3  Na  -0.185054   0.553075
     4  Na   0.223381  -0.034954
     5  Na   0.137887   0.004137
     6  Na  -0.283267   0.637696
     7  Na   0.057521  -0.091793
 Sum of Mulliken charges =  -0.00000   1.00000

 Dipole moment (field-independent basis, Debye):
    X=             -0.1776    Y=              0.1124    Z=              0.0584  Tot=              0.2182
 Quadrupole moment (field-independent basis, Debye-Ang):
   XX=            -54.3519   YY=            -66.8343   ZZ=            -72.5881
   XY=             -0.2579   XZ=             -0.6344   YZ=             -1.2872

 Normal termination of Gaussian 16 at Thu Dec  7 02:01:21 2023.
