 Gaussian 16, Revision B.01,
 Gaussian 16:  ES64L-G16RevB.01 20-Dec-2017

 -------------------------
 #P B3LYP/6-311+g(d) force
 -------------------------

 -----
 DPGEN
 -----
 Symbolic Z-matrix:
 Charge =  0 Multiplicity = 2

                         Standard orientation:
 ---------------------------------------------------------------------
 Center     Atomic      Atomic             Coordinates (Angstroms)
 Number     Number       Type             X           Y           Z
 ---------------------------------------------------------------------
      1         11           0        0.449515    0.143156   -1.765186
      2         11           0       -0.928790   -1.536740    0.043714
      3         11           0       -3.504986   -0.109332   -0.001086
      4         11           0       -1.093881    1.574660    0.142014
      5         11           0        2.030619    1.638151    0.038714
      6         11           0        0.840914   -0.215445    1.827114
      7         11           0        2.206610   -1.494450   -0.285286
 ---------------------------------------------------------------------

 SCF Done:  E(UB3LYP) =  -1136.08401423     A.U. after   23 cycles

 The electronic state is 2-A.
 Alpha  occ. eigenvalues --  -38.45326 -38.44460 -38.44339 -38.43629 -38.43373
 Alpha  occ. eigenvalues --  -38.43026 -38.42886  -2.21219  -2.20694  -2.20525
 Alpha  occ. eigenvalues --   -2.19724  -2.19470  -2.19202  -2.19025  -1.14928
 Alpha  occ. eigenvalues --   -1.14896  -1.14835  -1.14469  -1.14402  -1.14341
 Alpha  occ. eigenvalues --   -1.14266  -1.14239  -1.14142  -1.13399  -1.13367
 Alpha  occ. eigenvalues --   -1.13316  -1.13148  -1.13127  -1.13049  -1.12943
 Alpha  occ. eigenvalues --   -1.12869  -1.12793  -1.12719  -1.12671  -1.12589
 Alpha  occ. eigenvalues --   -0.21210  -0.14494  -0.12058  -0.11823
 Alpha virt. eigenvalues --   -0.06621  -0.04231  -0.03872  -0.03435  -0.02573
 Alpha virt. eigenvalues --   -0.02503  -0.02035  -0.00601  -0.00169   0.00181
 Alpha virt. eigenvalues --    0.00472   0.00612   0.00782   0.00926   0.01036

  Beta  occ. eigenvalues --  -38.45335 -38.44364 -38.44245 -38.43610 -38.43356
  Beta  occ. eigenvalues --  -38.43006 -38.42870  -2.21237  -2.20522  -2.20354
  Beta  occ. eigenvalues --   -2.19697  -2.19447  -2.19173  -2.19002  -1.14939
  Beta  occ. eigenvalues --   -1.14911  -1.14837  -1.14370  -1.14273  -1.14212
  Beta  occ. eigenvalues --   -1.14165  -1.14113  -1.14016  -1.13379  -1.13308
  Beta  occ. eigenvalues --   -1.13285  -1.13138  -1.13051  -1.13039  -1.12931
  Beta  occ. eigenvalues --   -1.12785  -1.12781  -1.12706  -1.12603  -1.12582
  Beta  occ. eigenvalues --   -0.20382  -0.14251  -0.11502
  Beta virt. eigenvalues --   -0.07796  -0.06480  -0.04258  -0.03213  -0.03026
  Beta virt. eigenvalues --   -0.02020  -0.01732  -0.01547  -0.00569   0.00033
  Beta virt. eigenvalues --    0.00223   0.00492   0.00585   0.00964   0.01029

 Mulliken charges and spin densities:
               1          2
     1  Na  -0.162616   0.474990
     2  Na   0.039912   0.181651
     3  Na  -0.280914  -0.183364
     4  Na  -0.134834   0.110210
     5  Na   0.363628   0.020503
     6  Na  -0.127822   0.415719
     7  Na   0.302647  -0.019709
 Sum of Mulliken charges =  -0.00000   1.00000

 Dipole moment (field-independent basis, Debye):
    X=             -0.8066    Y=              0.0265    Z=              0.0880  Tot=              0.8118
 Quadrupole moment (field-independent basis, Debye-Ang):
   XX=            -48.9711   YY=            -76.1337   ZZ=            -69.0748
   XY=              0.0171   XZ=             -0.1459   YZ=              0.9154

 Normal termination of Gaussian 16 at Fri Dec  8 20:13:24 2023.
