 Gaussian 16, Revision B.01,
 Gaussian 16:  ES64L-G16RevB.01 20-Dec-2017

 -------------------------
 #P B3LYP/6-311+g(d) force
 -------------------------

 -----
 DPGEN
 -----
 Symbolic Z-matrix:
 Charge =  0 Multiplicity = 2

                         Standard orientation:
 ---------------------------------------------------------------------
 Center     Atomic      Atomic             Coordinates (Angstroms)
 Number     Number       Type             X           Y           Z
 ---------------------------------------------------------------------
      1         11           0       -1.999297   -3.058575   -0.210164
      2         11           0       -2.841136    2.974141    0.128446
      3         11           0        0.207428    2.571467    1.298197
      4         11           0        3.420746    2.124498   -0.907963
      5         11           0        3.977948   -1.216952   -0.629723
      6         11           0       -3.778608   -0.587201   -1.035375
      7         11           0        1.012920   -2.807377    1.356582
 ---------------------------------------------------------------------

 SCF Done:  E(UB3LYP) =  -1136.10808678     A.U. after   21 cycles

 The electronic state is 2-A.
 Alpha  occ. eigenvalues --  -38.45340 -38.44772 -38.44681 -38.44545 -38.44166
 Alpha  occ. eigenvalues --  -38.44039 -38.44003  -2.21089  -2.20544  -2.20459
 Alpha  occ. eigenvalues --   -2.20316  -2.19980  -2.19843  -2.19798  -1.14770
 Alpha  occ. eigenvalues --   -1.14748  -1.14734  -1.14211  -1.14208  -1.14183
 Alpha  occ. eigenvalues --   -1.14121  -1.14103  -1.14092  -1.13986  -1.13970
 Alpha  occ. eigenvalues --   -1.13959  -1.13685  -1.13629  -1.13600  -1.13519
 Alpha  occ. eigenvalues --   -1.13512  -1.13486  -1.13448  -1.13433  -1.13409
 Alpha  occ. eigenvalues --   -0.15593  -0.13764  -0.13157  -0.10787
 Alpha virt. eigenvalues --   -0.07472  -0.04984  -0.04652  -0.03669  -0.03472
 Alpha virt. eigenvalues --   -0.02097  -0.01806  -0.01579  -0.01433  -0.01229
 Alpha virt. eigenvalues --   -0.00766  -0.00127  -0.00029   0.00367   0.00681

  Beta  occ. eigenvalues --  -38.45334 -38.44741 -38.44639 -38.44543 -38.44097
  Beta  occ. eigenvalues --  -38.44040 -38.43930  -2.21082  -2.20489  -2.20383
  Beta  occ. eigenvalues --   -2.20315  -2.19854  -2.19850  -2.19662  -1.14770
  Beta  occ. eigenvalues --   -1.14748  -1.14700  -1.14176  -1.14172  -1.14140
  Beta  occ. eigenvalues --   -1.14070  -1.14054  -1.14032  -1.13988  -1.13972
  Beta  occ. eigenvalues --   -1.13939  -1.13616  -1.13546  -1.13523  -1.13518
  Beta  occ. eigenvalues --   -1.13509  -1.13433  -1.13355  -1.13345  -1.13328
  Beta  occ. eigenvalues --   -0.15061  -0.13047  -0.12556
  Beta virt. eigenvalues --   -0.07665  -0.07578  -0.04516  -0.04122  -0.03480
  Beta virt. eigenvalues --   -0.03116  -0.01980  -0.01646  -0.01415  -0.01042
  Beta virt. eigenvalues --   -0.00997  -0.00605   0.00115   0.00215   0.00369

 Mulliken charges and spin densities:
               1          2
     1  Na   0.077154  -0.038167
     2  Na   0.241452  -0.024740
     3  Na  -0.480704   0.164329
     4  Na   0.305258   0.191702
     5  Na   0.011514   0.012145
     6  Na   0.116163   0.325299
     7  Na  -0.270837   0.369431
 Sum of Mulliken charges =  -0.00000   1.00000

 Dipole moment (field-independent basis, Debye):
    X=              0.6793    Y=              0.7147    Z=             -0.2652  Tot=              1.0210
 Quadrupole moment (field-independent basis, Debye-Ang):
   XX=            -62.6448   YY=            -66.7738   ZZ=            -71.0730
   XY=             -5.1152   XZ=              0.8103   YZ=             -0.6592

 Normal termination of Gaussian 16 at Sun Dec  3 12:15:17 2023.
