 Gaussian 16, Revision B.01,
 Gaussian 16:  ES64L-G16RevB.01 20-Dec-2017

 -------------------------
 #P B3LYP/6-311+g(d) force
 -------------------------

 -----
 DPGEN
 -----
 Symbolic Z-matrix:
 Charge =  0 Multiplicity = 2

                         Standard orientation:
 ---------------------------------------------------------------------
 Center     Atomic      Atomic             Coordinates (Angstroms)
 Number     Number       Type             X           Y           Z
 ---------------------------------------------------------------------
      1         11           0        0.711067    2.985857   -1.042146
      2         11           0        3.519035   -1.680094   -0.289607
      3         11           0       -2.524713   -1.770230   -1.362587
      4         11           0        0.900010    1.382349    1.774467
      5         11           0       -0.390613   -1.992941    1.585389
      6         11           0       -2.524914    1.070940    0.864657
      7         11           0        0.310128    0.004118   -1.530173
 ---------------------------------------------------------------------

 SCF Done:  E(UB3LYP) =  -1136.12547861     A.U. after   22 cycles

 The electronic state is 2-A.
 Alpha  occ. eigenvalues --  -38.44328 -38.44313 -38.44038 -38.43881 -38.43819
 Alpha  occ. eigenvalues --  -38.43606 -38.43441  -2.20139  -2.20123  -2.19912
 Alpha  occ. eigenvalues --   -2.19650  -2.19605  -2.19471  -2.19386  -1.13838
 Alpha  occ. eigenvalues --   -1.13810  -1.13798  -1.13787  -1.13748  -1.13736
 Alpha  occ. eigenvalues --   -1.13594  -1.13573  -1.13525  -1.13341  -1.13293
 Alpha  occ. eigenvalues --   -1.13286  -1.13275  -1.13269  -1.13247  -1.13237
 Alpha  occ. eigenvalues --   -1.13114  -1.13080  -1.13053  -1.13002  -1.12982
 Alpha  occ. eigenvalues --   -0.18147  -0.12664  -0.11736  -0.11534
 Alpha virt. eigenvalues --   -0.05913  -0.04961  -0.04790  -0.03201  -0.03081
 Alpha virt. eigenvalues --   -0.02890  -0.01637  -0.01152  -0.00769   0.00120
 Alpha virt. eigenvalues --    0.00222   0.00278   0.00366   0.00530   0.00710

  Beta  occ. eigenvalues --  -38.44292 -38.44291 -38.43992 -38.43892 -38.43788
  Beta  occ. eigenvalues --  -38.43587 -38.43381  -2.20088  -2.20072  -2.19830
  Beta  occ. eigenvalues --   -2.19625  -2.19594  -2.19436  -2.19279  -1.13790
  Beta  occ. eigenvalues --   -1.13771  -1.13750  -1.13737  -1.13723  -1.13699
  Beta  occ. eigenvalues --   -1.13542  -1.13499  -1.13467  -1.13296  -1.13289
  Beta  occ. eigenvalues --   -1.13288  -1.13255  -1.13250  -1.13235  -1.13199
  Beta  occ. eigenvalues --   -1.13089  -1.13053  -1.12980  -1.12930  -1.12907
  Beta  occ. eigenvalues --   -0.17314  -0.12448  -0.11449
  Beta virt. eigenvalues --   -0.07738  -0.05810  -0.04770  -0.04235  -0.02982
  Beta virt. eigenvalues --   -0.02397  -0.02175  -0.01478  -0.01070  -0.00384
  Beta virt. eigenvalues --    0.00117   0.00272   0.00359   0.00392   0.00717

 Mulliken charges and spin densities:
               1          2
     1  Na   0.223231  -0.069172
     2  Na  -0.060363  -0.082184
     3  Na   0.347670  -0.047408
     4  Na   0.257851   0.293095
     5  Na  -0.125003   0.199060
     6  Na  -0.188075   0.155061
     7  Na  -0.455312   0.551548
 Sum of Mulliken charges =  -0.00000   1.00000

 Dipole moment (field-independent basis, Debye):
    X=             -0.6119    Y=              0.2086    Z=              0.3385  Tot=              0.7297
 Quadrupole moment (field-independent basis, Debye-Ang):
   XX=            -62.6329   YY=            -65.2281   ZZ=            -66.4553
   XY=              1.8536   XZ=              0.3447   YZ=             -0.1964

 Normal termination of Gaussian 16 at Wed Nov 29 16:46:32 2023.
