 Gaussian 16, Revision B.01,
 Gaussian 16:  ES64L-G16RevB.01 20-Dec-2017

 -------------------------
 #P B3LYP/6-311+g(d) force
 -------------------------

 -----
 DPGEN
 -----
 Symbolic Z-matrix:
 Charge =  0 Multiplicity = 2

                         Standard orientation:
 ---------------------------------------------------------------------
 Center     Atomic      Atomic             Coordinates (Angstroms)
 Number     Number       Type             X           Y           Z
 ---------------------------------------------------------------------
      1         11           0       -2.502295    1.340525   -0.130318
      2         11           0        0.569342    0.690738   -1.820325
      3         11           0        3.068108   -1.875649   -0.286759
      4         11           0       -0.560138   -2.379397   -0.589402
      5         11           0       -3.761587   -1.317235    1.075017
      6         11           0        2.949921    0.586063    1.801946
      7         11           0        0.236650    2.954955   -0.050160
 ---------------------------------------------------------------------

 SCF Done:  E(UB3LYP) =  -1136.12336111     A.U. after   19 cycles

 The electronic state is 2-A.
 Alpha  occ. eigenvalues --  -38.44510 -38.44209 -38.44148 -38.44118 -38.43964
 Alpha  occ. eigenvalues --  -38.43651 -38.43486  -2.20323  -2.20131  -2.19954
 Alpha  occ. eigenvalues --   -2.19914  -2.19841  -2.19470  -2.19382  -1.13979
 Alpha  occ. eigenvalues --   -1.13970  -1.13941  -1.13863  -1.13803  -1.13734
 Alpha  occ. eigenvalues --   -1.13631  -1.13619  -1.13606  -1.13601  -1.13588
 Alpha  occ. eigenvalues --   -1.13533  -1.13512  -1.13507  -1.13499  -1.13132
 Alpha  occ. eigenvalues --   -1.13120  -1.13087  -1.13062  -1.13028  -1.12989
 Alpha  occ. eigenvalues --   -0.17555  -0.13746  -0.12504  -0.11042
 Alpha virt. eigenvalues --   -0.05916  -0.05352  -0.04805  -0.03856  -0.03158
 Alpha virt. eigenvalues --   -0.02241  -0.01624  -0.01024  -0.00750  -0.00525
 Alpha virt. eigenvalues --   -0.00260   0.00293   0.00374   0.00513   0.00644

  Beta  occ. eigenvalues --  -38.44426 -38.44153 -38.44150 -38.44091 -38.43953
  Beta  occ. eigenvalues --  -38.43616 -38.43485  -2.20166  -2.20031  -2.19964
  Beta  occ. eigenvalues --   -2.19868  -2.19824  -2.19406  -2.19382  -1.13879
  Beta  occ. eigenvalues --   -1.13864  -1.13833  -1.13790  -1.13732  -1.13669
  Beta  occ. eigenvalues --   -1.13641  -1.13621  -1.13574  -1.13566  -1.13560
  Beta  occ. eigenvalues --   -1.13525  -1.13498  -1.13470  -1.13468  -1.13084
  Beta  occ. eigenvalues --   -1.13076  -1.13053  -1.13049  -1.13029  -1.12980
  Beta  occ. eigenvalues --   -0.16980  -0.13134  -0.12290
  Beta virt. eigenvalues --   -0.07540  -0.05757  -0.05034  -0.04444  -0.03464
  Beta virt. eigenvalues --   -0.02552  -0.01830  -0.01452  -0.00940  -0.00638
  Beta virt. eigenvalues --   -0.00352   0.00037   0.00399   0.00586   0.00653

 Mulliken charges and spin densities:
               1          2
     1  Na  -0.503732  -0.052225
     2  Na   0.256922   0.136878
     3  Na   0.232188   0.073444
     4  Na  -0.480314  -0.034454
     5  Na   0.599805   0.250050
     6  Na  -0.228177   0.401975
     7  Na   0.123309   0.224331
 Sum of Mulliken charges =  -0.00000   1.00000

 Dipole moment (field-independent basis, Debye):
    X=              0.3427    Y=             -0.0882    Z=              0.0695  Tot=              0.3606
 Quadrupole moment (field-independent basis, Debye-Ang):
   XX=            -65.6266   YY=            -65.2944   ZZ=            -68.8084
   XY=             -1.0720   XZ=             -2.4215   YZ=              1.1721

 Normal termination of Gaussian 16 at Tue Nov 28 21:57:48 2023.
