 Gaussian 16, Revision B.01,
 Gaussian 16:  ES64L-G16RevB.01 20-Dec-2017

 -------------------------
 #P B3LYP/6-311+g(d) force
 -------------------------

 -----
 DPGEN
 -----
 Symbolic Z-matrix:
 Charge =  0 Multiplicity = 2

                         Standard orientation:
 ---------------------------------------------------------------------
 Center     Atomic      Atomic             Coordinates (Angstroms)
 Number     Number       Type             X           Y           Z
 ---------------------------------------------------------------------
      1         11           0        4.070089   -1.196109   -0.977415
      2         11           0       -3.505656   -0.738943   -1.592786
      3         11           0        0.347382    3.061389    1.171622
      4         11           0       -2.159411    1.414731   -0.216608
      5         11           0        1.799780    0.776457   -1.452893
      6         11           0        0.998508   -0.891499    1.919110
      7         11           0       -1.550693   -2.426027    1.148969
 ---------------------------------------------------------------------

 SCF Done:  E(UB3LYP) =  -1136.11714855     A.U. after   21 cycles

 The electronic state is 2-A.
 Alpha  occ. eigenvalues --  -38.44747 -38.44475 -38.44369 -38.44263 -38.44034
 Alpha  occ. eigenvalues --  -38.43599 -38.43089  -2.20585  -2.20314  -2.20228
 Alpha  occ. eigenvalues --   -2.20081  -2.19855  -2.19488  -2.18906  -1.14299
 Alpha  occ. eigenvalues --   -1.14209  -1.14202  -1.14021  -1.13989  -1.13988
 Alpha  occ. eigenvalues --   -1.13957  -1.13855  -1.13814  -1.13723  -1.13719
 Alpha  occ. eigenvalues --   -1.13689  -1.13551  -1.13511  -1.13458  -1.13182
 Alpha  occ. eigenvalues --   -1.13140  -1.13109  -1.12573  -1.12560  -1.12540
 Alpha  occ. eigenvalues --   -0.17197  -0.13808  -0.12190  -0.11623
 Alpha virt. eigenvalues --   -0.05675  -0.05058  -0.04789  -0.03597  -0.03334
 Alpha virt. eigenvalues --   -0.02534  -0.01923  -0.01144  -0.00682  -0.00385
 Alpha virt. eigenvalues --   -0.00123   0.00104   0.00193   0.00514   0.00809

  Beta  occ. eigenvalues --  -38.44676 -38.44453 -38.44314 -38.44224 -38.44001
  Beta  occ. eigenvalues --  -38.43585 -38.43075  -2.20457  -2.20274  -2.20127
  Beta  occ. eigenvalues --   -2.20010  -2.19800  -2.19467  -2.18880  -1.14205
  Beta  occ. eigenvalues --   -1.14119  -1.14108  -1.13991  -1.13965  -1.13914
  Beta  occ. eigenvalues --   -1.13913  -1.13786  -1.13752  -1.13674  -1.13663
  Beta  occ. eigenvalues --   -1.13649  -1.13498  -1.13478  -1.13409  -1.13153
  Beta  occ. eigenvalues --   -1.13121  -1.13091  -1.12555  -1.12541  -1.12524
  Beta  occ. eigenvalues --   -0.16581  -0.13149  -0.11570
  Beta virt. eigenvalues --   -0.08304  -0.05430  -0.04805  -0.04468  -0.03288
  Beta virt. eigenvalues --   -0.02817  -0.02059  -0.01713  -0.01018  -0.00349
  Beta virt. eigenvalues --   -0.00251   0.00093   0.00259   0.00302   0.00610

 Mulliken charges and spin densities:
               1          2
     1  Na   0.292082  -0.004296
     2  Na   0.631628   0.025481
     3  Na   0.408165  -0.016346
     4  Na  -0.829270   0.348683
     5  Na  -0.345311   0.270206
     6  Na  -0.030483   0.352105
     7  Na  -0.126810   0.024167
 Sum of Mulliken charges =  -0.00000   1.00000

 Dipole moment (field-independent basis, Debye):
    X=              0.5054    Y=             -0.5594    Z=             -0.1851  Tot=              0.7762
 Quadrupole moment (field-independent basis, Debye-Ang):
   XX=            -61.7357   YY=            -70.4605   ZZ=            -65.7072
   XY=              0.8090   XZ=              3.6453   YZ=              2.1671

 Normal termination of Gaussian 16 at Mon Dec  4 05:21:05 2023.
