 Gaussian 16, Revision B.01,
 Gaussian 16:  ES64L-G16RevB.01 20-Dec-2017

 -------------------------
 #P B3LYP/6-311+g(d) force
 -------------------------

 -----
 DPGEN
 -----
 Symbolic Z-matrix:
 Charge =  0 Multiplicity = 2

                         Standard orientation:
 ---------------------------------------------------------------------
 Center     Atomic      Atomic             Coordinates (Angstroms)
 Number     Number       Type             X           Y           Z
 ---------------------------------------------------------------------
      1         11           0       -1.726837    1.758956   -1.629124
      2         11           0        0.037997   -1.447129    2.578582
      3         11           0        5.105127    0.350769   -0.417286
      4         11           0        0.929132   -0.095744   -0.240623
      5         11           0       -1.074185    2.410086    1.190234
      6         11           0       -2.313830   -0.832629    0.514200
      7         11           0       -0.957404   -2.144308   -1.995982
 ---------------------------------------------------------------------

 SCF Done:  E(UB3LYP) =  -1136.10901035     A.U. after   26 cycles

 The electronic state is 2-A.
 Alpha  occ. eigenvalues --  -38.45910 -38.44343 -38.44076 -38.44000 -38.43340
 Alpha  occ. eigenvalues --  -38.43015 -38.42948  -2.21669  -2.20319  -2.19930
 Alpha  occ. eigenvalues --   -2.19927  -2.19250  -2.18909  -2.18815  -1.15301
 Alpha  occ. eigenvalues --   -1.15300  -1.15272  -1.14021  -1.13996  -1.13953
 Alpha  occ. eigenvalues --   -1.13676  -1.13598  -1.13591  -1.13571  -1.13541
 Alpha  occ. eigenvalues --   -1.13535  -1.12985  -1.12920  -1.12869  -1.12566
 Alpha  occ. eigenvalues --   -1.12563  -1.12519  -1.12493  -1.12477  -1.12428
 Alpha  occ. eigenvalues --   -0.18448  -0.12897  -0.12142  -0.11671
 Alpha virt. eigenvalues --   -0.06930  -0.04542  -0.04257  -0.03016  -0.02869
 Alpha virt. eigenvalues --   -0.02679  -0.02490  -0.00993  -0.00922  -0.00668
 Alpha virt. eigenvalues --   -0.00480   0.00016   0.00318   0.00694   0.00792

  Beta  occ. eigenvalues --  -38.45783 -38.44333 -38.44033 -38.44003 -38.43333
  Beta  occ. eigenvalues --  -38.43012 -38.42934  -2.21431  -2.20304  -2.19939
  Beta  occ. eigenvalues --   -2.19851  -2.19237  -2.18902  -2.18789  -1.15139
  Beta  occ. eigenvalues --   -1.15139  -1.15112  -1.14015  -1.13956  -1.13948
  Beta  occ. eigenvalues --   -1.13656  -1.13606  -1.13577  -1.13522  -1.13509
  Beta  occ. eigenvalues --   -1.13483  -1.12977  -1.12911  -1.12858  -1.12562
  Beta  occ. eigenvalues --   -1.12556  -1.12512  -1.12472  -1.12465  -1.12408
  Beta  occ. eigenvalues --   -0.18094  -0.11909  -0.11452
  Beta virt. eigenvalues --   -0.08574  -0.06352  -0.04316  -0.04172  -0.02811
  Beta virt. eigenvalues --   -0.02470  -0.02275  -0.01915  -0.00784  -0.00722
  Beta virt. eigenvalues --   -0.00221  -0.00149   0.00149   0.00368   0.00721

 Mulliken charges and spin densities:
               1          2
     1  Na   0.386945  -0.029645
     2  Na  -0.233781   0.342275
     3  Na  -0.077634   0.502884
     4  Na  -1.581194  -0.145697
     5  Na  -0.117651   0.227303
     6  Na   1.475904  -0.050590
     7  Na   0.147411   0.153471
 Sum of Mulliken charges =  -0.00000   1.00000

 Dipole moment (field-independent basis, Debye):
    X=              0.4805    Y=             -0.1105    Z=              0.1384  Tot=              0.5121
 Quadrupole moment (field-independent basis, Debye-Ang):
   XX=            -58.0455   YY=            -72.4087   ZZ=            -64.7035
   XY=              1.2260   XZ=             -2.8157   YZ=             -1.5205

 Normal termination of Gaussian 16 at Tue Dec  5 16:27:55 2023.
