 Gaussian 16, Revision B.01,
 Gaussian 16:  ES64L-G16RevB.01 20-Dec-2017

 -------------------------
 #P B3LYP/6-311+g(d) force
 -------------------------

 -----
 DPGEN
 -----
 Symbolic Z-matrix:
 Charge =  0 Multiplicity = 2

                         Standard orientation:
 ---------------------------------------------------------------------
 Center     Atomic      Atomic             Coordinates (Angstroms)
 Number     Number       Type             X           Y           Z
 ---------------------------------------------------------------------
      1         11           0        0.659153    1.637982   -1.211117
      2         11           0        4.155388    0.302588    0.190055
      3         11           0        0.477265   -1.573478   -1.607318
      4         11           0       -1.376637   -2.589094    0.838299
      5         11           0       -2.589955   -0.334649   -0.776673
      6         11           0       -1.994222    2.901543    0.675502
      7         11           0        0.669008   -0.344892    1.891253
 ---------------------------------------------------------------------

 SCF Done:  E(UB3LYP) =  -1136.12562091     A.U. after   22 cycles

 The electronic state is 2-A.
 Alpha  occ. eigenvalues --  -38.44857 -38.44250 -38.44152 -38.43938 -38.43603
 Alpha  occ. eigenvalues --  -38.43323 -38.43170  -2.20582  -2.20106  -2.20041
 Alpha  occ. eigenvalues --   -2.19859  -2.19466  -2.19255  -2.18965  -1.14260
 Alpha  occ. eigenvalues --   -1.14258  -1.14205  -1.13791  -1.13756  -1.13753
 Alpha  occ. eigenvalues --   -1.13730  -1.13715  -1.13654  -1.13566  -1.13508
 Alpha  occ. eigenvalues --   -1.13454  -1.13180  -1.13142  -1.13044  -1.12920
 Alpha  occ. eigenvalues --   -1.12911  -1.12880  -1.12631  -1.12625  -1.12601
 Alpha  occ. eigenvalues --   -0.18400  -0.12708  -0.12128  -0.11296
 Alpha virt. eigenvalues --   -0.06501  -0.04781  -0.04320  -0.03321  -0.03089
 Alpha virt. eigenvalues --   -0.02756  -0.02147  -0.00975  -0.00556  -0.00192
 Alpha virt. eigenvalues --    0.00209   0.00235   0.00431   0.00730   0.00793

  Beta  occ. eigenvalues --  -38.44866 -38.44176 -38.44139 -38.43873 -38.43575
  Beta  occ. eigenvalues --  -38.43305 -38.43162  -2.20599  -2.20021  -2.19970
  Beta  occ. eigenvalues --   -2.19742  -2.19417  -2.19226  -2.18950  -1.14272
  Beta  occ. eigenvalues --   -1.14263  -1.14217  -1.13744  -1.13701  -1.13692
  Beta  occ. eigenvalues --   -1.13655  -1.13636  -1.13613  -1.13482  -1.13419
  Beta  occ. eigenvalues --   -1.13369  -1.13145  -1.13083  -1.13016  -1.12904
  Beta  occ. eigenvalues --   -1.12887  -1.12834  -1.12621  -1.12609  -1.12593
  Beta  occ. eigenvalues --   -0.17576  -0.12586  -0.11949
  Beta virt. eigenvalues --   -0.07287  -0.06373  -0.04588  -0.04141  -0.02766
  Beta virt. eigenvalues --   -0.02522  -0.02199  -0.01688  -0.00903  -0.00258
  Beta virt. eigenvalues --   -0.00208   0.00274   0.00296   0.00602   0.00758

 Mulliken charges and spin densities:
               1          2
     1  Na  -0.144944   0.131787
     2  Na   0.054209  -0.113336
     3  Na  -0.032520   0.231126
     4  Na   0.607101  -0.024007
     5  Na  -0.148405   0.298009
     6  Na   0.191781  -0.140092
     7  Na  -0.527222   0.616513
 Sum of Mulliken charges =  -0.00000   1.00000

 Dipole moment (field-independent basis, Debye):
    X=              0.6467    Y=             -0.3119    Z=              0.0689  Tot=              0.7213
 Quadrupole moment (field-independent basis, Debye-Ang):
   XX=            -55.6410   YY=            -68.2607   ZZ=            -69.9971
   XY=              1.5006   XZ=             -0.7961   YZ=              1.3397

 Normal termination of Gaussian 16 at Thu Dec  7 16:22:26 2023.
