 Gaussian 16, Revision B.01,
 Gaussian 16:  ES64L-G16RevB.01 20-Dec-2017

 -------------------------
 #P B3LYP/6-311+g(d) force
 -------------------------

 -----
 DPGEN
 -----
 Symbolic Z-matrix:
 Charge =  0 Multiplicity = 2

                         Standard orientation:
 ---------------------------------------------------------------------
 Center     Atomic      Atomic             Coordinates (Angstroms)
 Number     Number       Type             X           Y           Z
 ---------------------------------------------------------------------
      1         11           0       -0.021210    0.296610    2.180174
      2         11           0       -3.536289   -0.160805    0.462894
      3         11           0        2.325835   -2.766785    0.088953
      4         11           0       -1.131705   -2.021901   -0.498216
      5         11           0        2.173215    2.874222    0.418668
      6         11           0        1.518943   -0.104755   -1.236768
      7         11           0       -1.328787    1.883415   -1.415704
 ---------------------------------------------------------------------

 SCF Done:  E(UB3LYP) =  -1136.13159310     A.U. after   19 cycles

 The electronic state is 2-A.
 Alpha  occ. eigenvalues --  -38.44315 -38.44118 -38.43868 -38.43841 -38.43719
 Alpha  occ. eigenvalues --  -38.43652 -38.43051  -2.20135  -2.19939  -2.19669
 Alpha  occ. eigenvalues --   -2.19644  -2.19546  -2.19536  -2.19003  -1.13802
 Alpha  occ. eigenvalues --   -1.13773  -1.13742  -1.13632  -1.13594  -1.13538
 Alpha  occ. eigenvalues --   -1.13378  -1.13324  -1.13316  -1.13314  -1.13304
 Alpha  occ. eigenvalues --   -1.13279  -1.13261  -1.13244  -1.13216  -1.13191
 Alpha  occ. eigenvalues --   -1.13183  -1.13112  -1.12709  -1.12668  -1.12595
 Alpha  occ. eigenvalues --   -0.18089  -0.12867  -0.12306  -0.10954
 Alpha virt. eigenvalues --   -0.05759  -0.05501  -0.04399  -0.03300  -0.02948
 Alpha virt. eigenvalues --   -0.02779  -0.01643  -0.01481  -0.00501  -0.00171
 Alpha virt. eigenvalues --    0.00132   0.00295   0.00634   0.00719   0.00763

  Beta  occ. eigenvalues --  -38.44219 -38.44067 -38.43869 -38.43840 -38.43722
  Beta  occ. eigenvalues --  -38.43642 -38.43021  -2.19959  -2.19847  -2.19670
  Beta  occ. eigenvalues --   -2.19648  -2.19553  -2.19522  -2.18950  -1.13683
  Beta  occ. eigenvalues --   -1.13652  -1.13612  -1.13561  -1.13529  -1.13477
  Beta  occ. eigenvalues --   -1.13380  -1.13328  -1.13316  -1.13298  -1.13292
  Beta  occ. eigenvalues --   -1.13283  -1.13262  -1.13236  -1.13190  -1.13189
  Beta  occ. eigenvalues --   -1.13176  -1.13109  -1.12673  -1.12612  -1.12561
  Beta  occ. eigenvalues --   -0.17351  -0.12733  -0.12114
  Beta virt. eigenvalues --   -0.07039  -0.05547  -0.05397  -0.04315  -0.02650
  Beta virt. eigenvalues --   -0.02384  -0.01837  -0.01544  -0.01361  -0.00268
  Beta virt. eigenvalues --   -0.00160   0.00216   0.00341   0.00734   0.00805

 Mulliken charges and spin densities:
               1          2
     1  Na  -0.446955   0.626603
     2  Na   0.528965   0.037371
     3  Na   0.374939  -0.114102
     4  Na  -0.304756   0.075791
     5  Na  -0.025348  -0.135146
     6  Na   0.130893   0.366156
     7  Na  -0.257737   0.143327
 Sum of Mulliken charges =  -0.00000   1.00000

 Dipole moment (field-independent basis, Debye):
    X=             -0.1094    Y=              0.1274    Z=              0.3704  Tot=              0.4067
 Quadrupole moment (field-independent basis, Debye-Ang):
   XX=            -57.9909   YY=            -63.2323   ZZ=            -72.2410
   XY=             -0.8705   XZ=              1.0690   YZ=             -1.1706

 Normal termination of Gaussian 16 at Thu Dec  7 19:19:33 2023.
