 Gaussian 16, Revision B.01,
 Gaussian 16:  ES64L-G16RevB.01 20-Dec-2017

 -------------------------
 #P B3LYP/6-311+g(d) force
 -------------------------

 -----
 DPGEN
 -----
 Symbolic Z-matrix:
 Charge =  0 Multiplicity = 2

                         Standard orientation:
 ---------------------------------------------------------------------
 Center     Atomic      Atomic             Coordinates (Angstroms)
 Number     Number       Type             X           Y           Z
 ---------------------------------------------------------------------
      1         11           0       -1.987764   -1.655891    0.587999
      2         11           0       -4.823269   -1.094261   -0.691623
      3         11           0       -5.443299    1.829811    0.537454
      4         11           0       -1.069586    1.179288   -0.748158
      5         11           0        1.803435   -0.980982   -0.185589
      6         11           0        4.588192    0.249175    1.353463
      7         11           0        6.932292    0.472860   -0.853546
 ---------------------------------------------------------------------

 SCF Done:  E(UB3LYP) =  -1136.10950763     A.U. after   22 cycles

 The electronic state is 2-A.
 Alpha  occ. eigenvalues --  -38.45294 -38.44973 -38.44549 -38.44270 -38.43802
 Alpha  occ. eigenvalues --  -38.43657 -38.43566  -2.21079  -2.20740  -2.20354
 Alpha  occ. eigenvalues --   -2.20060  -2.19688  -2.19464  -2.19423  -1.14774
 Alpha  occ. eigenvalues --   -1.14760  -1.14666  -1.14403  -1.14400  -1.14389
 Alpha  occ. eigenvalues --   -1.14030  -1.14017  -1.13984  -1.13753  -1.13739
 Alpha  occ. eigenvalues --   -1.13661  -1.13383  -1.13348  -1.13300  -1.13157
 Alpha  occ. eigenvalues --   -1.13113  -1.13100  -1.13081  -1.13075  -1.13016
 Alpha  occ. eigenvalues --   -0.16330  -0.14414  -0.11998  -0.10164
 Alpha virt. eigenvalues --   -0.07293  -0.05298  -0.04918  -0.03419  -0.02949
 Alpha virt. eigenvalues --   -0.02551  -0.02124  -0.01883  -0.00958  -0.00888
 Alpha virt. eigenvalues --   -0.00509  -0.00157   0.00115   0.00292   0.00499

  Beta  occ. eigenvalues --  -38.45272 -38.44963 -38.44550 -38.44268 -38.43731
  Beta  occ. eigenvalues --  -38.43591 -38.43543  -2.21039  -2.20722  -2.20358
  Beta  occ. eigenvalues --   -2.20057  -2.19559  -2.19388  -2.19340  -1.14747
  Beta  occ. eigenvalues --   -1.14726  -1.14638  -1.14390  -1.14387  -1.14378
  Beta  occ. eigenvalues --   -1.14032  -1.14019  -1.13983  -1.13751  -1.13730
  Beta  occ. eigenvalues --   -1.13663  -1.13301  -1.13254  -1.13203  -1.13099
  Beta  occ. eigenvalues --   -1.13063  -1.13037  -1.13021  -1.13009  -1.12950
  Beta  occ. eigenvalues --   -0.15816  -0.14165  -0.11714
  Beta virt. eigenvalues --   -0.07174  -0.06435  -0.05019  -0.04653  -0.03228
  Beta virt. eigenvalues --   -0.02779  -0.02218  -0.01741  -0.01589  -0.00883
  Beta virt. eigenvalues --   -0.00532  -0.00277   0.00091   0.00210   0.00469

 Mulliken charges and spin densities:
               1          2
     1  Na  -0.220593   0.565048
     2  Na   0.376614  -0.001850
     3  Na  -0.025778   0.329875
     4  Na  -0.004506   0.117775
     5  Na  -0.393746  -0.046928
     6  Na   0.041590  -0.009056
     7  Na   0.226419   0.045137
 Sum of Mulliken charges =  -0.00000   1.00000

 Dipole moment (field-independent basis, Debye):
    X=              2.2305    Y=              0.1299    Z=             -0.3954  Tot=              2.2690
 Quadrupole moment (field-independent basis, Debye-Ang):
   XX=            -64.3520   YY=            -72.1309   ZZ=            -65.0427
   XY=              0.9990   XZ=             -3.9540   YZ=              0.0224

 Normal termination of Gaussian 16 at Tue Nov 28 21:34:57 2023.
