 Gaussian 16, Revision B.01,
 Gaussian 16:  ES64L-G16RevB.01 20-Dec-2017

 -------------------------
 #P B3LYP/6-311+g(d) force
 -------------------------

 -----
 DPGEN
 -----
 Symbolic Z-matrix:
 Charge =  0 Multiplicity = 2

                         Standard orientation:
 ---------------------------------------------------------------------
 Center     Atomic      Atomic             Coordinates (Angstroms)
 Number     Number       Type             X           Y           Z
 ---------------------------------------------------------------------
      1         11           0        1.889749    1.960942    0.598459
      2         11           0       -0.619629    0.089137   -0.915112
      3         11           0       -1.525681    2.673205   -0.342798
      4         11           0       -1.411586   -0.267537    2.357750
      5         11           0       -3.457060   -1.689523   -1.213951
      6         11           0        3.289471   -0.491597   -1.512890
      7         11           0        1.834736   -2.274626    1.028543
 ---------------------------------------------------------------------

 SCF Done:  E(UB3LYP) =  -1136.11878322     A.U. after   22 cycles

 The electronic state is 2-A.
 Alpha  occ. eigenvalues --  -38.44482 -38.44198 -38.44160 -38.44101 -38.44010
 Alpha  occ. eigenvalues --  -38.43874 -38.43200  -2.20289  -2.19975  -2.19972
 Alpha  occ. eigenvalues --   -2.19881  -2.19823  -2.19741  -2.19209  -1.13960
 Alpha  occ. eigenvalues --   -1.13915  -1.13909  -1.13658  -1.13647  -1.13638
 Alpha  occ. eigenvalues --   -1.13632  -1.13622  -1.13593  -1.13570  -1.13546
 Alpha  occ. eigenvalues --   -1.13524  -1.13511  -1.13503  -1.13501  -1.13437
 Alpha  occ. eigenvalues --   -1.13368  -1.13321  -1.12894  -1.12863  -1.12792
 Alpha  occ. eigenvalues --   -0.17700  -0.13253  -0.11516  -0.11052
 Alpha virt. eigenvalues --   -0.05963  -0.05331  -0.05015  -0.03226  -0.02785
 Alpha virt. eigenvalues --   -0.02412  -0.01821  -0.01193  -0.00993  -0.00195
 Alpha virt. eigenvalues --    0.00144   0.00194   0.00239   0.00441   0.00713

  Beta  occ. eigenvalues --  -38.44405 -38.44186 -38.44137 -38.44051 -38.44014
  Beta  occ. eigenvalues --  -38.43869 -38.43180  -2.20146  -2.19955  -2.19927
  Beta  occ. eigenvalues --   -2.19832  -2.19789  -2.19733  -2.19175  -1.13864
  Beta  occ. eigenvalues --   -1.13810  -1.13810  -1.13642  -1.13632  -1.13607
  Beta  occ. eigenvalues --   -1.13606  -1.13592  -1.13585  -1.13545  -1.13517
  Beta  occ. eigenvalues --   -1.13493  -1.13478  -1.13460  -1.13444  -1.13443
  Beta  occ. eigenvalues --   -1.13354  -1.13317  -1.12845  -1.12839  -1.12769
  Beta  occ. eigenvalues --   -0.17117  -0.12946  -0.11224
  Beta virt. eigenvalues --   -0.07415  -0.05772  -0.04988  -0.04672  -0.02964
  Beta virt. eigenvalues --   -0.02297  -0.01759  -0.01609  -0.01127  -0.00589
  Beta virt. eigenvalues --   -0.00043   0.00216   0.00289   0.00363   0.00531

 Mulliken charges and spin densities:
               1          2
     1  Na   0.305006   0.117811
     2  Na  -0.878245  -0.232368
     3  Na   0.332964   0.118852
     4  Na  -0.046484   0.503348
     5  Na   0.017125   0.295334
     6  Na   0.477113   0.012610
     7  Na  -0.207478   0.184412
 Sum of Mulliken charges =  -0.00000   1.00000

 Dipole moment (field-independent basis, Debye):
    X=              0.3036    Y=              0.2100    Z=              0.3880  Tot=              0.5355
 Quadrupole moment (field-independent basis, Debye-Ang):
   XX=            -57.8338   YY=            -68.8228   ZZ=            -67.0248
   XY=             -1.2685   XZ=             -1.8184   YZ=              1.2912

 Normal termination of Gaussian 16 at Tue Dec  5 12:16:30 2023.
