 Gaussian 16, Revision B.01,
 Gaussian 16:  ES64L-G16RevB.01 20-Dec-2017

 -------------------------
 #P B3LYP/6-311+g(d) force
 -------------------------

 -----
 DPGEN
 -----
 Symbolic Z-matrix:
 Charge =  0 Multiplicity = 2

                         Standard orientation:
 ---------------------------------------------------------------------
 Center     Atomic      Atomic             Coordinates (Angstroms)
 Number     Number       Type             X           Y           Z
 ---------------------------------------------------------------------
      1         11           0        2.970010   -0.140883    0.130726
      2         11           0       -1.941971    1.983373    0.417398
      3         11           0        0.988954    2.623731   -0.599187
      4         11           0       -0.190555   -0.117037   -1.660961
      5         11           0        0.571842   -2.673393   -0.563813
      6         11           0       -2.706071   -1.226857   -0.106280
      7         11           0        0.307790   -0.448933    2.382118
 ---------------------------------------------------------------------

 SCF Done:  E(UB3LYP) =  -1136.13350678     A.U. after   19 cycles

 The electronic state is 2-A.
 Alpha  occ. eigenvalues --  -38.44518 -38.43617 -38.43535 -38.43528 -38.43449
 Alpha  occ. eigenvalues --  -38.43327 -38.43176  -2.20360  -2.19513  -2.19461
 Alpha  occ. eigenvalues --   -2.19428  -2.19403  -2.19213  -2.19066  -1.14005
 Alpha  occ. eigenvalues --   -1.13989  -1.13982  -1.13389  -1.13209  -1.13179
 Alpha  occ. eigenvalues --   -1.13137  -1.13118  -1.13107  -1.13070  -1.13062
 Alpha  occ. eigenvalues --   -1.13047  -1.13028  -1.13017  -1.13005  -1.12913
 Alpha  occ. eigenvalues --   -1.12867  -1.12857  -1.12746  -1.12701  -1.12678
 Alpha  occ. eigenvalues --   -0.18917  -0.12797  -0.12615  -0.11586
 Alpha virt. eigenvalues --   -0.05232  -0.04763  -0.04534  -0.03532  -0.03240
 Alpha virt. eigenvalues --   -0.03184  -0.01169  -0.00893  -0.00180   0.00065
 Alpha virt. eigenvalues --    0.00127   0.00378   0.00891   0.00925   0.00955

  Beta  occ. eigenvalues --  -38.44412 -38.43614 -38.43533 -38.43513 -38.43386
  Beta  occ. eigenvalues --  -38.43320 -38.43166  -2.20164  -2.19459  -2.19419
  Beta  occ. eigenvalues --   -2.19404  -2.19385  -2.19204  -2.19050  -1.13874
  Beta  occ. eigenvalues --   -1.13855  -1.13838  -1.13332  -1.13167  -1.13139
  Beta  occ. eigenvalues --   -1.13116  -1.13102  -1.13087  -1.13056  -1.13043
  Beta  occ. eigenvalues --   -1.13027  -1.13000  -1.12986  -1.12965  -1.12905
  Beta  occ. eigenvalues --   -1.12855  -1.12839  -1.12722  -1.12685  -1.12671
  Beta  occ. eigenvalues --   -0.18181  -0.12578  -0.12363
  Beta virt. eigenvalues --   -0.07566  -0.05199  -0.04672  -0.04494  -0.02689
  Beta virt. eigenvalues --   -0.02440  -0.02161  -0.01097  -0.00832  -0.00061
  Beta virt. eigenvalues --    0.00054   0.00143   0.00409   0.00921   0.00951

 Mulliken charges and spin densities:
               1          2
     1  Na   0.099493   0.065306
     2  Na   0.009171   0.155820
     3  Na   0.233610   0.013918
     4  Na  -0.143530   0.093604
     5  Na   0.345489   0.009615
     6  Na   0.130188   0.041193
     7  Na  -0.674423   0.620544
 Sum of Mulliken charges =  -0.00000   1.00000

 Dipole moment (field-independent basis, Debye):
    X=              0.0681    Y=             -0.2471    Z=              0.5002  Tot=              0.5620
 Quadrupole moment (field-independent basis, Debye-Ang):
   XX=            -61.2404   YY=            -64.8505   ZZ=            -69.7993
   XY=              0.3898   XZ=             -1.0988   YZ=              0.2747

 Normal termination of Gaussian 16 at Thu Dec  7 13:50:47 2023.
