 Gaussian 16, Revision B.01,
 Gaussian 16:  ES64L-G16RevB.01 20-Dec-2017

 -------------------------
 #P B3LYP/6-311+g(d) force
 -------------------------

 -----
 DPGEN
 -----
 Symbolic Z-matrix:
 Charge =  0 Multiplicity = 2

                         Standard orientation:
 ---------------------------------------------------------------------
 Center     Atomic      Atomic             Coordinates (Angstroms)
 Number     Number       Type             X           Y           Z
 ---------------------------------------------------------------------
      1         11           0       -3.242773    2.218113    0.371756
      2         11           0       -4.447682   -1.870936   -0.123503
      3         11           0       -1.487548   -2.651681    0.066008
      4         11           0        4.376218   -0.339215    0.532140
      5         11           0        2.424748   -3.175372   -0.270092
      6         11           0       -0.473705    3.753336   -0.217618
      7         11           0        2.850741    2.065755   -0.358691
 ---------------------------------------------------------------------

 SCF Done:  E(UB3LYP) =  -1136.10807819     A.U. after   21 cycles

 The electronic state is 2-A.
 Alpha  occ. eigenvalues --  -38.45367 -38.44770 -38.44648 -38.44608 -38.44317
 Alpha  occ. eigenvalues --  -38.44021 -38.43926  -2.21137  -2.20551  -2.20475
 Alpha  occ. eigenvalues --   -2.20434  -2.20110  -2.19843  -2.19715  -1.14805
 Alpha  occ. eigenvalues --   -1.14800  -1.14759  -1.14290  -1.14232  -1.14225
 Alpha  occ. eigenvalues --   -1.14215  -1.14135  -1.14114  -1.14075  -1.14062
 Alpha  occ. eigenvalues --   -1.13999  -1.13761  -1.13747  -1.13728  -1.13499
 Alpha  occ. eigenvalues --   -1.13483  -1.13468  -1.13383  -1.13382  -1.13366
 Alpha  occ. eigenvalues --   -0.15637  -0.14112  -0.13427  -0.11009
 Alpha virt. eigenvalues --   -0.07465  -0.04896  -0.04266  -0.03559  -0.03468
 Alpha virt. eigenvalues --   -0.02571  -0.02355  -0.02081  -0.01350  -0.00673
 Alpha virt. eigenvalues --   -0.00417  -0.00238   0.00250   0.00365   0.00529

  Beta  occ. eigenvalues --  -38.45331 -38.44764 -38.44643 -38.44554 -38.44231
  Beta  occ. eigenvalues --  -38.43976 -38.43924  -2.21074  -2.20546  -2.20472
  Beta  occ. eigenvalues --   -2.20338  -2.19950  -2.19761  -2.19716  -1.14764
  Beta  occ. eigenvalues --   -1.14758  -1.14703  -1.14247  -1.14232  -1.14222
  Beta  occ. eigenvalues --   -1.14177  -1.14135  -1.14098  -1.14013  -1.14001
  Beta  occ. eigenvalues --   -1.13945  -1.13652  -1.13638  -1.13624  -1.13444
  Beta  occ. eigenvalues --   -1.13427  -1.13414  -1.13386  -1.13384  -1.13351
  Beta  occ. eigenvalues --   -0.15102  -0.13491  -0.12702
  Beta virt. eigenvalues --   -0.07820  -0.07452  -0.04446  -0.04003  -0.03305
  Beta virt. eigenvalues --   -0.03012  -0.02339  -0.02148  -0.01867  -0.01216
  Beta virt. eigenvalues --   -0.00297  -0.00140   0.00088   0.00237   0.00395

 Mulliken charges and spin densities:
               1          2
     1  Na  -0.241363   0.191450
     2  Na   1.084937   0.211312
     3  Na  -0.997041   0.162333
     4  Na   0.075986  -0.089001
     5  Na  -0.069081   0.291464
     6  Na   0.429771  -0.022427
     7  Na  -0.283208   0.254870
 Sum of Mulliken charges =  -0.00000   1.00000

 Dipole moment (field-independent basis, Debye):
    X=             -0.3679    Y=              0.2428    Z=              0.0987  Tot=              0.4517
 Quadrupole moment (field-independent basis, Debye-Ang):
   XX=            -54.9234   YY=            -71.4241   ZZ=            -73.3863
   XY=             -2.6639   XZ=              0.4169   YZ=             -0.5448

 Normal termination of Gaussian 16 at Sun Dec  3 21:16:07 2023.
