 Gaussian 16, Revision B.01,
 Gaussian 16:  ES64L-G16RevB.01 20-Dec-2017

 -------------------------
 #P B3LYP/6-311+g(d) force
 -------------------------

 -----
 DPGEN
 -----
 Symbolic Z-matrix:
 Charge =  0 Multiplicity = 2

                         Standard orientation:
 ---------------------------------------------------------------------
 Center     Atomic      Atomic             Coordinates (Angstroms)
 Number     Number       Type             X           Y           Z
 ---------------------------------------------------------------------
      1         11           0       -0.361832   -0.159602    1.980253
      2         11           0       -1.563522    2.419418    0.282137
      3         11           0       -2.958904   -0.648600   -0.292820
      4         11           0        2.851751   -0.977845    0.440787
      5         11           0       -0.119112   -2.758612   -0.324010
      6         11           0        2.088142    2.040336   -0.430665
      7         11           0        0.063476    0.084904   -1.655683
 ---------------------------------------------------------------------

 SCF Done:  E(UB3LYP) =  -1136.13806619     A.U. after   19 cycles

 The electronic state is 2-A.
 Alpha  occ. eigenvalues --  -38.43946 -38.43810 -38.43616 -38.43430 -38.43319
 Alpha  occ. eigenvalues --  -38.43186 -38.43068  -2.19815  -2.19666  -2.19543
 Alpha  occ. eigenvalues --   -2.19311  -2.19215  -2.19190  -2.18958  -1.13497
 Alpha  occ. eigenvalues --   -1.13483  -1.13448  -1.13349  -1.13329  -1.13312
 Alpha  occ. eigenvalues --   -1.13217  -1.13178  -1.13160  -1.13079  -1.12957
 Alpha  occ. eigenvalues --   -1.12934  -1.12903  -1.12882  -1.12866  -1.12827
 Alpha  occ. eigenvalues --   -1.12814  -1.12807  -1.12635  -1.12614  -1.12572
 Alpha  occ. eigenvalues --   -0.19048  -0.13219  -0.12417  -0.11035
 Alpha virt. eigenvalues --   -0.05527  -0.04981  -0.04454  -0.03367  -0.02935
 Alpha virt. eigenvalues --   -0.02656  -0.01469  -0.00969  -0.00212  -0.00049
 Alpha virt. eigenvalues --    0.00045   0.00371   0.00844   0.00926   0.00935

  Beta  occ. eigenvalues --  -38.43939 -38.43802 -38.43528 -38.43422 -38.43312
  Beta  occ. eigenvalues --  -38.43116 -38.43059  -2.19805  -2.19654  -2.19382
  Beta  occ. eigenvalues --   -2.19299  -2.19180  -2.19088  -2.18946  -1.13487
  Beta  occ. eigenvalues --   -1.13463  -1.13435  -1.13343  -1.13308  -1.13297
  Beta  occ. eigenvalues --   -1.13114  -1.13066  -1.13045  -1.13043  -1.12938
  Beta  occ. eigenvalues --   -1.12925  -1.12865  -1.12833  -1.12823  -1.12806
  Beta  occ. eigenvalues --   -1.12757  -1.12728  -1.12614  -1.12590  -1.12558
  Beta  occ. eigenvalues --   -0.18314  -0.12971  -0.12133
  Beta virt. eigenvalues --   -0.07103  -0.05483  -0.04953  -0.04429  -0.02579
  Beta virt. eigenvalues --   -0.02158  -0.01587  -0.01377  -0.00893  -0.00198
  Beta virt. eigenvalues --   -0.00096   0.00136   0.00391   0.00897   0.00925

 Mulliken charges and spin densities:
               1          2
     1  Na  -0.416170   0.665244
     2  Na   0.115087  -0.017344
     3  Na   0.170354  -0.070541
     4  Na   0.026305   0.046925
     5  Na   0.130864  -0.026556
     6  Na   0.161661  -0.029897
     7  Na  -0.188101   0.432170
 Sum of Mulliken charges =  -0.00000   1.00000

 Dipole moment (field-independent basis, Debye):
    X=             -0.1543    Y=             -0.0510    Z=              0.2107  Tot=              0.2661
 Quadrupole moment (field-independent basis, Debye-Ang):
   XX=            -56.7507   YY=            -64.2128   ZZ=            -72.8905
   XY=             -0.1344   XZ=              1.2790   YZ=              0.2495

 Normal termination of Gaussian 16 at Thu Dec  7 03:31:52 2023.
