 Gaussian 16, Revision B.01,
 Gaussian 16:  ES64L-G16RevB.01 20-Dec-2017

 -------------------------
 #P B3LYP/6-311+g(d) force
 -------------------------

 -----
 DPGEN
 -----
 Symbolic Z-matrix:
 Charge =  0 Multiplicity = 2

                         Standard orientation:
 ---------------------------------------------------------------------
 Center     Atomic      Atomic             Coordinates (Angstroms)
 Number     Number       Type             X           Y           Z
 ---------------------------------------------------------------------
      1         11           0       -3.536173    0.937493    0.188266
      2         11           0       -2.198677   -2.463667   -0.656238
      3         11           0       -0.012503   -0.754518   -1.316500
      4         11           0        2.962393    1.179754   -1.018202
      5         11           0       -0.039143    0.035913    2.186145
      6         11           0        3.013641   -1.686677    0.757113
      7         11           0       -0.189538    2.751701   -0.140586
 ---------------------------------------------------------------------

 SCF Done:  E(UB3LYP) =  -1136.12261464     A.U. after   22 cycles

 The electronic state is 2-A.
 Alpha  occ. eigenvalues --  -38.45519 -38.44468 -38.44446 -38.44130 -38.43557
 Alpha  occ. eigenvalues --  -38.43355 -38.42863  -2.21262  -2.20274  -2.20265
 Alpha  occ. eigenvalues --   -2.19962  -2.19499  -2.19209  -2.18679  -1.14953
 Alpha  occ. eigenvalues --   -1.14903  -1.14899  -1.13950  -1.13932  -1.13923
 Alpha  occ. eigenvalues --   -1.13913  -1.13910  -1.13868  -1.13635  -1.13603
 Alpha  occ. eigenvalues --   -1.13593  -1.13311  -1.13177  -1.13114  -1.12846
 Alpha  occ. eigenvalues --   -1.12829  -1.12811  -1.12366  -1.12360  -1.12303
 Alpha  occ. eigenvalues --   -0.17873  -0.13436  -0.11635  -0.10913
 Alpha virt. eigenvalues --   -0.06823  -0.05216  -0.04371  -0.03285  -0.02743
 Alpha virt. eigenvalues --   -0.02606  -0.02357  -0.01329  -0.00589  -0.00213
 Alpha virt. eigenvalues --   -0.00170   0.00202   0.00448   0.00604   0.00736

  Beta  occ. eigenvalues --  -38.45521 -38.44448 -38.44353 -38.44098 -38.43523
  Beta  occ. eigenvalues --  -38.43345 -38.42860  -2.21266  -2.20230  -2.20102
  Beta  occ. eigenvalues --   -2.19904  -2.19440  -2.19191  -2.18677  -1.14951
  Beta  occ. eigenvalues --   -1.14907  -1.14901  -1.13912  -1.13889  -1.13878
  Beta  occ. eigenvalues --   -1.13833  -1.13799  -1.13739  -1.13585  -1.13566
  Beta  occ. eigenvalues --   -1.13552  -1.13269  -1.13127  -1.13074  -1.12820
  Beta  occ. eigenvalues --   -1.12815  -1.12801  -1.12368  -1.12353  -1.12288
  Beta  occ. eigenvalues --   -0.17215  -0.13221  -0.11354
  Beta virt. eigenvalues --   -0.07157  -0.06700  -0.04992  -0.04099  -0.02898
  Beta virt. eigenvalues --   -0.02288  -0.02046  -0.01711  -0.01126  -0.00521
  Beta virt. eigenvalues --   -0.00194  -0.00042   0.00245   0.00587   0.00719

 Mulliken charges and spin densities:
               1          2
     1  Na   0.002540  -0.034529
     2  Na   0.170967   0.080704
     3  Na  -0.254410   0.138185
     4  Na   0.631375  -0.008456
     5  Na  -0.124562   0.526503
     6  Na  -0.137682   0.216797
     7  Na  -0.288229   0.080796
 Sum of Mulliken charges =  -0.00000   1.00000

 Dipole moment (field-independent basis, Debye):
    X=             -0.3277    Y=              0.0658    Z=              0.4458  Tot=              0.5572
 Quadrupole moment (field-independent basis, Debye-Ang):
   XX=            -48.7673   YY=            -70.7359   ZZ=            -73.6890
   XY=             -2.3494   XZ=             -1.4388   YZ=             -2.8705

 Normal termination of Gaussian 16 at Tue Dec  5 19:55:35 2023.
