 Gaussian 16, Revision B.01,
 Gaussian 16:  ES64L-G16RevB.01 20-Dec-2017

 -------------------------
 #P B3LYP/6-311+g(d) force
 -------------------------

 -----
 DPGEN
 -----
 Symbolic Z-matrix:
 Charge =  0 Multiplicity = 2

                         Standard orientation:
 ---------------------------------------------------------------------
 Center     Atomic      Atomic             Coordinates (Angstroms)
 Number     Number       Type             X           Y           Z
 ---------------------------------------------------------------------
      1         11           0        3.532550   -0.327379   -1.284831
      2         11           0        2.008692   -0.910796    1.914371
      3         11           0       -0.056454   -0.661509   -1.197013
      4         11           0        1.127748    2.160770    0.252645
      5         11           0       -2.368285    2.782904   -0.712117
      6         11           0       -1.846614   -0.355391    2.026405
      7         11           0       -2.397637   -2.688599   -0.999461
 ---------------------------------------------------------------------

 SCF Done:  E(UB3LYP) =  -1136.12519791     A.U. after   20 cycles

 The electronic state is 2-A.
 Alpha  occ. eigenvalues --  -38.44852 -38.44562 -38.44478 -38.43711 -38.43547
 Alpha  occ. eigenvalues --  -38.43324 -38.43316  -2.20630  -2.20390  -2.20281
 Alpha  occ. eigenvalues --   -2.19539  -2.19301  -2.19249  -2.19129  -1.14311
 Alpha  occ. eigenvalues --   -1.14273  -1.14251  -1.14061  -1.14049  -1.13998
 Alpha  occ. eigenvalues --   -1.13949  -1.13938  -1.13895  -1.13263  -1.13230
 Alpha  occ. eigenvalues --   -1.13122  -1.12977  -1.12972  -1.12963  -1.12938
 Alpha  occ. eigenvalues --   -1.12928  -1.12882  -1.12775  -1.12772  -1.12735
 Alpha  occ. eigenvalues --   -0.17719  -0.13006  -0.11409  -0.11389
 Alpha virt. eigenvalues --   -0.05883  -0.05418  -0.05079  -0.03223  -0.02672
 Alpha virt. eigenvalues --   -0.02586  -0.01878  -0.01236  -0.01075  -0.00031
 Alpha virt. eigenvalues --    0.00047   0.00194   0.00280   0.00443   0.00669

  Beta  occ. eigenvalues --  -38.44808 -38.44500 -38.44456 -38.43706 -38.43543
  Beta  occ. eigenvalues --  -38.43301 -38.43289  -2.20549  -2.20276  -2.20241
  Beta  occ. eigenvalues --   -2.19533  -2.19294  -2.19187  -2.19101  -1.14252
  Beta  occ. eigenvalues --   -1.14208  -1.14196  -1.13980  -1.13975  -1.13920
  Beta  occ. eigenvalues --   -1.13915  -1.13901  -1.13864  -1.13260  -1.13201
  Beta  occ. eigenvalues --   -1.13124  -1.12968  -1.12958  -1.12929  -1.12923
  Beta  occ. eigenvalues --   -1.12884  -1.12841  -1.12754  -1.12743  -1.12716
  Beta  occ. eigenvalues --   -0.17003  -0.12839  -0.11217
  Beta virt. eigenvalues --   -0.07554  -0.05684  -0.04955  -0.04813  -0.02870
  Beta virt. eigenvalues --   -0.02199  -0.01992  -0.01755  -0.01031  -0.00686
  Beta virt. eigenvalues --    0.00061   0.00216   0.00265   0.00379   0.00530

 Mulliken charges and spin densities:
               1          2
     1  Na   0.634715   0.035150
     2  Na  -0.137199   0.365234
     3  Na  -0.568063   0.240768
     4  Na  -0.028395   0.150072
     5  Na  -0.098958  -0.030759
     6  Na   0.200799   0.173755
     7  Na  -0.002899   0.065781
 Sum of Mulliken charges =  -0.00000   1.00000

 Dipole moment (field-independent basis, Debye):
    X=              0.6861    Y=             -0.2362    Z=              0.3958  Tot=              0.8265
 Quadrupole moment (field-independent basis, Debye-Ang):
   XX=            -53.8931   YY=            -73.1158   ZZ=            -66.4115
   XY=             -0.3312   XZ=             -2.2795   YZ=             -0.8786

 Normal termination of Gaussian 16 at Thu Dec  7 13:47:50 2023.
