 Gaussian 16, Revision B.01,
 Gaussian 16:  ES64L-G16RevB.01 20-Dec-2017

 -------------------------
 #P B3LYP/6-311+g(d) force
 -------------------------

 -----
 DPGEN
 -----
 Symbolic Z-matrix:
 Charge =  0 Multiplicity = 2

                         Standard orientation:
 ---------------------------------------------------------------------
 Center     Atomic      Atomic             Coordinates (Angstroms)
 Number     Number       Type             X           Y           Z
 ---------------------------------------------------------------------
      1         11           0        2.547565    1.886159    0.090674
      2         11           0       -0.580926   -2.618873    0.324240
      3         11           0       -3.161387   -0.338360   -0.441488
      4         11           0        0.146337   -0.116026   -1.761006
      5         11           0       -1.429848    2.442680   -0.115401
      6         11           0        2.787209   -1.380563   -0.244733
      7         11           0       -0.308951    0.124984    2.147715
 ---------------------------------------------------------------------

 SCF Done:  E(UB3LYP) =  -1136.13708761     A.U. after   19 cycles

 The electronic state is 2-A.
 Alpha  occ. eigenvalues --  -38.44260 -38.43888 -38.43883 -38.43826 -38.43599
 Alpha  occ. eigenvalues --  -38.43196 -38.42783  -2.20106  -2.19771  -2.19738
 Alpha  occ. eigenvalues --   -2.19639  -2.19548  -2.19059  -2.18667  -1.13776
 Alpha  occ. eigenvalues --   -1.13764  -1.13748  -1.13444  -1.13433  -1.13415
 Alpha  occ. eigenvalues --   -1.13405  -1.13385  -1.13377  -1.13311  -1.13290
 Alpha  occ. eigenvalues --   -1.13270  -1.13231  -1.13188  -1.13164  -1.12738
 Alpha  occ. eigenvalues --   -1.12730  -1.12687  -1.12358  -1.12335  -1.12288
 Alpha  occ. eigenvalues --   -0.18667  -0.13315  -0.12031  -0.11110
 Alpha virt. eigenvalues --   -0.05817  -0.05214  -0.04156  -0.03425  -0.02921
 Alpha virt. eigenvalues --   -0.02856  -0.01700  -0.00987  -0.00247  -0.00187
 Alpha virt. eigenvalues --   -0.00023   0.00356   0.00752   0.00889   0.00923

  Beta  occ. eigenvalues --  -38.44250 -38.43885 -38.43827 -38.43781 -38.43537
  Beta  occ. eigenvalues --  -38.43190 -38.42773  -2.20089  -2.19735  -2.19642
  Beta  occ. eigenvalues --   -2.19584  -2.19435  -2.19052  -2.18652  -1.13760
  Beta  occ. eigenvalues --   -1.13748  -1.13730  -1.13436  -1.13405  -1.13371
  Beta  occ. eigenvalues --   -1.13311  -1.13300  -1.13293  -1.13271  -1.13268
  Beta  occ. eigenvalues --   -1.13251  -1.13157  -1.13110  -1.13079  -1.12736
  Beta  occ. eigenvalues --   -1.12704  -1.12677  -1.12349  -1.12293  -1.12283
  Beta  occ. eigenvalues --   -0.17921  -0.13087  -0.11789
  Beta virt. eigenvalues --   -0.07162  -0.05737  -0.05222  -0.04116  -0.02675
  Beta virt. eigenvalues --   -0.02103  -0.01817  -0.01571  -0.00936  -0.00299
  Beta virt. eigenvalues --   -0.00180   0.00094   0.00389   0.00840   0.00882

 Mulliken charges and spin densities:
               1          2
     1  Na  -0.006180  -0.078431
     2  Na   0.172434   0.004579
     3  Na   0.243233   0.010429
     4  Na  -0.206114   0.455340
     5  Na   0.067886  -0.056749
     6  Na   0.205663  -0.043709
     7  Na  -0.476922   0.708541
 Sum of Mulliken charges =  -0.00000   1.00000

 Dipole moment (field-independent basis, Debye):
    X=              0.0053    Y=              0.0555    Z=              0.0289  Tot=              0.0628
 Quadrupole moment (field-independent basis, Debye-Ang):
   XX=            -55.1334   YY=            -67.1024   ZZ=            -72.2371
   XY=              0.3798   XZ=              1.1707   YZ=              0.0079

 Normal termination of Gaussian 16 at Wed Dec  6 00:50:28 2023.
