 Gaussian 16, Revision B.01,
 Gaussian 16:  ES64L-G16RevB.01 20-Dec-2017

 -------------------------
 #P B3LYP/6-311+g(d) force
 -------------------------

 -----
 DPGEN
 -----
 Symbolic Z-matrix:
 Charge =  0 Multiplicity = 2

                         Standard orientation:
 ---------------------------------------------------------------------
 Center     Atomic      Atomic             Coordinates (Angstroms)
 Number     Number       Type             X           Y           Z
 ---------------------------------------------------------------------
      1         11           0       -0.410554    0.141794    0.402836
      2         11           0       -3.448636   -1.474747    0.006889
      3         11           0        3.599766   -1.692847    1.062756
      4         11           0       -2.969820    1.889450    0.605911
      5         11           0       -0.756997   -3.195317   -0.917192
      6         11           0        3.567354    0.776316   -0.649518
      7         11           0        0.418887    3.555350   -0.511681
 ---------------------------------------------------------------------

 SCF Done:  E(UB3LYP) =  -1136.12124689     A.U. after   21 cycles

 The electronic state is 2-A.
 Alpha  occ. eigenvalues --  -38.44563 -38.44237 -38.44227 -38.44016 -38.43655
 Alpha  occ. eigenvalues --  -38.43614 -38.43552  -2.20371  -2.20108  -2.20084
 Alpha  occ. eigenvalues --   -2.19842  -2.19480  -2.19443  -2.19377  -1.14087
 Alpha  occ. eigenvalues --   -1.14037  -1.14005  -1.13831  -1.13815  -1.13765
 Alpha  occ. eigenvalues --   -1.13761  -1.13727  -1.13698  -1.13492  -1.13483
 Alpha  occ. eigenvalues --   -1.13462  -1.13165  -1.13137  -1.13111  -1.13090
 Alpha  occ. eigenvalues --   -1.13078  -1.13059  -1.13028  -1.13020  -1.13004
 Alpha  occ. eigenvalues --   -0.16882  -0.13971  -0.12636  -0.10205
 Alpha virt. eigenvalues --   -0.06320  -0.05451  -0.04371  -0.03542  -0.02888
 Alpha virt. eigenvalues --   -0.02509  -0.01673  -0.01512  -0.01155  -0.00490
 Alpha virt. eigenvalues --   -0.00119   0.00001   0.00290   0.00615   0.00656

  Beta  occ. eigenvalues --  -38.44558 -38.44231 -38.44224 -38.43972 -38.43607
  Beta  occ. eigenvalues --  -38.43568 -38.43498  -2.20367  -2.20115  -2.20067
  Beta  occ. eigenvalues --   -2.19762  -2.19398  -2.19352  -2.19276  -1.14070
  Beta  occ. eigenvalues --   -1.14040  -1.13982  -1.13831  -1.13812  -1.13764
  Beta  occ. eigenvalues --   -1.13760  -1.13703  -1.13663  -1.13436  -1.13429
  Beta  occ. eigenvalues --   -1.13406  -1.13114  -1.13083  -1.13048  -1.13024
  Beta  occ. eigenvalues --   -1.13015  -1.12995  -1.12958  -1.12951  -1.12940
  Beta  occ. eigenvalues --   -0.16475  -0.13302  -0.12106
  Beta virt. eigenvalues --   -0.06966  -0.06202  -0.05160  -0.04105  -0.03170
  Beta virt. eigenvalues --   -0.02426  -0.02309  -0.01521  -0.01236  -0.00925
  Beta virt. eigenvalues --   -0.00256   0.00122   0.00234   0.00407   0.00634

 Mulliken charges and spin densities:
               1          2
     1  Na  -2.959436  -0.070451
     2  Na   0.323510   0.085227
     3  Na   0.711431   0.227084
     4  Na   0.582426   0.217208
     5  Na   0.549117   0.241525
     6  Na   0.391097   0.071289
     7  Na   0.401856   0.228118
 Sum of Mulliken charges =  -0.00000   1.00000

 Dipole moment (field-independent basis, Debye):
    X=             -0.1941    Y=             -0.1396    Z=             -0.2265  Tot=              0.3294
 Quadrupole moment (field-independent basis, Debye-Ang):
   XX=            -63.9881   YY=            -63.1987   ZZ=            -70.1074
   XY=              1.4585   XZ=             -1.2840   YZ=             -2.6339

 Normal termination of Gaussian 16 at Wed Nov 29 17:09:54 2023.
