 Gaussian 16, Revision B.01,
 Gaussian 16:  ES64L-G16RevB.01 20-Dec-2017

 -------------------------
 #P B3LYP/6-311+g(d) force
 -------------------------

 -----
 DPGEN
 -----
 Symbolic Z-matrix:
 Charge =  0 Multiplicity = 2

                         Standard orientation:
 ---------------------------------------------------------------------
 Center     Atomic      Atomic             Coordinates (Angstroms)
 Number     Number       Type             X           Y           Z
 ---------------------------------------------------------------------
      1         11           0       -1.130787   -1.884080   -1.317670
      2         11           0       -3.258657   -2.462644    0.790258
      3         11           0        1.663903    1.907890   -0.053586
      4         11           0       -1.016917    2.542056   -1.018007
      5         11           0       -3.817630    1.487566    1.036206
      6         11           0        2.842298   -1.300506   -0.767690
      7         11           0        4.717790   -0.290282    1.330488
 ---------------------------------------------------------------------

 SCF Done:  E(UB3LYP) =  -1136.11115619     A.U. after   20 cycles

 The electronic state is 2-A.
 Alpha  occ. eigenvalues --  -38.45014 -38.44821 -38.44529 -38.44370 -38.44200
 Alpha  occ. eigenvalues --  -38.43901 -38.43044  -2.20787  -2.20660  -2.20372
 Alpha  occ. eigenvalues --   -2.20225  -2.19989  -2.19719  -2.18887  -1.14447
 Alpha  occ. eigenvalues --   -1.14415  -1.14400  -1.14393  -1.14323  -1.14317
 Alpha  occ. eigenvalues --   -1.14011  -1.14005  -1.13974  -1.13928  -1.13888
 Alpha  occ. eigenvalues --   -1.13860  -1.13722  -1.13654  -1.13626  -1.13376
 Alpha  occ. eigenvalues --   -1.13354  -1.13339  -1.12592  -1.12529  -1.12521
 Alpha  occ. eigenvalues --   -0.16548  -0.14274  -0.12090  -0.11035
 Alpha virt. eigenvalues --   -0.06801  -0.05482  -0.04136  -0.03842  -0.03306
 Alpha virt. eigenvalues --   -0.02388  -0.02130  -0.01414  -0.00841  -0.00685
 Alpha virt. eigenvalues --   -0.00473  -0.00022   0.00200   0.00305   0.00634

  Beta  occ. eigenvalues --  -38.44923 -38.44818 -38.44476 -38.44352 -38.44215
  Beta  occ. eigenvalues --  -38.43857 -38.43045  -2.20661  -2.20616  -2.20273
  Beta  occ. eigenvalues --   -2.20195  -2.20018  -2.19637  -2.18893  -1.14365
  Beta  occ. eigenvalues --   -1.14331  -1.14326  -1.14306  -1.14302  -1.14282
  Beta  occ. eigenvalues --   -1.13944  -1.13936  -1.13914  -1.13892  -1.13868
  Beta  occ. eigenvalues --   -1.13846  -1.13734  -1.13676  -1.13634  -1.13323
  Beta  occ. eigenvalues --   -1.13300  -1.13286  -1.12585  -1.12534  -1.12514
  Beta  occ. eigenvalues --   -0.16007  -0.13714  -0.11909
  Beta virt. eigenvalues --   -0.07654  -0.06374  -0.04860  -0.03998  -0.03677
  Beta virt. eigenvalues --   -0.02839  -0.02029  -0.01754  -0.01300  -0.00742
  Beta virt. eigenvalues --   -0.00376  -0.00124   0.00087   0.00356   0.00428

 Mulliken charges and spin densities:
               1          2
     1  Na  -0.707716   0.039866
     2  Na   0.505508   0.052991
     3  Na  -0.379858   0.036326
     4  Na  -0.108645  -0.009786
     5  Na   0.035987   0.487147
     6  Na   0.052741   0.151989
     7  Na   0.601983   0.241468
 Sum of Mulliken charges =  -0.00000   1.00000

 Dipole moment (field-independent basis, Debye):
    X=              0.8856    Y=             -0.2551    Z=              0.7751  Tot=              1.2042
 Quadrupole moment (field-independent basis, Debye-Ang):
   XX=            -59.5808   YY=            -72.9864   ZZ=            -66.0393
   XY=              0.8511   XZ=              0.3766   YZ=              0.6979

 Normal termination of Gaussian 16 at Sun Dec  3 21:52:17 2023.
