 Gaussian 16, Revision B.01,
 Gaussian 16:  ES64L-G16RevB.01 20-Dec-2017

 -------------------------
 #P B3LYP/6-311+g(d) force
 -------------------------

 -----
 DPGEN
 -----
 Symbolic Z-matrix:
 Charge =  0 Multiplicity = 2

                         Standard orientation:
 ---------------------------------------------------------------------
 Center     Atomic      Atomic             Coordinates (Angstroms)
 Number     Number       Type             X           Y           Z
 ---------------------------------------------------------------------
      1         11           0        1.398264    2.552287    0.207676
      2         11           0       -0.459621   -0.033500    2.166931
      3         11           0        0.187363    0.182974   -1.568153
      4         11           0       -2.573836   -1.208978   -0.660646
      5         11           0        3.020220   -0.681318   -0.368755
      6         11           0        0.389233   -2.664655    0.361596
      7         11           0       -1.961623    1.853190   -0.138649
 ---------------------------------------------------------------------

 SCF Done:  E(UB3LYP) =  -1136.13606799     A.U. after   19 cycles

 The electronic state is 2-A.
 Alpha  occ. eigenvalues --  -38.43959 -38.43712 -38.43495 -38.43392 -38.43304
 Alpha  occ. eigenvalues --  -38.43155 -38.43114  -2.19870  -2.19561  -2.19405
 Alpha  occ. eigenvalues --   -2.19256  -2.19256  -2.19224  -2.19007  -1.13530
 Alpha  occ. eigenvalues --   -1.13513  -1.13480  -1.13272  -1.13215  -1.13194
 Alpha  occ. eigenvalues --   -1.13147  -1.13078  -1.13039  -1.13034  -1.12962
 Alpha  occ. eigenvalues --   -1.12924  -1.12909  -1.12891  -1.12873  -1.12838
 Alpha  occ. eigenvalues --   -1.12818  -1.12810  -1.12693  -1.12666  -1.12630
 Alpha  occ. eigenvalues --   -0.19224  -0.13026  -0.12601  -0.11355
 Alpha virt. eigenvalues --   -0.05207  -0.04880  -0.04520  -0.03229  -0.03180
 Alpha virt. eigenvalues --   -0.02914  -0.01254  -0.00956  -0.00154   0.00062
 Alpha virt. eigenvalues --    0.00141   0.00365   0.00876   0.00941   0.00981

  Beta  occ. eigenvalues --  -38.43857 -38.43708 -38.43476 -38.43389 -38.43294
  Beta  occ. eigenvalues --  -38.43105 -38.43097  -2.19682  -2.19556  -2.19375
  Beta  occ. eigenvalues --   -2.19252  -2.19242  -2.19120  -2.18994  -1.13408
  Beta  occ. eigenvalues --   -1.13378  -1.13346  -1.13259  -1.13204  -1.13194
  Beta  occ. eigenvalues --   -1.13119  -1.13054  -1.13016  -1.12997  -1.12944
  Beta  occ. eigenvalues --   -1.12904  -1.12883  -1.12879  -1.12825  -1.12810
  Beta  occ. eigenvalues --   -1.12755  -1.12745  -1.12677  -1.12636  -1.12624
  Beta  occ. eigenvalues --   -0.18472  -0.12751  -0.12356
  Beta virt. eigenvalues --   -0.07338  -0.05164  -0.04857  -0.04483  -0.02496
  Beta virt. eigenvalues --   -0.02338  -0.01814  -0.01158  -0.00900  -0.00062
  Beta virt. eigenvalues --    0.00054   0.00152   0.00394   0.00927   0.00957

 Mulliken charges and spin densities:
               1          2
     1  Na   0.051805   0.022740
     2  Na  -0.585075   0.601160
     3  Na  -0.431283   0.204107
     4  Na   0.285298   0.064922
     5  Na   0.087443  -0.049687
     6  Na   0.194858   0.086673
     7  Na   0.396955   0.070084
 Sum of Mulliken charges =  -0.00000   1.00000

 Dipole moment (field-independent basis, Debye):
    X=              0.1244    Y=              0.0399    Z=              0.2959  Tot=              0.3234
 Quadrupole moment (field-independent basis, Debye-Ang):
   XX=            -59.2910   YY=            -64.1259   ZZ=            -71.2112
   XY=              0.6258   XZ=              1.1202   YZ=              0.8994

 Normal termination of Gaussian 16 at Fri Dec  8 02:11:28 2023.
