 Gaussian 16, Revision B.01,
 Gaussian 16:  ES64L-G16RevB.01 20-Dec-2017

 -------------------------
 #P B3LYP/6-311+g(d) force
 -------------------------

 -----
 DPGEN
 -----
 Symbolic Z-matrix:
 Charge =  0 Multiplicity = 2

                         Standard orientation:
 ---------------------------------------------------------------------
 Center     Atomic      Atomic             Coordinates (Angstroms)
 Number     Number       Type             X           Y           Z
 ---------------------------------------------------------------------
      1         11           0        2.957562    0.796437   -0.076391
      2         11           0        0.288617    2.773703    0.440920
      3         11           0       -3.310185    0.981487   -0.097617
      4         11           0        0.730732   -0.612739    1.670816
      5         11           0       -1.920157   -2.329417    0.404746
      6         11           0       -0.462902    0.536819   -1.538276
      7         11           0        1.716333   -2.146289   -0.804198
 ---------------------------------------------------------------------

 SCF Done:  E(UB3LYP) =  -1136.13256790     A.U. after   21 cycles

 The electronic state is 2-A.
 Alpha  occ. eigenvalues --  -38.44508 -38.44025 -38.43714 -38.43379 -38.43378
 Alpha  occ. eigenvalues --  -38.43147 -38.43127  -2.20308  -2.19930  -2.19535
 Alpha  occ. eigenvalues --   -2.19289  -2.19253  -2.19134  -2.19103  -1.13998
 Alpha  occ. eigenvalues --   -1.13960  -1.13943  -1.13632  -1.13587  -1.13570
 Alpha  occ. eigenvalues --   -1.13222  -1.13196  -1.13163  -1.13028  -1.13010
 Alpha  occ. eigenvalues --   -1.12946  -1.12913  -1.12909  -1.12868  -1.12800
 Alpha  occ. eigenvalues --   -1.12768  -1.12764  -1.12728  -1.12722  -1.12718
 Alpha  occ. eigenvalues --   -0.18832  -0.13355  -0.12461  -0.10461
 Alpha virt. eigenvalues --   -0.06021  -0.05249  -0.04491  -0.03205  -0.02879
 Alpha virt. eigenvalues --   -0.02041  -0.01736  -0.01129  -0.00408  -0.00267
 Alpha virt. eigenvalues --    0.00010   0.00337   0.00776   0.00841   0.00888

  Beta  occ. eigenvalues --  -38.44508 -38.44016 -38.43702 -38.43368 -38.43349
  Beta  occ. eigenvalues --  -38.43083 -38.43073  -2.20311  -2.19918  -2.19516
  Beta  occ. eigenvalues --   -2.19239  -2.19236  -2.19017  -2.19005  -1.13991
  Beta  occ. eigenvalues --   -1.13958  -1.13947  -1.13625  -1.13569  -1.13538
  Beta  occ. eigenvalues --   -1.13200  -1.13173  -1.13153  -1.12992  -1.12990
  Beta  occ. eigenvalues --   -1.12895  -1.12885  -1.12866  -1.12852  -1.12730
  Beta  occ. eigenvalues --   -1.12696  -1.12685  -1.12659  -1.12642  -1.12639
  Beta  occ. eigenvalues --   -0.18137  -0.13123  -0.12204
  Beta virt. eigenvalues --   -0.06604  -0.05936  -0.05201  -0.04397  -0.02532
  Beta virt. eigenvalues --   -0.02157  -0.01683  -0.01100  -0.01019  -0.00378
  Beta virt. eigenvalues --   -0.00290   0.00160   0.00394   0.00827   0.00870

 Mulliken charges and spin densities:
               1          2
     1  Na   0.497143   0.112227
     2  Na  -0.271626  -0.061311
     3  Na  -0.029203  -0.099618
     4  Na  -0.142279   0.517162
     5  Na  -0.111525  -0.038266
     6  Na   0.066684   0.392592
     7  Na  -0.009194   0.177213
 Sum of Mulliken charges =  -0.00000   1.00000

 Dipole moment (field-independent basis, Debye):
    X=             -0.3914    Y=              0.1472    Z=              0.0728  Tot=              0.4244
 Quadrupole moment (field-independent basis, Debye-Ang):
   XX=            -53.3721   YY=            -64.1856   ZZ=            -75.0291
   XY=              0.1088   XZ=             -1.9627   YZ=              2.0649

 Normal termination of Gaussian 16 at Wed Nov 29 00:50:49 2023.
