 Gaussian 16, Revision B.01,
 Gaussian 16:  ES64L-G16RevB.01 20-Dec-2017

 -------------------------
 #P B3LYP/6-311+g(d) force
 -------------------------

 -----
 DPGEN
 -----
 Symbolic Z-matrix:
 Charge =  0 Multiplicity = 2

                         Standard orientation:
 ---------------------------------------------------------------------
 Center     Atomic      Atomic             Coordinates (Angstroms)
 Number     Number       Type             X           Y           Z
 ---------------------------------------------------------------------
      1         11           0        3.066749   -1.120402   -0.452443
      2         11           0       -3.541509   -0.584513   -0.005863
      3         11           0       -1.675899    2.181197   -0.273272
      4         11           0       -0.120191   -2.529050    0.405904
      5         11           0       -0.136434   -0.252852   -1.844861
      6         11           0        0.213835    0.189088    2.048422
      7         11           0        2.193449    2.116530    0.122114
 ---------------------------------------------------------------------

 SCF Done:  E(UB3LYP) =  -1136.13267569     A.U. after   21 cycles

 The electronic state is 2-A.
 Alpha  occ. eigenvalues --  -38.44940 -38.44342 -38.43889 -38.43731 -38.43324
 Alpha  occ. eigenvalues --  -38.43276 -38.42767  -2.20718  -2.20165  -2.19809
 Alpha  occ. eigenvalues --   -2.19643  -2.19160  -2.19136  -2.18656  -1.14392
 Alpha  occ. eigenvalues --   -1.14382  -1.14353  -1.13838  -1.13823  -1.13802
 Alpha  occ. eigenvalues --   -1.13502  -1.13467  -1.13411  -1.13318  -1.13277
 Alpha  occ. eigenvalues --   -1.13261  -1.12838  -1.12835  -1.12819  -1.12807
 Alpha  occ. eigenvalues --   -1.12798  -1.12747  -1.12361  -1.12333  -1.12251
 Alpha  occ. eigenvalues --   -0.18546  -0.13299  -0.11827  -0.11047
 Alpha virt. eigenvalues --   -0.06431  -0.05036  -0.03858  -0.03423  -0.02884
 Alpha virt. eigenvalues --   -0.02759  -0.02163  -0.01081  -0.00189  -0.00167
 Alpha virt. eigenvalues --   -0.00026   0.00300   0.00694   0.00744   0.00881

  Beta  occ. eigenvalues --  -38.44944 -38.44331 -38.43823 -38.43634 -38.43321
  Beta  occ. eigenvalues --  -38.43269 -38.42751  -2.20727  -2.20147  -2.19688
  Beta  occ. eigenvalues --   -2.19466  -2.19157  -2.19126  -2.18633  -1.14398
  Beta  occ. eigenvalues --   -1.14377  -1.14359  -1.13817  -1.13802  -1.13793
  Beta  occ. eigenvalues --   -1.13421  -1.13381  -1.13321  -1.13201  -1.13145
  Beta  occ. eigenvalues --   -1.13139  -1.12831  -1.12823  -1.12802  -1.12797
  Beta  occ. eigenvalues --   -1.12785  -1.12739  -1.12347  -1.12284  -1.12238
  Beta  occ. eigenvalues --   -0.17794  -0.13094  -0.11569
  Beta virt. eigenvalues --   -0.07119  -0.06337  -0.05048  -0.03823  -0.02702
  Beta virt. eigenvalues --   -0.02079  -0.02042  -0.01720  -0.01040  -0.00197
  Beta virt. eigenvalues --   -0.00124   0.00048   0.00323   0.00797   0.00877

 Mulliken charges and spin densities:
               1          2
     1  Na   0.170236   0.029944
     2  Na   0.060132  -0.105304
     3  Na   0.116859  -0.073202
     4  Na   0.139264  -0.036986
     5  Na  -0.279469   0.586491
     6  Na  -0.300222   0.661512
     7  Na   0.093200  -0.062455
 Sum of Mulliken charges =  -0.00000   1.00000

 Dipole moment (field-independent basis, Debye):
    X=             -0.3339    Y=             -0.1794    Z=             -0.0724  Tot=              0.3859
 Quadrupole moment (field-independent basis, Debye-Ang):
   XX=            -50.5447   YY=            -70.0820   ZZ=            -72.5828
   XY=              0.6368   XZ=             -1.2716   YZ=             -0.4748

 Normal termination of Gaussian 16 at Tue Dec  5 10:24:30 2023.
