 Gaussian 16, Revision B.01,
 Gaussian 16:  ES64L-G16RevB.01 20-Dec-2017

 -------------------------
 #P B3LYP/6-311+g(d) force
 -------------------------

 -----
 DPGEN
 -----
 Symbolic Z-matrix:
 Charge =  0 Multiplicity = 2

                         Standard orientation:
 ---------------------------------------------------------------------
 Center     Atomic      Atomic             Coordinates (Angstroms)
 Number     Number       Type             X           Y           Z
 ---------------------------------------------------------------------
      1         11           0       -0.236468    1.185985   -1.493983
      2         11           0       -4.039616    1.227173   -0.314023
      3         11           0        0.747804   -0.838163    1.655727
      4         11           0       -2.472068   -1.321376    1.059732
      5         11           0        3.327132   -0.330285   -0.487315
      6         11           0        0.483781   -2.069031   -1.349035
      7         11           0        2.189435    2.145697    0.928896
 ---------------------------------------------------------------------

 SCF Done:  E(UB3LYP) =  -1136.12048609     A.U. after   25 cycles

 The electronic state is 2-A.
 Alpha  occ. eigenvalues --  -38.45367 -38.44582 -38.44458 -38.43938 -38.43588
 Alpha  occ. eigenvalues --  -38.43212 -38.42753  -2.21246  -2.20419  -2.20223
 Alpha  occ. eigenvalues --   -2.19783  -2.19540  -2.19097  -2.18656  -1.14933
 Alpha  occ. eigenvalues --   -1.14902  -1.14884  -1.14105  -1.14091  -1.14013
 Alpha  occ. eigenvalues --   -1.13906  -1.13891  -1.13863  -1.13486  -1.13430
 Alpha  occ. eigenvalues --   -1.13402  -1.13218  -1.13198  -1.13151  -1.12766
 Alpha  occ. eigenvalues --   -1.12759  -1.12730  -1.12345  -1.12307  -1.12275
 Alpha  occ. eigenvalues --   -0.18547  -0.13794  -0.11416  -0.11305
 Alpha virt. eigenvalues --   -0.07151  -0.05137  -0.04014  -0.03236  -0.03176
 Alpha virt. eigenvalues --   -0.02483  -0.02378  -0.01189  -0.00539  -0.00215
 Alpha virt. eigenvalues --    0.00048   0.00098   0.00221   0.00739   0.00839

  Beta  occ. eigenvalues --  -38.45358 -38.44518 -38.44468 -38.43911 -38.43529
  Beta  occ. eigenvalues --  -38.43196 -38.42720  -2.21235  -2.20302  -2.20243
  Beta  occ. eigenvalues --   -2.19734  -2.19431  -2.19070  -2.18598  -1.14916
  Beta  occ. eigenvalues --   -1.14898  -1.14859  -1.14030  -1.13994  -1.13931
  Beta  occ. eigenvalues --   -1.13919  -1.13903  -1.13872  -1.13442  -1.13396
  Beta  occ. eigenvalues --   -1.13371  -1.13149  -1.13117  -1.13067  -1.12753
  Beta  occ. eigenvalues --   -1.12739  -1.12695  -1.12304  -1.12269  -1.12214
  Beta  occ. eigenvalues --   -0.17786  -0.13637  -0.11127
  Beta virt. eigenvalues --   -0.07442  -0.06976  -0.04883  -0.03646  -0.02925
  Beta virt. eigenvalues --   -0.02714  -0.02152  -0.01600  -0.01016  -0.00298
  Beta virt. eigenvalues --   -0.00189   0.00067   0.00152   0.00370   0.00769

 Mulliken charges and spin densities:
               1          2
     1  Na  -0.503997   0.409354
     2  Na   0.008404  -0.072344
     3  Na  -0.330061   0.391199
     4  Na   0.087566   0.048444
     5  Na   0.565494   0.098876
     6  Na  -0.086298   0.194542
     7  Na   0.258892  -0.070071
 Sum of Mulliken charges =  -0.00000   1.00000

 Dipole moment (field-independent basis, Debye):
    X=              0.3652    Y=             -0.1368    Z=             -0.2887  Tot=              0.4852
 Quadrupole moment (field-independent basis, Debye-Ang):
   XX=            -52.3297   YY=            -72.8538   ZZ=            -70.6332
   XY=             -2.2827   XZ=             -1.8206   YZ=              0.6014

 Normal termination of Gaussian 16 at Tue Dec  5 22:22:37 2023.
