 Gaussian 16, Revision B.01,
 Gaussian 16:  ES64L-G16RevB.01 20-Dec-2017

 -------------------------
 #P B3LYP/6-311+g(d) force
 -------------------------

 -----
 DPGEN
 -----
 Symbolic Z-matrix:
 Charge =  0 Multiplicity = 2

                         Standard orientation:
 ---------------------------------------------------------------------
 Center     Atomic      Atomic             Coordinates (Angstroms)
 Number     Number       Type             X           Y           Z
 ---------------------------------------------------------------------
      1         11           0       -0.334624   -1.104128    1.634918
      2         11           0       -0.249068   -0.759933   -1.509468
      3         11           0        1.828231    1.001378    1.542378
      4         11           0        1.711300    1.997025   -1.461926
      5         11           0        2.681877   -2.315294   -0.308199
      6         11           0       -4.016490   -0.967291   -0.352984
      7         11           0       -1.621225    2.148243    0.455281
 ---------------------------------------------------------------------

 SCF Done:  E(UB3LYP) =  -1136.12545120     A.U. after   21 cycles

 The electronic state is 2-A.
 Alpha  occ. eigenvalues --  -38.44599 -38.44043 -38.43936 -38.43803 -38.43787
 Alpha  occ. eigenvalues --  -38.43665 -38.43494  -2.20337  -2.19862  -2.19836
 Alpha  occ. eigenvalues --   -2.19727  -2.19695  -2.19449  -2.19355  -1.14016
 Alpha  occ. eigenvalues --   -1.14006  -1.13957  -1.13654  -1.13581  -1.13532
 Alpha  occ. eigenvalues --   -1.13521  -1.13439  -1.13433  -1.13401  -1.13384
 Alpha  occ. eigenvalues --   -1.13367  -1.13349  -1.13303  -1.13288  -1.13121
 Alpha  occ. eigenvalues --   -1.13111  -1.13080  -1.13025  -1.13009  -1.12954
 Alpha  occ. eigenvalues --   -0.18395  -0.12744  -0.11616  -0.11494
 Alpha virt. eigenvalues --   -0.06242  -0.05355  -0.03812  -0.03145  -0.02947
 Alpha virt. eigenvalues --   -0.02838  -0.02038  -0.01422  -0.00578  -0.00050
 Alpha virt. eigenvalues --    0.00196   0.00233   0.00460   0.00655   0.00796

  Beta  occ. eigenvalues --  -38.44598 -38.44036 -38.43876 -38.43755 -38.43736
  Beta  occ. eigenvalues --  -38.43663 -38.43454  -2.20336  -2.19827  -2.19756
  Beta  occ. eigenvalues --   -2.19643  -2.19603  -2.19448  -2.19283  -1.14012
  Beta  occ. eigenvalues --   -1.14005  -1.13957  -1.13579  -1.13520  -1.13500
  Beta  occ. eigenvalues --   -1.13488  -1.13435  -1.13363  -1.13332  -1.13321
  Beta  occ. eigenvalues --   -1.13293  -1.13270  -1.13248  -1.13221  -1.13116
  Beta  occ. eigenvalues --   -1.13102  -1.13080  -1.12967  -1.12960  -1.12903
  Beta  occ. eigenvalues --   -0.17575  -0.12592  -0.11435
  Beta virt. eigenvalues --   -0.07407  -0.06121  -0.05283  -0.03413  -0.02875
  Beta virt. eigenvalues --   -0.02349  -0.02012  -0.01786  -0.01259  -0.00276
  Beta virt. eigenvalues --   -0.00058   0.00202   0.00271   0.00589   0.00688

 Mulliken charges and spin densities:
               1          2
     1  Na   0.079833   0.290043
     2  Na  -0.373778   0.647882
     3  Na   0.270161   0.199966
     4  Na   0.115057   0.048080
     5  Na  -0.071993  -0.106236
     6  Na   0.100116  -0.047333
     7  Na  -0.119396  -0.032402
 Sum of Mulliken charges =  -0.00000   1.00000

 Dipole moment (field-independent basis, Debye):
    X=             -0.4117    Y=              0.0126    Z=             -0.0365  Tot=              0.4135
 Quadrupole moment (field-independent basis, Debye-Ang):
   XX=            -52.8611   YY=            -70.2509   ZZ=            -69.2655
   XY=             -0.3336   XZ=             -0.4302   YZ=              0.4331

 Normal termination of Gaussian 16 at Thu Dec  7 05:34:38 2023.
