 Gaussian 16, Revision B.01,
 Gaussian 16:  ES64L-G16RevB.01 20-Dec-2017

 -------------------------
 #P B3LYP/6-311+g(d) force
 -------------------------

 -----
 DPGEN
 -----
 Symbolic Z-matrix:
 Charge =  0 Multiplicity = 2

                         Standard orientation:
 ---------------------------------------------------------------------
 Center     Atomic      Atomic             Coordinates (Angstroms)
 Number     Number       Type             X           Y           Z
 ---------------------------------------------------------------------
      1         11           0        0.713595   -1.952034    1.342057
      2         11           0        1.421991   -1.595825   -1.501743
      3         11           0       -3.963525   -0.308591   -0.281743
      4         11           0       -0.986826   -0.177055   -0.387043
      5         11           0        0.712847    1.990566   -1.598543
      6         11           0       -0.158548    1.559555    1.929557
      7         11           0        2.260466    0.483385    0.497457
 ---------------------------------------------------------------------

 SCF Done:  E(UB3LYP) =  -1136.10356941     A.U. after   22 cycles

 The electronic state is 2-A.
 Alpha  occ. eigenvalues --  -38.44354 -38.44223 -38.43813 -38.43706 -38.43606
 Alpha  occ. eigenvalues --  -38.43602 -38.42440  -2.20299  -2.20011  -2.19765
 Alpha  occ. eigenvalues --   -2.19744  -2.19722  -2.19621  -2.18654  -1.14046
 Alpha  occ. eigenvalues --   -1.13949  -1.13879  -1.13721  -1.13653  -1.13647
 Alpha  occ. eigenvalues --   -1.13623  -1.13559  -1.13477  -1.13438  -1.13435
 Alpha  occ. eigenvalues --   -1.13386  -1.13345  -1.13296  -1.13282  -1.13267
 Alpha  occ. eigenvalues --   -1.13189  -1.13154  -1.12365  -1.12298  -1.12260
 Alpha  occ. eigenvalues --   -0.20235  -0.12797  -0.12503  -0.11970
 Alpha virt. eigenvalues --   -0.06038  -0.04156  -0.04025  -0.03202  -0.03051
 Alpha virt. eigenvalues --   -0.02843  -0.01540  -0.00716  -0.00532   0.00235
 Alpha virt. eigenvalues --    0.00417   0.00473   0.00602   0.00873   0.01021

  Beta  occ. eigenvalues --  -38.44288 -38.44230 -38.43765 -38.43667 -38.43579
  Beta  occ. eigenvalues --  -38.43564 -38.42413  -2.20181  -2.20025  -2.19702
  Beta  occ. eigenvalues --   -2.19675  -2.19658  -2.19554  -2.18612  -1.13964
  Beta  occ. eigenvalues --   -1.13861  -1.13790  -1.13727  -1.13661  -1.13656
  Beta  occ. eigenvalues --   -1.13592  -1.13501  -1.13406  -1.13395  -1.13379
  Beta  occ. eigenvalues --   -1.13318  -1.13272  -1.13246  -1.13243  -1.13214
  Beta  occ. eigenvalues --   -1.13138  -1.13096  -1.12292  -1.12258  -1.12240
  Beta  occ. eigenvalues --   -0.19226  -0.12440  -0.11843
  Beta virt. eigenvalues --   -0.08304  -0.05848  -0.03862  -0.03541  -0.02778
  Beta virt. eigenvalues --   -0.02494  -0.02061  -0.01491  -0.00554  -0.00321
  Beta virt. eigenvalues --    0.00272   0.00486   0.00561   0.00655   0.00895

 Mulliken charges and spin densities:
               1          2
     1  Na   0.120000   0.422625
     2  Na   0.550651   0.340579
     3  Na   0.237789  -0.373303
     4  Na  -1.399830  -0.118380
     5  Na   0.015263   0.324753
     6  Na  -0.016467   0.371354
     7  Na   0.492595   0.032372
 Sum of Mulliken charges =  -0.00000   1.00000

 Dipole moment (field-independent basis, Debye):
    X=              0.1360    Y=              0.3299    Z=              0.1490  Tot=              0.3867
 Quadrupole moment (field-independent basis, Debye-Ang):
   XX=            -61.3492   YY=            -71.2447   ZZ=            -60.6038
   XY=             -0.6207   XZ=             -1.1149   YZ=             -0.4474

 Normal termination of Gaussian 16 at Sat Dec  9 06:14:37 2023.
