 Gaussian 16, Revision B.01,
 Gaussian 16:  ES64L-G16RevB.01 20-Dec-2017

 -------------------------
 #P B3LYP/6-311+g(d) force
 -------------------------

 -----
 DPGEN
 -----
 Symbolic Z-matrix:
 Charge =  0 Multiplicity = 2

                         Standard orientation:
 ---------------------------------------------------------------------
 Center     Atomic      Atomic             Coordinates (Angstroms)
 Number     Number       Type             X           Y           Z
 ---------------------------------------------------------------------
      1         11           0        0.137046    0.167595   -1.760881
      2         11           0       -3.320990   -1.398819   -0.897826
      3         11           0       -1.239087   -0.525994    1.819744
      4         11           0        3.533260    0.038733   -1.040800
      5         11           0       -2.346833    2.030713   -0.041030
      6         11           0        1.565002    1.588861    1.080711
      7         11           0        1.671601   -1.901091    0.840082
 ---------------------------------------------------------------------

 SCF Done:  E(UB3LYP) =  -1136.12411228     A.U. after   30 cycles

 The electronic state is 2-A.
 Alpha  occ. eigenvalues --  -38.45095 -38.44531 -38.44454 -38.44099 -38.43840
 Alpha  occ. eigenvalues --  -38.42686 -38.42669  -2.20894  -2.20399  -2.20344
 Alpha  occ. eigenvalues --   -2.19964  -2.19672  -2.18590  -2.18551  -1.14559
 Alpha  occ. eigenvalues --   -1.14528  -1.14513  -1.14094  -1.14064  -1.14037
 Alpha  occ. eigenvalues --   -1.14028  -1.13960  -1.13957  -1.13666  -1.13624
 Alpha  occ. eigenvalues --   -1.13574  -1.13361  -1.13326  -1.13302  -1.12296
 Alpha  occ. eigenvalues --   -1.12257  -1.12234  -1.12228  -1.12204  -1.12171
 Alpha  occ. eigenvalues --   -0.18572  -0.14303  -0.11522  -0.10538
 Alpha virt. eigenvalues --   -0.06562  -0.05691  -0.04629  -0.03100  -0.02604
 Alpha virt. eigenvalues --   -0.02369  -0.02269  -0.01216  -0.00674  -0.00200
 Alpha virt. eigenvalues --    0.00200   0.00204   0.00390   0.00548   0.00614

  Beta  occ. eigenvalues --  -38.45040 -38.44516 -38.44406 -38.44069 -38.43826
  Beta  occ. eigenvalues --  -38.42669 -38.42660  -2.20791  -2.20372  -2.20257
  Beta  occ. eigenvalues --   -2.19911  -2.19650  -2.18553  -2.18545  -1.14484
  Beta  occ. eigenvalues --   -1.14460  -1.14446  -1.14069  -1.14036  -1.14015
  Beta  occ. eigenvalues --   -1.13971  -1.13896  -1.13893  -1.13626  -1.13578
  Beta  occ. eigenvalues --   -1.13537  -1.13340  -1.13313  -1.13269  -1.12279
  Beta  occ. eigenvalues --   -1.12230  -1.12214  -1.12207  -1.12177  -1.12157
  Beta  occ. eigenvalues --   -0.17869  -0.13988  -0.10379
  Beta virt. eigenvalues --   -0.07736  -0.06337  -0.05182  -0.04344  -0.02782
  Beta virt. eigenvalues --   -0.02296  -0.01839  -0.01731  -0.00779  -0.00606
  Beta virt. eigenvalues --   -0.00056   0.00216   0.00305   0.00427   0.00673

 Mulliken charges and spin densities:
               1          2
     1  Na  -0.368378   0.305016
     2  Na  -0.020134   0.129455
     3  Na   0.141000   0.234936
     4  Na   0.673223   0.094953
     5  Na   0.119602   0.080570
     6  Na  -0.120889   0.196192
     7  Na  -0.424423  -0.041122
 Sum of Mulliken charges =  -0.00000   1.00000

 Dipole moment (field-independent basis, Debye):
    X=              0.0225    Y=              0.1204    Z=             -0.5110  Tot=              0.5255
 Quadrupole moment (field-independent basis, Debye-Ang):
   XX=            -48.1633   YY=            -72.7578   ZZ=            -72.7978
   XY=              1.0056   XZ=              0.3233   YZ=              9.0783

 Normal termination of Gaussian 16 at Tue Dec  5 19:51:15 2023.
