 Gaussian 16, Revision B.01,
 Gaussian 16:  ES64L-G16RevB.01 20-Dec-2017

 -------------------------
 #P B3LYP/6-311+g(d) force
 -------------------------

 -----
 DPGEN
 -----
 Symbolic Z-matrix:
 Charge =  0 Multiplicity = 2

                         Standard orientation:
 ---------------------------------------------------------------------
 Center     Atomic      Atomic             Coordinates (Angstroms)
 Number     Number       Type             X           Y           Z
 ---------------------------------------------------------------------
      1         11           0       -1.081165    2.350105    1.634704
      2         11           0        3.350844   -0.679272    0.231562
      3         11           0        2.224336    2.509459   -0.506178
      4         11           0        1.225518   -2.832006   -0.091907
      5         11           0       -0.294732    0.482865   -1.607838
      6         11           0       -1.375584   -1.708023    1.171238
      7         11           0       -4.049218   -0.123126   -0.831581
 ---------------------------------------------------------------------

 SCF Done:  E(UB3LYP) =  -1136.11988552     A.U. after   21 cycles

 The electronic state is 2-A.
 Alpha  occ. eigenvalues --  -38.44815 -38.44760 -38.44754 -38.44127 -38.43980
 Alpha  occ. eigenvalues --  -38.43637 -38.43295  -2.20633  -2.20573  -2.20524
 Alpha  occ. eigenvalues --   -2.19913  -2.19820  -2.19444  -2.19176  -1.14330
 Alpha  occ. eigenvalues --   -1.14298  -1.14270  -1.14264  -1.14245  -1.14191
 Alpha  occ. eigenvalues --   -1.14183  -1.14178  -1.14136  -1.13571  -1.13545
 Alpha  occ. eigenvalues --   -1.13531  -1.13530  -1.13478  -1.13445  -1.13125
 Alpha  occ. eigenvalues --   -1.13109  -1.13080  -1.12845  -1.12834  -1.12815
 Alpha  occ. eigenvalues --   -0.17437  -0.13321  -0.12523  -0.10315
 Alpha virt. eigenvalues --   -0.06920  -0.05739  -0.04566  -0.03317  -0.02902
 Alpha virt. eigenvalues --   -0.02608  -0.02067  -0.01315  -0.00732  -0.00611
 Alpha virt. eigenvalues --   -0.00182   0.00078   0.00405   0.00531   0.00651

  Beta  occ. eigenvalues --  -38.44820 -38.44738 -38.44703 -38.44040 -38.43958
  Beta  occ. eigenvalues --  -38.43640 -38.43294  -2.20643  -2.20532  -2.20430
  Beta  occ. eigenvalues --   -2.19782  -2.19751  -2.19451  -2.19174  -1.14341
  Beta  occ. eigenvalues --   -1.14301  -1.14269  -1.14235  -1.14218  -1.14154
  Beta  occ. eigenvalues --   -1.14120  -1.14107  -1.14077  -1.13505  -1.13457
  Beta  occ. eigenvalues --   -1.13445  -1.13436  -1.13420  -1.13411  -1.13130
  Beta  occ. eigenvalues --   -1.13115  -1.13072  -1.12848  -1.12830  -1.12805
  Beta  occ. eigenvalues --   -0.17024  -0.12974  -0.12237
  Beta virt. eigenvalues --   -0.06841  -0.06580  -0.05529  -0.04338  -0.02844
  Beta virt. eigenvalues --   -0.02522  -0.02330  -0.01487  -0.01178  -0.00600
  Beta virt. eigenvalues --   -0.00376   0.00011   0.00204   0.00546   0.00712

 Mulliken charges and spin densities:
               1          2
     1  Na  -0.229332   0.435462
     2  Na  -0.229145   0.020229
     3  Na   0.403473  -0.016126
     4  Na   0.335249  -0.074249
     5  Na  -0.418164   0.195469
     6  Na  -0.016850   0.247920
     7  Na   0.154769   0.191295
 Sum of Mulliken charges =  -0.00000   1.00000

 Dipole moment (field-independent basis, Debye):
    X=             -0.0210    Y=              0.1371    Z=              0.0690  Tot=              0.1549
 Quadrupole moment (field-independent basis, Debye-Ang):
   XX=            -55.3625   YY=            -69.5908   ZZ=            -72.9720
   XY=              0.6421   XZ=              0.0328   YZ=              0.2566

 Normal termination of Gaussian 16 at Sun Dec  3 21:41:21 2023.
