 Gaussian 16, Revision B.01,
 Gaussian 16:  ES64L-G16RevB.01 20-Dec-2017

 -------------------------
 #P B3LYP/6-311+g(d) force
 -------------------------

 -----
 DPGEN
 -----
 Symbolic Z-matrix:
 Charge =  0 Multiplicity = 2

                         Standard orientation:
 ---------------------------------------------------------------------
 Center     Atomic      Atomic             Coordinates (Angstroms)
 Number     Number       Type             X           Y           Z
 ---------------------------------------------------------------------
      1         11           0        3.091963   -1.525834   -0.592178
      2         11           0       -1.293967    2.355838    0.574551
      3         11           0       -3.579449   -0.916629   -0.424879
      4         11           0       -1.024252   -1.316928    1.419167
      5         11           0        1.568353    1.735954   -1.018032
      6         11           0       -0.507106   -0.441281   -1.790605
      7         11           0        1.744457    0.108882    1.831976
 ---------------------------------------------------------------------

 SCF Done:  E(UB3LYP) =  -1136.12681787     A.U. after   22 cycles

 The electronic state is 2-A.
 Alpha  occ. eigenvalues --  -38.44336 -38.44288 -38.44022 -38.43964 -38.43685
 Alpha  occ. eigenvalues --  -38.43097 -38.42951  -2.20260  -2.20123  -2.19898
 Alpha  occ. eigenvalues --   -2.19842  -2.19602  -2.18933  -2.18885  -1.13954
 Alpha  occ. eigenvalues --   -1.13923  -1.13876  -1.13802  -1.13771  -1.13757
 Alpha  occ. eigenvalues --   -1.13625  -1.13588  -1.13525  -1.13495  -1.13490
 Alpha  occ. eigenvalues --   -1.13439  -1.13280  -1.13249  -1.13212  -1.12619
 Alpha  occ. eigenvalues --   -1.12602  -1.12590  -1.12576  -1.12543  -1.12458
 Alpha  occ. eigenvalues --   -0.18812  -0.13676  -0.11884  -0.11237
 Alpha virt. eigenvalues --   -0.06179  -0.04958  -0.04409  -0.03359  -0.02857
 Alpha virt. eigenvalues --   -0.02725  -0.02005  -0.01052  -0.00504   0.00099
 Alpha virt. eigenvalues --    0.00280   0.00352   0.00516   0.00693   0.00880

  Beta  occ. eigenvalues --  -38.44285 -38.44272 -38.44014 -38.43906 -38.43644
  Beta  occ. eigenvalues --  -38.43082 -38.42933  -2.20143  -2.20118  -2.19828
  Beta  occ. eigenvalues --   -2.19794  -2.19531  -2.18906  -2.18857  -1.13878
  Beta  occ. eigenvalues --   -1.13840  -1.13800  -1.13796  -1.13759  -1.13738
  Beta  occ. eigenvalues --   -1.13554  -1.13541  -1.13484  -1.13473  -1.13455
  Beta  occ. eigenvalues --   -1.13387  -1.13238  -1.13174  -1.13160  -1.12605
  Beta  occ. eigenvalues --   -1.12570  -1.12558  -1.12553  -1.12524  -1.12434
  Beta  occ. eigenvalues --   -0.17998  -0.13524  -0.11072
  Beta virt. eigenvalues --   -0.07805  -0.05959  -0.04794  -0.03901  -0.03014
  Beta virt. eigenvalues --   -0.02253  -0.01945  -0.01900  -0.00877  -0.00255
  Beta virt. eigenvalues --    0.00145   0.00300   0.00518   0.00557   0.00782

 Mulliken charges and spin densities:
               1          2
     1  Na  -0.005174   0.005202
     2  Na  -0.441300   0.082290
     3  Na   0.547606  -0.009402
     4  Na  -0.423302   0.171192
     5  Na   0.236934   0.119040
     6  Na  -0.231239   0.387515
     7  Na   0.316476   0.244163
 Sum of Mulliken charges =  -0.00000   1.00000

 Dipole moment (field-independent basis, Debye):
    X=             -0.4722    Y=             -0.1077    Z=             -0.2700  Tot=              0.5545
 Quadrupole moment (field-independent basis, Debye-Ang):
   XX=            -52.9604   YY=            -74.6872   ZZ=            -67.4229
   XY=             -1.2024   XZ=             -0.9249   YZ=              3.7501

 Normal termination of Gaussian 16 at Fri Dec  8 07:25:48 2023.
