 Gaussian 16, Revision B.01,
 Gaussian 16:  ES64L-G16RevB.01 20-Dec-2017

 -------------------------
 #P B3LYP/6-311+g(d) force
 -------------------------

 -----
 DPGEN
 -----
 Symbolic Z-matrix:
 Charge =  0 Multiplicity = 2

                         Standard orientation:
 ---------------------------------------------------------------------
 Center     Atomic      Atomic             Coordinates (Angstroms)
 Number     Number       Type             X           Y           Z
 ---------------------------------------------------------------------
      1         11           0       -0.830340   -1.966678    0.550478
      2         11           0       -4.252352   -2.685930   -0.218256
      3         11           0       -2.819802    0.348690   -0.404983
      4         11           0       -1.999875    3.587631    0.192947
      5         11           0        0.495664    1.565910   -0.449867
      6         11           0        3.056758    0.084291    0.940606
      7         11           0        6.349947   -0.933914   -0.610925
 ---------------------------------------------------------------------

 SCF Done:  E(UB3LYP) =  -1136.12097089     A.U. after   19 cycles

 The electronic state is 2-A.
 Alpha  occ. eigenvalues --  -38.44957 -38.44614 -38.44557 -38.43906 -38.43706
 Alpha  occ. eigenvalues --  -38.43479 -38.43452  -2.20774  -2.20416  -2.20337
 Alpha  occ. eigenvalues --   -2.19813  -2.19588  -2.19314  -2.19231  -1.14498
 Alpha  occ. eigenvalues --   -1.14460  -1.14340  -1.14090  -1.14078  -1.14031
 Alpha  occ. eigenvalues --   -1.13973  -1.13972  -1.13937  -1.13545  -1.13512
 Alpha  occ. eigenvalues --   -1.13385  -1.13289  -1.13260  -1.13221  -1.12974
 Alpha  occ. eigenvalues --   -1.12965  -1.12940  -1.12925  -1.12906  -1.12867
 Alpha  occ. eigenvalues --   -0.17026  -0.13567  -0.12695  -0.10936
 Alpha virt. eigenvalues --   -0.06346  -0.05334  -0.04778  -0.03718  -0.02677
 Alpha virt. eigenvalues --   -0.02295  -0.02023  -0.01446  -0.01425  -0.00832
 Alpha virt. eigenvalues --   -0.00327  -0.00117   0.00107   0.00308   0.00598

  Beta  occ. eigenvalues --  -38.44928 -38.44601 -38.44435 -38.43896 -38.43692
  Beta  occ. eigenvalues --  -38.43467 -38.43460  -2.20720  -2.20392  -2.20109
  Beta  occ. eigenvalues --   -2.19795  -2.19563  -2.19277  -2.19266  -1.14464
  Beta  occ. eigenvalues --   -1.14425  -1.14289  -1.14069  -1.14061  -1.14018
  Beta  occ. eigenvalues --   -1.13818  -1.13817  -1.13787  -1.13518  -1.13501
  Beta  occ. eigenvalues --   -1.13374  -1.13276  -1.13242  -1.13194  -1.12960
  Beta  occ. eigenvalues --   -1.12945  -1.12939  -1.12934  -1.12913  -1.12848
  Beta  occ. eigenvalues --   -0.16632  -0.13243  -0.12038
  Beta virt. eigenvalues --   -0.07486  -0.05914  -0.05108  -0.04499  -0.03441
  Beta virt. eigenvalues --   -0.02412  -0.02122  -0.01837  -0.01195  -0.00920
  Beta virt. eigenvalues --   -0.00448  -0.00043   0.00062   0.00280   0.00457

 Mulliken charges and spin densities:
               1          2
     1  Na  -0.258395   0.156162
     2  Na   0.828260   0.051076
     3  Na  -0.840145   0.229299
     4  Na   1.058791   0.159553
     5  Na  -1.152190  -0.108747
     6  Na   0.323647  -0.113647
     7  Na   0.040031   0.626304
 Sum of Mulliken charges =  -0.00000   1.00000

 Dipole moment (field-independent basis, Debye):
    X=             -2.0506    Y=             -0.8275    Z=              0.0721  Tot=              2.2124
 Quadrupole moment (field-independent basis, Debye-Ang):
   XX=            -64.3065   YY=            -61.3178   ZZ=            -70.6550
   XY=              5.4016   XZ=             -1.2175   YZ=              1.2819

 Normal termination of Gaussian 16 at Tue Nov 28 22:22:49 2023.
