 Gaussian 16, Revision B.01,
 Gaussian 16:  ES64L-G16RevB.01 20-Dec-2017

 -------------------------
 #P B3LYP/6-311+g(d) force
 -------------------------

 -----
 DPGEN
 -----
 Symbolic Z-matrix:
 Charge =  0 Multiplicity = 2

                         Standard orientation:
 ---------------------------------------------------------------------
 Center     Atomic      Atomic             Coordinates (Angstroms)
 Number     Number       Type             X           Y           Z
 ---------------------------------------------------------------------
      1         11           0        2.933235    1.398719    0.153560
      2         11           0        2.810015   -1.977333   -0.180901
      3         11           0        0.416741   -0.085444   -1.444686
      4         11           0       -2.049451   -2.458720   -0.123162
      5         11           0       -0.702252    2.906452   -0.135198
      6         11           0       -3.235374    0.480458   -0.199780
      7         11           0       -0.172914   -0.264132    1.930166
 ---------------------------------------------------------------------

 SCF Done:  E(UB3LYP) =  -1136.13139948     A.U. after   20 cycles

 The electronic state is 2-A.
 Alpha  occ. eigenvalues --  -38.44713 -38.44475 -38.44301 -38.43670 -38.43378
 Alpha  occ. eigenvalues --  -38.43231 -38.42874  -2.20534  -2.20316  -2.20118
 Alpha  occ. eigenvalues --   -2.19507  -2.19332  -2.19117  -2.18698  -1.14219
 Alpha  occ. eigenvalues --   -1.14197  -1.14165  -1.13990  -1.13979  -1.13959
 Alpha  occ. eigenvalues --   -1.13797  -1.13766  -1.13760  -1.13176  -1.13163
 Alpha  occ. eigenvalues --   -1.13158  -1.13046  -1.12971  -1.12954  -1.12796
 Alpha  occ. eigenvalues --   -1.12735  -1.12725  -1.12377  -1.12360  -1.12340
 Alpha  occ. eigenvalues --   -0.18339  -0.13728  -0.11869  -0.10127
 Alpha virt. eigenvalues --   -0.06231  -0.05882  -0.04361  -0.03354  -0.02346
 Alpha virt. eigenvalues --   -0.02148  -0.02041  -0.01452  -0.00797  -0.00459
 Alpha virt. eigenvalues --   -0.00020   0.00289   0.00649   0.00740   0.00841

  Beta  occ. eigenvalues --  -38.44710 -38.44467 -38.44297 -38.43666 -38.43332
  Beta  occ. eigenvalues --  -38.43132 -38.42871  -2.20531  -2.20304  -2.20111
  Beta  occ. eigenvalues --   -2.19504  -2.19248  -2.18935  -2.18696  -1.14213
  Beta  occ. eigenvalues --   -1.14184  -1.14161  -1.13985  -1.13955  -1.13950
  Beta  occ. eigenvalues --   -1.13786  -1.13762  -1.13746  -1.13176  -1.13159
  Beta  occ. eigenvalues --   -1.13136  -1.12975  -1.12912  -1.12892  -1.12674
  Beta  occ. eigenvalues --   -1.12608  -1.12594  -1.12374  -1.12351  -1.12331
  Beta  occ. eigenvalues --   -0.17655  -0.13507  -0.11658
  Beta virt. eigenvalues --   -0.06311  -0.06113  -0.05856  -0.04358  -0.02595
  Beta virt. eigenvalues --   -0.01959  -0.01678  -0.01409  -0.01100  -0.00818
  Beta virt. eigenvalues --   -0.00470   0.00154   0.00342   0.00726   0.00745

 Mulliken charges and spin densities:
               1          2
     1  Na   0.167122   0.033555
     2  Na   0.233512  -0.038234
     3  Na  -0.291584   0.293599
     4  Na   0.250635  -0.016233
     5  Na  -0.054020  -0.020235
     6  Na   0.113231   0.063529
     7  Na  -0.418896   0.684019
 Sum of Mulliken charges =  -0.00000   1.00000

 Dipole moment (field-independent basis, Debye):
    X=              0.5078    Y=             -0.1787    Z=              0.1213  Tot=              0.5518
 Quadrupole moment (field-independent basis, Debye-Ang):
   XX=            -50.8462   YY=            -63.5533   ZZ=            -77.6926
   XY=              0.0967   XZ=              1.3081   YZ=              0.7809

 Normal termination of Gaussian 16 at Tue Dec  5 21:51:57 2023.
