 Gaussian 16, Revision B.01,
 Gaussian 16:  ES64L-G16RevB.01 20-Dec-2017

 -------------------------
 #P B3LYP/6-311+g(d) force
 -------------------------

 -----
 DPGEN
 -----
 Symbolic Z-matrix:
 Charge =  0 Multiplicity = 2

                         Standard orientation:
 ---------------------------------------------------------------------
 Center     Atomic      Atomic             Coordinates (Angstroms)
 Number     Number       Type             X           Y           Z
 ---------------------------------------------------------------------
      1         11           0       -0.347935    2.686743    0.757926
      2         11           0        2.639247    1.903813   -0.236509
      3         11           0        0.391717   -0.300339   -1.077055
      4         11           0       -0.987302   -2.595356    0.180246
      5         11           0       -2.691298    0.487781   -1.558793
      6         11           0       -1.806348   -0.193951    1.763533
      7         11           0        2.801920   -1.988691    0.170652
 ---------------------------------------------------------------------

 SCF Done:  E(UB3LYP) =  -1136.12735634     A.U. after   19 cycles

 The electronic state is 2-A.
 Alpha  occ. eigenvalues --  -38.44230 -38.44067 -38.43934 -38.43858 -38.43573
 Alpha  occ. eigenvalues --  -38.43353 -38.42845  -2.20025  -2.19932  -2.19776
 Alpha  occ. eigenvalues --   -2.19765  -2.19507  -2.19212  -2.18925  -1.13712
 Alpha  occ. eigenvalues --   -1.13692  -1.13651  -1.13618  -1.13561  -1.13552
 Alpha  occ. eigenvalues --   -1.13542  -1.13489  -1.13459  -1.13433  -1.13392
 Alpha  occ. eigenvalues --   -1.13359  -1.13161  -1.13136  -1.13111  -1.12890
 Alpha  occ. eigenvalues --   -1.12865  -1.12845  -1.12615  -1.12581  -1.12549
 Alpha  occ. eigenvalues --   -0.18595  -0.13186  -0.12570  -0.10829
 Alpha virt. eigenvalues --   -0.05847  -0.05287  -0.04661  -0.03107  -0.02838
 Alpha virt. eigenvalues --   -0.02359  -0.01566  -0.01051  -0.00447  -0.00316
 Alpha virt. eigenvalues --   -0.00110   0.00343   0.00680   0.00798   0.00855

  Beta  occ. eigenvalues --  -38.44235 -38.43996 -38.43938 -38.43843 -38.43508
  Beta  occ. eigenvalues --  -38.43336 -38.42809  -2.20035  -2.19801  -2.19772
  Beta  occ. eigenvalues --   -2.19752  -2.19388  -2.19183  -2.18863  -1.13717
  Beta  occ. eigenvalues --   -1.13696  -1.13658  -1.13538  -1.13514  -1.13465
  Beta  occ. eigenvalues --   -1.13463  -1.13459  -1.13441  -1.13432  -1.13400
  Beta  occ. eigenvalues --   -1.13338  -1.13083  -1.13053  -1.13028  -1.12868
  Beta  occ. eigenvalues --   -1.12829  -1.12827  -1.12572  -1.12527  -1.12494
  Beta  occ. eigenvalues --   -0.17947  -0.12984  -0.12372
  Beta virt. eigenvalues --   -0.06818  -0.05725  -0.05110  -0.04527  -0.02670
  Beta virt. eigenvalues --   -0.02192  -0.01705  -0.01056  -0.01007  -0.00337
  Beta virt. eigenvalues --   -0.00285   0.00099   0.00435   0.00793   0.00835

 Mulliken charges and spin densities:
               1          2
     1  Na  -0.254412   0.097194
     2  Na  -0.018394  -0.123904
     3  Na   0.572514   0.607603
     4  Na   0.358567   0.111558
     5  Na  -0.033843   0.109199
     6  Na  -0.351502   0.335514
     7  Na  -0.272930  -0.137164
 Sum of Mulliken charges =  -0.00000   1.00000

 Dipole moment (field-independent basis, Debye):
    X=              0.3271    Y=             -0.1325    Z=              0.2151  Tot=              0.4133
 Quadrupole moment (field-independent basis, Debye-Ang):
   XX=            -56.3057   YY=            -63.2392   ZZ=            -73.4000
   XY=             -0.8611   XZ=              2.1027   YZ=             -0.9602

 Normal termination of Gaussian 16 at Tue Nov 28 20:00:07 2023.
