 Gaussian 16, Revision B.01,
 Gaussian 16:  ES64L-G16RevB.01 20-Dec-2017

 -------------------------
 #P B3LYP/6-311+g(d) force
 -------------------------

 -----
 DPGEN
 -----
 Symbolic Z-matrix:
 Charge =  0 Multiplicity = 2

                         Standard orientation:
 ---------------------------------------------------------------------
 Center     Atomic      Atomic             Coordinates (Angstroms)
 Number     Number       Type             X           Y           Z
 ---------------------------------------------------------------------
      1         11           0        1.436829    2.142836    1.081470
      2         11           0       -2.050312    2.268050   -0.530049
      3         11           0        3.710790   -0.377686   -0.708299
      4         11           0       -1.687401   -0.211812    1.660171
      5         11           0        0.256282    0.123247   -1.745640
      6         11           0       -2.723323   -1.786516   -0.788331
      7         11           0        1.057134   -2.158119    1.030678
 ---------------------------------------------------------------------

 SCF Done:  E(UB3LYP) =  -1136.13128701     A.U. after   20 cycles

 The electronic state is 2-A.
 Alpha  occ. eigenvalues --  -38.44433 -38.44076 -38.43963 -38.43794 -38.43688
 Alpha  occ. eigenvalues --  -38.43463 -38.43417  -2.20218  -2.19904  -2.19752
 Alpha  occ. eigenvalues --   -2.19684  -2.19502  -2.19394  -2.19252  -1.13891
 Alpha  occ. eigenvalues --   -1.13872  -1.13852  -1.13615  -1.13561  -1.13525
 Alpha  occ. eigenvalues --   -1.13431  -1.13421  -1.13369  -1.13368  -1.13328
 Alpha  occ. eigenvalues --   -1.13306  -1.13206  -1.13171  -1.13113  -1.13063
 Alpha  occ. eigenvalues --   -1.13056  -1.13013  -1.12932  -1.12906  -1.12868
 Alpha  occ. eigenvalues --   -0.18168  -0.13306  -0.11618  -0.10993
 Alpha virt. eigenvalues --   -0.06065  -0.05460  -0.04393  -0.03330  -0.02861
 Alpha virt. eigenvalues --   -0.02558  -0.01909  -0.01085  -0.00737  -0.00037
 Alpha virt. eigenvalues --    0.00103   0.00319   0.00452   0.00587   0.00722

  Beta  occ. eigenvalues --  -38.44426 -38.44064 -38.43938 -38.43734 -38.43664
  Beta  occ. eigenvalues --  -38.43415 -38.43412  -2.20205  -2.19884  -2.19707
  Beta  occ. eigenvalues --   -2.19574  -2.19461  -2.19308  -2.19247  -1.13873
  Beta  occ. eigenvalues --   -1.13865  -1.13845  -1.13601  -1.13540  -1.13504
  Beta  occ. eigenvalues --   -1.13399  -1.13379  -1.13339  -1.13295  -1.13255
  Beta  occ. eigenvalues --   -1.13219  -1.13172  -1.13127  -1.13085  -1.13009
  Beta  occ. eigenvalues --   -1.12993  -1.12957  -1.12916  -1.12889  -1.12857
  Beta  occ. eigenvalues --   -0.17438  -0.13135  -0.11389
  Beta virt. eigenvalues --   -0.07172  -0.05891  -0.05366  -0.04019  -0.02993
  Beta virt. eigenvalues --   -0.02250  -0.01803  -0.01624  -0.01003  -0.00481
  Beta virt. eigenvalues --    0.00067   0.00095   0.00347   0.00601   0.00683

 Mulliken charges and spin densities:
               1          2
     1  Na  -0.204471   0.092410
     2  Na   0.264819  -0.016905
     3  Na   0.281090   0.012265
     4  Na   0.082028   0.407019
     5  Na  -0.444260   0.451692
     6  Na   0.197568   0.016273
     7  Na  -0.176775   0.037247
 Sum of Mulliken charges =  -0.00000   1.00000

 Dipole moment (field-independent basis, Debye):
    X=              0.4660    Y=             -0.0089    Z=             -0.1925  Tot=              0.5043
 Quadrupole moment (field-independent basis, Debye-Ang):
   XX=            -52.5220   YY=            -70.4222   ZZ=            -70.2799
   XY=              0.3185   XZ=              1.4050   YZ=              1.6644

 Normal termination of Gaussian 16 at Tue Dec  5 19:37:51 2023.
