 Gaussian 16, Revision B.01,
 Gaussian 16:  ES64L-G16RevB.01 20-Dec-2017

 -------------------------
 #P B3LYP/6-311+g(d) force
 -------------------------

 -----
 DPGEN
 -----
 Symbolic Z-matrix:
 Charge =  0 Multiplicity = 2

                         Standard orientation:
 ---------------------------------------------------------------------
 Center     Atomic      Atomic             Coordinates (Angstroms)
 Number     Number       Type             X           Y           Z
 ---------------------------------------------------------------------
      1         11           0        1.441771   -1.917051    0.849766
      2         11           0        3.205002   -0.072980   -0.924601
      3         11           0       -1.624046   -1.844310   -0.616563
      4         11           0       -3.604043    1.179398   -0.705698
      5         11           0        1.689606    2.405281    0.801488
      6         11           0        0.234508    0.332514   -1.496814
      7         11           0       -1.342798   -0.082851    2.092422
 ---------------------------------------------------------------------

 SCF Done:  E(UB3LYP) =  -1136.12167772     A.U. after   23 cycles

 The electronic state is 2-A.
 Alpha  occ. eigenvalues --  -38.44511 -38.44455 -38.44198 -38.43925 -38.43610
 Alpha  occ. eigenvalues --  -38.43519 -38.42766  -2.20367  -2.20278  -2.20065
 Alpha  occ. eigenvalues --   -2.19917  -2.19458  -2.19430  -2.18679  -1.14089
 Alpha  occ. eigenvalues --   -1.14044  -1.13966  -1.13949  -1.13944  -1.13909
 Alpha  occ. eigenvalues --   -1.13737  -1.13717  -1.13671  -1.13643  -1.13583
 Alpha  occ. eigenvalues --   -1.13527  -1.13167  -1.13118  -1.13099  -1.13085
 Alpha  occ. eigenvalues --   -1.13059  -1.13027  -1.12357  -1.12342  -1.12317
 Alpha  occ. eigenvalues --   -0.18698  -0.13861  -0.11366  -0.11210
 Alpha virt. eigenvalues --   -0.06495  -0.04865  -0.04694  -0.03199  -0.02770
 Alpha virt. eigenvalues --   -0.02681  -0.02098  -0.00881  -0.00598  -0.00055
 Alpha virt. eigenvalues --    0.00186   0.00272   0.00420   0.00686   0.00805

  Beta  occ. eigenvalues --  -38.44508 -38.44442 -38.44120 -38.43879 -38.43584
  Beta  occ. eigenvalues --  -38.43502 -38.42756  -2.20344  -2.20273  -2.19923
  Beta  occ. eigenvalues --   -2.19836  -2.19431  -2.19384  -2.18664  -1.14065
  Beta  occ. eigenvalues --   -1.14028  -1.13948  -1.13943  -1.13935  -1.13906
  Beta  occ. eigenvalues --   -1.13647  -1.13611  -1.13593  -1.13567  -1.13509
  Beta  occ. eigenvalues --   -1.13465  -1.13142  -1.13080  -1.13068  -1.13051
  Beta  occ. eigenvalues --   -1.13021  -1.13006  -1.12350  -1.12323  -1.12288
  Beta  occ. eigenvalues --   -0.17976  -0.13656  -0.10996
  Beta virt. eigenvalues --   -0.07467  -0.06349  -0.04690  -0.04163  -0.02935
  Beta virt. eigenvalues --   -0.02231  -0.02006  -0.01709  -0.00833  -0.00266
  Beta virt. eigenvalues --    0.00013   0.00226   0.00291   0.00538   0.00818

 Mulliken charges and spin densities:
               1          2
     1  Na  -0.277073   0.231971
     2  Na   1.202465  -0.138429
     3  Na   0.486633   0.124631
     4  Na  -0.029516  -0.001166
     5  Na  -0.436934   0.253722
     6  Na  -0.711700   0.141858
     7  Na  -0.233876   0.387413
 Sum of Mulliken charges =  -0.00000   1.00000

 Dipole moment (field-independent basis, Debye):
    X=             -0.2069    Y=              0.0900    Z=              0.0963  Tot=              0.2454
 Quadrupole moment (field-independent basis, Debye-Ang):
   XX=            -52.4887   YY=            -73.2169   ZZ=            -68.7011
   XY=             -1.9704   XZ=             -0.1882   YZ=              1.9528

 Normal termination of Gaussian 16 at Tue Dec  5 21:12:42 2023.
