 Gaussian 16, Revision B.01,
 Gaussian 16:  ES64L-G16RevB.01 20-Dec-2017

 -------------------------
 #P B3LYP/6-311+g(d) force
 -------------------------

 -----
 DPGEN
 -----
 Symbolic Z-matrix:
 Charge =  0 Multiplicity = 2

                         Standard orientation:
 ---------------------------------------------------------------------
 Center     Atomic      Atomic             Coordinates (Angstroms)
 Number     Number       Type             X           Y           Z
 ---------------------------------------------------------------------
      1         11           0       -1.528118   -2.415043   -0.489083
      2         11           0        1.722829   -0.779227    2.361405
      3         11           0       -3.587687    0.974815   -0.692004
      4         11           0        3.544222    0.643750   -0.668924
      5         11           0       -1.579790    0.323403    1.740525
      6         11           0        1.120805   -1.238189   -1.826276
      7         11           0        0.307738    2.490490   -0.425642
 ---------------------------------------------------------------------

 SCF Done:  E(UB3LYP) =  -1136.12177289     A.U. after   23 cycles

 The electronic state is 2-A.
 Alpha  occ. eigenvalues --  -38.45283 -38.44959 -38.44419 -38.44021 -38.43981
 Alpha  occ. eigenvalues --  -38.43447 -38.42595  -2.21084  -2.20744  -2.20228
 Alpha  occ. eigenvalues --   -2.19859  -2.19788  -2.19300  -2.18424  -1.14745
 Alpha  occ. eigenvalues --   -1.14707  -1.14694  -1.14430  -1.14390  -1.14370
 Alpha  occ. eigenvalues --   -1.13912  -1.13882  -1.13860  -1.13549  -1.13514
 Alpha  occ. eigenvalues --   -1.13496  -1.13483  -1.13467  -1.13387  -1.12981
 Alpha  occ. eigenvalues --   -1.12952  -1.12936  -1.12112  -1.12089  -1.12054
 Alpha  occ. eigenvalues --   -0.17638  -0.13488  -0.11952  -0.11119
 Alpha virt. eigenvalues --   -0.06563  -0.05129  -0.04672  -0.03476  -0.03048
 Alpha virt. eigenvalues --   -0.02766  -0.02093  -0.01300  -0.00555  -0.00116
 Alpha virt. eigenvalues --    0.00030   0.00230   0.00245   0.00566   0.00779

  Beta  occ. eigenvalues --  -38.45178 -38.44947 -38.44410 -38.44011 -38.43948
  Beta  occ. eigenvalues --  -38.43416 -38.42595  -2.20891  -2.20721  -2.20213
  Beta  occ. eigenvalues --   -2.19803  -2.19771  -2.19242  -2.18426  -1.14605
  Beta  occ. eigenvalues --   -1.14577  -1.14561  -1.14415  -1.14373  -1.14354
  Beta  occ. eigenvalues --   -1.13892  -1.13869  -1.13852  -1.13516  -1.13473
  Beta  occ. eigenvalues --   -1.13468  -1.13453  -1.13429  -1.13375  -1.12942
  Beta  occ. eigenvalues --   -1.12912  -1.12893  -1.12111  -1.12082  -1.12057
  Beta  occ. eigenvalues --   -0.16935  -0.13293  -0.10984
  Beta virt. eigenvalues --   -0.07884  -0.06394  -0.04678  -0.04388  -0.03137
  Beta virt. eigenvalues --   -0.02381  -0.02205  -0.01968  -0.00833  -0.00480
  Beta virt. eigenvalues --   -0.00007   0.00071   0.00266   0.00372   0.00716

 Mulliken charges and spin densities:
               1          2
     1  Na  -0.211459   0.148644
     2  Na  -0.039122   0.324087
     3  Na   0.488137   0.075731
     4  Na   0.500990   0.040734
     5  Na   0.023943   0.159562
     6  Na  -0.349424   0.116754
     7  Na  -0.413065   0.134488
 Sum of Mulliken charges =  -0.00000   1.00000

 Dipole moment (field-independent basis, Debye):
    X=              0.1980    Y=              0.4912    Z=              0.0675  Tot=              0.5339
 Quadrupole moment (field-independent basis, Debye-Ang):
   XX=            -51.2615   YY=            -77.6927   ZZ=            -67.1734
   XY=             -0.7122   XZ=              3.5531   YZ=             -4.8520

 Normal termination of Gaussian 16 at Mon Dec  4 01:43:41 2023.
