 Gaussian 16, Revision B.01,
 Gaussian 16:  ES64L-G16RevB.01 20-Dec-2017

 -------------------------
 #P B3LYP/6-311+g(d) force
 -------------------------

 -----
 DPGEN
 -----
 Symbolic Z-matrix:
 Charge =  0 Multiplicity = 2

                         Standard orientation:
 ---------------------------------------------------------------------
 Center     Atomic      Atomic             Coordinates (Angstroms)
 Number     Number       Type             X           Y           Z
 ---------------------------------------------------------------------
      1         11           0        3.869985   -1.913678   -0.724951
      2         11           0        1.434839    2.664335   -0.166119
      3         11           0       -2.310760    2.843930   -0.194413
      4         11           0       -4.695208    0.434494   -0.365885
      5         11           0       -3.266559   -2.632248    0.911927
      6         11           0        0.614839   -2.588672   -0.403289
      7         11           0        4.352863    1.191839    0.942730
 ---------------------------------------------------------------------

 SCF Done:  E(UB3LYP) =  -1136.10544888     A.U. after   27 cycles

 The electronic state is 2-A.
 Alpha  occ. eigenvalues --  -38.45450 -38.45013 -38.44908 -38.44679 -38.44431
 Alpha  occ. eigenvalues --  -38.44388 -38.43665  -2.21209  -2.20757  -2.20701
 Alpha  occ. eigenvalues --   -2.20440  -2.20198  -2.20197  -2.19456  -1.14892
 Alpha  occ. eigenvalues --   -1.14877  -1.14849  -1.14451  -1.14444  -1.14385
 Alpha  occ. eigenvalues --   -1.14372  -1.14364  -1.14341  -1.14116  -1.14111
 Alpha  occ. eigenvalues --   -1.14054  -1.13861  -1.13851  -1.13841  -1.13835
 Alpha  occ. eigenvalues --   -1.13827  -1.13827  -1.13116  -1.13109  -1.13089
 Alpha  occ. eigenvalues --   -0.15659  -0.14237  -0.12783  -0.10697
 Alpha virt. eigenvalues --   -0.07954  -0.04862  -0.04833  -0.03538  -0.03453
 Alpha virt. eigenvalues --   -0.02634  -0.02390  -0.01608  -0.01146  -0.01039
 Alpha virt. eigenvalues --   -0.00635  -0.00435   0.00135   0.00402   0.00492

  Beta  occ. eigenvalues --  -38.45448 -38.45014 -38.44883 -38.44649 -38.44378
  Beta  occ. eigenvalues --  -38.44326 -38.43619  -2.21209  -2.20764  -2.20659
  Beta  occ. eigenvalues --   -2.20388  -2.20100  -2.20082  -2.19369  -1.14896
  Beta  occ. eigenvalues --   -1.14879  -1.14821  -1.14460  -1.14453  -1.14356
  Beta  occ. eigenvalues --   -1.14346  -1.14331  -1.14293  -1.14084  -1.14079
  Beta  occ. eigenvalues --   -1.13999  -1.13794  -1.13779  -1.13773  -1.13757
  Beta  occ. eigenvalues --   -1.13754  -1.13753  -1.13057  -1.13052  -1.13034
  Beta  occ. eigenvalues --   -0.15129  -0.13583  -0.11997
  Beta virt. eigenvalues --   -0.08132  -0.07615  -0.04450  -0.04335  -0.03332
  Beta virt. eigenvalues --   -0.03194  -0.02398  -0.02158  -0.01368  -0.00836
  Beta virt. eigenvalues --   -0.00734  -0.00466  -0.00320   0.00268   0.00501

 Mulliken charges and spin densities:
               1          2
     1  Na   0.243636  -0.064976
     2  Na  -0.425359   0.013285
     3  Na  -0.000424   0.199040
     4  Na  -0.051170   0.062210
     5  Na   0.191890   0.345378
     6  Na  -0.369528   0.169463
     7  Na   0.410956   0.275600
 Sum of Mulliken charges =  -0.00000   1.00000

 Dipole moment (field-independent basis, Debye):
    X=              0.3851    Y=             -0.3440    Z=             -0.0467  Tot=              0.5184
 Quadrupole moment (field-independent basis, Debye-Ang):
   XX=            -51.6025   YY=            -75.2353   ZZ=            -72.2553
   XY=             -3.6044   XZ=              1.1971   YZ=             -1.1924

 Normal termination of Gaussian 16 at Sun Dec  3 21:58:08 2023.
