 Gaussian 16, Revision B.01,
 Gaussian 16:  ES64L-G16RevB.01 20-Dec-2017

 -------------------------
 #P B3LYP/6-311+g(d) force
 -------------------------

 -----
 DPGEN
 -----
 Symbolic Z-matrix:
 Charge =  0 Multiplicity = 2

                         Standard orientation:
 ---------------------------------------------------------------------
 Center     Atomic      Atomic             Coordinates (Angstroms)
 Number     Number       Type             X           Y           Z
 ---------------------------------------------------------------------
      1         11           0        2.234631   -1.819554   -0.749753
      2         11           0        0.206302   -0.303723   -1.998884
      3         11           0        2.285808    0.062773    1.595823
      4         11           0       -0.711025   -1.344731    1.691713
      5         11           0       -3.183112   -1.412710   -0.446482
      6         11           0        1.128735    2.583071   -0.634148
      7         11           0       -1.961340    2.234874    0.541731
 ---------------------------------------------------------------------

 SCF Done:  E(UB3LYP) =  -1136.12415816     A.U. after   20 cycles

 The electronic state is 2-A.
 Alpha  occ. eigenvalues --  -38.44453 -38.44191 -38.44141 -38.44104 -38.43907
 Alpha  occ. eigenvalues --  -38.43787 -38.42905  -2.20397  -2.20101  -2.20032
 Alpha  occ. eigenvalues --   -2.19926  -2.19704  -2.19656  -2.18758  -1.14225
 Alpha  occ. eigenvalues --   -1.14018  -1.13993  -1.13858  -1.13775  -1.13712
 Alpha  occ. eigenvalues --   -1.13668  -1.13617  -1.13611  -1.13592  -1.13591
 Alpha  occ. eigenvalues --   -1.13552  -1.13406  -1.13367  -1.13346  -1.13333
 Alpha  occ. eigenvalues --   -1.13300  -1.13253  -1.12444  -1.12419  -1.12389
 Alpha  occ. eigenvalues --   -0.18474  -0.13043  -0.12011  -0.11877
 Alpha virt. eigenvalues --   -0.05576  -0.05335  -0.04146  -0.03665  -0.03367
 Alpha virt. eigenvalues --   -0.03162  -0.01427  -0.00933  -0.00459   0.00055
 Alpha virt. eigenvalues --    0.00277   0.00368   0.00590   0.00718   0.00793

  Beta  occ. eigenvalues --  -38.44360 -38.44140 -38.44138 -38.44081 -38.43908
  Beta  occ. eigenvalues --  -38.43746 -38.42900  -2.20228  -2.20008  -2.19991
  Beta  occ. eigenvalues --   -2.19924  -2.19706  -2.19581  -2.18752  -1.14117
  Beta  occ. eigenvalues --   -1.13898  -1.13872  -1.13808  -1.13696  -1.13640
  Beta  occ. eigenvalues --   -1.13615  -1.13603  -1.13590  -1.13587  -1.13554
  Beta  occ. eigenvalues --   -1.13543  -1.13397  -1.13361  -1.13347  -1.13284
  Beta  occ. eigenvalues --   -1.13249  -1.13200  -1.12432  -1.12406  -1.12388
  Beta  occ. eigenvalues --   -0.17681  -0.12890  -0.11826
  Beta virt. eigenvalues --   -0.07824  -0.05409  -0.05174  -0.03876  -0.03252
  Beta virt. eigenvalues --   -0.02542  -0.02311  -0.01323  -0.00830  -0.00284
  Beta virt. eigenvalues --    0.00120   0.00327   0.00445   0.00715   0.00818

 Mulliken charges and spin densities:
               1          2
     1  Na  -0.129545  -0.140512
     2  Na   0.093185   0.637205
     3  Na   0.461467   0.441531
     4  Na  -0.361333   0.230851
     5  Na   0.241789  -0.077012
     6  Na  -0.012602  -0.044261
     7  Na  -0.292961  -0.047802
 Sum of Mulliken charges =  -0.00000   1.00000

 Dipole moment (field-independent basis, Debye):
    X=             -0.2657    Y=             -0.1511    Z=              0.1462  Tot=              0.3388
 Quadrupole moment (field-independent basis, Debye-Ang):
   XX=            -59.1745   YY=            -70.5761   ZZ=            -67.5886
   XY=             -0.5178   XZ=              1.5677   YZ=              2.6377

 Normal termination of Gaussian 16 at Tue Dec  5 16:23:05 2023.
