 Gaussian 16, Revision B.01,
 Gaussian 16:  ES64L-G16RevB.01 20-Dec-2017

 -------------------------
 #P B3LYP/6-311+g(d) force
 -------------------------

 -----
 DPGEN
 -----
 Symbolic Z-matrix:
 Charge =  0 Multiplicity = 2

                         Standard orientation:
 ---------------------------------------------------------------------
 Center     Atomic      Atomic             Coordinates (Angstroms)
 Number     Number       Type             X           Y           Z
 ---------------------------------------------------------------------
      1         11           0        2.249661    1.550957   -0.035008
      2         11           0        5.592282    0.230256    0.204201
      3         11           0        3.453746   -1.937394   -0.080580
      4         11           0        0.172740   -1.222487   -0.338086
      5         11           0       -1.163770    2.311590   -0.161589
      6         11           0       -3.829417   -0.463024    0.660354
      7         11           0       -6.475241   -0.469898   -0.249293
 ---------------------------------------------------------------------

 SCF Done:  E(UB3LYP) =  -1136.11816921     A.U. after   20 cycles

 The electronic state is 2-A.
 Alpha  occ. eigenvalues --  -38.44566 -38.44346 -38.44236 -38.44212 -38.44096
 Alpha  occ. eigenvalues --  -38.43939 -38.43716  -2.20409  -2.20143  -2.20096
 Alpha  occ. eigenvalues --   -2.20091  -2.19941  -2.19772  -2.19571  -1.14110
 Alpha  occ. eigenvalues --   -1.14104  -1.14001  -1.13824  -1.13815  -1.13791
 Alpha  occ. eigenvalues --   -1.13782  -1.13766  -1.13764  -1.13754  -1.13731
 Alpha  occ. eigenvalues --   -1.13673  -1.13644  -1.13583  -1.13580  -1.13543
 Alpha  occ. eigenvalues --   -1.13404  -1.13403  -1.13217  -1.13206  -1.13124
 Alpha  occ. eigenvalues --   -0.17129  -0.14261  -0.12093  -0.11419
 Alpha virt. eigenvalues --   -0.06535  -0.05578  -0.04302  -0.03420  -0.03103
 Alpha virt. eigenvalues --   -0.02649  -0.02373  -0.01327  -0.01036  -0.00656
 Alpha virt. eigenvalues --   -0.00473   0.00002   0.00109   0.00334   0.00749

  Beta  occ. eigenvalues --  -38.44532 -38.44318 -38.44176 -38.44163 -38.44066
  Beta  occ. eigenvalues --  -38.43944 -38.43715  -2.20348  -2.20091  -2.20034
  Beta  occ. eigenvalues --   -2.19959  -2.19884  -2.19782  -2.19568  -1.14072
  Beta  occ. eigenvalues --   -1.14049  -1.13950  -1.13780  -1.13749  -1.13748
  Beta  occ. eigenvalues --   -1.13732  -1.13729  -1.13723  -1.13676  -1.13661
  Beta  occ. eigenvalues --   -1.13649  -1.13564  -1.13545  -1.13531  -1.13499
  Beta  occ. eigenvalues --   -1.13410  -1.13409  -1.13212  -1.13204  -1.13129
  Beta  occ. eigenvalues --   -0.16383  -0.14161  -0.11931
  Beta virt. eigenvalues --   -0.07448  -0.06394  -0.04972  -0.04089  -0.03245
  Beta virt. eigenvalues --   -0.02706  -0.02293  -0.01975  -0.01271  -0.00882
  Beta virt. eigenvalues --   -0.00300  -0.00093   0.00169   0.00229   0.00486

 Mulliken charges and spin densities:
               1          2
     1  Na  -0.474288   0.185071
     2  Na   0.564515   0.149124
     3  Na   0.989676  -0.134345
     4  Na  -1.060424   0.662578
     5  Na   0.150618   0.195909
     6  Na  -0.761273  -0.013048
     7  Na   0.591176  -0.045290
 Sum of Mulliken charges =  -0.00000   1.00000

 Dipole moment (field-independent basis, Debye):
    X=              0.9244    Y=              0.4391    Z=             -0.2265  Tot=              1.0481
 Quadrupole moment (field-independent basis, Debye-Ang):
   XX=            -57.3672   YY=            -67.6532   ZZ=            -72.5499
   XY=             -2.8292   XZ=              3.6125   YZ=             -0.2463

 Normal termination of Gaussian 16 at Wed Nov 29 02:56:52 2023.
