 Gaussian 16, Revision B.01,
 Gaussian 16:  ES64L-G16RevB.01 20-Dec-2017

 -------------------------
 #P B3LYP/6-311+g(d) force
 -------------------------

 -----
 DPGEN
 -----
 Symbolic Z-matrix:
 Charge =  0 Multiplicity = 2

                         Standard orientation:
 ---------------------------------------------------------------------
 Center     Atomic      Atomic             Coordinates (Angstroms)
 Number     Number       Type             X           Y           Z
 ---------------------------------------------------------------------
      1         11           0        2.101377   -1.204107    1.444827
      2         11           0        0.864160    0.340955   -1.227797
      3         11           0       -2.406782    1.394855   -0.001119
      4         11           0       -1.013870   -2.013253    0.583179
      5         11           0       -4.284646   -1.103338   -0.558970
      6         11           0        0.401690    3.147371    0.696038
      7         11           0        4.338072   -0.562485   -0.936158
 ---------------------------------------------------------------------

 SCF Done:  E(UB3LYP) =  -1136.12593087     A.U. after   20 cycles

 The electronic state is 2-A.
 Alpha  occ. eigenvalues --  -38.44799 -38.44206 -38.43982 -38.43617 -38.43542
 Alpha  occ. eigenvalues --  -38.43516 -38.43139  -2.20679  -2.20083  -2.19819
 Alpha  occ. eigenvalues --   -2.19458  -2.19425  -2.19387  -2.18952  -1.14386
 Alpha  occ. eigenvalues --   -1.14366  -1.14277  -1.13764  -1.13737  -1.13733
 Alpha  occ. eigenvalues --   -1.13469  -1.13453  -1.13428  -1.13179  -1.13127
 Alpha  occ. eigenvalues --   -1.13115  -1.13099  -1.13081  -1.13078  -1.13058
 Alpha  occ. eigenvalues --   -1.12992  -1.12975  -1.12620  -1.12611  -1.12588
 Alpha  occ. eigenvalues --   -0.17753  -0.14151  -0.11943  -0.10831
 Alpha virt. eigenvalues --   -0.06600  -0.04924  -0.04538  -0.03639  -0.02898
 Alpha virt. eigenvalues --   -0.02366  -0.01566  -0.01445  -0.00981  -0.00506
 Alpha virt. eigenvalues --   -0.00219   0.00044   0.00388   0.00578   0.00814

  Beta  occ. eigenvalues --  -38.44791 -38.44179 -38.43900 -38.43574 -38.43532
  Beta  occ. eigenvalues --  -38.43469 -38.43143  -2.20668  -2.20041  -2.19664
  Beta  occ. eigenvalues --   -2.19408  -2.19377  -2.19306  -2.18960  -1.14371
  Beta  occ. eigenvalues --   -1.14345  -1.14273  -1.13729  -1.13715  -1.13660
  Beta  occ. eigenvalues --   -1.13362  -1.13346  -1.13332  -1.13136  -1.13109
  Beta  occ. eigenvalues --   -1.13092  -1.13047  -1.13030  -1.13029  -1.13002
  Beta  occ. eigenvalues --   -1.12960  -1.12897  -1.12625  -1.12617  -1.12592
  Beta  occ. eigenvalues --   -0.17191  -0.13518  -0.11714
  Beta virt. eigenvalues --   -0.07175  -0.06426  -0.04841  -0.03943  -0.03398
  Beta virt. eigenvalues --   -0.02626  -0.02037  -0.01240  -0.01119  -0.00580
  Beta virt. eigenvalues --   -0.00362  -0.00017   0.00181   0.00538   0.00719

 Mulliken charges and spin densities:
               1          2
     1  Na   0.313529  -0.025436
     2  Na  -0.083645  -0.036380
     3  Na  -0.195584   0.209778
     4  Na  -0.558314   0.161847
     5  Na   0.553002   0.203771
     6  Na  -0.052504   0.054181
     7  Na   0.023517   0.432239
 Sum of Mulliken charges =  -0.00000   1.00000

 Dipole moment (field-independent basis, Debye):
    X=              0.4619    Y=             -0.1374    Z=              0.3789  Tot=              0.6130
 Quadrupole moment (field-independent basis, Debye-Ang):
   XX=            -63.6608   YY=            -71.7186   ZZ=            -64.9872
   XY=              2.0252   XZ=              3.0933   YZ=              2.4863

 Normal termination of Gaussian 16 at Wed Nov 29 00:23:49 2023.
