 Gaussian 16, Revision B.01,
 Gaussian 16:  ES64L-G16RevB.01 20-Dec-2017

 -------------------------
 #P B3LYP/6-311+g(d) force
 -------------------------

 -----
 DPGEN
 -----
 Symbolic Z-matrix:
 Charge =  0 Multiplicity = 2

                         Standard orientation:
 ---------------------------------------------------------------------
 Center     Atomic      Atomic             Coordinates (Angstroms)
 Number     Number       Type             X           Y           Z
 ---------------------------------------------------------------------
      1         11           0       -2.910680    0.107950   -1.189305
      2         11           0        2.950839    0.964336    0.849645
      3         11           0        0.433988    2.307752   -0.925748
      4         11           0       -0.709368    0.693121    1.753631
      5         11           0       -4.329303   -1.248760    0.710476
      6         11           0        3.890926   -2.034299   -0.136700
      7         11           0        0.673597   -0.790100   -1.062000
 ---------------------------------------------------------------------

 SCF Done:  E(UB3LYP) =  -1136.11585440     A.U. after   22 cycles

 The electronic state is 2-A.
 Alpha  occ. eigenvalues --  -38.44714 -38.44355 -38.44277 -38.44190 -38.44160
 Alpha  occ. eigenvalues --  -38.43546 -38.42892  -2.20571  -2.20241  -2.20147
 Alpha  occ. eigenvalues --   -2.20126  -2.20065  -2.19461  -2.18706  -1.14278
 Alpha  occ. eigenvalues --   -1.14226  -1.14158  -1.14133  -1.13938  -1.13920
 Alpha  occ. eigenvalues --   -1.13842  -1.13832  -1.13805  -1.13780  -1.13762
 Alpha  occ. eigenvalues --   -1.13714  -1.13694  -1.13672  -1.13556  -1.13149
 Alpha  occ. eigenvalues --   -1.13110  -1.13088  -1.12375  -1.12365  -1.12351
 Alpha  occ. eigenvalues --   -0.18422  -0.14314  -0.11486  -0.10857
 Alpha virt. eigenvalues --   -0.06975  -0.05242  -0.04734  -0.03068  -0.02866
 Alpha virt. eigenvalues --   -0.02430  -0.02203  -0.01397  -0.00915  -0.00364
 Alpha virt. eigenvalues --    0.00005   0.00147   0.00284   0.00582   0.00636

  Beta  occ. eigenvalues --  -38.44660 -38.44330 -38.44267 -38.44144 -38.44134
  Beta  occ. eigenvalues --  -38.43531 -38.42894  -2.20472  -2.20195  -2.20127
  Beta  occ. eigenvalues --   -2.20040  -2.20027  -2.19440  -2.18710  -1.14211
  Beta  occ. eigenvalues --   -1.14156  -1.14113  -1.14078  -1.13906  -1.13889
  Beta  occ. eigenvalues --   -1.13801  -1.13765  -1.13760  -1.13747  -1.13740
  Beta  occ. eigenvalues --   -1.13681  -1.13662  -1.13614  -1.13525  -1.13138
  Beta  occ. eigenvalues --   -1.13097  -1.13033  -1.12376  -1.12367  -1.12353
  Beta  occ. eigenvalues --   -0.17704  -0.14123  -0.11333
  Beta virt. eigenvalues --   -0.07055  -0.06702  -0.05115  -0.04164  -0.02808
  Beta virt. eigenvalues --   -0.02715  -0.01891  -0.01701  -0.01169  -0.00541
  Beta virt. eigenvalues --   -0.00323   0.00048   0.00248   0.00443   0.00709

 Mulliken charges and spin densities:
               1          2
     1  Na   0.212152  -0.063847
     2  Na   0.178160   0.217221
     3  Na   0.426966   0.065641
     4  Na  -0.409948   0.399842
     5  Na   0.150457   0.046391
     6  Na   0.485064  -0.039922
     7  Na  -1.042851   0.374675
 Sum of Mulliken charges =  -0.00000   1.00000

 Dipole moment (field-independent basis, Debye):
    X=             -0.3260    Y=              0.8513    Z=              0.2131  Tot=              0.9362
 Quadrupole moment (field-independent basis, Debye-Ang):
   XX=            -63.7921   YY=            -66.2965   ZZ=            -70.5565
   XY=              4.2155   XZ=             -0.0435   YZ=             -3.1879

 Normal termination of Gaussian 16 at Tue Dec  5 23:58:31 2023.
