 Gaussian 16, Revision B.01,
 Gaussian 16:  ES64L-G16RevB.01 20-Dec-2017

 -------------------------
 #P B3LYP/6-311+g(d) force
 -------------------------

 -----
 DPGEN
 -----
 Symbolic Z-matrix:
 Charge =  0 Multiplicity = 2

                         Standard orientation:
 ---------------------------------------------------------------------
 Center     Atomic      Atomic             Coordinates (Angstroms)
 Number     Number       Type             X           Y           Z
 ---------------------------------------------------------------------
      1         11           0        2.844411   -1.717434    0.138135
      2         11           0       -3.337327   -0.885321   -1.178277
      3         11           0        0.863544    1.603326    1.668383
      4         11           0        2.640604    1.212148   -1.255710
      5         11           0        0.096063   -0.220675   -1.527170
      6         11           0       -2.324289    1.704706    0.399859
      7         11           0       -0.783007   -1.696749    1.754781
 ---------------------------------------------------------------------

 SCF Done:  E(UB3LYP) =  -1136.12331393     A.U. after   28 cycles

 The electronic state is 2-A.
 Alpha  occ. eigenvalues --  -38.45034 -38.44455 -38.44363 -38.43936 -38.43831
 Alpha  occ. eigenvalues --  -38.43704 -38.42156  -2.20850  -2.20375  -2.20183
 Alpha  occ. eigenvalues --   -2.19881  -2.19666  -2.19560  -2.18021  -1.14519
 Alpha  occ. eigenvalues --   -1.14476  -1.14464  -1.14149  -1.14025  -1.13963
 Alpha  occ. eigenvalues --   -1.13843  -1.13840  -1.13818  -1.13572  -1.13532
 Alpha  occ. eigenvalues --   -1.13492  -1.13373  -1.13323  -1.13296  -1.13237
 Alpha  occ. eigenvalues --   -1.13217  -1.13171  -1.11702  -1.11680  -1.11661
 Alpha  occ. eigenvalues --   -0.18490  -0.14001  -0.11897  -0.10824
 Alpha virt. eigenvalues --   -0.06219  -0.05316  -0.04690  -0.03441  -0.02823
 Alpha virt. eigenvalues --   -0.02573  -0.02072  -0.00988  -0.00648  -0.00198
 Alpha virt. eigenvalues --    0.00193   0.00314   0.00479   0.00542   0.00739

  Beta  occ. eigenvalues --  -38.44942 -38.44416 -38.44354 -38.43903 -38.43819
  Beta  occ. eigenvalues --  -38.43699 -38.42144  -2.20681  -2.20303  -2.20168
  Beta  occ. eigenvalues --   -2.19824  -2.19645  -2.19553  -2.18001  -1.14405
  Beta  occ. eigenvalues --   -1.14352  -1.14342  -1.14090  -1.13983  -1.13916
  Beta  occ. eigenvalues --   -1.13835  -1.13823  -1.13791  -1.13511  -1.13492
  Beta  occ. eigenvalues --   -1.13453  -1.13359  -1.13302  -1.13284  -1.13228
  Beta  occ. eigenvalues --   -1.13208  -1.13162  -1.11689  -1.11653  -1.11644
  Beta  occ. eigenvalues --   -0.17753  -0.13769  -0.10650
  Beta virt. eigenvalues --   -0.07929  -0.05976  -0.05098  -0.04192  -0.02924
  Beta virt. eigenvalues --   -0.02364  -0.02008  -0.01827  -0.00813  -0.00327
  Beta virt. eigenvalues --   -0.00074   0.00256   0.00365   0.00597   0.00627

 Mulliken charges and spin densities:
               1          2
     1  Na  -0.125983   0.136735
     2  Na   0.564195   0.044114
     3  Na  -0.300871   0.204020
     4  Na   1.074884  -0.184047
     5  Na  -0.865624   0.410997
     6  Na  -0.126309  -0.057708
     7  Na  -0.220292   0.445889
 Sum of Mulliken charges =  -0.00000   1.00000

 Dipole moment (field-independent basis, Debye):
    X=              0.1148    Y=             -0.3622    Z=              0.0639  Tot=              0.3853
 Quadrupole moment (field-independent basis, Debye-Ang):
   XX=            -52.7186   YY=            -72.9524   ZZ=            -69.8980
   XY=              0.5131   XZ=              0.1613   YZ=             -6.9611

 Normal termination of Gaussian 16 at Thu Dec  7 19:51:48 2023.
