 Gaussian 16, Revision B.01,
 Gaussian 16:  ES64L-G16RevB.01 20-Dec-2017

 -------------------------
 #P B3LYP/6-311+g(d) force
 -------------------------

 -----
 DPGEN
 -----
 Symbolic Z-matrix:
 Charge =  0 Multiplicity = 2

                         Standard orientation:
 ---------------------------------------------------------------------
 Center     Atomic      Atomic             Coordinates (Angstroms)
 Number     Number       Type             X           Y           Z
 ---------------------------------------------------------------------
      1         11           0        0.254570   -1.105651   -1.287823
      2         11           0       -2.072137   -1.439274    1.144155
      3         11           0        2.016495    1.978498   -0.562039
      4         11           0        3.530839   -1.338361   -0.547804
      5         11           0       -3.639566   -0.193290   -0.932783
      6         11           0        1.257931    0.061393    2.040906
      7         11           0       -1.348133    2.036685    0.145388
 ---------------------------------------------------------------------

 SCF Done:  E(UB3LYP) =  -1136.12460377     A.U. after   23 cycles

 The electronic state is 2-A.
 Alpha  occ. eigenvalues --  -38.44835 -38.44331 -38.44068 -38.43998 -38.43952
 Alpha  occ. eigenvalues --  -38.43473 -38.42664  -2.20718  -2.20196  -2.19988
 Alpha  occ. eigenvalues --   -2.19881  -2.19768  -2.19343  -2.18533  -1.14466
 Alpha  occ. eigenvalues --   -1.14348  -1.14341  -1.13911  -1.13866  -1.13814
 Alpha  occ. eigenvalues --   -1.13649  -1.13632  -1.13608  -1.13552  -1.13530
 Alpha  occ. eigenvalues --   -1.13489  -1.13435  -1.13425  -1.13404  -1.13031
 Alpha  occ. eigenvalues --   -1.13012  -1.12949  -1.12225  -1.12206  -1.12158
 Alpha  occ. eigenvalues --   -0.18613  -0.14426  -0.11105  -0.11024
 Alpha virt. eigenvalues --   -0.06777  -0.05340  -0.04746  -0.03106  -0.02694
 Alpha virt. eigenvalues --   -0.02330  -0.02309  -0.01031  -0.00865  -0.00189
 Alpha virt. eigenvalues --    0.00128   0.00251   0.00362   0.00649   0.00754

  Beta  occ. eigenvalues --  -38.44815 -38.44310 -38.44032 -38.43948 -38.43921
  Beta  occ. eigenvalues --  -38.43460 -38.42656  -2.20680  -2.20161  -2.19926
  Beta  occ. eigenvalues --   -2.19761  -2.19740  -2.19320  -2.18520  -1.14441
  Beta  occ. eigenvalues --   -1.14318  -1.14312  -1.13870  -1.13836  -1.13792
  Beta  occ. eigenvalues --   -1.13605  -1.13586  -1.13546  -1.13458  -1.13433
  Beta  occ. eigenvalues --   -1.13419  -1.13414  -1.13403  -1.13387  -1.13009
  Beta  occ. eigenvalues --   -1.12996  -1.12930  -1.12219  -1.12179  -1.12146
  Beta  occ. eigenvalues --   -0.17918  -0.14212  -0.10880
  Beta virt. eigenvalues --   -0.07189  -0.06573  -0.05193  -0.04156  -0.02960
  Beta virt. eigenvalues --   -0.02468  -0.01765  -0.01578  -0.00944  -0.00383
  Beta virt. eigenvalues --   -0.00131   0.00176   0.00288   0.00502   0.00703

 Mulliken charges and spin densities:
               1          2
     1  Na  -0.876123   0.240654
     2  Na   0.071889   0.115392
     3  Na   0.094095   0.120077
     4  Na   0.385396  -0.020874
     5  Na   1.029107   0.110117
     6  Na  -0.024060   0.323495
     7  Na  -0.680305   0.111139
 Sum of Mulliken charges =  -0.00000   1.00000

 Dipole moment (field-independent basis, Debye):
    X=             -0.1702    Y=             -0.0862    Z=             -0.0428  Tot=              0.1956
 Quadrupole moment (field-independent basis, Debye-Ang):
   XX=            -49.2034   YY=            -77.2447   ZZ=            -68.8342
   XY=              1.0070   XZ=              2.5494   YZ=             -2.2360

 Normal termination of Gaussian 16 at Tue Dec  5 13:48:33 2023.
