 Gaussian 16, Revision B.01,
 Gaussian 16:  ES64L-G16RevB.01 20-Dec-2017

 -------------------------
 #P B3LYP/6-311+g(d) force
 -------------------------

 -----
 DPGEN
 -----
 Symbolic Z-matrix:
 Charge =  0 Multiplicity = 2

                         Standard orientation:
 ---------------------------------------------------------------------
 Center     Atomic      Atomic             Coordinates (Angstroms)
 Number     Number       Type             X           Y           Z
 ---------------------------------------------------------------------
      1         11           0        1.918832    1.643136   -0.201253
      2         11           0        0.517140   -0.725678    0.599848
      3         11           0        3.575838   -1.317753    0.554318
      4         11           0       -2.771286   -2.120246    0.098083
      5         11           0       -0.474537   -0.883055   -2.483050
      6         11           0       -1.160918    2.482487   -1.157538
      7         11           0       -1.605070    0.921109    2.589592
 ---------------------------------------------------------------------

 SCF Done:  E(UB3LYP) =  -1136.11927348     A.U. after   25 cycles

 The electronic state is 2-A.
 Alpha  occ. eigenvalues --  -38.45537 -38.45213 -38.43626 -38.43479 -38.43356
 Alpha  occ. eigenvalues --  -38.42918 -38.42869  -2.21339  -2.21051  -2.19397
 Alpha  occ. eigenvalues --   -2.19393  -2.19187  -2.18924  -2.18740  -1.15013
 Alpha  occ. eigenvalues --   -1.14954  -1.14933  -1.14735  -1.14681  -1.14638
 Alpha  occ. eigenvalues --   -1.13230  -1.13073  -1.13053  -1.13053  -1.13049
 Alpha  occ. eigenvalues --   -1.12974  -1.12887  -1.12836  -1.12819  -1.12648
 Alpha  occ. eigenvalues --   -1.12574  -1.12490  -1.12407  -1.12399  -1.12383
 Alpha  occ. eigenvalues --   -0.18140  -0.12783  -0.12327  -0.11342
 Alpha virt. eigenvalues --   -0.05500  -0.05246  -0.04381  -0.03547  -0.03011
 Alpha virt. eigenvalues --   -0.02891  -0.01555  -0.01038  -0.00879   0.00008
 Alpha virt. eigenvalues --    0.00246   0.00316   0.00455   0.00777   0.00818

  Beta  occ. eigenvalues --  -38.45431 -38.45126 -38.43635 -38.43476 -38.43359
  Beta  occ. eigenvalues --  -38.42912 -38.42849  -2.21142  -2.20890  -2.19416
  Beta  occ. eigenvalues --   -2.19390  -2.19194  -2.18892  -2.18730  -1.14873
  Beta  occ. eigenvalues --   -1.14824  -1.14796  -1.14627  -1.14571  -1.14521
  Beta  occ. eigenvalues --   -1.13228  -1.13087  -1.13066  -1.13048  -1.13035
  Beta  occ. eigenvalues --   -1.12977  -1.12890  -1.12839  -1.12824  -1.12580
  Beta  occ. eigenvalues --   -1.12553  -1.12479  -1.12397  -1.12390  -1.12369
  Beta  occ. eigenvalues --   -0.17344  -0.12500  -0.11235
  Beta virt. eigenvalues --   -0.08322  -0.05262  -0.04864  -0.03843  -0.02879
  Beta virt. eigenvalues --   -0.02836  -0.02237  -0.01519  -0.00986  -0.00440
  Beta virt. eigenvalues --    0.00243   0.00302   0.00350   0.00601   0.00833

 Mulliken charges and spin densities:
               1          2
     1  Na  -0.267507   0.043238
     2  Na   0.105345   0.034567
     3  Na   0.160085  -0.184807
     4  Na   0.072399  -0.002252
     5  Na  -0.198716   0.571224
     6  Na   0.220583   0.054162
     7  Na  -0.092190   0.483868
 Sum of Mulliken charges =  -0.00000   1.00000

 Dipole moment (field-independent basis, Debye):
    X=             -0.4701    Y=              0.0593    Z=             -0.0182  Tot=              0.4741
 Quadrupole moment (field-independent basis, Debye-Ang):
   XX=            -59.8001   YY=            -72.4185   ZZ=            -61.2370
   XY=             -1.6247   XZ=             -2.1885   YZ=              3.1414

 Normal termination of Gaussian 16 at Thu Dec  7 21:34:39 2023.
