 Gaussian 16, Revision B.01,
 Gaussian 16:  ES64L-G16RevB.01 20-Dec-2017

 -------------------------
 #P B3LYP/6-311+g(d) force
 -------------------------

 -----
 DPGEN
 -----
 Symbolic Z-matrix:
 Charge =  0 Multiplicity = 2

                         Standard orientation:
 ---------------------------------------------------------------------
 Center     Atomic      Atomic             Coordinates (Angstroms)
 Number     Number       Type             X           Y           Z
 ---------------------------------------------------------------------
      1         11           0        3.085705    1.853139   -0.320775
      2         11           0       -3.001858   -1.870513   -0.051064
      3         11           0       -2.772377    1.498227   -0.717426
      4         11           0       -0.364550    3.257608    1.012803
      5         11           0        0.036265   -3.013055    0.717297
      6         11           0        2.993048   -1.967401   -0.267408
      7         11           0        0.023767    0.241995   -0.373428
 ---------------------------------------------------------------------

 SCF Done:  E(UB3LYP) =  -1136.12522322     A.U. after   24 cycles

 The electronic state is 2-A.
 Alpha  occ. eigenvalues --  -38.44542 -38.44429 -38.43806 -38.43742 -38.43511
 Alpha  occ. eigenvalues --  -38.43470 -38.43386  -2.20409  -2.20238  -2.19700
 Alpha  occ. eigenvalues --   -2.19648  -2.19360  -2.19342  -2.19209  -1.14143
 Alpha  occ. eigenvalues --   -1.14074  -1.14018  -1.13920  -1.13908  -1.13870
 Alpha  occ. eigenvalues --   -1.13437  -1.13374  -1.13338  -1.13307  -1.13279
 Alpha  occ. eigenvalues --   -1.13263  -1.13050  -1.13020  -1.13010  -1.12998
 Alpha  occ. eigenvalues --   -1.12992  -1.12943  -1.12867  -1.12843  -1.12834
 Alpha  occ. eigenvalues --   -0.17561  -0.13718  -0.13398  -0.09502
 Alpha virt. eigenvalues --   -0.06723  -0.05688  -0.04251  -0.03392  -0.02710
 Alpha virt. eigenvalues --   -0.02260  -0.01964  -0.01326  -0.00951  -0.00519
 Alpha virt. eigenvalues --    0.00108   0.00201   0.00293   0.00511   0.00799

  Beta  occ. eigenvalues --  -38.44532 -38.44416 -38.43756 -38.43753 -38.43477
  Beta  occ. eigenvalues --  -38.43440 -38.43317  -2.20397  -2.20220  -2.19720
  Beta  occ. eigenvalues --   -2.19559  -2.19297  -2.19289  -2.19080  -1.14143
  Beta  occ. eigenvalues --   -1.14071  -1.13960  -1.13914  -1.13895  -1.13819
  Beta  occ. eigenvalues --   -1.13442  -1.13385  -1.13353  -1.13250  -1.13218
  Beta  occ. eigenvalues --   -1.13205  -1.13007  -1.12980  -1.12973  -1.12961
  Beta  occ. eigenvalues --   -1.12949  -1.12894  -1.12778  -1.12760  -1.12744
  Beta  occ. eigenvalues --   -0.17310  -0.13016  -0.12783
  Beta virt. eigenvalues --   -0.06790  -0.06264  -0.05361  -0.04123  -0.02904
  Beta virt. eigenvalues --   -0.02227  -0.01938  -0.01856  -0.00992  -0.00755
  Beta virt. eigenvalues --   -0.00332   0.00286   0.00318   0.00500   0.00639

 Mulliken charges and spin densities:
               1          2
     1  Na   0.626564   0.386868
     2  Na   0.674998   0.201210
     3  Na   1.874927   0.150954
     4  Na   0.772692   0.204467
     5  Na   0.401378   0.148916
     6  Na   0.383618   0.079559
     7  Na  -4.734177  -0.171974
 Sum of Mulliken charges =  -0.00000   1.00000

 Dipole moment (field-independent basis, Debye):
    X=             -0.3639    Y=              0.1287    Z=              0.2093  Tot=              0.4391
 Quadrupole moment (field-independent basis, Debye-Ang):
   XX=            -63.1064   YY=            -64.4405   ZZ=            -70.0739
   XY=             -1.7377   XZ=              0.8735   YZ=              0.4532

 Normal termination of Gaussian 16 at Wed Nov 29 16:30:56 2023.
