 Gaussian 16, Revision B.01,
 Gaussian 16:  ES64L-G16RevB.01 20-Dec-2017

 -------------------------
 #P B3LYP/6-311+g(d) force
 -------------------------

 -----
 DPGEN
 -----
 Symbolic Z-matrix:
 Charge =  0 Multiplicity = 2

                         Standard orientation:
 ---------------------------------------------------------------------
 Center     Atomic      Atomic             Coordinates (Angstroms)
 Number     Number       Type             X           Y           Z
 ---------------------------------------------------------------------
      1         11           0       -0.561033    0.000639   -1.310629
      2         11           0        1.689767   -0.000845    1.458971
      3         11           0       -3.393403   -0.002181   -0.437029
      4         11           0       -1.142935    0.347135    1.457971
      5         11           0        0.835352    2.198049   -0.146229
      6         11           0        0.300683   -2.197555    0.289771
      7         11           0        2.271570   -0.345241   -1.312829
 ---------------------------------------------------------------------

 SCF Done:  E(UB3LYP) =  -1136.08561129     A.U. after   24 cycles

 The electronic state is 2-A.
 Alpha  occ. eigenvalues --  -38.44749 -38.44305 -38.44258 -38.43835 -38.43797
 Alpha  occ. eigenvalues --  -38.42517 -38.42490  -2.20644  -2.20488  -2.20397
 Alpha  occ. eigenvalues --   -2.20158  -2.19982  -2.18601  -2.18573  -1.14421
 Alpha  occ. eigenvalues --   -1.14360  -1.14341  -1.14301  -1.14232  -1.14201
 Alpha  occ. eigenvalues --   -1.14110  -1.13989  -1.13945  -1.13917  -1.13794
 Alpha  occ. eigenvalues --   -1.13723  -1.13626  -1.13543  -1.13527  -1.12333
 Alpha  occ. eigenvalues --   -1.12293  -1.12259  -1.12224  -1.12164  -1.12151
 Alpha  occ. eigenvalues --   -0.21149  -0.13959  -0.12577  -0.11875
 Alpha virt. eigenvalues --   -0.06069  -0.04111  -0.03538  -0.03415  -0.02880
 Alpha virt. eigenvalues --   -0.02713  -0.01730  -0.00523  -0.00279   0.00285
 Alpha virt. eigenvalues --    0.00558   0.00687   0.00923   0.01007   0.01040

  Beta  occ. eigenvalues --  -38.44741 -38.44258 -38.44193 -38.43774 -38.43737
  Beta  occ. eigenvalues --  -38.42502 -38.42479  -2.20631  -2.20378  -2.20311
  Beta  occ. eigenvalues --   -2.20051  -2.19877  -2.18580  -2.18558  -1.14395
  Beta  occ. eigenvalues --   -1.14326  -1.14294  -1.14225  -1.14199  -1.14117
  Beta  occ. eigenvalues --   -1.14032  -1.13918  -1.13885  -1.13845  -1.13723
  Beta  occ. eigenvalues --   -1.13647  -1.13536  -1.13457  -1.13447  -1.12324
  Beta  occ. eigenvalues --   -1.12289  -1.12205  -1.12181  -1.12147  -1.12125
  Beta  occ. eigenvalues --   -0.20297  -0.13788  -0.11544
  Beta virt. eigenvalues --   -0.08141  -0.05967  -0.03542  -0.03390  -0.03254
  Beta virt. eigenvalues --   -0.01972  -0.01856  -0.01583  -0.00267  -0.00180
  Beta virt. eigenvalues --    0.00317   0.00625   0.00827   0.00910   0.01021

 Mulliken charges and spin densities:
               1          2
     1  Na   0.562501   0.359991
     2  Na   1.062609   0.210712
     3  Na  -0.192568   0.121690
     4  Na   0.010644   0.047491
     5  Na  -1.080755   0.342222
     6  Na  -1.116239   0.062265
     7  Na   0.753807  -0.144371
 Sum of Mulliken charges =  -0.00000   1.00000

 Dipole moment (field-independent basis, Debye):
    X=             -0.5350    Y=             -0.0621    Z=             -0.1742  Tot=              0.5660
 Quadrupole moment (field-independent basis, Debye-Ang):
   XX=            -53.3052   YY=            -74.9018   ZZ=            -65.7261
   XY=              0.1835   XZ=             -0.0966   YZ=             -0.1678

 Normal termination of Gaussian 16 at Sat Dec  9 05:42:06 2023.
