 Gaussian 16, Revision B.01,
 Gaussian 16:  ES64L-G16RevB.01 20-Dec-2017

 -------------------------
 #P B3LYP/6-311+g(d) force
 -------------------------

 -----
 DPGEN
 -----
 Symbolic Z-matrix:
 Charge =  0 Multiplicity = 2

                         Standard orientation:
 ---------------------------------------------------------------------
 Center     Atomic      Atomic             Coordinates (Angstroms)
 Number     Number       Type             X           Y           Z
 ---------------------------------------------------------------------
      1         11           0       -3.026444    0.074965   -0.522345
      2         11           0       -0.798447   -2.874509   -0.178587
      3         11           0        2.860796   -1.668197   -0.101692
      4         11           0        0.399562    0.243114   -2.547143
      5         11           0       -0.833564    2.917183   -0.205080
      6         11           0        2.601242    1.737906    0.970268
      7         11           0       -1.203146   -0.430463    2.584579
 ---------------------------------------------------------------------

 SCF Done:  E(UB3LYP) =  -1136.12519488     A.U. after   20 cycles

 The electronic state is 2-A.
 Alpha  occ. eigenvalues --  -38.45248 -38.45179 -38.44138 -38.44101 -38.43729
 Alpha  occ. eigenvalues --  -38.43620 -38.43386  -2.21026  -2.20957  -2.19933
 Alpha  occ. eigenvalues --   -2.19865  -2.19492  -2.19397  -2.19165  -1.14682
 Alpha  occ. eigenvalues --   -1.14663  -1.14645  -1.14605  -1.14593  -1.14578
 Alpha  occ. eigenvalues --   -1.13614  -1.13603  -1.13568  -1.13540  -1.13513
 Alpha  occ. eigenvalues --   -1.13503  -1.13172  -1.13154  -1.13137  -1.13080
 Alpha  occ. eigenvalues --   -1.13069  -1.13029  -1.12840  -1.12835  -1.12811
 Alpha  occ. eigenvalues --   -0.17137  -0.12512  -0.11850  -0.11606
 Alpha virt. eigenvalues --   -0.05770  -0.05345  -0.05153  -0.03623  -0.03338
 Alpha virt. eigenvalues --   -0.03275  -0.01109  -0.00817  -0.00591  -0.00523
 Alpha virt. eigenvalues --   -0.00407   0.00086   0.00405   0.00491   0.00595

  Beta  occ. eigenvalues --  -38.45167 -38.45101 -38.44138 -38.44075 -38.43732
  Beta  occ. eigenvalues --  -38.43620 -38.43388  -2.20877  -2.20811  -2.19935
  Beta  occ. eigenvalues --   -2.19817  -2.19499  -2.19400  -2.19171  -1.14583
  Beta  occ. eigenvalues --   -1.14559  -1.14537  -1.14505  -1.14493  -1.14477
  Beta  occ. eigenvalues --   -1.13607  -1.13600  -1.13565  -1.13502  -1.13483
  Beta  occ. eigenvalues --   -1.13471  -1.13169  -1.13160  -1.13139  -1.13073
  Beta  occ. eigenvalues --   -1.13068  -1.13030  -1.12842  -1.12831  -1.12813
  Beta  occ. eigenvalues --   -0.16398  -0.12308  -0.11710
  Beta virt. eigenvalues --   -0.07916  -0.05456  -0.05117  -0.04740  -0.03265
  Beta virt. eigenvalues --   -0.02672  -0.02549  -0.01049  -0.00745  -0.00529
  Beta virt. eigenvalues --   -0.00407  -0.00179   0.00301   0.00538   0.00648

 Mulliken charges and spin densities:
               1          2
     1  Na   0.281816  -0.006562
     2  Na  -0.061861  -0.018158
     3  Na   0.017403  -0.036642
     4  Na   0.036764   0.440250
     5  Na  -0.115057   0.015681
     6  Na  -0.102391   0.162002
     7  Na  -0.056673   0.443429
 Sum of Mulliken charges =  -0.00000   1.00000

 Dipole moment (field-independent basis, Debye):
    X=             -0.3041    Y=             -0.0711    Z=              0.0820  Tot=              0.3229
 Quadrupole moment (field-independent basis, Debye-Ang):
   XX=            -65.2469   YY=            -69.7662   ZZ=            -64.0184
   XY=             -0.0357   XZ=              1.1628   YZ=              1.5368

 Normal termination of Gaussian 16 at Sun Dec  3 11:59:00 2023.
