 Gaussian 16, Revision B.01,
 Gaussian 16:  ES64L-G16RevB.01 20-Dec-2017

 -------------------------
 #P B3LYP/6-311+g(d) force
 -------------------------

 -----
 DPGEN
 -----
 Symbolic Z-matrix:
 Charge =  0 Multiplicity = 2

                         Standard orientation:
 ---------------------------------------------------------------------
 Center     Atomic      Atomic             Coordinates (Angstroms)
 Number     Number       Type             X           Y           Z
 ---------------------------------------------------------------------
      1         11           0       -2.329519   -0.305166    1.806578
      2         11           0       -3.987377   -1.090205   -1.005197
      3         11           0        1.966006    0.866818   -1.844622
      4         11           0        1.697742    1.317602    1.843841
      5         11           0       -0.919498    2.589078   -0.624999
      6         11           0        3.328187   -1.878440    0.053433
      7         11           0        0.244460   -1.499687   -0.229034
 ---------------------------------------------------------------------

 SCF Done:  E(UB3LYP) =  -1136.12318368     A.U. after   21 cycles

 The electronic state is 2-A.
 Alpha  occ. eigenvalues --  -38.44767 -38.44366 -38.44290 -38.43968 -38.43928
 Alpha  occ. eigenvalues --  -38.43544 -38.43212  -2.20533  -2.20179  -2.20095
 Alpha  occ. eigenvalues --   -2.19853  -2.19794  -2.19380  -2.18996  -1.14201
 Alpha  occ. eigenvalues --   -1.14191  -1.14163  -1.13876  -1.13832  -1.13789
 Alpha  occ. eigenvalues --   -1.13763  -1.13746  -1.13710  -1.13579  -1.13535
 Alpha  occ. eigenvalues --   -1.13502  -1.13473  -1.13434  -1.13378  -1.13050
 Alpha  occ. eigenvalues --   -1.13027  -1.13015  -1.12675  -1.12654  -1.12633
 Alpha  occ. eigenvalues --   -0.17675  -0.13590  -0.11315  -0.10817
 Alpha virt. eigenvalues --   -0.06486  -0.05203  -0.05045  -0.03141  -0.02822
 Alpha virt. eigenvalues --   -0.02435  -0.02205  -0.01357  -0.00858  -0.00366
 Alpha virt. eigenvalues --    0.00128   0.00204   0.00276   0.00469   0.00580

  Beta  occ. eigenvalues --  -38.44752 -38.44344 -38.44232 -38.43956 -38.43872
  Beta  occ. eigenvalues --  -38.43543 -38.43203  -2.20504  -2.20140  -2.19988
  Beta  occ. eigenvalues --   -2.19836  -2.19691  -2.19381  -2.18983  -1.14181
  Beta  occ. eigenvalues --   -1.14171  -1.14145  -1.13849  -1.13809  -1.13748
  Beta  occ. eigenvalues --   -1.13686  -1.13669  -1.13636  -1.13541  -1.13504
  Beta  occ. eigenvalues --   -1.13491  -1.13407  -1.13370  -1.13302  -1.13052
  Beta  occ. eigenvalues --   -1.13020  -1.13011  -1.12661  -1.12633  -1.12627
  Beta  occ. eigenvalues --   -0.17003  -0.13411  -0.11119
  Beta virt. eigenvalues --   -0.07190  -0.06101  -0.05114  -0.04570  -0.02998
  Beta virt. eigenvalues --   -0.02268  -0.02065  -0.01738  -0.01089  -0.00526
  Beta virt. eigenvalues --   -0.00235   0.00196   0.00331   0.00404   0.00539

 Mulliken charges and spin densities:
               1          2
     1  Na   0.414384  -0.008909
     2  Na   0.207393   0.008083
     3  Na   0.071549   0.078513
     4  Na  -0.093638   0.380816
     5  Na  -0.149202   0.175426
     6  Na   0.803190  -0.035212
     7  Na  -1.253676   0.401283
 Sum of Mulliken charges =  -0.00000   1.00000

 Dipole moment (field-independent basis, Debye):
    X=             -0.3029    Y=              0.0470    Z=              0.0042  Tot=              0.3065
 Quadrupole moment (field-independent basis, Debye-Ang):
   XX=            -52.2735   YY=            -75.1986   ZZ=            -66.9829
   XY=             -0.3394   XZ=              3.4559   YZ=              1.0009

 Normal termination of Gaussian 16 at Fri Dec  8 06:54:11 2023.
