 Gaussian 16, Revision B.01,
 Gaussian 16:  ES64L-G16RevB.01 20-Dec-2017

 -------------------------
 #P B3LYP/6-311+g(d) force
 -------------------------

 -----
 DPGEN
 -----
 Symbolic Z-matrix:
 Charge =  0 Multiplicity = 2

                         Standard orientation:
 ---------------------------------------------------------------------
 Center     Atomic      Atomic             Coordinates (Angstroms)
 Number     Number       Type             X           Y           Z
 ---------------------------------------------------------------------
      1         11           0        2.149718   -1.861781   -0.386440
      2         11           0        0.046789   -0.230376    1.994420
      3         11           0       -0.403912    0.279957   -1.612329
      4         11           0       -1.372638   -2.624918   -0.112005
      5         11           0        2.832314    0.931288    0.090896
      6         11           0       -0.145246    2.963793   -0.083027
      7         11           0       -3.107024    0.542037    0.108486
 ---------------------------------------------------------------------

 SCF Done:  E(UB3LYP) =  -1136.13614392     A.U. after   19 cycles

 The electronic state is 2-A.
 Alpha  occ. eigenvalues --  -38.44333 -38.43799 -38.43514 -38.43464 -38.43451
 Alpha  occ. eigenvalues --  -38.43431 -38.43062  -2.20164  -2.19691  -2.19418
 Alpha  occ. eigenvalues --   -2.19360  -2.19314  -2.19281  -2.19066  -1.13859
 Alpha  occ. eigenvalues --   -1.13825  -1.13787  -1.13486  -1.13340  -1.13319
 Alpha  occ. eigenvalues --   -1.13076  -1.13063  -1.13045  -1.13032  -1.13020
 Alpha  occ. eigenvalues --   -1.13003  -1.12992  -1.12977  -1.12955  -1.12942
 Alpha  occ. eigenvalues --   -1.12932  -1.12901  -1.12735  -1.12692  -1.12681
 Alpha  occ. eigenvalues --   -0.18896  -0.13228  -0.12475  -0.10719
 Alpha virt. eigenvalues --   -0.05796  -0.04957  -0.04697  -0.03278  -0.02847
 Alpha virt. eigenvalues --   -0.02467  -0.01547  -0.01091  -0.00313  -0.00228
 Alpha virt. eigenvalues --    0.00003   0.00369   0.00826   0.00896   0.00930

  Beta  occ. eigenvalues --  -38.44329 -38.43795 -38.43504 -38.43458 -38.43427
  Beta  occ. eigenvalues --  -38.43358 -38.43000  -2.20161  -2.19687  -2.19403
  Beta  occ. eigenvalues --   -2.19308  -2.19277  -2.19189  -2.18952  -1.13850
  Beta  occ. eigenvalues --   -1.13807  -1.13789  -1.13485  -1.13324  -1.13305
  Beta  occ. eigenvalues --   -1.13063  -1.13038  -1.13021  -1.13008  -1.12992
  Beta  occ. eigenvalues --   -1.12960  -1.12941  -1.12921  -1.12907  -1.12902
  Beta  occ. eigenvalues --   -1.12857  -1.12850  -1.12658  -1.12610  -1.12602
  Beta  occ. eigenvalues --   -0.18160  -0.12994  -0.12230
  Beta virt. eigenvalues --   -0.06796  -0.05772  -0.04945  -0.04657  -0.02467
  Beta virt. eigenvalues --   -0.02077  -0.01463  -0.01403  -0.01025  -0.00361
  Beta virt. eigenvalues --   -0.00272   0.00143   0.00394   0.00846   0.00920

 Mulliken charges and spin densities:
               1          2
     1  Na   0.128264   0.011650
     2  Na  -0.503088   0.748220
     3  Na  -0.286703   0.465648
     4  Na   0.162853  -0.053553
     5  Na   0.186698   0.013895
     6  Na   0.164940  -0.087820
     7  Na   0.147035  -0.098040
 Sum of Mulliken charges =  -0.00000   1.00000

 Dipole moment (field-independent basis, Debye):
    X=             -0.4486    Y=              0.0844    Z=              0.1896  Tot=              0.4943
 Quadrupole moment (field-independent basis, Debye-Ang):
   XX=            -56.6800   YY=            -62.3328   ZZ=            -74.5471
   XY=              0.3075   XZ=             -0.9070   YZ=              1.3299

 Normal termination of Gaussian 16 at Thu Dec  7 21:07:07 2023.
