 Gaussian 16, Revision B.01,
 Gaussian 16:  ES64L-G16RevB.01 20-Dec-2017

 -------------------------
 #P B3LYP/6-311+g(d) force
 -------------------------

 -----
 DPGEN
 -----
 Symbolic Z-matrix:
 Charge =  0 Multiplicity = 2

                         Standard orientation:
 ---------------------------------------------------------------------
 Center     Atomic      Atomic             Coordinates (Angstroms)
 Number     Number       Type             X           Y           Z
 ---------------------------------------------------------------------
      1         11           0        3.103645   -1.382885   -0.138586
      2         11           0       -2.870451   -2.042278   -0.953516
      3         11           0       -0.795012    3.325150   -0.185051
      4         11           0       -2.651333    1.099134    1.088562
      5         11           0        0.525979   -2.656280    1.067449
      6         11           0        2.746573    1.954050   -0.064696
      7         11           0       -0.059400   -0.296892   -0.814163
 ---------------------------------------------------------------------

 SCF Done:  E(UB3LYP) =  -1136.12541225     A.U. after   20 cycles

 The electronic state is 2-A.
 Alpha  occ. eigenvalues --  -38.44198 -38.43938 -38.43857 -38.43731 -38.43730
 Alpha  occ. eigenvalues --  -38.43645 -38.43589  -2.20044  -2.19822  -2.19752
 Alpha  occ. eigenvalues --   -2.19698  -2.19556  -2.19467  -2.19426  -1.13730
 Alpha  occ. eigenvalues --   -1.13711  -1.13667  -1.13586  -1.13502  -1.13491
 Alpha  occ. eigenvalues --   -1.13475  -1.13397  -1.13385  -1.13331  -1.13320
 Alpha  occ. eigenvalues --   -1.13299  -1.13225  -1.13219  -1.13191  -1.13128
 Alpha  occ. eigenvalues --   -1.13110  -1.13097  -1.13085  -1.13064  -1.13037
 Alpha  occ. eigenvalues --   -0.17743  -0.13787  -0.13069  -0.09767
 Alpha virt. eigenvalues --   -0.06087  -0.05558  -0.05225  -0.02996  -0.02690
 Alpha virt. eigenvalues --   -0.02109  -0.01501  -0.01423  -0.01230  -0.00722
 Alpha virt. eigenvalues --    0.00024   0.00249   0.00582   0.00656   0.00718

  Beta  occ. eigenvalues --  -38.44165 -38.43927 -38.43809 -38.43729 -38.43720
  Beta  occ. eigenvalues --  -38.43603 -38.43528  -2.19987  -2.19808  -2.19696
  Beta  occ. eigenvalues --   -2.19665  -2.19541  -2.19390  -2.19312  -1.13693
  Beta  occ. eigenvalues --   -1.13674  -1.13608  -1.13558  -1.13486  -1.13471
  Beta  occ. eigenvalues --   -1.13441  -1.13381  -1.13332  -1.13315  -1.13290
  Beta  occ. eigenvalues --   -1.13250  -1.13219  -1.13204  -1.13160  -1.13073
  Beta  occ. eigenvalues --   -1.13057  -1.13049  -1.13004  -1.12988  -1.12967
  Beta  occ. eigenvalues --   -0.17423  -0.13159  -0.12522
  Beta virt. eigenvalues --   -0.06526  -0.05997  -0.05348  -0.04875  -0.02577
  Beta virt. eigenvalues --   -0.02256  -0.01833  -0.01382  -0.01130  -0.00935
  Beta virt. eigenvalues --   -0.00467   0.00244   0.00396   0.00690   0.00706

 Mulliken charges and spin densities:
               1          2
     1  Na   0.519255   0.101759
     2  Na   0.566411   0.190716
     3  Na   0.186428   0.063552
     4  Na  -0.065561   0.128055
     5  Na  -0.146164   0.152320
     6  Na   0.216262   0.246430
     7  Na  -1.276632   0.117168
 Sum of Mulliken charges =  -0.00000   1.00000

 Dipole moment (field-independent basis, Debye):
    X=             -0.0582    Y=             -0.1591    Z=              0.4124  Tot=              0.4458
 Quadrupole moment (field-independent basis, Debye-Ang):
   XX=            -61.1422   YY=            -66.0680   ZZ=            -70.6783
   XY=              1.4887   XZ=             -1.7327   YZ=             -1.2103

 Normal termination of Gaussian 16 at Wed Nov 29 15:40:17 2023.
