 Gaussian 16, Revision B.01,
 Gaussian 16:  ES64L-G16RevB.01 20-Dec-2017

 -------------------------
 #P B3LYP/6-311+g(d) force
 -------------------------

 -----
 DPGEN
 -----
 Symbolic Z-matrix:
 Charge =  0 Multiplicity = 2

                         Standard orientation:
 ---------------------------------------------------------------------
 Center     Atomic      Atomic             Coordinates (Angstroms)
 Number     Number       Type             X           Y           Z
 ---------------------------------------------------------------------
      1         11           0        0.748873    1.937092   -0.318747
      2         11           0       -0.128042   -1.351938    0.396332
      3         11           0        6.321205   -0.373664   -0.620799
      4         11           0        3.603737   -0.544345    0.728123
      5         11           0       -2.216403    3.030168    0.324902
      6         11           0       -3.473017   -2.662463   -0.120020
      7         11           0       -4.856352   -0.034849   -0.389792
 ---------------------------------------------------------------------

 SCF Done:  E(UB3LYP) =  -1136.11429546     A.U. after   21 cycles

 The electronic state is 2-A.
 Alpha  occ. eigenvalues --  -38.45157 -38.44921 -38.44394 -38.44133 -38.43988
 Alpha  occ. eigenvalues --  -38.43874 -38.43786  -2.20965  -2.20731  -2.20215
 Alpha  occ. eigenvalues --   -2.19927  -2.19804  -2.19706  -2.19607  -1.14641
 Alpha  occ. eigenvalues --   -1.14609  -1.14567  -1.14422  -1.14386  -1.14359
 Alpha  occ. eigenvalues --   -1.13896  -1.13845  -1.13845  -1.13602  -1.13587
 Alpha  occ. eigenvalues --   -1.13569  -1.13487  -1.13472  -1.13414  -1.13380
 Alpha  occ. eigenvalues --   -1.13354  -1.13350  -1.13286  -1.13281  -1.13248
 Alpha  occ. eigenvalues --   -0.16428  -0.14145  -0.12346  -0.11641
 Alpha virt. eigenvalues --   -0.06405  -0.05820  -0.04449  -0.03743  -0.02823
 Alpha virt. eigenvalues --   -0.02499  -0.02213  -0.01670  -0.00980  -0.00807
 Alpha virt. eigenvalues --   -0.00509  -0.00279  -0.00014   0.00142   0.00727

  Beta  occ. eigenvalues --  -38.45073 -38.44891 -38.44330 -38.44095 -38.43996
  Beta  occ. eigenvalues --  -38.43873 -38.43790  -2.20811  -2.20674  -2.20097
  Beta  occ. eigenvalues --   -2.19855  -2.19819  -2.19705  -2.19622  -1.14538
  Beta  occ. eigenvalues --   -1.14507  -1.14454  -1.14386  -1.14347  -1.14317
  Beta  occ. eigenvalues --   -1.13819  -1.13764  -1.13764  -1.13572  -1.13539
  Beta  occ. eigenvalues --   -1.13518  -1.13495  -1.13473  -1.13411  -1.13377
  Beta  occ. eigenvalues --   -1.13356  -1.13339  -1.13299  -1.13295  -1.13213
  Beta  occ. eigenvalues --   -0.15751  -0.13689  -0.11996
  Beta virt. eigenvalues --   -0.08400  -0.05672  -0.05338  -0.04226  -0.03496
  Beta virt. eigenvalues --   -0.02619  -0.02202  -0.01902  -0.01557  -0.00846
  Beta virt. eigenvalues --   -0.00396  -0.00279  -0.00096   0.00184   0.00225

 Mulliken charges and spin densities:
               1          2
     1  Na  -0.622637  -0.162176
     2  Na  -1.766224   0.532257
     3  Na   0.678357   0.293659
     4  Na   0.069184  -0.062527
     5  Na   0.694313   0.308297
     6  Na   1.379069  -0.084992
     7  Na  -0.432061   0.175482
 Sum of Mulliken charges =  -0.00000   1.00000

 Dipole moment (field-independent basis, Debye):
    X=             -0.3846    Y=              0.0104    Z=             -0.2666  Tot=              0.4681
 Quadrupole moment (field-independent basis, Debye-Ang):
   XX=            -58.3245   YY=            -68.3266   ZZ=            -71.6170
   XY=             -0.7296   XZ=             -3.3023   YZ=             -0.6467

 Normal termination of Gaussian 16 at Sun Dec  3 16:22:57 2023.
