 Gaussian 16, Revision B.01,
 Gaussian 16:  ES64L-G16RevB.01 20-Dec-2017

 -------------------------
 #P B3LYP/6-311+g(d) force
 -------------------------

 -----
 DPGEN
 -----
 Symbolic Z-matrix:
 Charge =  0 Multiplicity = 2

                         Standard orientation:
 ---------------------------------------------------------------------
 Center     Atomic      Atomic             Coordinates (Angstroms)
 Number     Number       Type             X           Y           Z
 ---------------------------------------------------------------------
      1         11           0        1.163164    2.640759   -0.160354
      2         11           0        1.699865   -2.606843   -0.381276
      3         11           0       -2.969482   -1.599177    0.449409
      4         11           0       -2.702929    1.581586   -0.446439
      5         11           0       -0.091223    0.130935    2.082900
      6         11           0       -0.556857   -0.350476   -1.617114
      7         11           0        3.457462    0.203216    0.072874
 ---------------------------------------------------------------------

 SCF Done:  E(UB3LYP) =  -1136.12900452     A.U. after   21 cycles

 The electronic state is 2-A.
 Alpha  occ. eigenvalues --  -38.44790 -38.44558 -38.44266 -38.44066 -38.43576
 Alpha  occ. eigenvalues --  -38.43170 -38.42927  -2.20596  -2.20384  -2.20130
 Alpha  occ. eigenvalues --   -2.19909  -2.19511  -2.18986  -2.18752  -1.14274
 Alpha  occ. eigenvalues --   -1.14249  -1.14244  -1.14054  -1.14042  -1.14034
 Alpha  occ. eigenvalues --   -1.13844  -1.13774  -1.13746  -1.13581  -1.13543
 Alpha  occ. eigenvalues --   -1.13520  -1.13190  -1.13155  -1.13137  -1.12662
 Alpha  occ. eigenvalues --   -1.12643  -1.12630  -1.12432  -1.12421  -1.12393
 Alpha  occ. eigenvalues --   -0.18234  -0.13697  -0.11641  -0.10734
 Alpha virt. eigenvalues --   -0.06473  -0.05582  -0.04166  -0.03486  -0.02599
 Alpha virt. eigenvalues --   -0.02519  -0.02080  -0.01325  -0.00613  -0.00270
 Alpha virt. eigenvalues --   -0.00095   0.00288   0.00617   0.00680   0.00784

  Beta  occ. eigenvalues --  -38.44793 -38.44544 -38.44249 -38.43974 -38.43518
  Beta  occ. eigenvalues --  -38.43167 -38.42927  -2.20603  -2.20362  -2.20102
  Beta  occ. eigenvalues --   -2.19739  -2.19406  -2.18982  -2.18755  -1.14275
  Beta  occ. eigenvalues --   -1.14254  -1.14246  -1.14044  -1.14026  -1.13997
  Beta  occ. eigenvalues --   -1.13814  -1.13738  -1.13731  -1.13467  -1.13427
  Beta  occ. eigenvalues --   -1.13392  -1.13118  -1.13071  -1.13063  -1.12653
  Beta  occ. eigenvalues --   -1.12638  -1.12625  -1.12435  -1.12413  -1.12389
  Beta  occ. eigenvalues --   -0.17525  -0.13527  -0.11415
  Beta virt. eigenvalues --   -0.06846  -0.06339  -0.05534  -0.04060  -0.02834
  Beta virt. eigenvalues --   -0.01989  -0.01856  -0.01561  -0.01215  -0.00602
  Beta virt. eigenvalues --   -0.00307   0.00075   0.00330   0.00714   0.00794

 Mulliken charges and spin densities:
               1          2
     1  Na  -0.099406  -0.046957
     2  Na   0.074278  -0.028078
     3  Na   0.030196   0.098603
     4  Na   0.336555   0.055631
     5  Na  -0.303949   0.648184
     6  Na  -0.018313   0.311958
     7  Na  -0.019360  -0.039341
 Sum of Mulliken charges =  -0.00000   1.00000

 Dipole moment (field-independent basis, Debye):
    X=             -0.4013    Y=             -0.0361    Z=              0.2559  Tot=              0.4773
 Quadrupole moment (field-independent basis, Debye-Ang):
   XX=            -50.7965   YY=            -68.4591   ZZ=            -74.8066
   XY=              1.1256   XZ=             -0.2303   YZ=             -1.6106

 Normal termination of Gaussian 16 at Thu Dec  7 07:15:34 2023.
