 Gaussian 16, Revision B.01,
 Gaussian 16:  ES64L-G16RevB.01 20-Dec-2017

 -------------------------
 #P B3LYP/6-311+g(d) force
 -------------------------

 -----
 DPGEN
 -----
 Symbolic Z-matrix:
 Charge =  0 Multiplicity = 2

                         Standard orientation:
 ---------------------------------------------------------------------
 Center     Atomic      Atomic             Coordinates (Angstroms)
 Number     Number       Type             X           Y           Z
 ---------------------------------------------------------------------
      1         11           0       -0.478565   -2.726998   -0.857685
      2         11           0       -2.887417    2.349406   -0.497253
      3         11           0       -0.040656   -0.362541    1.940566
      4         11           0        2.802222    2.101947    0.193629
      5         11           0        0.387173    0.363947   -1.290565
      6         11           0        3.211928   -0.924048   -0.044960
      7         11           0       -2.994684   -0.801712    0.556269
 ---------------------------------------------------------------------

 SCF Done:  E(UB3LYP) =  -1136.12307913     A.U. after   22 cycles

 The electronic state is 2-A.
 Alpha  occ. eigenvalues --  -38.45160 -38.44405 -38.44239 -38.43876 -38.43547
 Alpha  occ. eigenvalues --  -38.43518 -38.42810  -2.21016  -2.20254  -2.20103
 Alpha  occ. eigenvalues --   -2.19763  -2.19511  -2.19299  -2.18670  -1.14705
 Alpha  occ. eigenvalues --   -1.14679  -1.14652  -1.13920  -1.13914  -1.13891
 Alpha  occ. eigenvalues --   -1.13805  -1.13761  -1.13733  -1.13459  -1.13386
 Alpha  occ. eigenvalues --   -1.13366  -1.13216  -1.13165  -1.13122  -1.12967
 Alpha  occ. eigenvalues --   -1.12960  -1.12941  -1.12357  -1.12316  -1.12301
 Alpha  occ. eigenvalues --   -0.18379  -0.14044  -0.11488  -0.10459
 Alpha virt. eigenvalues --   -0.06412  -0.05956  -0.04340  -0.03423  -0.02401
 Alpha virt. eigenvalues --   -0.02299  -0.02105  -0.01400  -0.00820  -0.00281
 Alpha virt. eigenvalues --   -0.00045   0.00255   0.00590   0.00662   0.00738

  Beta  occ. eigenvalues --  -38.45155 -38.44402 -38.44230 -38.43791 -38.43514
  Beta  occ. eigenvalues --  -38.43495 -38.42790  -2.21009  -2.20252  -2.20089
  Beta  occ. eigenvalues --   -2.19605  -2.19420  -2.19291  -2.18636  -1.14705
  Beta  occ. eigenvalues --   -1.14654  -1.14645  -1.13917  -1.13914  -1.13877
  Beta  occ. eigenvalues --   -1.13778  -1.13745  -1.13726  -1.13353  -1.13273
  Beta  occ. eigenvalues --   -1.13257  -1.13141  -1.13092  -1.13056  -1.12964
  Beta  occ. eigenvalues --   -1.12948  -1.12935  -1.12328  -1.12293  -1.12265
  Beta  occ. eigenvalues --   -0.17706  -0.13845  -0.11248
  Beta virt. eigenvalues --   -0.06658  -0.06304  -0.05874  -0.04047  -0.02838
  Beta virt. eigenvalues --   -0.02196  -0.01803  -0.01421  -0.01096  -0.00803
  Beta virt. eigenvalues --   -0.00236   0.00111   0.00286   0.00675   0.00688

 Mulliken charges and spin densities:
               1          2
     1  Na  -0.236946   0.010812
     2  Na  -0.199411  -0.009057
     3  Na  -0.231279   0.466974
     4  Na  -0.073380   0.040644
     5  Na  -0.277568   0.341524
     6  Na   0.503191   0.023873
     7  Na   0.515393   0.125229
 Sum of Mulliken charges =  -0.00000   1.00000

 Dipole moment (field-independent basis, Debye):
    X=              1.2183    Y=             -0.2117    Z=              0.2622  Tot=              1.2640
 Quadrupole moment (field-independent basis, Debye-Ang):
   XX=            -52.6696   YY=            -65.1126   ZZ=            -76.1889
   XY=              1.9162   XZ=              0.4355   YZ=              0.7161

 Normal termination of Gaussian 16 at Tue Dec  5 11:42:06 2023.
