 Gaussian 16, Revision B.01,
 Gaussian 16:  ES64L-G16RevB.01 20-Dec-2017

 -------------------------
 #P B3LYP/6-311+g(d) force
 -------------------------

 -----
 DPGEN
 -----
 Symbolic Z-matrix:
 Charge =  0 Multiplicity = 2

                         Standard orientation:
 ---------------------------------------------------------------------
 Center     Atomic      Atomic             Coordinates (Angstroms)
 Number     Number       Type             X           Y           Z
 ---------------------------------------------------------------------
      1         11           0       -2.954397   -1.717460   -0.140806
      2         11           0        0.791748   -2.718481    0.063279
      3         11           0        1.704190    2.455801   -0.520706
      4         11           0        3.581366   -0.377180    0.034832
      5         11           0       -0.188863    0.455114    2.069599
      6         11           0       -2.598218    2.223873   -0.080265
      7         11           0       -0.335826   -0.321667   -1.425932
 ---------------------------------------------------------------------

 SCF Done:  E(UB3LYP) =  -1136.12877718     A.U. after   20 cycles

 The electronic state is 2-A.
 Alpha  occ. eigenvalues --  -38.44689 -38.44611 -38.44327 -38.43724 -38.43399
 Alpha  occ. eigenvalues --  -38.43385 -38.43280  -2.20466  -2.20408  -2.20097
 Alpha  occ. eigenvalues --   -2.19532  -2.19255  -2.19250  -2.19230  -1.14137
 Alpha  occ. eigenvalues --   -1.14127  -1.14108  -1.14098  -1.14063  -1.14034
 Alpha  occ. eigenvalues --   -1.13774  -1.13751  -1.13743  -1.13215  -1.13197
 Alpha  occ. eigenvalues --   -1.13157  -1.13069  -1.12945  -1.12903  -1.12885
 Alpha  occ. eigenvalues --   -1.12879  -1.12875  -1.12859  -1.12840  -1.12817
 Alpha  occ. eigenvalues --   -0.18028  -0.13112  -0.12085  -0.10198
 Alpha virt. eigenvalues --   -0.06264  -0.05913  -0.04362  -0.03026  -0.02705
 Alpha virt. eigenvalues --   -0.02184  -0.02082  -0.01619  -0.00795  -0.00406
 Alpha virt. eigenvalues --   -0.00060   0.00246   0.00646   0.00728   0.00825

  Beta  occ. eigenvalues --  -38.44691 -38.44605 -38.44327 -38.43709 -38.43379
  Beta  occ. eigenvalues --  -38.43298 -38.43237  -2.20471  -2.20399  -2.20099
  Beta  occ. eigenvalues --   -2.19506  -2.19225  -2.19170  -2.19066  -1.14137
  Beta  occ. eigenvalues --   -1.14123  -1.14112  -1.14083  -1.14048  -1.14032
  Beta  occ. eigenvalues --   -1.13758  -1.13754  -1.13744  -1.13194  -1.13169
  Beta  occ. eigenvalues --   -1.13140  -1.13040  -1.12880  -1.12852  -1.12843
  Beta  occ. eigenvalues --   -1.12807  -1.12790  -1.12782  -1.12750  -1.12727
  Beta  occ. eigenvalues --   -0.17357  -0.12912  -0.11865
  Beta virt. eigenvalues --   -0.06381  -0.06185  -0.05854  -0.04305  -0.02378
  Beta virt. eigenvalues --   -0.02010  -0.01945  -0.01570  -0.01173  -0.00810
  Beta virt. eigenvalues --   -0.00412   0.00116   0.00302   0.00710   0.00741

 Mulliken charges and spin densities:
               1          2
     1  Na   0.240738  -0.028221
     2  Na   0.147349   0.001338
     3  Na   0.118040   0.038098
     4  Na   0.033161  -0.005373
     5  Na  -0.441314   0.755992
     6  Na   0.082459  -0.079092
     7  Na  -0.180432   0.317257
 Sum of Mulliken charges =  -0.00000   1.00000

 Dipole moment (field-independent basis, Debye):
    X=             -0.2830    Y=             -0.0457    Z=              0.1405  Tot=              0.3193
 Quadrupole moment (field-independent basis, Debye-Ang):
   XX=            -49.7953   YY=            -64.1940   ZZ=            -77.3811
   XY=             -0.7123   XZ=              0.1636   YZ=             -1.8267

 Normal termination of Gaussian 16 at Thu Dec  7 19:38:38 2023.
