 Gaussian 16, Revision B.01,
 Gaussian 16:  ES64L-G16RevB.01 20-Dec-2017

 -------------------------
 #P B3LYP/6-311+g(d) force
 -------------------------

 -----
 DPGEN
 -----
 Symbolic Z-matrix:
 Charge =  0 Multiplicity = 2

                         Standard orientation:
 ---------------------------------------------------------------------
 Center     Atomic      Atomic             Coordinates (Angstroms)
 Number     Number       Type             X           Y           Z
 ---------------------------------------------------------------------
      1         11           0       -0.686329    2.325816   -0.739867
      2         11           0        1.814158    1.834329   -0.344950
      3         11           0        4.063520   -0.920949   -0.160841
      4         11           0       -3.826668   -0.881061   -0.112134
      5         11           0       -0.869979   -1.644937   -1.714579
      6         11           0        0.982568   -1.563260    1.377960
      7         11           0       -1.477270    0.850063    1.694412
 ---------------------------------------------------------------------

 SCF Done:  E(UB3LYP) =  -1136.10953886     A.U. after   23 cycles

 The electronic state is 2-A.
 Alpha  occ. eigenvalues --  -38.45170 -38.44930 -38.44604 -38.44135 -38.43815
 Alpha  occ. eigenvalues --  -38.43697 -38.43293  -2.20948  -2.20699  -2.20407
 Alpha  occ. eigenvalues --   -2.19969  -2.19757  -2.19627  -2.19274  -1.14623
 Alpha  occ. eigenvalues --   -1.14611  -1.14590  -1.14370  -1.14366  -1.14333
 Alpha  occ. eigenvalues --   -1.14073  -1.14060  -1.14019  -1.13816  -1.13654
 Alpha  occ. eigenvalues --   -1.13638  -1.13574  -1.13384  -1.13355  -1.13335
 Alpha  occ. eigenvalues --   -1.13285  -1.13226  -1.12868  -1.12846  -1.12790
 Alpha  occ. eigenvalues --   -0.18145  -0.13511  -0.12003  -0.10932
 Alpha virt. eigenvalues --   -0.07358  -0.04913  -0.03990  -0.03483  -0.03396
 Alpha virt. eigenvalues --   -0.02613  -0.02341  -0.01243  -0.00561  -0.00099
 Alpha virt. eigenvalues --   -0.00056   0.00099   0.00247   0.00761   0.00783

  Beta  occ. eigenvalues --  -38.45174 -38.44936 -38.44545 -38.44088 -38.43800
  Beta  occ. eigenvalues --  -38.43630 -38.43281  -2.20958  -2.20710  -2.20297
  Beta  occ. eigenvalues --   -2.19885  -2.19732  -2.19505  -2.19255  -1.14623
  Beta  occ. eigenvalues --   -1.14611  -1.14595  -1.14377  -1.14369  -1.14341
  Beta  occ. eigenvalues --   -1.13996  -1.13979  -1.13944  -1.13801  -1.13600
  Beta  occ. eigenvalues --   -1.13567  -1.13508  -1.13341  -1.13336  -1.13270
  Beta  occ. eigenvalues --   -1.13192  -1.13151  -1.12842  -1.12816  -1.12781
  Beta  occ. eigenvalues --   -0.17456  -0.13393  -0.11742
  Beta virt. eigenvalues --   -0.07188  -0.07099  -0.04802  -0.03662  -0.03096
  Beta virt. eigenvalues --   -0.02823  -0.02336  -0.01566  -0.01056  -0.00304
  Beta virt. eigenvalues --   -0.00101  -0.00001   0.00160   0.00417   0.00831

 Mulliken charges and spin densities:
               1          2
     1  Na   0.045786   0.408904
     2  Na  -0.504408  -0.054775
     3  Na   0.461328  -0.077306
     4  Na   0.100354  -0.028240
     5  Na  -0.275647   0.304595
     6  Na  -0.109989   0.287817
     7  Na   0.282576   0.159005
 Sum of Mulliken charges =  -0.00000   1.00000

 Dipole moment (field-independent basis, Debye):
    X=             -0.0825    Y=             -0.7507    Z=             -0.1729  Tot=              0.7747
 Quadrupole moment (field-independent basis, Debye-Ang):
   XX=            -46.9095   YY=            -75.5382   ZZ=            -72.4416
   XY=             -1.7637   XZ=             -2.6124   YZ=              0.5044

 Normal termination of Gaussian 16 at Thu Dec  7 14:05:14 2023.
