 Gaussian 16, Revision B.01,
 Gaussian 16:  ES64L-G16RevB.01 20-Dec-2017

 -------------------------
 #P B3LYP/6-311+g(d) force
 -------------------------

 -----
 DPGEN
 -----
 Symbolic Z-matrix:
 Charge =  0 Multiplicity = 2

                         Standard orientation:
 ---------------------------------------------------------------------
 Center     Atomic      Atomic             Coordinates (Angstroms)
 Number     Number       Type             X           Y           Z
 ---------------------------------------------------------------------
      1         11           0       -3.020949    0.856823    0.195669
      2         11           0       -0.170149    3.166700   -0.224794
      3         11           0       -1.984575   -2.310874   -0.408431
      4         11           0        0.052105   -0.429198    2.146913
      5         11           0        0.145757    0.007132   -1.601314
      6         11           0        2.992995    1.114899    0.077646
      7         11           0        1.984816   -2.405482   -0.185689
 ---------------------------------------------------------------------

 SCF Done:  E(UB3LYP) =  -1136.13801439     A.U. after   19 cycles

 The electronic state is 2-A.
 Alpha  occ. eigenvalues --  -38.44186 -38.43913 -38.43816 -38.43734 -38.43687
 Alpha  occ. eigenvalues --  -38.43522 -38.43151  -2.19986  -2.19727  -2.19641
 Alpha  occ. eigenvalues --   -2.19584  -2.19524  -2.19319  -2.19104  -1.13666
 Alpha  occ. eigenvalues --   -1.13651  -1.13617  -1.13400  -1.13395  -1.13373
 Alpha  occ. eigenvalues --   -1.13328  -1.13310  -1.13271  -1.13243  -1.13215
 Alpha  occ. eigenvalues --   -1.13211  -1.13199  -1.13174  -1.13154  -1.13005
 Alpha  occ. eigenvalues --   -1.12981  -1.12955  -1.12790  -1.12735  -1.12733
 Alpha  occ. eigenvalues --   -0.18232  -0.12889  -0.12350  -0.10623
 Alpha virt. eigenvalues --   -0.05642  -0.05391  -0.04892  -0.03153  -0.02813
 Alpha virt. eigenvalues --   -0.02580  -0.01497  -0.01277  -0.00611  -0.00549
 Alpha virt. eigenvalues --   -0.00022   0.00355   0.00782   0.00820   0.00856

  Beta  occ. eigenvalues --  -38.44184 -38.43910 -38.43810 -38.43678 -38.43635
  Beta  occ. eigenvalues --  -38.43521 -38.43092  -2.19984  -2.19724  -2.19635
  Beta  occ. eigenvalues --   -2.19511  -2.19401  -2.19319  -2.18997  -1.13656
  Beta  occ. eigenvalues --   -1.13643  -1.13618  -1.13397  -1.13380  -1.13373
  Beta  occ. eigenvalues --   -1.13318  -1.13286  -1.13267  -1.13195  -1.13158
  Beta  occ. eigenvalues --   -1.13146  -1.13119  -1.13085  -1.13066  -1.12997
  Beta  occ. eigenvalues --   -1.12976  -1.12957  -1.12716  -1.12659  -1.12650
  Beta  occ. eigenvalues --   -0.17518  -0.12698  -0.12134
  Beta virt. eigenvalues --   -0.06702  -0.05639  -0.05349  -0.04811  -0.02386
  Beta virt. eigenvalues --   -0.02109  -0.01510  -0.01406  -0.01196  -0.00652
  Beta virt. eigenvalues --   -0.00602   0.00136   0.00387   0.00810   0.00851

 Mulliken charges and spin densities:
               1          2
     1  Na   0.030850   0.009178
     2  Na  -0.012821  -0.061419
     3  Na   0.210925  -0.026567
     4  Na  -0.477137   0.775304
     5  Na  -0.016260   0.417147
     6  Na   0.052623  -0.045448
     7  Na   0.211820  -0.068195
 Sum of Mulliken charges =  -0.00000   1.00000

 Dipole moment (field-independent basis, Debye):
    X=              0.1993    Y=             -0.1015    Z=              0.1373  Tot=              0.2624
 Quadrupole moment (field-independent basis, Debye-Ang):
   XX=            -56.8609   YY=            -61.0412   ZZ=            -75.2959
   XY=             -0.1065   XZ=              0.1303   YZ=              1.1678

 Normal termination of Gaussian 16 at Thu Dec  7 23:27:01 2023.
