 Gaussian 16, Revision B.01,
 Gaussian 16:  ES64L-G16RevB.01 20-Dec-2017

 -------------------------
 #P B3LYP/6-311+g(d) force
 -------------------------

 -----
 DPGEN
 -----
 Symbolic Z-matrix:
 Charge =  0 Multiplicity = 2

                         Standard orientation:
 ---------------------------------------------------------------------
 Center     Atomic      Atomic             Coordinates (Angstroms)
 Number     Number       Type             X           Y           Z
 ---------------------------------------------------------------------
      1         11           0        0.722191    0.410081    1.950673
      2         11           0       -3.863530    0.032286   -0.334717
      3         11           0        0.068478    3.251894    0.209674
      4         11           0        2.933393    0.691104   -0.723720
      5         11           0       -0.616932   -0.080014   -1.775902
      6         11           0        1.934668   -2.423307   -0.287451
      7         11           0       -1.178268   -1.882043    0.961444
 ---------------------------------------------------------------------

 SCF Done:  E(UB3LYP) =  -1136.13024527     A.U. after   19 cycles

 The electronic state is 2-A.
 Alpha  occ. eigenvalues --  -38.44524 -38.44316 -38.44155 -38.43672 -38.43430
 Alpha  occ. eigenvalues --  -38.43280 -38.43242  -2.20294  -2.20154  -2.20019
 Alpha  occ. eigenvalues --   -2.19595  -2.19214  -2.19203  -2.19098  -1.13967
 Alpha  occ. eigenvalues --   -1.13951  -1.13931  -1.13835  -1.13823  -1.13768
 Alpha  occ. eigenvalues --   -1.13721  -1.13662  -1.13625  -1.13305  -1.13230
 Alpha  occ. eigenvalues --   -1.13205  -1.12903  -1.12891  -1.12872  -1.12871
 Alpha  occ. eigenvalues --   -1.12848  -1.12807  -1.12762  -1.12758  -1.12731
 Alpha  occ. eigenvalues --   -0.18299  -0.12974  -0.11978  -0.11196
 Alpha virt. eigenvalues --   -0.06279  -0.04925  -0.04269  -0.03335  -0.02953
 Alpha virt. eigenvalues --   -0.02789  -0.02039  -0.01074  -0.00453  -0.00160
 Alpha virt. eigenvalues --    0.00039   0.00285   0.00577   0.00793   0.00810

  Beta  occ. eigenvalues --  -38.44521 -38.44292 -38.44105 -38.43588 -38.43429
  Beta  occ. eigenvalues --  -38.43243 -38.43237  -2.20291  -2.20111  -2.19926
  Beta  occ. eigenvalues --   -2.19443  -2.19214  -2.19141  -2.19093  -1.13957
  Beta  occ. eigenvalues --   -1.13949  -1.13929  -1.13807  -1.13785  -1.13735
  Beta  occ. eigenvalues --   -1.13658  -1.13600  -1.13552  -1.13198  -1.13125
  Beta  occ. eigenvalues --   -1.13093  -1.12880  -1.12869  -1.12860  -1.12849
  Beta  occ. eigenvalues --   -1.12817  -1.12765  -1.12759  -1.12740  -1.12704
  Beta  occ. eigenvalues --   -0.17549  -0.12742  -0.11760
  Beta virt. eigenvalues --   -0.07299  -0.06124  -0.04856  -0.04080  -0.02814
  Beta virt. eigenvalues --   -0.02264  -0.02026  -0.01685  -0.01025  -0.00410
  Beta virt. eigenvalues --    0.00004   0.00068   0.00337   0.00667   0.00826

 Mulliken charges and spin densities:
               1          2
     1  Na   0.189212   0.333864
     2  Na   0.074063  -0.050587
     3  Na  -0.194128  -0.122146
     4  Na   0.004241   0.122377
     5  Na  -0.238095   0.523779
     6  Na  -0.007505   0.029527
     7  Na   0.172212   0.163185
 Sum of Mulliken charges =  -0.00000   1.00000

 Dipole moment (field-independent basis, Debye):
    X=             -0.3318    Y=              0.2285    Z=             -0.2682  Tot=              0.4840
 Quadrupole moment (field-independent basis, Debye-Ang):
   XX=            -55.2854   YY=            -67.0840   ZZ=            -71.4909
   XY=             -1.8796   XZ=             -1.7072   YZ=             -1.0550

 Normal termination of Gaussian 16 at Thu Dec  7 02:11:55 2023.
