 Gaussian 16, Revision B.01,
 Gaussian 16:  ES64L-G16RevB.01 20-Dec-2017

 -------------------------
 #P B3LYP/6-311+g(d) force
 -------------------------

 -----
 DPGEN
 -----
 Symbolic Z-matrix:
 Charge =  0 Multiplicity = 2

                         Standard orientation:
 ---------------------------------------------------------------------
 Center     Atomic      Atomic             Coordinates (Angstroms)
 Number     Number       Type             X           Y           Z
 ---------------------------------------------------------------------
      1         11           0       -1.873373   -2.059814    0.571343
      2         11           0        0.696794   -0.400895    1.801047
      3         11           0       -0.184183   -0.320505   -1.773493
      4         11           0        2.057933   -2.257584   -0.333231
      5         11           0        2.374085    1.599866   -0.507533
      6         11           0       -3.031453    0.887093   -0.464311
      7         11           0       -0.039803    2.551839    0.706178
 ---------------------------------------------------------------------

 SCF Done:  E(UB3LYP) =  -1136.13271265     A.U. after   19 cycles

 The electronic state is 2-A.
 Alpha  occ. eigenvalues --  -38.43850 -38.43807 -38.43684 -38.43606 -38.43424
 Alpha  occ. eigenvalues --  -38.43395 -38.43215  -2.19722  -2.19720  -2.19524
 Alpha  occ. eigenvalues --   -2.19470  -2.19396  -2.19383  -2.19145  -1.13500
 Alpha  occ. eigenvalues --   -1.13422  -1.13395  -1.13374  -1.13345  -1.13344
 Alpha  occ. eigenvalues --   -1.13211  -1.13202  -1.13173  -1.13165  -1.13162
 Alpha  occ. eigenvalues --   -1.13088  -1.13071  -1.13048  -1.13026  -1.13002
 Alpha  occ. eigenvalues --   -1.12999  -1.12987  -1.12802  -1.12792  -1.12748
 Alpha  occ. eigenvalues --   -0.19064  -0.13090  -0.12556  -0.11211
 Alpha virt. eigenvalues --   -0.05363  -0.05110  -0.04364  -0.03404  -0.03178
 Alpha virt. eigenvalues --   -0.02713  -0.01330  -0.01080  -0.00227   0.00110
 Alpha virt. eigenvalues --    0.00171   0.00386   0.00836   0.00894   0.00935

  Beta  occ. eigenvalues --  -38.43835 -38.43797 -38.43679 -38.43599 -38.43352
  Beta  occ. eigenvalues --  -38.43319 -38.43200  -2.19708  -2.19696  -2.19518
  Beta  occ. eigenvalues --   -2.19460  -2.19264  -2.19244  -2.19121  -1.13492
  Beta  occ. eigenvalues --   -1.13403  -1.13356  -1.13340  -1.13335  -1.13331
  Beta  occ. eigenvalues --   -1.13192  -1.13182  -1.13164  -1.13160  -1.13133
  Beta  occ. eigenvalues --   -1.13077  -1.12987  -1.12960  -1.12935  -1.12904
  Beta  occ. eigenvalues --   -1.12903  -1.12901  -1.12786  -1.12761  -1.12720
  Beta  occ. eigenvalues --   -0.18315  -0.12854  -0.12307
  Beta virt. eigenvalues --   -0.07242  -0.05329  -0.05023  -0.04327  -0.02658
  Beta virt. eigenvalues --   -0.02431  -0.01654  -0.01247  -0.01015  -0.00099
  Beta virt. eigenvalues --    0.00115   0.00179   0.00418   0.00851   0.00944

 Mulliken charges and spin densities:
               1          2
     1  Na  -0.087846  -0.052538
     2  Na   0.207018   0.469308
     3  Na  -0.167705   0.542610
     4  Na  -0.055118  -0.064654
     5  Na   0.074752   0.043516
     6  Na   0.049792   0.001979
     7  Na  -0.020893   0.059777
 Sum of Mulliken charges =  -0.00000   1.00000

 Dipole moment (field-independent basis, Debye):
    X=             -0.0377    Y=             -0.2907    Z=             -0.1122  Tot=              0.3139
 Quadrupole moment (field-independent basis, Debye-Ang):
   XX=            -58.6848   YY=            -64.4157   ZZ=            -71.6609
   XY=             -0.9329   XZ=             -1.9037   YZ=             -0.4032

 Normal termination of Gaussian 16 at Thu Dec  7 18:55:27 2023.
