 Gaussian 16, Revision B.01,
 Gaussian 16:  ES64L-G16RevB.01 20-Dec-2017

 -------------------------
 #P B3LYP/6-311+g(d) force
 -------------------------

 -----
 DPGEN
 -----
 Symbolic Z-matrix:
 Charge =  0 Multiplicity = 2

                         Standard orientation:
 ---------------------------------------------------------------------
 Center     Atomic      Atomic             Coordinates (Angstroms)
 Number     Number       Type             X           Y           Z
 ---------------------------------------------------------------------
      1         11           0        0.248730    0.018699   -0.647320
      2         11           0       -1.692655    2.838824    0.594131
      3         11           0        3.737685   -0.444924   -0.717744
      4         11           0       -3.794640   -0.102150   -0.555956
      5         11           0        1.826532    2.754361    0.234109
      6         11           0        1.348110   -2.459519    1.039475
      7         11           0       -1.673761   -2.605293    0.053305
 ---------------------------------------------------------------------

 SCF Done:  E(UB3LYP) =  -1136.12769038     A.U. after   20 cycles

 The electronic state is 2-A.
 Alpha  occ. eigenvalues --  -38.44329 -38.44182 -38.43981 -38.43829 -38.43743
 Alpha  occ. eigenvalues --  -38.43506 -38.43327  -2.20144  -2.19976  -2.19928
 Alpha  occ. eigenvalues --   -2.19720  -2.19629  -2.19344  -2.19159  -1.13849
 Alpha  occ. eigenvalues --   -1.13823  -1.13760  -1.13671  -1.13655  -1.13640
 Alpha  occ. eigenvalues --   -1.13602  -1.13592  -1.13556  -1.13417  -1.13374
 Alpha  occ. eigenvalues --   -1.13350  -1.13302  -1.13286  -1.13242  -1.13004
 Alpha  occ. eigenvalues --   -1.12980  -1.12964  -1.12813  -1.12805  -1.12777
 Alpha  occ. eigenvalues --   -0.17581  -0.13669  -0.13319  -0.09844
 Alpha virt. eigenvalues --   -0.06332  -0.05710  -0.04394  -0.03478  -0.02745
 Alpha virt. eigenvalues --   -0.02332  -0.01840  -0.01178  -0.00845  -0.00624
 Alpha virt. eigenvalues --   -0.00266   0.00153   0.00573   0.00624   0.00763

  Beta  occ. eigenvalues --  -38.44320 -38.44166 -38.43988 -38.43794 -38.43727
  Beta  occ. eigenvalues --  -38.43439 -38.43261  -2.20133  -2.19950  -2.19939
  Beta  occ. eigenvalues --   -2.19661  -2.19607  -2.19218  -2.19034  -1.13847
  Beta  occ. eigenvalues --   -1.13818  -1.13719  -1.13665  -1.13640  -1.13629
  Beta  occ. eigenvalues --   -1.13603  -1.13568  -1.13561  -1.13365  -1.13337
  Beta  occ. eigenvalues --   -1.13306  -1.13294  -1.13275  -1.13173  -1.12917
  Beta  occ. eigenvalues --   -1.12895  -1.12882  -1.12728  -1.12720  -1.12696
  Beta  occ. eigenvalues --   -0.17260  -0.12964  -0.12718
  Beta virt. eigenvalues --   -0.06601  -0.06382  -0.05479  -0.04133  -0.02874
  Beta virt. eigenvalues --   -0.02280  -0.02084  -0.01639  -0.00988  -0.00693
  Beta virt. eigenvalues --   -0.00394   0.00073   0.00366   0.00623   0.00741

 Mulliken charges and spin densities:
               1          2
     1  Na  -2.486385  -0.094602
     2  Na   0.239393   0.059844
     3  Na   0.798824   0.395096
     4  Na   0.586901   0.434611
     5  Na   0.272098   0.041027
     6  Na   0.380798   0.051507
     7  Na   0.208370   0.112516
 Sum of Mulliken charges =  -0.00000   1.00000

 Dipole moment (field-independent basis, Debye):
    X=              0.4478    Y=              0.2886    Z=              0.7715  Tot=              0.9376
 Quadrupole moment (field-independent basis, Debye-Ang):
   XX=            -65.9292   YY=            -62.3540   ZZ=            -70.5258
   XY=             -1.0168   XZ=              0.6963   YZ=              0.4664

 Normal termination of Gaussian 16 at Wed Nov 29 17:23:14 2023.
