 Gaussian 16, Revision B.01,
 Gaussian 16:  ES64L-G16RevB.01 20-Dec-2017

 -------------------------
 #P B3LYP/6-311+g(d) force
 -------------------------

 -----
 DPGEN
 -----
 Symbolic Z-matrix:
 Charge =  0 Multiplicity = 2

                         Standard orientation:
 ---------------------------------------------------------------------
 Center     Atomic      Atomic             Coordinates (Angstroms)
 Number     Number       Type             X           Y           Z
 ---------------------------------------------------------------------
      1         11           0        0.028744   -0.818362   -1.653753
      2         11           0        1.159572    0.328997    1.800251
      3         11           0       -1.301111   -1.366580    1.296004
      4         11           0       -3.531917   -0.372732   -0.758053
      5         11           0        3.078246   -1.355476   -0.207544
      6         11           0       -1.409712    1.879252    0.428188
      7         11           0        1.976177    1.704902   -0.905094
 ---------------------------------------------------------------------

 SCF Done:  E(UB3LYP) =  -1136.12310779     A.U. after   25 cycles

 The electronic state is 2-A.
 Alpha  occ. eigenvalues --  -38.44634 -38.44176 -38.43968 -38.43885 -38.43660
 Alpha  occ. eigenvalues --  -38.43150 -38.42515  -2.20488  -2.20153  -2.19833
 Alpha  occ. eigenvalues --   -2.19819  -2.19578  -2.19176  -2.18441  -1.14171
 Alpha  occ. eigenvalues --   -1.14149  -1.14118  -1.13883  -1.13781  -1.13754
 Alpha  occ. eigenvalues --   -1.13552  -1.13521  -1.13507  -1.13474  -1.13469
 Alpha  occ. eigenvalues --   -1.13388  -1.13282  -1.13248  -1.13163  -1.12884
 Alpha  occ. eigenvalues --   -1.12812  -1.12766  -1.12136  -1.12110  -1.12061
 Alpha  occ. eigenvalues --   -0.19418  -0.14269  -0.11871  -0.10901
 Alpha virt. eigenvalues --   -0.06626  -0.04916  -0.04379  -0.03255  -0.02645
 Alpha virt. eigenvalues --   -0.02425  -0.02158  -0.00808  -0.00614   0.00095
 Alpha virt. eigenvalues --    0.00230   0.00342   0.00442   0.00822   0.00865

  Beta  occ. eigenvalues --  -38.44624 -38.44114 -38.43966 -38.43843 -38.43630
  Beta  occ. eigenvalues --  -38.43092 -38.42505  -2.20471  -2.20042  -2.19832
  Beta  occ. eigenvalues --   -2.19742  -2.19526  -2.19074  -2.18426  -1.14156
  Beta  occ. eigenvalues --   -1.14134  -1.14105  -1.13803  -1.13684  -1.13680
  Beta  occ. eigenvalues --   -1.13540  -1.13487  -1.13477  -1.13452  -1.13432
  Beta  occ. eigenvalues --   -1.13339  -1.13246  -1.13190  -1.13129  -1.12805
  Beta  occ. eigenvalues --   -1.12737  -1.12684  -1.12129  -1.12070  -1.12054
  Beta  occ. eigenvalues --   -0.18619  -0.14088  -0.10725
  Beta virt. eigenvalues --   -0.07736  -0.06407  -0.04691  -0.03914  -0.02850
  Beta virt. eigenvalues --   -0.02227  -0.01888  -0.01685  -0.00678  -0.00268
  Beta virt. eigenvalues --    0.00157   0.00259   0.00437   0.00564   0.00848

 Mulliken charges and spin densities:
               1          2
     1  Na  -0.312462   0.401929
     2  Na   0.542100   0.367582
     3  Na  -0.214449  -0.040592
     4  Na   0.593474   0.059015
     5  Na   0.019018  -0.096965
     6  Na  -0.649782   0.177635
     7  Na   0.022102   0.131396
 Sum of Mulliken charges =  -0.00000   1.00000

 Dipole moment (field-independent basis, Debye):
    X=             -0.3254    Y=              0.0522    Z=             -0.2713  Tot=              0.4269
 Quadrupole moment (field-independent basis, Debye-Ang):
   XX=            -49.3725   YY=            -74.7626   ZZ=            -70.0013
   XY=             -0.3688   XZ=              1.5611   YZ=             -5.9846

 Normal termination of Gaussian 16 at Sat Dec  9 06:07:28 2023.
