 Gaussian 16, Revision B.01,
 Gaussian 16:  ES64L-G16RevB.01 20-Dec-2017

 -------------------------
 #P B3LYP/6-311+g(d) force
 -------------------------

 -----
 DPGEN
 -----
 Symbolic Z-matrix:
 Charge =  0 Multiplicity = 2

                         Standard orientation:
 ---------------------------------------------------------------------
 Center     Atomic      Atomic             Coordinates (Angstroms)
 Number     Number       Type             X           Y           Z
 ---------------------------------------------------------------------
      1         11           0        0.154820    4.193776   -0.587846
      2         11           0       -4.788928   -0.155747    0.949824
      3         11           0        2.762230    2.117860    0.319848
      4         11           0       -2.285603    1.181663   -0.396104
      5         11           0        1.576727   -3.680033   -0.310102
      6         11           0        4.040584   -0.741998    0.613655
      7         11           0       -1.459830   -2.915522   -0.589274
 ---------------------------------------------------------------------

 SCF Done:  E(UB3LYP) =  -1136.11364777     A.U. after   19 cycles

 The electronic state is 2-A.
 Alpha  occ. eigenvalues --  -38.44867 -38.44657 -38.44590 -38.44374 -38.44175
 Alpha  occ. eigenvalues --  -38.44067 -38.44047  -2.20656  -2.20465  -2.20375
 Alpha  occ. eigenvalues --   -2.20190  -2.19977  -2.19865  -2.19839  -1.14331
 Alpha  occ. eigenvalues --   -1.14327  -1.14277  -1.14174  -1.14110  -1.14093
 Alpha  occ. eigenvalues --   -1.14058  -1.14051  -1.13961  -1.13890  -1.13834
 Alpha  occ. eigenvalues --   -1.13803  -1.13655  -1.13647  -1.13618  -1.13515
 Alpha  occ. eigenvalues --   -1.13512  -1.13503  -1.13502  -1.13488  -1.13475
 Alpha  occ. eigenvalues --   -0.15656  -0.13907  -0.13385  -0.11249
 Alpha virt. eigenvalues --   -0.06449  -0.05717  -0.03982  -0.03562  -0.03167
 Alpha virt. eigenvalues --   -0.02308  -0.02105  -0.01953  -0.01725  -0.00855
 Alpha virt. eigenvalues --   -0.00471  -0.00123   0.00036   0.00572   0.00686

  Beta  occ. eigenvalues --  -38.44829 -38.44602 -38.44590 -38.44302 -38.44167
  Beta  occ. eigenvalues --  -38.44037 -38.44007  -2.20590  -2.20380  -2.20362
  Beta  occ. eigenvalues --   -2.20060  -2.19970  -2.19824  -2.19752  -1.14287
  Beta  occ. eigenvalues --   -1.14284  -1.14218  -1.14122  -1.14069  -1.14053
  Beta  occ. eigenvalues --   -1.14035  -1.14023  -1.13925  -1.13801  -1.13747
  Beta  occ. eigenvalues --   -1.13718  -1.13657  -1.13646  -1.13558  -1.13497
  Beta  occ. eigenvalues --   -1.13494  -1.13453  -1.13438  -1.13427  -1.13416
  Beta  occ. eigenvalues --   -0.15161  -0.13080  -0.12635
  Beta virt. eigenvalues --   -0.08144  -0.06480  -0.05321  -0.03629  -0.03286
  Beta virt. eigenvalues --   -0.02780  -0.02083  -0.01856  -0.01722  -0.01518
  Beta virt. eigenvalues --   -0.00534  -0.00139   0.00101   0.00227   0.00544

 Mulliken charges and spin densities:
               1          2
     1  Na   0.416866   0.313971
     2  Na   0.711287   0.230579
     3  Na  -0.328869   0.104976
     4  Na  -0.928155   0.044110
     5  Na   0.013803   0.006963
     6  Na   0.065695   0.157150
     7  Na   0.049372   0.142250
 Sum of Mulliken charges =  -0.00000   1.00000

 Dipole moment (field-independent basis, Debye):
    X=             -1.0270    Y=             -0.3518    Z=              0.2310  Tot=              1.1099
 Quadrupole moment (field-independent basis, Debye-Ang):
   XX=            -58.7489   YY=            -64.9512   ZZ=            -72.5336
   XY=             -0.8755   XZ=             -1.7122   YZ=             -1.5323

 Normal termination of Gaussian 16 at Sun Dec  3 15:29:18 2023.
