 Gaussian 16, Revision B.01,
 Gaussian 16:  ES64L-G16RevB.01 20-Dec-2017

 -------------------------
 #P B3LYP/6-311+g(d) force
 -------------------------

 -----
 DPGEN
 -----
 Symbolic Z-matrix:
 Charge =  0 Multiplicity = 2

                         Standard orientation:
 ---------------------------------------------------------------------
 Center     Atomic      Atomic             Coordinates (Angstroms)
 Number     Number       Type             X           Y           Z
 ---------------------------------------------------------------------
      1         11           0       -3.233770    0.852915   -0.079701
      2         11           0       -0.112168    2.910087   -0.167726
      3         11           0        3.224329    0.799767   -0.167627
      4         11           0       -0.886800   -0.541866   -1.679407
      5         11           0        2.005543   -2.157066   -0.480759
      6         11           0        0.738792    0.450926    1.700886
      7         11           0       -1.735926   -2.314763    0.874334
 ---------------------------------------------------------------------

 SCF Done:  E(UB3LYP) =  -1136.13163916     A.U. after   20 cycles

 The electronic state is 2-A.
 Alpha  occ. eigenvalues --  -38.44597 -38.44475 -38.43582 -38.43523 -38.43436
 Alpha  occ. eigenvalues --  -38.43418 -38.43283  -2.20420  -2.20326  -2.19428
 Alpha  occ. eigenvalues --   -2.19375  -2.19363  -2.19240  -2.19220  -1.14121
 Alpha  occ. eigenvalues --   -1.14072  -1.14046  -1.14027  -1.13984  -1.13957
 Alpha  occ. eigenvalues --   -1.13142  -1.13085  -1.13065  -1.13055  -1.13034
 Alpha  occ. eigenvalues --   -1.13025  -1.13015  -1.12991  -1.12986  -1.12970
 Alpha  occ. eigenvalues --   -1.12912  -1.12878  -1.12862  -1.12853  -1.12812
 Alpha  occ. eigenvalues --   -0.18361  -0.13579  -0.12205  -0.10368
 Alpha virt. eigenvalues --   -0.06203  -0.05230  -0.04616  -0.03460  -0.02812
 Alpha virt. eigenvalues --   -0.02128  -0.01818  -0.01100  -0.00509  -0.00414
 Alpha virt. eigenvalues --   -0.00019   0.00345   0.00706   0.00824   0.00837

  Beta  occ. eigenvalues --  -38.44593 -38.44471 -38.43550 -38.43508 -38.43415
  Beta  occ. eigenvalues --  -38.43386 -38.43220  -2.20414  -2.20321  -2.19370
  Beta  occ. eigenvalues --   -2.19349  -2.19271  -2.19238  -2.19105  -1.14109
  Beta  occ. eigenvalues --   -1.14058  -1.14043  -1.14022  -1.13965  -1.13955
  Beta  occ. eigenvalues --   -1.13099  -1.13039  -1.13027  -1.13021  -1.13009
  Beta  occ. eigenvalues --   -1.12985  -1.12972  -1.12956  -1.12929  -1.12907
  Beta  occ. eigenvalues --   -1.12897  -1.12855  -1.12804  -1.12779  -1.12738
  Beta  occ. eigenvalues --   -0.17719  -0.13341  -0.11954
  Beta virt. eigenvalues --   -0.06646  -0.06088  -0.05176  -0.04433  -0.02807
  Beta virt. eigenvalues --   -0.02129  -0.01757  -0.01229  -0.00985  -0.00506
  Beta virt. eigenvalues --   -0.00389   0.00140   0.00403   0.00811   0.00850

 Mulliken charges and spin densities:
               1          2
     1  Na   0.254499  -0.022105
     2  Na  -0.225537  -0.150246
     3  Na   0.046328  -0.049095
     4  Na  -0.020666   0.492584
     5  Na   0.040955   0.081922
     6  Na   0.097271   0.526449
     7  Na  -0.192850   0.120491
 Sum of Mulliken charges =  -0.00000   1.00000

 Dipole moment (field-independent basis, Debye):
    X=             -0.1115    Y=              0.2176    Z=             -0.0323  Tot=              0.2466
 Quadrupole moment (field-independent basis, Debye-Ang):
   XX=            -53.1225   YY=            -65.5903   ZZ=            -74.8810
   XY=              0.2016   XZ=             -2.6160   YZ=             -1.8807

 Normal termination of Gaussian 16 at Tue Nov 28 19:24:05 2023.
