 Gaussian 16, Revision B.01,
 Gaussian 16:  ES64L-G16RevB.01 20-Dec-2017

 -------------------------
 #P B3LYP/6-311+g(d) force
 -------------------------

 -----
 DPGEN
 -----
 Symbolic Z-matrix:
 Charge =  0 Multiplicity = 2

                         Standard orientation:
 ---------------------------------------------------------------------
 Center     Atomic      Atomic             Coordinates (Angstroms)
 Number     Number       Type             X           Y           Z
 ---------------------------------------------------------------------
      1         11           0        2.950073    0.877353   -0.246741
      2         11           0        0.340225    2.948443    0.244856
      3         11           0        0.060776   -0.518521    2.300716
      4         11           0       -2.855537    1.352527   -0.342713
      5         11           0       -2.459315   -2.086999   -0.115309
      6         11           0        1.892868   -2.551013   -0.344086
      7         11           0        0.070909   -0.021790   -1.496722
 ---------------------------------------------------------------------

 SCF Done:  E(UB3LYP) =  -1136.13614603     A.U. after   19 cycles

 The electronic state is 2-A.
 Alpha  occ. eigenvalues --  -38.44093 -38.43963 -38.43900 -38.43897 -38.43790
 Alpha  occ. eigenvalues --  -38.43187 -38.43172  -2.19891  -2.19813  -2.19729
 Alpha  occ. eigenvalues --   -2.19717  -2.19605  -2.19148  -2.19026  -1.13566
 Alpha  occ. eigenvalues --   -1.13557  -1.13533  -1.13511  -1.13473  -1.13443
 Alpha  occ. eigenvalues --   -1.13400  -1.13379  -1.13375  -1.13355  -1.13348
 Alpha  occ. eigenvalues --   -1.13347  -1.13293  -1.13259  -1.13238  -1.12842
 Alpha  occ. eigenvalues --   -1.12792  -1.12782  -1.12691  -1.12686  -1.12670
 Alpha  occ. eigenvalues --   -0.18224  -0.13015  -0.12279  -0.10742
 Alpha virt. eigenvalues --   -0.05739  -0.05330  -0.04725  -0.03120  -0.02979
 Alpha virt. eigenvalues --   -0.02624  -0.01528  -0.01285  -0.00611  -0.00407
 Alpha virt. eigenvalues --   -0.00038   0.00335   0.00749   0.00809   0.00861

  Beta  occ. eigenvalues --  -38.44091 -38.43957 -38.43892 -38.43790 -38.43784
  Beta  occ. eigenvalues --  -38.43183 -38.43125  -2.19891  -2.19806  -2.19710
  Beta  occ. eigenvalues --   -2.19597  -2.19524  -2.19064  -2.19021  -1.13560
  Beta  occ. eigenvalues --   -1.13551  -1.13529  -1.13503  -1.13453  -1.13440
  Beta  occ. eigenvalues --   -1.13387  -1.13366  -1.13345  -1.13280  -1.13253
  Beta  occ. eigenvalues --   -1.13238  -1.13229  -1.13211  -1.13200  -1.12781
  Beta  occ. eigenvalues --   -1.12741  -1.12717  -1.12680  -1.12671  -1.12661
  Beta  occ. eigenvalues --   -0.17543  -0.12793  -0.12086
  Beta virt. eigenvalues --   -0.06777  -0.05754  -0.05262  -0.04648  -0.02388
  Beta virt. eigenvalues --   -0.02186  -0.01601  -0.01433  -0.01216  -0.00661
  Beta virt. eigenvalues --   -0.00433   0.00137   0.00381   0.00793   0.00860

 Mulliken charges and spin densities:
               1          2
     1  Na   0.262765   0.049027
     2  Na   0.041558   0.075989
     3  Na  -0.624781   0.776618
     4  Na   0.149966   0.039412
     5  Na   0.137000  -0.028445
     6  Na   0.179401  -0.023631
     7  Na  -0.145909   0.111031
 Sum of Mulliken charges =  -0.00000   1.00000

 Dipole moment (field-independent basis, Debye):
    X=             -0.0653    Y=             -0.2938    Z=              0.0907  Tot=              0.3144
 Quadrupole moment (field-independent basis, Debye-Ang):
   XX=            -57.0817   YY=            -61.8068   ZZ=            -74.8528
   XY=              0.0078   XZ=              0.0594   YZ=              0.9922

 Normal termination of Gaussian 16 at Fri Dec  8 05:37:05 2023.
