 Gaussian 16, Revision B.01,
 Gaussian 16:  ES64L-G16RevB.01 20-Dec-2017

 -------------------------
 #P B3LYP/6-311+g(d) force
 -------------------------

 -----
 DPGEN
 -----
 Symbolic Z-matrix:
 Charge =  0 Multiplicity = 2

                         Standard orientation:
 ---------------------------------------------------------------------
 Center     Atomic      Atomic             Coordinates (Angstroms)
 Number     Number       Type             X           Y           Z
 ---------------------------------------------------------------------
      1         11           0       -0.343612   -2.285268    1.897831
      2         11           0        3.725007    2.253447   -0.252199
      3         11           0       -3.161961    2.655524    0.598008
      4         11           0        2.923877   -0.666255    0.199863
      5         11           0       -0.079656    0.774749   -0.147216
      6         11           0       -3.009409   -0.365078   -0.934558
      7         11           0       -0.054247   -2.367119   -1.361728
 ---------------------------------------------------------------------

 SCF Done:  E(UB3LYP) =  -1136.12481537     A.U. after   22 cycles

 The electronic state is 2-A.
 Alpha  occ. eigenvalues --  -38.44141 -38.44128 -38.44087 -38.44086 -38.43768
 Alpha  occ. eigenvalues --  -38.43663 -38.43337  -2.20036  -2.19962  -2.19948
 Alpha  occ. eigenvalues --   -2.19944  -2.19566  -2.19510  -2.19233  -1.13766
 Alpha  occ. eigenvalues --   -1.13730  -1.13719  -1.13705  -1.13636  -1.13634
 Alpha  occ. eigenvalues --   -1.13617  -1.13594  -1.13588  -1.13582  -1.13554
 Alpha  occ. eigenvalues --   -1.13492  -1.13230  -1.13223  -1.13188  -1.13166
 Alpha  occ. eigenvalues --   -1.13154  -1.13140  -1.12912  -1.12884  -1.12851
 Alpha  occ. eigenvalues --   -0.17876  -0.13669  -0.12303  -0.10166
 Alpha virt. eigenvalues --   -0.06310  -0.05823  -0.04614  -0.02950  -0.02723
 Alpha virt. eigenvalues --   -0.02194  -0.01992  -0.01539  -0.01233  -0.00435
 Alpha virt. eigenvalues --   -0.00174   0.00169   0.00351   0.00593   0.00733

  Beta  occ. eigenvalues --  -38.44144 -38.44116 -38.44081 -38.44059 -38.43748
  Beta  occ. eigenvalues --  -38.43591 -38.43302  -2.20019  -2.19957  -2.19945
  Beta  occ. eigenvalues --   -2.19900  -2.19528  -2.19375  -2.19171  -1.13735
  Beta  occ. eigenvalues --   -1.13718  -1.13709  -1.13692  -1.13626  -1.13620
  Beta  occ. eigenvalues --   -1.13594  -1.13586  -1.13583  -1.13566  -1.13498
  Beta  occ. eigenvalues --   -1.13488  -1.13203  -1.13194  -1.13165  -1.13070
  Beta  occ. eigenvalues --   -1.13066  -1.13046  -1.12869  -1.12842  -1.12778
  Beta  occ. eigenvalues --   -0.17291  -0.13486  -0.12042
  Beta virt. eigenvalues --   -0.06456  -0.06001  -0.05655  -0.04434  -0.02509
  Beta virt. eigenvalues --   -0.02323  -0.02143  -0.01695  -0.01110  -0.00921
  Beta virt. eigenvalues --   -0.00259   0.00078   0.00294   0.00556   0.00630

 Mulliken charges and spin densities:
               1          2
     1  Na  -0.220905   0.364093
     2  Na   0.412903  -0.044328
     3  Na   0.653498   0.033055
     4  Na   0.737750   0.135256
     5  Na  -3.006232   0.163076
     6  Na   0.621741   0.074100
     7  Na   0.801245   0.274749
 Sum of Mulliken charges =  -0.00000   1.00000

 Dipole moment (field-independent basis, Debye):
    X=              0.0898    Y=              0.1752    Z=             -0.0205  Tot=              0.1980
 Quadrupole moment (field-independent basis, Debye-Ang):
   XX=            -57.7103   YY=            -61.4672   ZZ=            -74.4631
   XY=              1.5572   XZ=             -1.9513   YZ=              1.6955

 Normal termination of Gaussian 16 at Tue Dec  5 10:18:15 2023.
