 Gaussian 16, Revision B.01,
 Gaussian 16:  ES64L-G16RevB.01 20-Dec-2017

 -------------------------
 #P B3LYP/6-311+g(d) force
 -------------------------

 -----
 DPGEN
 -----
 Symbolic Z-matrix:
 Charge =  0 Multiplicity = 2

                         Standard orientation:
 ---------------------------------------------------------------------
 Center     Atomic      Atomic             Coordinates (Angstroms)
 Number     Number       Type             X           Y           Z
 ---------------------------------------------------------------------
      1         11           0        0.847560   -1.576461    1.296115
      2         11           0        4.225031   -3.103986   -0.596279
      3         11           0        2.409356    0.230010   -0.523173
      4         11           0        1.556591    4.321171   -0.386053
      5         11           0       -0.260245    1.858765    0.790365
      6         11           0       -2.625389   -0.846942   -0.024604
      7         11           0       -6.152905   -0.882557   -0.556370
 ---------------------------------------------------------------------

 SCF Done:  E(UB3LYP) =  -1136.11672672     A.U. after   20 cycles

 The electronic state is 2-A.
 Alpha  occ. eigenvalues --  -38.44976 -38.44748 -38.44680 -38.44506 -38.43896
 Alpha  occ. eigenvalues --  -38.43846 -38.43488  -2.20821  -2.20540  -2.20507
 Alpha  occ. eigenvalues --   -2.20287  -2.19768  -2.19644  -2.19263  -1.14621
 Alpha  occ. eigenvalues --   -1.14515  -1.14389  -1.14227  -1.14205  -1.14170
 Alpha  occ. eigenvalues --   -1.14168  -1.14108  -1.14101  -1.13927  -1.13927
 Alpha  occ. eigenvalues --   -1.13894  -1.13462  -1.13462  -1.13404  -1.13299
 Alpha  occ. eigenvalues --   -1.13295  -1.13248  -1.12967  -1.12959  -1.12890
 Alpha  occ. eigenvalues --   -0.17088  -0.13168  -0.12746  -0.11134
 Alpha virt. eigenvalues --   -0.06397  -0.05412  -0.05013  -0.03392  -0.02620
 Alpha virt. eigenvalues --   -0.02375  -0.02109  -0.01804  -0.01344  -0.01145
 Alpha virt. eigenvalues --   -0.00519  -0.00141  -0.00080   0.00416   0.00589

  Beta  occ. eigenvalues --  -38.44982 -38.44696 -38.44647 -38.44411 -38.43889
  Beta  occ. eigenvalues --  -38.43815 -38.43502  -2.20833  -2.20483  -2.20410
  Beta  occ. eigenvalues --   -2.20109  -2.19759  -2.19585  -2.19295  -1.14611
  Beta  occ. eigenvalues --   -1.14523  -1.14398  -1.14196  -1.14169  -1.14104
  Beta  occ. eigenvalues --   -1.14100  -1.14048  -1.14040  -1.13806  -1.13806
  Beta  occ. eigenvalues --   -1.13778  -1.13461  -1.13459  -1.13368  -1.13259
  Beta  occ. eigenvalues --   -1.13255  -1.13212  -1.12998  -1.12988  -1.12861
  Beta  occ. eigenvalues --   -0.16638  -0.12513  -0.12177
  Beta virt. eigenvalues --   -0.07990  -0.05960  -0.05155  -0.04723  -0.03190
  Beta virt. eigenvalues --   -0.02384  -0.02072  -0.01924  -0.01423  -0.01000
  Beta virt. eigenvalues --   -0.00819  -0.00220   0.00014   0.00088   0.00493

 Mulliken charges and spin densities:
               1          2
     1  Na   0.531746  -0.066422
     2  Na   0.455436   0.258583
     3  Na  -0.421011   0.009076
     4  Na   0.557468   0.169084
     5  Na  -0.294191   0.023519
     6  Na  -0.620384   0.305588
     7  Na  -0.209064   0.300572
 Sum of Mulliken charges =  -0.00000   1.00000

 Dipole moment (field-independent basis, Debye):
    X=              1.0867    Y=             -0.3659    Z=              0.1061  Tot=              1.1516
 Quadrupole moment (field-independent basis, Debye-Ang):
   XX=            -62.8509   YY=            -61.8052   ZZ=            -70.0003
   XY=             -4.0441   XZ=             -1.3740   YZ=             -1.2363

 Normal termination of Gaussian 16 at Wed Nov 29 02:07:59 2023.
