 Gaussian 16, Revision B.01,
 Gaussian 16:  ES64L-G16RevB.01 20-Dec-2017

 -------------------------
 #P B3LYP/6-311+g(d) force
 -------------------------

 -----
 DPGEN
 -----
 Symbolic Z-matrix:
 Charge =  0 Multiplicity = 2

                         Standard orientation:
 ---------------------------------------------------------------------
 Center     Atomic      Atomic             Coordinates (Angstroms)
 Number     Number       Type             X           Y           Z
 ---------------------------------------------------------------------
      1         11           0       -2.388428    1.949884   -0.060589
      2         11           0        0.925902    2.578630   -0.258377
      3         11           0       -2.481630   -1.808941    0.324196
      4         11           0        1.194764   -2.542012   -0.456181
      5         11           0       -0.528122   -0.270898   -1.836139
      6         11           0        3.112775    0.223585    0.033107
      7         11           0        0.164740   -0.130247    2.253982
 ---------------------------------------------------------------------

 SCF Done:  E(UB3LYP) =  -1136.13771205     A.U. after   18 cycles

 The electronic state is 2-A.
 Alpha  occ. eigenvalues --  -38.44233 -38.43923 -38.43701 -38.43644 -38.43571
 Alpha  occ. eigenvalues --  -38.43437 -38.43138  -2.20080  -2.19748  -2.19546
 Alpha  occ. eigenvalues --   -2.19519  -2.19476  -2.19299  -2.19006  -1.13734
 Alpha  occ. eigenvalues --   -1.13711  -1.13701  -1.13438  -1.13415  -1.13378
 Alpha  occ. eigenvalues --   -1.13230  -1.13218  -1.13204  -1.13201  -1.13196
 Alpha  occ. eigenvalues --   -1.13145  -1.13139  -1.13127  -1.13108  -1.12976
 Alpha  occ. eigenvalues --   -1.12949  -1.12913  -1.12684  -1.12668  -1.12643
 Alpha  occ. eigenvalues --   -0.18539  -0.12877  -0.12424  -0.11247
 Alpha virt. eigenvalues --   -0.05474  -0.05206  -0.04462  -0.03402  -0.03094
 Alpha virt. eigenvalues --   -0.03054  -0.01329  -0.01066  -0.00256  -0.00109
 Alpha virt. eigenvalues --   -0.00067   0.00381   0.00788   0.00888   0.00925

  Beta  occ. eigenvalues --  -38.44134 -38.43916 -38.43701 -38.43643 -38.43506
  Beta  occ. eigenvalues --  -38.43425 -38.43133  -2.19896  -2.19739  -2.19548
  Beta  occ. eigenvalues --   -2.19475  -2.19399  -2.19281  -2.19000  -1.13613
  Beta  occ. eigenvalues --   -1.13583  -1.13566  -1.13427  -1.13389  -1.13375
  Beta  occ. eigenvalues --   -1.13233  -1.13207  -1.13185  -1.13168  -1.13140
  Beta  occ. eigenvalues --   -1.13131  -1.13112  -1.13064  -1.13059  -1.12946
  Beta  occ. eigenvalues --   -1.12919  -1.12904  -1.12679  -1.12653  -1.12634
  Beta  occ. eigenvalues --   -0.17789  -0.12690  -0.12185
  Beta virt. eigenvalues --   -0.07290  -0.05440  -0.05144  -0.04389  -0.02632
  Beta virt. eigenvalues --   -0.02322  -0.01990  -0.01236  -0.01001  -0.00290
  Beta virt. eigenvalues --   -0.00151   0.00081   0.00409   0.00865   0.00906

 Mulliken charges and spin densities:
               1          2
     1  Na   0.139788  -0.043798
     2  Na   0.041306  -0.035079
     3  Na   0.144325  -0.021710
     4  Na   0.272494  -0.025743
     5  Na  -0.083359   0.416724
     6  Na   0.058128  -0.016862
     7  Na  -0.572682   0.726467
 Sum of Mulliken charges =  -0.00000   1.00000

 Dipole moment (field-independent basis, Debye):
    X=             -0.2564    Y=             -0.1993    Z=              0.2621  Tot=              0.4173
 Quadrupole moment (field-independent basis, Debye-Ang):
   XX=            -58.7266   YY=            -65.5387   ZZ=            -71.2466
   XY=             -0.0203   XZ=             -1.2172   YZ=             -0.3359

 Normal termination of Gaussian 16 at Thu Dec  7 23:20:06 2023.
