 Gaussian 16, Revision B.01,
 Gaussian 16:  ES64L-G16RevB.01 20-Dec-2017

 -------------------------
 #P B3LYP/6-311+g(d) force
 -------------------------

 -----
 DPGEN
 -----
 Symbolic Z-matrix:
 Charge =  0 Multiplicity = 2

                         Standard orientation:
 ---------------------------------------------------------------------
 Center     Atomic      Atomic             Coordinates (Angstroms)
 Number     Number       Type             X           Y           Z
 ---------------------------------------------------------------------
      1         11           0       -0.664147    0.270995   -1.585192
      2         11           0       -1.694251    2.559659   -0.146433
      3         11           0        2.218884    2.158664   -0.285198
      4         11           0       -2.936370   -1.175146    0.335251
      5         11           0        0.201079   -2.844417   -0.606310
      6         11           0        2.883069   -1.092875    0.158118
      7         11           0       -0.008264    0.123120    2.129764
 ---------------------------------------------------------------------

 SCF Done:  E(UB3LYP) =  -1136.13396682     A.U. after   19 cycles

 The electronic state is 2-A.
 Alpha  occ. eigenvalues --  -38.44205 -38.43941 -38.43936 -38.43843 -38.43621
 Alpha  occ. eigenvalues --  -38.43323 -38.43273  -2.20027  -2.19796  -2.19748
 Alpha  occ. eigenvalues --   -2.19703  -2.19461  -2.19266  -2.19171  -1.13706
 Alpha  occ. eigenvalues --   -1.13693  -1.13658  -1.13591  -1.13441  -1.13432
 Alpha  occ. eigenvalues --   -1.13415  -1.13399  -1.13381  -1.13364  -1.13333
 Alpha  occ. eigenvalues --   -1.13319  -1.13135  -1.13125  -1.13109  -1.12933
 Alpha  occ. eigenvalues --   -1.12926  -1.12873  -1.12835  -1.12822  -1.12796
 Alpha  occ. eigenvalues --   -0.18457  -0.12970  -0.12475  -0.10831
 Alpha virt. eigenvalues --   -0.05785  -0.05228  -0.04634  -0.03257  -0.02954
 Alpha virt. eigenvalues --   -0.02662  -0.01508  -0.01178  -0.00417  -0.00334
 Alpha virt. eigenvalues --   -0.00010   0.00357   0.00813   0.00841   0.00897

  Beta  occ. eigenvalues --  -38.44197 -38.43939 -38.43929 -38.43745 -38.43620
  Beta  occ. eigenvalues --  -38.43310 -38.43217  -2.20016  -2.19787  -2.19747
  Beta  occ. eigenvalues --   -2.19522  -2.19462  -2.19164  -2.19150  -1.13696
  Beta  occ. eigenvalues --   -1.13669  -1.13650  -1.13573  -1.13431  -1.13418
  Beta  occ. eigenvalues --   -1.13401  -1.13393  -1.13379  -1.13244  -1.13209
  Beta  occ. eigenvalues --   -1.13187  -1.13137  -1.13115  -1.13102  -1.12875
  Beta  occ. eigenvalues --   -1.12857  -1.12809  -1.12803  -1.12791  -1.12775
  Beta  occ. eigenvalues --   -0.17746  -0.12779  -0.12221
  Beta virt. eigenvalues --   -0.06920  -0.05763  -0.05140  -0.04578  -0.02496
  Beta virt. eigenvalues --   -0.02231  -0.01599  -0.01413  -0.01114  -0.00456
  Beta virt. eigenvalues --   -0.00345   0.00129   0.00397   0.00814   0.00893

 Mulliken charges and spin densities:
               1          2
     1  Na  -0.003811   0.322647
     2  Na   0.248898  -0.040786
     3  Na  -0.015725  -0.064389
     4  Na   0.124858   0.043946
     5  Na   0.027709   0.002571
     6  Na   0.019188   0.004591
     7  Na  -0.401116   0.731420
 Sum of Mulliken charges =  -0.00000   1.00000

 Dipole moment (field-independent basis, Debye):
    X=             -0.2886    Y=              0.2177    Z=              0.2518  Tot=              0.4406
 Quadrupole moment (field-independent basis, Debye-Ang):
   XX=            -57.6830   YY=            -62.4705   ZZ=            -74.0452
   XY=              0.7760   XZ=             -1.3749   YZ=              0.1753

 Normal termination of Gaussian 16 at Fri Dec  8 06:08:29 2023.
