 Gaussian 16, Revision B.01,
 Gaussian 16:  ES64L-G16RevB.01 20-Dec-2017

 -------------------------
 #P B3LYP/6-311+g(d) force
 -------------------------

 -----
 DPGEN
 -----
 Symbolic Z-matrix:
 Charge =  0 Multiplicity = 2

                         Standard orientation:
 ---------------------------------------------------------------------
 Center     Atomic      Atomic             Coordinates (Angstroms)
 Number     Number       Type             X           Y           Z
 ---------------------------------------------------------------------
      1         11           0        1.499720    2.226354   -0.887975
      2         11           0       -2.807793   -0.520518    1.621114
      3         11           0        2.797925   -2.421533   -0.143206
      4         11           0       -3.367908   -1.598632   -1.091457
      5         11           0        3.824604    0.430826    0.759881
      6         11           0       -2.145021    2.317375    0.105290
      7         11           0        0.198473   -0.433872   -0.363648
 ---------------------------------------------------------------------

 SCF Done:  E(UB3LYP) =  -1136.11079806     A.U. after   30 cycles

 The electronic state is 2-A.
 Alpha  occ. eigenvalues --  -38.45106 -38.44610 -38.44239 -38.44123 -38.44089
 Alpha  occ. eigenvalues --  -38.43249 -38.43214  -2.20930  -2.20464  -2.20061
 Alpha  occ. eigenvalues --   -2.19999  -2.19948  -2.19187  -2.19115  -1.14645
 Alpha  occ. eigenvalues --   -1.14572  -1.14555  -1.14126  -1.14123  -1.14100
 Alpha  occ. eigenvalues --   -1.13744  -1.13719  -1.13703  -1.13692  -1.13666
 Alpha  occ. eigenvalues --   -1.13632  -1.13618  -1.13592  -1.13544  -1.12975
 Alpha  occ. eigenvalues --   -1.12882  -1.12809  -1.12768  -1.12727  -1.12709
 Alpha  occ. eigenvalues --   -0.17704  -0.14862  -0.11588  -0.09740
 Alpha virt. eigenvalues --   -0.07208  -0.05833  -0.04350  -0.03601  -0.02889
 Alpha virt. eigenvalues --   -0.02336  -0.01533  -0.01453  -0.01113  -0.00439
 Alpha virt. eigenvalues --   -0.00039   0.00108   0.00347   0.00367   0.00521

  Beta  occ. eigenvalues --  -38.45085 -38.44567 -38.44251 -38.44089 -38.44047
  Beta  occ. eigenvalues --  -38.43240 -38.43168  -2.20892  -2.20384  -2.20086
  Beta  occ. eigenvalues --   -2.19925  -2.19888  -2.19111  -2.19095  -1.14617
  Beta  occ. eigenvalues --   -1.14548  -1.14513  -1.14076  -1.14069  -1.14042
  Beta  occ. eigenvalues --   -1.13757  -1.13737  -1.13700  -1.13643  -1.13619
  Beta  occ. eigenvalues --   -1.13582  -1.13563  -1.13538  -1.13478  -1.12930
  Beta  occ. eigenvalues --   -1.12814  -1.12772  -1.12747  -1.12718  -1.12669
  Beta  occ. eigenvalues --   -0.17169  -0.14404  -0.11364
  Beta virt. eigenvalues --   -0.07024  -0.06252  -0.05650  -0.03955  -0.03394
  Beta virt. eigenvalues --   -0.02648  -0.01708  -0.01362  -0.01189  -0.00853
  Beta virt. eigenvalues --   -0.00208   0.00048   0.00222   0.00450   0.00531

 Mulliken charges and spin densities:
               1          2
     1  Na   0.509268  -0.103023
     2  Na   0.768167   0.541271
     3  Na   0.319768  -0.056386
     4  Na  -0.086046  -0.061521
     5  Na   0.931701   0.341443
     6  Na   0.383345   0.185855
     7  Na  -2.826203   0.152362
 Sum of Mulliken charges =  -0.00000   1.00000

 Dipole moment (field-independent basis, Debye):
    X=             -0.3523    Y=             -0.2574    Z=             -0.4950  Tot=              0.6599
 Quadrupole moment (field-independent basis, Debye-Ang):
   XX=            -59.8732   YY=            -67.6695   ZZ=            -69.8090
   XY=              4.3935   XZ=              4.1715   YZ=             -0.3773

 Normal termination of Gaussian 16 at Tue Dec  5 14:47:02 2023.
