 Gaussian 16, Revision B.01,
 Gaussian 16:  ES64L-G16RevB.01 20-Dec-2017

 -------------------------
 #P B3LYP/6-311+g(d) force
 -------------------------

 -----
 DPGEN
 -----
 Symbolic Z-matrix:
 Charge =  0 Multiplicity = 2

                         Standard orientation:
 ---------------------------------------------------------------------
 Center     Atomic      Atomic             Coordinates (Angstroms)
 Number     Number       Type             X           Y           Z
 ---------------------------------------------------------------------
      1         11           0       -0.314914   -1.464648    1.584131
      2         11           0        0.070536   -0.073984   -1.832929
      3         11           0       -2.199676    1.132034    0.328304
      4         11           0        3.432166   -1.526401   -0.633227
      5         11           0        0.068008    3.331758   -0.469843
      6         11           0        1.504293    0.852451    1.519508
      7         11           0       -2.560412   -2.251211   -0.495944
 ---------------------------------------------------------------------

 SCF Done:  E(UB3LYP) =  -1136.13051218     A.U. after   20 cycles

 The electronic state is 2-A.
 Alpha  occ. eigenvalues --  -38.44070 -38.44065 -38.43693 -38.43667 -38.43605
 Alpha  occ. eigenvalues --  -38.43555 -38.43335  -2.19953  -2.19821  -2.19602
 Alpha  occ. eigenvalues --   -2.19564  -2.19518  -2.19468  -2.19176  -1.13651
 Alpha  occ. eigenvalues --   -1.13583  -1.13576  -1.13491  -1.13487  -1.13443
 Alpha  occ. eigenvalues --   -1.13423  -1.13311  -1.13290  -1.13255  -1.13222
 Alpha  occ. eigenvalues --   -1.13175  -1.13162  -1.13158  -1.13136  -1.13105
 Alpha  occ. eigenvalues --   -1.13074  -1.13035  -1.12836  -1.12833  -1.12818
 Alpha  occ. eigenvalues --   -0.18590  -0.12757  -0.12289  -0.11307
 Alpha virt. eigenvalues --   -0.05653  -0.05307  -0.04239  -0.03322  -0.02986
 Alpha virt. eigenvalues --   -0.02806  -0.01531  -0.01393  -0.00462  -0.00023
 Alpha virt. eigenvalues --    0.00298   0.00308   0.00737   0.00783   0.00841

  Beta  occ. eigenvalues --  -38.44050 -38.44000 -38.43685 -38.43663 -38.43546
  Beta  occ. eigenvalues --  -38.43507 -38.43334  -2.19825  -2.19794  -2.19590
  Beta  occ. eigenvalues --   -2.19513  -2.19461  -2.19384  -2.19177  -1.13566
  Beta  occ. eigenvalues --   -1.13490  -1.13484  -1.13473  -1.13457  -1.13428
  Beta  occ. eigenvalues --   -1.13341  -1.13300  -1.13251  -1.13231  -1.13213
  Beta  occ. eigenvalues --   -1.13154  -1.13145  -1.13093  -1.13088  -1.13050
  Beta  occ. eigenvalues --   -1.12996  -1.12982  -1.12838  -1.12820  -1.12818
  Beta  occ. eigenvalues --   -0.17820  -0.12605  -0.12044
  Beta virt. eigenvalues --   -0.07353  -0.05421  -0.05233  -0.04054  -0.02761
  Beta virt. eigenvalues --   -0.02475  -0.01836  -0.01422  -0.01279  -0.00207
  Beta virt. eigenvalues --   -0.00011   0.00322   0.00398   0.00754   0.00859

 Mulliken charges and spin densities:
               1          2
     1  Na   0.111110   0.145233
     2  Na  -0.413597   0.710483
     3  Na  -0.158161   0.170517
     4  Na  -0.213841  -0.054356
     5  Na   0.319684  -0.142483
     6  Na   0.037826   0.181543
     7  Na   0.316980  -0.010937
 Sum of Mulliken charges =  -0.00000   1.00000

 Dipole moment (field-independent basis, Debye):
    X=             -0.1330    Y=             -0.1458    Z=             -0.3751  Tot=              0.4239
 Quadrupole moment (field-independent basis, Debye-Ang):
   XX=            -60.9888   YY=            -62.0597   ZZ=            -70.5753
   XY=              1.7263   XZ=             -0.4704   YZ=              1.3671

 Normal termination of Gaussian 16 at Tue Dec  5 18:15:03 2023.
