 Gaussian 16, Revision B.01,
 Gaussian 16:  ES64L-G16RevB.01 20-Dec-2017

 -------------------------
 #P B3LYP/6-311+g(d) force
 -------------------------

 -----
 DPGEN
 -----
 Symbolic Z-matrix:
 Charge =  0 Multiplicity = 2

                         Standard orientation:
 ---------------------------------------------------------------------
 Center     Atomic      Atomic             Coordinates (Angstroms)
 Number     Number       Type             X           Y           Z
 ---------------------------------------------------------------------
      1         11           0       -1.859998    1.988655    0.302652
      2         11           0        4.142929    0.379698   -0.515273
      3         11           0        1.055104    1.338681    1.072675
      4         11           0       -0.409170    0.011251   -1.578132
      5         11           0       -1.229749   -1.460613    1.816600
      6         11           0       -3.694277   -0.602207   -0.939611
      7         11           0        1.995161   -1.655463   -0.158912
 ---------------------------------------------------------------------

 SCF Done:  E(UB3LYP) =  -1136.11371655     A.U. after   30 cycles

 The electronic state is 2-A.
 Alpha  occ. eigenvalues --  -38.45517 -38.45140 -38.44414 -38.44154 -38.43684
 Alpha  occ. eigenvalues --  -38.42724 -38.42124  -2.21352  -2.21078  -2.20256
 Alpha  occ. eigenvalues --   -2.19985  -2.19606  -2.18672  -2.18090  -1.15043
 Alpha  occ. eigenvalues --   -1.14994  -1.14972  -1.14787  -1.14760  -1.14682
 Alpha  occ. eigenvalues --   -1.13916  -1.13890  -1.13873  -1.13655  -1.13643
 Alpha  occ. eigenvalues --   -1.13611  -1.13310  -1.13257  -1.13244  -1.12387
 Alpha  occ. eigenvalues --   -1.12333  -1.12296  -1.11800  -1.11741  -1.11705
 Alpha  occ. eigenvalues --   -0.18879  -0.14543  -0.11479  -0.10653
 Alpha virt. eigenvalues --   -0.07483  -0.04747  -0.04483  -0.03298  -0.03072
 Alpha virt. eigenvalues --   -0.02311  -0.02121  -0.01221  -0.00980  -0.00168
 Alpha virt. eigenvalues --   -0.00056   0.00308   0.00326   0.00780   0.00821

  Beta  occ. eigenvalues --  -38.45490 -38.45119 -38.44324 -38.44127 -38.43673
  Beta  occ. eigenvalues --  -38.42714 -38.42109  -2.21300  -2.21042  -2.20092
  Beta  occ. eigenvalues --   -2.19937  -2.19592  -2.18657  -2.18066  -1.15011
  Beta  occ. eigenvalues --   -1.14956  -1.14936  -1.14743  -1.14733  -1.14660
  Beta  occ. eigenvalues --   -1.13796  -1.13778  -1.13755  -1.13624  -1.13598
  Beta  occ. eigenvalues --   -1.13579  -1.13307  -1.13253  -1.13192  -1.12381
  Beta  occ. eigenvalues --   -1.12301  -1.12282  -1.11787  -1.11703  -1.11684
  Beta  occ. eigenvalues --   -0.18193  -0.14138  -0.10490
  Beta virt. eigenvalues --   -0.07647  -0.07180  -0.04673  -0.03967  -0.02956
  Beta virt. eigenvalues --   -0.02718  -0.01871  -0.01436  -0.00950  -0.00728
  Beta virt. eigenvalues --   -0.00095   0.00001   0.00336   0.00430   0.00810

 Mulliken charges and spin densities:
               1          2
     1  Na  -0.046692   0.052069
     2  Na   0.259387   0.130249
     3  Na  -0.265784   0.146460
     4  Na  -0.306032   0.083473
     5  Na  -0.267347   0.319119
     6  Na   0.243117   0.086296
     7  Na   0.383352   0.182334
 Sum of Mulliken charges =  -0.00000   1.00000

 Dipole moment (field-independent basis, Debye):
    X=              0.6815    Y=              0.1545    Z=              0.0764  Tot=              0.7030
 Quadrupole moment (field-independent basis, Debye-Ang):
   XX=            -47.7120   YY=            -78.8467   ZZ=            -68.1938
   XY=              1.6798   XZ=             -2.6758   YZ=             -3.6327

 Normal termination of Gaussian 16 at Thu Dec  7 23:48:03 2023.
