 Gaussian 16, Revision B.01,
 Gaussian 16:  ES64L-G16RevB.01 20-Dec-2017

 -------------------------
 #P B3LYP/6-311+g(d) force
 -------------------------

 -----
 DPGEN
 -----
 Symbolic Z-matrix:
 Charge =  0 Multiplicity = 2

                         Standard orientation:
 ---------------------------------------------------------------------
 Center     Atomic      Atomic             Coordinates (Angstroms)
 Number     Number       Type             X           Y           Z
 ---------------------------------------------------------------------
      1         11           0       -1.418979   -1.880730    0.542421
      2         11           0       -4.031763   -0.661955   -0.343562
      3         11           0        2.136708    0.872967   -1.279372
      4         11           0       -1.646849    1.578870   -0.957632
      5         11           0        1.026740    3.022608    0.667878
      6         11           0        2.865497   -2.545064   -0.895441
      7         11           0        1.068645   -0.386695    2.265708
 ---------------------------------------------------------------------

 SCF Done:  E(UB3LYP) =  -1136.12527507     A.U. after   19 cycles

 The electronic state is 2-A.
 Alpha  occ. eigenvalues --  -38.44184 -38.44162 -38.44064 -38.44059 -38.44019
 Alpha  occ. eigenvalues --  -38.43885 -38.43601  -2.20037  -2.19990  -2.19927
 Alpha  occ. eigenvalues --   -2.19889  -2.19873  -2.19658  -2.19461  -1.13785
 Alpha  occ. eigenvalues --   -1.13705  -1.13693  -1.13679  -1.13672  -1.13631
 Alpha  occ. eigenvalues --   -1.13601  -1.13599  -1.13569  -1.13545  -1.13537
 Alpha  occ. eigenvalues --   -1.13529  -1.13515  -1.13497  -1.13451  -1.13323
 Alpha  occ. eigenvalues --   -1.13314  -1.13277  -1.13135  -1.13105  -1.13089
 Alpha  occ. eigenvalues --   -0.17531  -0.13720  -0.12199  -0.11043
 Alpha virt. eigenvalues --   -0.05903  -0.05559  -0.04703  -0.03344  -0.03285
 Alpha virt. eigenvalues --   -0.02383  -0.01856  -0.01395  -0.00715  -0.00284
 Alpha virt. eigenvalues --   -0.00097   0.00248   0.00427   0.00624   0.00781

  Beta  occ. eigenvalues --  -38.44181 -38.44151 -38.44029 -38.44005 -38.43974
  Beta  occ. eigenvalues --  -38.43844 -38.43593  -2.20033  -2.19970  -2.19863
  Beta  occ. eigenvalues --   -2.19851  -2.19731  -2.19583  -2.19447  -1.13781
  Beta  occ. eigenvalues --   -1.13698  -1.13680  -1.13671  -1.13656  -1.13580
  Beta  occ. eigenvalues --   -1.13562  -1.13551  -1.13548  -1.13512  -1.13498
  Beta  occ. eigenvalues --   -1.13464  -1.13428  -1.13405  -1.13386  -1.13273
  Beta  occ. eigenvalues --   -1.13252  -1.13230  -1.13126  -1.13094  -1.13067
  Beta  occ. eigenvalues --   -0.16974  -0.13465  -0.11841
  Beta virt. eigenvalues --   -0.07326  -0.05767  -0.05186  -0.04526  -0.02918
  Beta virt. eigenvalues --   -0.02754  -0.01896  -0.01548  -0.01249  -0.00571
  Beta virt. eigenvalues --   -0.00048   0.00012   0.00321   0.00596   0.00731

 Mulliken charges and spin densities:
               1          2
     1  Na  -0.606872   0.165581
     2  Na   0.645205  -0.058186
     3  Na  -0.317699   0.206077
     4  Na  -0.382609   0.014381
     5  Na   0.612742   0.208475
     6  Na   0.183829   0.135416
     7  Na  -0.134595   0.328255
 Sum of Mulliken charges =  -0.00000   1.00000

 Dipole moment (field-independent basis, Debye):
    X=             -0.7702    Y=              0.2247    Z=              0.1681  Tot=              0.8197
 Quadrupole moment (field-independent basis, Debye-Ang):
   XX=            -59.6679   YY=            -65.3865   ZZ=            -71.3202
   XY=              1.8242   XZ=              1.8387   YZ=              2.3203

 Normal termination of Gaussian 16 at Mon Dec  4 02:55:49 2023.
