 Gaussian 16, Revision B.01,
 Gaussian 16:  ES64L-G16RevB.01 20-Dec-2017

 -------------------------
 #P B3LYP/6-311+g(d) force
 -------------------------

 -----
 DPGEN
 -----
 Symbolic Z-matrix:
 Charge =  0 Multiplicity = 2

                         Standard orientation:
 ---------------------------------------------------------------------
 Center     Atomic      Atomic             Coordinates (Angstroms)
 Number     Number       Type             X           Y           Z
 ---------------------------------------------------------------------
      1         11           0        0.931001   -1.450941    0.932943
      2         11           0        0.734642    1.624262    0.686843
      3         11           0       -1.978961    1.457398   -0.724457
      4         11           0       -1.746201   -1.597205   -0.619257
      5         11           0        2.897082    0.121033   -0.406857
      6         11           0        0.351118   -0.182933   -1.658657
      7         11           0       -1.188680    0.028387    1.789443
 ---------------------------------------------------------------------

 SCF Done:  E(UB3LYP) =  -1136.07755231     A.U. after   23 cycles

 The electronic state is 2-A.
 Alpha  occ. eigenvalues --  -38.44794 -38.44429 -38.44385 -38.43495 -38.43493
 Alpha  occ. eigenvalues --  -38.43306 -38.42981  -2.21005  -2.20673  -2.20472
 Alpha  occ. eigenvalues --   -2.19715  -2.19558  -2.19409  -2.19191  -1.14856
 Alpha  occ. eigenvalues --   -1.14646  -1.14624  -1.14557  -1.14439  -1.14273
 Alpha  occ. eigenvalues --   -1.14187  -1.14100  -1.14050  -1.13424  -1.13340
 Alpha  occ. eigenvalues --   -1.13290  -1.13282  -1.13208  -1.13202  -1.13087
 Alpha  occ. eigenvalues --   -1.13039  -1.12944  -1.12893  -1.12835  -1.12736
 Alpha  occ. eigenvalues --   -0.21645  -0.14205  -0.13041  -0.11958
 Alpha virt. eigenvalues --   -0.05496  -0.04280  -0.03884  -0.03875  -0.03050
 Alpha virt. eigenvalues --   -0.02812  -0.01215  -0.00386  -0.00267   0.00299
 Alpha virt. eigenvalues --    0.00779   0.00922   0.01009   0.01059   0.01107

  Beta  occ. eigenvalues --  -38.44707 -38.44422 -38.44304 -38.43470 -38.43452
  Beta  occ. eigenvalues --  -38.43288 -38.42954  -2.20850  -2.20532  -2.20459
  Beta  occ. eigenvalues --   -2.19643  -2.19519  -2.19382  -2.19151  -1.14739
  Beta  occ. eigenvalues --   -1.14531  -1.14515  -1.14473  -1.14358  -1.14176
  Beta  occ. eigenvalues --   -1.14160  -1.14089  -1.14000  -1.13375  -1.13266
  Beta  occ. eigenvalues --   -1.13260  -1.13226  -1.13184  -1.13145  -1.13054
  Beta  occ. eigenvalues --   -1.13002  -1.12918  -1.12860  -1.12774  -1.12700
  Beta  occ. eigenvalues --   -0.20795  -0.13924  -0.11692
  Beta virt. eigenvalues --   -0.08605  -0.05432  -0.03890  -0.03470  -0.03269
  Beta virt. eigenvalues --   -0.02241  -0.02085  -0.01149  -0.00301  -0.00090
  Beta virt. eigenvalues --    0.00331   0.00846   0.00971   0.01090   0.01112

 Mulliken charges and spin densities:
               1          2
     1  Na  -0.674600   0.186394
     2  Na  -0.754413   0.196897
     3  Na  -0.199108  -0.005268
     4  Na  -0.074735  -0.008259
     5  Na   0.957967  -0.031577
     6  Na  -0.039777   0.404193
     7  Na   0.784667   0.257619
 Sum of Mulliken charges =  -0.00000   1.00000

 Dipole moment (field-independent basis, Debye):
    X=              0.0581    Y=              0.0558    Z=             -0.1923  Tot=              0.2085
 Quadrupole moment (field-independent basis, Debye-Ang):
   XX=            -57.2179   YY=            -75.3763   ZZ=            -64.5566
   XY=             -0.0795   XZ=              0.2493   YZ=             -1.4485

 Normal termination of Gaussian 16 at Fri Dec  8 01:17:47 2023.
