 Gaussian 16, Revision B.01,
 Gaussian 16:  ES64L-G16RevB.01 20-Dec-2017

 -------------------------
 #P B3LYP/6-311+g(d) force
 -------------------------

 -----
 DPGEN
 -----
 Symbolic Z-matrix:
 Charge =  0 Multiplicity = 2

                         Standard orientation:
 ---------------------------------------------------------------------
 Center     Atomic      Atomic             Coordinates (Angstroms)
 Number     Number       Type             X           Y           Z
 ---------------------------------------------------------------------
      1         11           0        2.975567    1.554228   -0.270284
      2         11           0       -1.335296    2.481810   -0.442110
      3         11           0       -0.607026   -0.543195   -1.629637
      4         11           0        0.647144    0.778086    1.810552
      5         11           0       -3.367974   -0.177109    0.270245
      6         11           0        2.364372   -1.812194   -0.282801
      7         11           0       -0.676787   -2.281627    0.544035
 ---------------------------------------------------------------------

 SCF Done:  E(UB3LYP) =  -1136.12743951     A.U. after   21 cycles

 The electronic state is 2-A.
 Alpha  occ. eigenvalues --  -38.44772 -38.44393 -38.43686 -38.43595 -38.43472
 Alpha  occ. eigenvalues --  -38.43295 -38.42942  -2.20607  -2.20205  -2.19563
 Alpha  occ. eigenvalues --   -2.19479  -2.19441  -2.19203  -2.18921  -1.14276
 Alpha  occ. eigenvalues --   -1.14267  -1.14253  -1.13890  -1.13862  -1.13845
 Alpha  occ. eigenvalues --   -1.13325  -1.13245  -1.13231  -1.13196  -1.13171
 Alpha  occ. eigenvalues --   -1.13112  -1.13089  -1.13066  -1.13042  -1.12875
 Alpha  occ. eigenvalues --   -1.12837  -1.12829  -1.12590  -1.12544  -1.12518
 Alpha  occ. eigenvalues --   -0.18804  -0.13589  -0.12188  -0.10503
 Alpha virt. eigenvalues --   -0.06368  -0.05334  -0.04020  -0.03452  -0.02887
 Alpha virt. eigenvalues --   -0.02133  -0.01992  -0.01089  -0.00415  -0.00086
 Alpha virt. eigenvalues --    0.00003   0.00313   0.00705   0.00808   0.00862

  Beta  occ. eigenvalues --  -38.44769 -38.44392 -38.43678 -38.43582 -38.43413
  Beta  occ. eigenvalues --  -38.43227 -38.42922  -2.20604  -2.20205  -2.19550
  Beta  occ. eigenvalues --   -2.19420  -2.19373  -2.19077  -2.18888  -1.14275
  Beta  occ. eigenvalues --   -1.14254  -1.14243  -1.13884  -1.13856  -1.13845
  Beta  occ. eigenvalues --   -1.13269  -1.13221  -1.13206  -1.13181  -1.13138
  Beta  occ. eigenvalues --   -1.13077  -1.13051  -1.13028  -1.12973  -1.12792
  Beta  occ. eigenvalues --   -1.12744  -1.12738  -1.12563  -1.12510  -1.12474
  Beta  occ. eigenvalues --   -0.18088  -0.13372  -0.11969
  Beta virt. eigenvalues --   -0.06650  -0.06243  -0.05318  -0.03961  -0.02732
  Beta virt. eigenvalues --   -0.02169  -0.01880  -0.01190  -0.01010  -0.00420
  Beta virt. eigenvalues --   -0.00037   0.00125   0.00354   0.00786   0.00829

 Mulliken charges and spin densities:
               1          2
     1  Na   0.134949  -0.080293
     2  Na   0.016396  -0.090509
     3  Na  -0.313193   0.404931
     4  Na  -0.443721   0.443842
     5  Na   0.237623   0.012846
     6  Na   0.178050   0.057454
     7  Na   0.189895   0.251729
 Sum of Mulliken charges =  -0.00000   1.00000

 Dipole moment (field-independent basis, Debye):
    X=             -0.1631    Y=              0.3362    Z=              0.0061  Tot=              0.3737
 Quadrupole moment (field-independent basis, Debye-Ang):
   XX=            -50.5720   YY=            -67.9254   ZZ=            -74.3920
   XY=              0.2279   XZ=             -2.9067   YZ=             -2.0899

 Normal termination of Gaussian 16 at Tue Dec  5 16:14:16 2023.
