 Gaussian 16, Revision B.01,
 Gaussian 16:  ES64L-G16RevB.01 20-Dec-2017

 -------------------------
 #P B3LYP/6-311+g(d) force
 -------------------------

 -----
 DPGEN
 -----
 Symbolic Z-matrix:
 Charge =  0 Multiplicity = 2

                         Standard orientation:
 ---------------------------------------------------------------------
 Center     Atomic      Atomic             Coordinates (Angstroms)
 Number     Number       Type             X           Y           Z
 ---------------------------------------------------------------------
      1         11           0       -0.723571    1.438780   -1.697913
      2         11           0        1.898002    2.721432   -0.217092
      3         11           0       -1.976949   -2.000305   -1.168708
      4         11           0        2.091206   -1.466568   -1.382570
      5         11           0        0.219177    1.027915    1.700208
      6         11           0       -3.381918    0.382690    1.102018
      7         11           0        1.874053   -2.103943    1.664056
 ---------------------------------------------------------------------

 SCF Done:  E(UB3LYP) =  -1136.12594244     A.U. after   20 cycles

 The electronic state is 2-A.
 Alpha  occ. eigenvalues --  -38.44325 -38.44200 -38.44104 -38.43994 -38.43761
 Alpha  occ. eigenvalues --  -38.43659 -38.43388  -2.20096  -2.19985  -2.19960
 Alpha  occ. eigenvalues --   -2.19804  -2.19663  -2.19485  -2.19245  -1.13782
 Alpha  occ. eigenvalues --   -1.13759  -1.13722  -1.13654  -1.13648  -1.13643
 Alpha  occ. eigenvalues --   -1.13618  -1.13604  -1.13577  -1.13503  -1.13458
 Alpha  occ. eigenvalues --   -1.13445  -1.13357  -1.13323  -1.13296  -1.13139
 Alpha  occ. eigenvalues --   -1.13129  -1.13114  -1.12914  -1.12892  -1.12873
 Alpha  occ. eigenvalues --   -0.17685  -0.12666  -0.12118  -0.11562
 Alpha virt. eigenvalues --   -0.05612  -0.05208  -0.04713  -0.03504  -0.03255
 Alpha virt. eigenvalues --   -0.03071  -0.01335  -0.01113  -0.00642  -0.00045
 Alpha virt. eigenvalues --    0.00099   0.00362   0.00470   0.00661   0.00710

  Beta  occ. eigenvalues --  -38.44309 -38.44176 -38.44060 -38.43982 -38.43705
  Beta  occ. eigenvalues --  -38.43633 -38.43386  -2.20068  -2.19940  -2.19882
  Beta  occ. eigenvalues --   -2.19781  -2.19560  -2.19437  -2.19244  -1.13749
  Beta  occ. eigenvalues --   -1.13741  -1.13703  -1.13617  -1.13609  -1.13599
  Beta  occ. eigenvalues --   -1.13578  -1.13547  -1.13521  -1.13485  -1.13434
  Beta  occ. eigenvalues --   -1.13430  -1.13284  -1.13256  -1.13216  -1.13101
  Beta  occ. eigenvalues --   -1.13098  -1.13079  -1.12902  -1.12881  -1.12874
  Beta  occ. eigenvalues --   -0.16934  -0.12491  -0.11980
  Beta virt. eigenvalues --   -0.07796  -0.05262  -0.04983  -0.04176  -0.03293
  Beta virt. eigenvalues --   -0.02840  -0.02218  -0.01250  -0.00988  -0.00351
  Beta virt. eigenvalues --    0.00071   0.00204   0.00407   0.00637   0.00721

 Mulliken charges and spin densities:
               1          2
     1  Na  -0.440378   0.483118
     2  Na   0.259799   0.060973
     3  Na   0.033577   0.115584
     4  Na  -0.071250   0.013840
     5  Na   0.284684   0.323891
     6  Na  -0.001529  -0.022226
     7  Na  -0.064903   0.024819
 Sum of Mulliken charges =  -0.00000   1.00000

 Dipole moment (field-independent basis, Debye):
    X=             -0.3233    Y=             -0.0081    Z=             -0.2182  Tot=              0.3901
 Quadrupole moment (field-independent basis, Debye-Ang):
   XX=            -62.7979   YY=            -68.8880   ZZ=            -65.0650
   XY=              1.9623   XZ=             -2.2339   YZ=             -0.3341

 Normal termination of Gaussian 16 at Sun Dec  3 15:57:58 2023.
