 Gaussian 16, Revision B.01,
 Gaussian 16:  ES64L-G16RevB.01 20-Dec-2017

 -------------------------
 #P B3LYP/6-311+g(d) force
 -------------------------

 -----
 DPGEN
 -----
 Symbolic Z-matrix:
 Charge =  0 Multiplicity = 2

                         Standard orientation:
 ---------------------------------------------------------------------
 Center     Atomic      Atomic             Coordinates (Angstroms)
 Number     Number       Type             X           Y           Z
 ---------------------------------------------------------------------
      1         11           0        4.117130   -0.108978    0.148026
      2         11           0        0.690522   -0.671933    2.040656
      3         11           0       -1.310961    2.266061   -0.605337
      4         11           0        1.750143    2.329130   -0.269952
      5         11           0       -4.630406   -0.259613    0.273304
      6         11           0       -2.054094   -1.064041   -0.345662
      7         11           0        1.437666   -2.490626   -1.241035
 ---------------------------------------------------------------------

 SCF Done:  E(UB3LYP) =  -1136.11053853     A.U. after   26 cycles

 The electronic state is 2-A.
 Alpha  occ. eigenvalues --  -38.46191 -38.44962 -38.44184 -38.43953 -38.43673
 Alpha  occ. eigenvalues --  -38.43474 -38.42956  -2.21965  -2.20703  -2.20062
 Alpha  occ. eigenvalues --   -2.19781  -2.19517  -2.19400  -2.18807  -1.15631
 Alpha  occ. eigenvalues --   -1.15605  -1.15587  -1.14401  -1.14359  -1.14343
 Alpha  occ. eigenvalues --   -1.13872  -1.13670  -1.13650  -1.13441  -1.13421
 Alpha  occ. eigenvalues --   -1.13391  -1.13213  -1.13176  -1.13160  -1.13077
 Alpha  occ. eigenvalues --   -1.13046  -1.13003  -1.12487  -1.12467  -1.12450
 Alpha  occ. eigenvalues --   -0.17385  -0.14141  -0.11855  -0.10566
 Alpha virt. eigenvalues --   -0.07567  -0.05014  -0.04452  -0.03354  -0.03266
 Alpha virt. eigenvalues --   -0.02479  -0.01903  -0.01649  -0.00978  -0.00554
 Alpha virt. eigenvalues --   -0.00374  -0.00109   0.00205   0.00602   0.00764

  Beta  occ. eigenvalues --  -38.46147 -38.44981 -38.44109 -38.43870 -38.43654
  Beta  occ. eigenvalues --  -38.43466 -38.42948  -2.21884  -2.20740  -2.19923
  Beta  occ. eigenvalues --   -2.19625  -2.19483  -2.19394  -2.18797  -1.15564
  Beta  occ. eigenvalues --   -1.15553  -1.15533  -1.14428  -1.14377  -1.14361
  Beta  occ. eigenvalues --   -1.13785  -1.13574  -1.13556  -1.13333  -1.13319
  Beta  occ. eigenvalues --   -1.13286  -1.13186  -1.13148  -1.13142  -1.13073
  Beta  occ. eigenvalues --   -1.13028  -1.12961  -1.12481  -1.12457  -1.12420
  Beta  occ. eigenvalues --   -0.16854  -0.13354  -0.11612
  Beta virt. eigenvalues --   -0.07431  -0.07109  -0.04861  -0.04000  -0.03066
  Beta virt. eigenvalues --   -0.02836  -0.02374  -0.01664  -0.01132  -0.00628
  Beta virt. eigenvalues --   -0.00273  -0.00136  -0.00000   0.00330   0.00710

 Mulliken charges and spin densities:
               1          2
     1  Na   0.087097   0.552641
     2  Na   0.028246   0.121469
     3  Na   0.108482  -0.011577
     4  Na  -0.181022   0.053011
     5  Na   0.586899  -0.000988
     6  Na  -1.150577   0.318358
     7  Na   0.520875  -0.032913
 Sum of Mulliken charges =  -0.00000   1.00000

 Dipole moment (field-independent basis, Debye):
    X=              0.1233    Y=             -0.7551    Z=              0.8468  Tot=              1.1413
 Quadrupole moment (field-independent basis, Debye-Ang):
   XX=            -69.5056   YY=            -75.2381   ZZ=            -60.5181
   XY=             -4.9957   XZ=             -0.7512   YZ=              1.7607

 Normal termination of Gaussian 16 at Sun Dec  3 21:58:53 2023.
