 Gaussian 16, Revision B.01,
 Gaussian 16:  ES64L-G16RevB.01 20-Dec-2017

 -------------------------
 #P B3LYP/6-311+g(d) force
 -------------------------

 -----
 DPGEN
 -----
 Symbolic Z-matrix:
 Charge =  0 Multiplicity = 2

                         Standard orientation:
 ---------------------------------------------------------------------
 Center     Atomic      Atomic             Coordinates (Angstroms)
 Number     Number       Type             X           Y           Z
 ---------------------------------------------------------------------
      1         11           0        1.185488    2.380049   -0.416225
      2         11           0       -3.142373   -2.514143    0.656841
      3         11           0        4.158574    1.371545    0.775561
      4         11           0       -4.605958   -0.136882   -0.229579
      5         11           0       -2.284967    2.897438    0.001496
      6         11           0        3.771474   -2.371041   -0.349892
      7         11           0        0.917762   -1.626965   -0.438202
 ---------------------------------------------------------------------

 SCF Done:  E(UB3LYP) =  -1136.10627495     A.U. after   22 cycles

 The electronic state is 2-A.
 Alpha  occ. eigenvalues --  -38.44928 -38.44847 -38.44845 -38.44586 -38.44418
 Alpha  occ. eigenvalues --  -38.43912 -38.43748  -2.20750  -2.20668  -2.20664
 Alpha  occ. eigenvalues --   -2.20404  -2.20241  -2.19693  -2.19535  -1.14546
 Alpha  occ. eigenvalues --   -1.14421  -1.14412  -1.14378  -1.14320  -1.14309
 Alpha  occ. eigenvalues --   -1.14296  -1.14287  -1.14239  -1.14049  -1.14048
 Alpha  occ. eigenvalues --   -1.14009  -1.13882  -1.13878  -1.13871  -1.13354
 Alpha  occ. eigenvalues --   -1.13337  -1.13327  -1.13227  -1.13224  -1.13169
 Alpha  occ. eigenvalues --   -0.16214  -0.14410  -0.12534  -0.10803
 Alpha virt. eigenvalues --   -0.07498  -0.04933  -0.04546  -0.03650  -0.03262
 Alpha virt. eigenvalues --   -0.02789  -0.02438  -0.01592  -0.01057  -0.00728
 Alpha virt. eigenvalues --   -0.00462  -0.00150   0.00278   0.00404   0.00494

  Beta  occ. eigenvalues --  -38.44890 -38.44835 -38.44835 -38.44484 -38.44392
  Beta  occ. eigenvalues --  -38.43861 -38.43759  -2.20683  -2.20650  -2.20649
  Beta  occ. eigenvalues --   -2.20214  -2.20194  -2.19597  -2.19560  -1.14506
  Beta  occ. eigenvalues --   -1.14394  -1.14368  -1.14335  -1.14311  -1.14301
  Beta  occ. eigenvalues --   -1.14274  -1.14268  -1.14209  -1.13921  -1.13918
  Beta  occ. eigenvalues --   -1.13882  -1.13849  -1.13848  -1.13833  -1.13289
  Beta  occ. eigenvalues --   -1.13273  -1.13269  -1.13248  -1.13245  -1.13142
  Beta  occ. eigenvalues --   -0.15735  -0.13835  -0.11839
  Beta virt. eigenvalues --   -0.07546  -0.07408  -0.04736  -0.04205  -0.03249
  Beta virt. eigenvalues --   -0.02862  -0.02556  -0.02146  -0.01400  -0.00648
  Beta virt. eigenvalues --   -0.00582  -0.00233   0.00109   0.00305   0.00508

 Mulliken charges and spin densities:
               1          2
     1  Na  -0.276682   0.018221
     2  Na   0.280168   0.127617
     3  Na   0.333597   0.458280
     4  Na  -0.094238   0.068828
     5  Na   0.042187   0.203473
     6  Na   0.913107  -0.141060
     7  Na  -1.198139   0.264642
 Sum of Mulliken charges =  -0.00000   1.00000

 Dipole moment (field-independent basis, Debye):
    X=              0.4172    Y=             -1.0365    Z=              0.1539  Tot=              1.1278
 Quadrupole moment (field-independent basis, Debye-Ang):
   XX=            -52.6090   YY=            -73.4442   ZZ=            -72.7753
   XY=             -8.5304   XZ=              1.5757   YZ=             -1.3532

 Normal termination of Gaussian 16 at Sun Dec  3 21:14:46 2023.
