 Gaussian 16, Revision B.01,
 Gaussian 16:  ES64L-G16RevB.01 20-Dec-2017

 -------------------------
 #P B3LYP/6-311+g(d) force
 -------------------------

 -----
 DPGEN
 -----
 Symbolic Z-matrix:
 Charge =  0 Multiplicity = 2

                         Standard orientation:
 ---------------------------------------------------------------------
 Center     Atomic      Atomic             Coordinates (Angstroms)
 Number     Number       Type             X           Y           Z
 ---------------------------------------------------------------------
      1         11           0        0.368506    2.583644    0.478414
      2         11           0        1.857661   -2.227898   -0.050208
      3         11           0        0.138327    0.206488   -1.793962
      4         11           0        3.096958    0.533585   -0.088840
      5         11           0       -2.678578    1.337630   -0.324564
      6         11           0       -0.369730   -0.383564    1.891081
      7         11           0       -2.413145   -2.049885   -0.111920
 ---------------------------------------------------------------------

 SCF Done:  E(UB3LYP) =  -1136.13590701     A.U. after   19 cycles

 The electronic state is 2-A.
 Alpha  occ. eigenvalues --  -38.44167 -38.43933 -38.43750 -38.43581 -38.43503
 Alpha  occ. eigenvalues --  -38.43403 -38.42720  -2.20048  -2.19808  -2.19580
 Alpha  occ. eigenvalues --   -2.19459  -2.19456  -2.19337  -2.18627  -1.13758
 Alpha  occ. eigenvalues --   -1.13705  -1.13688  -1.13495  -1.13470  -1.13448
 Alpha  occ. eigenvalues --   -1.13266  -1.13236  -1.13220  -1.13158  -1.13130
 Alpha  occ. eigenvalues --   -1.13125  -1.13092  -1.13079  -1.13069  -1.13006
 Alpha  occ. eigenvalues --   -1.12962  -1.12956  -1.12312  -1.12284  -1.12258
 Alpha  occ. eigenvalues --   -0.18951  -0.13549  -0.12119  -0.10921
 Alpha virt. eigenvalues --   -0.05754  -0.05401  -0.04100  -0.03487  -0.02865
 Alpha virt. eigenvalues --   -0.02543  -0.01651  -0.01055  -0.00265  -0.00119
 Alpha virt. eigenvalues --    0.00024   0.00365   0.00756   0.00882   0.00946

  Beta  occ. eigenvalues --  -38.44164 -38.43923 -38.43748 -38.43577 -38.43432
  Beta  occ. eigenvalues --  -38.43319 -38.42705  -2.20046  -2.19794  -2.19579
  Beta  occ. eigenvalues --   -2.19452  -2.19328  -2.19184  -2.18604  -1.13760
  Beta  occ. eigenvalues --   -1.13699  -1.13671  -1.13480  -1.13445  -1.13437
  Beta  occ. eigenvalues --   -1.13256  -1.13226  -1.13217  -1.13137  -1.13103
  Beta  occ. eigenvalues --   -1.13078  -1.13053  -1.12994  -1.12978  -1.12906
  Beta  occ. eigenvalues --   -1.12851  -1.12847  -1.12299  -1.12248  -1.12235
  Beta  occ. eigenvalues --   -0.18206  -0.13301  -0.11879
  Beta virt. eigenvalues --   -0.06995  -0.05669  -0.05411  -0.04081  -0.02682
  Beta virt. eigenvalues --   -0.02085  -0.01548  -0.01510  -0.00992  -0.00314
  Beta virt. eigenvalues --   -0.00100   0.00123   0.00391   0.00835   0.00875

 Mulliken charges and spin densities:
               1          2
     1  Na   0.154208   0.039204
     2  Na   0.120427  -0.122162
     3  Na  -0.304646   0.538087
     4  Na   0.147089   0.005932
     5  Na   0.198325   0.029099
     6  Na  -0.359648   0.640996
     7  Na   0.044245  -0.131156
 Sum of Mulliken charges =  -0.00000   1.00000

 Dipole moment (field-independent basis, Debye):
    X=             -0.0675    Y=             -0.1346    Z=             -0.0828  Tot=              0.1719
 Quadrupole moment (field-independent basis, Debye-Ang):
   XX=            -54.7705   YY=            -66.0994   ZZ=            -73.3103
   XY=              0.4680   XZ=              1.1186   YZ=              1.0896

 Normal termination of Gaussian 16 at Wed Dec  6 01:25:56 2023.
