 Gaussian 16, Revision B.01,
 Gaussian 16:  ES64L-G16RevB.01 20-Dec-2017

 -------------------------
 #P B3LYP/6-311+g(d) force
 -------------------------

 -----
 DPGEN
 -----
 Symbolic Z-matrix:
 Charge =  0 Multiplicity = 2

                         Standard orientation:
 ---------------------------------------------------------------------
 Center     Atomic      Atomic             Coordinates (Angstroms)
 Number     Number       Type             X           Y           Z
 ---------------------------------------------------------------------
      1         11           0       -0.364654    0.300242   -1.683206
      2         11           0        0.736827   -2.483702   -0.472658
      3         11           0       -2.562029    1.803167    0.336681
      4         11           0        1.328664    2.692292   -0.251160
      5         11           0        3.191711   -0.492573    0.213930
      6         11           0        0.402020   -0.133142    1.697429
      7         11           0       -2.732539   -1.686284    0.158984
 ---------------------------------------------------------------------

 SCF Done:  E(UB3LYP) =  -1136.13550016     A.U. after   19 cycles

 The electronic state is 2-A.
 Alpha  occ. eigenvalues --  -38.44203 -38.44108 -38.43942 -38.43457 -38.43343
 Alpha  occ. eigenvalues --  -38.42991 -38.42955  -2.20067  -2.19930  -2.19764
 Alpha  occ. eigenvalues --   -2.19311  -2.19291  -2.18943  -2.18919  -1.13762
 Alpha  occ. eigenvalues --   -1.13730  -1.13695  -1.13615  -1.13595  -1.13560
 Alpha  occ. eigenvalues --   -1.13435  -1.13418  -1.13408  -1.13021  -1.12991
 Alpha  occ. eigenvalues --   -1.12970  -1.12932  -1.12922  -1.12914  -1.12678
 Alpha  occ. eigenvalues --   -1.12603  -1.12581  -1.12558  -1.12543  -1.12520
 Alpha  occ. eigenvalues --   -0.18831  -0.13326  -0.12314  -0.10497
 Alpha virt. eigenvalues --   -0.05828  -0.05447  -0.04358  -0.03236  -0.02741
 Alpha virt. eigenvalues --   -0.02168  -0.01754  -0.01234  -0.00449  -0.00178
 Alpha virt. eigenvalues --    0.00024   0.00337   0.00754   0.00830   0.00905

  Beta  occ. eigenvalues --  -38.44196 -38.44099 -38.43939 -38.43450 -38.43278
  Beta  occ. eigenvalues --  -38.42974 -38.42879  -2.20059  -2.19917  -2.19761
  Beta  occ. eigenvalues --   -2.19281  -2.19191  -2.18892  -2.18803  -1.13751
  Beta  occ. eigenvalues --   -1.13713  -1.13685  -1.13603  -1.13575  -1.13550
  Beta  occ. eigenvalues --   -1.13423  -1.13418  -1.13397  -1.12980  -1.12939
  Beta  occ. eigenvalues --   -1.12932  -1.12912  -1.12855  -1.12837  -1.12625
  Beta  occ. eigenvalues --   -1.12536  -1.12527  -1.12511  -1.12461  -1.12437
  Beta  occ. eigenvalues --   -0.18127  -0.13065  -0.12054
  Beta virt. eigenvalues --   -0.06643  -0.05734  -0.05446  -0.04324  -0.02488
  Beta virt. eigenvalues --   -0.01993  -0.01639  -0.01189  -0.01174  -0.00474
  Beta virt. eigenvalues --   -0.00187   0.00149   0.00377   0.00809   0.00836

 Mulliken charges and spin densities:
               1          2
     1  Na  -0.063294   0.533995
     2  Na   0.178142   0.006948
     3  Na  -0.048510  -0.040222
     4  Na  -0.026441  -0.137531
     5  Na   0.314594   0.015094
     6  Na  -0.352562   0.647009
     7  Na  -0.001929  -0.025293
 Sum of Mulliken charges =  -0.00000   1.00000

 Dipole moment (field-independent basis, Debye):
    X=             -0.0977    Y=              0.1704    Z=              0.1217  Tot=              0.2311
 Quadrupole moment (field-independent basis, Debye-Ang):
   XX=            -52.9233   YY=            -63.7227   ZZ=            -75.4202
   XY=              0.4046   XZ=             -1.4566   YZ=              0.8837

 Normal termination of Gaussian 16 at Sun Dec  3 23:49:25 2023.
