 Gaussian 16, Revision B.01,
 Gaussian 16:  ES64L-G16RevB.01 20-Dec-2017

 -------------------------
 #P B3LYP/6-311+g(d) force
 -------------------------

 -----
 DPGEN
 -----
 Symbolic Z-matrix:
 Charge =  0 Multiplicity = 2

                         Standard orientation:
 ---------------------------------------------------------------------
 Center     Atomic      Atomic             Coordinates (Angstroms)
 Number     Number       Type             X           Y           Z
 ---------------------------------------------------------------------
      1         11           0       -0.337043   -0.217054    1.853764
      2         11           0        2.897989   -0.232510    0.187715
      3         11           0       -2.157518    1.724042    0.057114
      4         11           0        1.129699    2.367501    0.027074
      5         11           0       -2.448072   -1.303256   -0.285159
      6         11           0        0.274096    0.125298   -1.785503
      7         11           0        0.640849   -2.464021   -0.055005
 ---------------------------------------------------------------------

 SCF Done:  E(UB3LYP) =  -1136.13166733     A.U. after   20 cycles

 The electronic state is 2-A.
 Alpha  occ. eigenvalues --  -38.43779 -38.43542 -38.43457 -38.43379 -38.43368
 Alpha  occ. eigenvalues --  -38.43081 -38.42934  -2.19705  -2.19496  -2.19486
 Alpha  occ. eigenvalues --   -2.19440  -2.19312  -2.19035  -2.18912  -1.13403
 Alpha  occ. eigenvalues --   -1.13374  -1.13353  -1.13279  -1.13194  -1.13169
 Alpha  occ. eigenvalues --   -1.13160  -1.13144  -1.13130  -1.13099  -1.13066
 Alpha  occ. eigenvalues --   -1.13041  -1.12961  -1.12949  -1.12929  -1.12708
 Alpha  occ. eigenvalues --   -1.12682  -1.12649  -1.12594  -1.12568  -1.12524
 Alpha  occ. eigenvalues --   -0.19952  -0.13499  -0.12665  -0.11319
 Alpha virt. eigenvalues --   -0.05356  -0.04810  -0.04287  -0.03469  -0.02992
 Alpha virt. eigenvalues --   -0.02661  -0.01296  -0.00781  -0.00035   0.00208
 Alpha virt. eigenvalues --    0.00245   0.00380   0.00908   0.01012   0.01023

  Beta  occ. eigenvalues --  -38.43774 -38.43533 -38.43373 -38.43361 -38.43298
  Beta  occ. eigenvalues --  -38.43073 -38.42923  -2.19698  -2.19482  -2.19333
  Beta  occ. eigenvalues --   -2.19304  -2.19291  -2.19026  -2.18898  -1.13398
  Beta  occ. eigenvalues --   -1.13374  -1.13320  -1.13253  -1.13170  -1.13115
  Beta  occ. eigenvalues --   -1.13081  -1.13054  -1.13041  -1.13004  -1.12973
  Beta  occ. eigenvalues --   -1.12959  -1.12929  -1.12922  -1.12900  -1.12694
  Beta  occ. eigenvalues --   -1.12652  -1.12637  -1.12586  -1.12523  -1.12512
  Beta  occ. eigenvalues --   -0.19170  -0.13221  -0.12365
  Beta virt. eigenvalues --   -0.07297  -0.05329  -0.04811  -0.04295  -0.02601
  Beta virt. eigenvalues --   -0.02142  -0.01568  -0.01214  -0.00728   0.00100
  Beta virt. eigenvalues --    0.00163   0.00193   0.00392   0.00965   0.00999

 Mulliken charges and spin densities:
               1          2
     1  Na  -0.806481   0.612929
     2  Na   0.139135  -0.038183
     3  Na   0.283360  -0.039607
     4  Na   0.376489  -0.038176
     5  Na   0.328980  -0.017793
     6  Na  -0.777869   0.550987
     7  Na   0.456385  -0.030158
 Sum of Mulliken charges =  -0.00000   1.00000

 Dipole moment (field-independent basis, Debye):
    X=              0.0334    Y=              0.0033    Z=              0.0747  Tot=              0.0819
 Quadrupole moment (field-independent basis, Debye-Ang):
   XX=            -57.7673   YY=            -65.8969   ZZ=            -71.4707
   XY=             -0.0794   XZ=              1.3596   YZ=              0.7800

 Normal termination of Gaussian 16 at Sat Dec  9 06:37:43 2023.
