 Gaussian 16, Revision B.01,
 Gaussian 16:  ES64L-G16RevB.01 20-Dec-2017

 -------------------------
 #P B3LYP/6-311+g(d) force
 -------------------------

 -----
 DPGEN
 -----
 Symbolic Z-matrix:
 Charge =  0 Multiplicity = 2

                         Standard orientation:
 ---------------------------------------------------------------------
 Center     Atomic      Atomic             Coordinates (Angstroms)
 Number     Number       Type             X           Y           Z
 ---------------------------------------------------------------------
      1         11           0        0.795860    3.233832   -0.264922
      2         11           0        0.997359    0.289462    1.750859
      3         11           0        2.360757    0.406340   -1.541715
      4         11           0       -1.089129   -2.071091   -0.340645
      5         11           0       -3.964874   -1.179221   -0.374051
      6         11           0       -1.898376    1.884647    0.405799
      7         11           0        2.798405   -2.563969    0.364675
 ---------------------------------------------------------------------

 SCF Done:  E(UB3LYP) =  -1136.12859251     A.U. after   19 cycles

 The electronic state is 2-A.
 Alpha  occ. eigenvalues --  -38.44398 -38.44214 -38.44131 -38.43904 -38.43765
 Alpha  occ. eigenvalues --  -38.43686 -38.43589  -2.20186  -2.20057  -2.19960
 Alpha  occ. eigenvalues --   -2.19779  -2.19615  -2.19519  -2.19456  -1.13856
 Alpha  occ. eigenvalues --   -1.13851  -1.13819  -1.13755  -1.13734  -1.13685
 Alpha  occ. eigenvalues --   -1.13644  -1.13639  -1.13633  -1.13468  -1.13450
 Alpha  occ. eigenvalues --   -1.13366  -1.13280  -1.13274  -1.13221  -1.13177
 Alpha  occ. eigenvalues --   -1.13161  -1.13141  -1.13134  -1.13099  -1.13090
 Alpha  occ. eigenvalues --   -0.17705  -0.13400  -0.12938  -0.10252
 Alpha virt. eigenvalues --   -0.06081  -0.05597  -0.05152  -0.03188  -0.02969
 Alpha virt. eigenvalues --   -0.01985  -0.01931  -0.01575  -0.00959  -0.00550
 Alpha virt. eigenvalues --   -0.00042   0.00233   0.00545   0.00615   0.00767

  Beta  occ. eigenvalues --  -38.44394 -38.44204 -38.44126 -38.43841 -38.43688
  Beta  occ. eigenvalues --  -38.43672 -38.43580  -2.20180  -2.20039  -2.19953
  Beta  occ. eigenvalues --   -2.19664  -2.19494  -2.19473  -2.19443  -1.13854
  Beta  occ. eigenvalues --   -1.13833  -1.13815  -1.13748  -1.13711  -1.13668
  Beta  occ. eigenvalues --   -1.13641  -1.13636  -1.13607  -1.13392  -1.13365
  Beta  occ. eigenvalues --   -1.13280  -1.13185  -1.13182  -1.13160  -1.13142
  Beta  occ. eigenvalues --   -1.13131  -1.13125  -1.13120  -1.13086  -1.13045
  Beta  occ. eigenvalues --   -0.17110  -0.13095  -0.12702
  Beta virt. eigenvalues --   -0.06573  -0.05975  -0.05436  -0.04912  -0.02635
  Beta virt. eigenvalues --   -0.02348  -0.01922  -0.01535  -0.01173  -0.00940
  Beta virt. eigenvalues --   -0.00350   0.00207   0.00330   0.00677   0.00707

 Mulliken charges and spin densities:
               1          2
     1  Na   0.427626   0.047122
     2  Na  -0.124927   0.351057
     3  Na  -0.190461   0.414094
     4  Na  -1.145666   0.096650
     5  Na   0.989345  -0.052162
     6  Na  -0.495815   0.014086
     7  Na   0.539899   0.129154
 Sum of Mulliken charges =  -0.00000   1.00000

 Dipole moment (field-independent basis, Debye):
    X=              0.0387    Y=             -0.2826    Z=              0.3682  Tot=              0.4658
 Quadrupole moment (field-independent basis, Debye-Ang):
   XX=            -59.4309   YY=            -61.6972   ZZ=            -74.8584
   XY=             -6.1156   XZ=              1.8263   YZ=              0.3050

 Normal termination of Gaussian 16 at Sun Dec  3 22:05:37 2023.
