 Gaussian 16, Revision B.01,
 Gaussian 16:  ES64L-G16RevB.01 20-Dec-2017

 -------------------------
 #P B3LYP/6-311+g(d) force
 -------------------------

 -----
 DPGEN
 -----
 Symbolic Z-matrix:
 Charge =  0 Multiplicity = 2

                         Standard orientation:
 ---------------------------------------------------------------------
 Center     Atomic      Atomic             Coordinates (Angstroms)
 Number     Number       Type             X           Y           Z
 ---------------------------------------------------------------------
      1         11           0       -2.804490    0.416705   -0.496359
      2         11           0       -0.259196    0.144508    2.040099
      3         11           0        1.883310   -2.070944   -0.066229
      4         11           0       -0.604861    3.014344   -0.029981
      5         11           0        2.914943    1.200675    0.018383
      6         11           0       -1.418075   -2.467008    0.227091
      7         11           0        0.288368   -0.238278   -1.693004
 ---------------------------------------------------------------------

 SCF Done:  E(UB3LYP) =  -1136.13743728     A.U. after   19 cycles

 The electronic state is 2-A.
 Alpha  occ. eigenvalues --  -38.43867 -38.43642 -38.43628 -38.43525 -38.43506
 Alpha  occ. eigenvalues --  -38.43339 -38.43192  -2.19683  -2.19533  -2.19458
 Alpha  occ. eigenvalues --   -2.19431  -2.19412  -2.19345  -2.19104  -1.13364
 Alpha  occ. eigenvalues --   -1.13354  -1.13321  -1.13280  -1.13210  -1.13174
 Alpha  occ. eigenvalues --   -1.13161  -1.13137  -1.13120  -1.13108  -1.13101
 Alpha  occ. eigenvalues --   -1.13074  -1.13069  -1.13043  -1.13033  -1.12988
 Alpha  occ. eigenvalues --   -1.12944  -1.12925  -1.12770  -1.12755  -1.12741
 Alpha  occ. eigenvalues --   -0.18962  -0.12975  -0.12609  -0.10980
 Alpha virt. eigenvalues --   -0.05447  -0.04919  -0.04774  -0.03238  -0.03041
 Alpha virt. eigenvalues --   -0.02667  -0.01281  -0.01105  -0.00265  -0.00140
 Alpha virt. eigenvalues --    0.00016   0.00371   0.00875   0.00897   0.00943

  Beta  occ. eigenvalues --  -38.43866 -38.43641 -38.43535 -38.43511 -38.43499
  Beta  occ. eigenvalues --  -38.43272 -38.43183  -2.19684  -2.19459  -2.19421
  Beta  occ. eigenvalues --   -2.19390  -2.19362  -2.19224  -2.19092  -1.13360
  Beta  occ. eigenvalues --   -1.13346  -1.13321  -1.13246  -1.13147  -1.13115
  Beta  occ. eigenvalues --   -1.13108  -1.13104  -1.13078  -1.13055  -1.13042
  Beta  occ. eigenvalues --   -1.13038  -1.13029  -1.13024  -1.13013  -1.12916
  Beta  occ. eigenvalues --   -1.12863  -1.12850  -1.12761  -1.12739  -1.12711
  Beta  occ. eigenvalues --   -0.18209  -0.12725  -0.12375
  Beta virt. eigenvalues --   -0.07023  -0.05454  -0.04828  -0.04776  -0.02438
  Beta virt. eigenvalues --   -0.02249  -0.01609  -0.01200  -0.01032  -0.00301
  Beta virt. eigenvalues --   -0.00170   0.00130   0.00391   0.00878   0.00917

 Mulliken charges and spin densities:
               1          2
     1  Na   0.157293   0.007000
     2  Na  -0.548050   0.723883
     3  Na   0.369714  -0.005915
     4  Na  -0.035987  -0.111663
     5  Na  -0.041039  -0.118175
     6  Na   0.349040   0.068264
     7  Na  -0.250970   0.436605
 Sum of Mulliken charges =  -0.00000   1.00000

 Dipole moment (field-independent basis, Debye):
    X=              0.1666    Y=              0.2691    Z=              0.1645  Tot=              0.3567
 Quadrupole moment (field-independent basis, Debye-Ang):
   XX=            -59.9051   YY=            -61.2270   ZZ=            -73.0503
   XY=              0.8742   XZ=              1.2492   YZ=             -0.7678

 Normal termination of Gaussian 16 at Wed Nov 29 17:27:55 2023.
