 Gaussian 16, Revision B.01,
 Gaussian 16:  ES64L-G16RevB.01 20-Dec-2017

 -------------------------
 #P B3LYP/6-311+g(d) force
 -------------------------

 -----
 DPGEN
 -----
 Symbolic Z-matrix:
 Charge =  0 Multiplicity = 2

                         Standard orientation:
 ---------------------------------------------------------------------
 Center     Atomic      Atomic             Coordinates (Angstroms)
 Number     Number       Type             X           Y           Z
 ---------------------------------------------------------------------
      1         11           0       -3.955787   -1.023517   -1.084283
      2         11           0        2.952974    0.937996   -1.087701
      3         11           0       -2.591999    1.248184    0.418248
      4         11           0        2.679205   -2.297960   -0.516921
      5         11           0        0.540983    2.721858   -0.520988
      6         11           0        0.849720    0.261967    2.264422
      7         11           0       -0.475096   -1.848527    0.527223
 ---------------------------------------------------------------------

 SCF Done:  E(UB3LYP) =  -1136.12268731     A.U. after   21 cycles

 The electronic state is 2-A.
 Alpha  occ. eigenvalues --  -38.44937 -38.44380 -38.44095 -38.44094 -38.43767
 Alpha  occ. eigenvalues --  -38.43740 -38.43037  -2.20807  -2.20207  -2.19965
 Alpha  occ. eigenvalues --   -2.19942  -2.19611  -2.19593  -2.18883  -1.14525
 Alpha  occ. eigenvalues --   -1.14421  -1.14398  -1.13922  -1.13847  -1.13828
 Alpha  occ. eigenvalues --   -1.13651  -1.13619  -1.13614  -1.13603  -1.13601
 Alpha  occ. eigenvalues --   -1.13563  -1.13339  -1.13296  -1.13261  -1.13255
 Alpha  occ. eigenvalues --   -1.13237  -1.13168  -1.12572  -1.12536  -1.12520
 Alpha  occ. eigenvalues --   -0.17790  -0.13960  -0.11994  -0.11384
 Alpha virt. eigenvalues --   -0.05982  -0.05690  -0.04382  -0.03637  -0.03029
 Alpha virt. eigenvalues --   -0.02411  -0.01816  -0.01138  -0.00824  -0.00496
 Alpha virt. eigenvalues --   -0.00210   0.00321   0.00435   0.00617   0.00751

  Beta  occ. eigenvalues --  -38.44845 -38.44335 -38.44092 -38.44046 -38.43749
  Beta  occ. eigenvalues --  -38.43723 -38.43035  -2.20639  -2.20124  -2.19943
  Beta  occ. eigenvalues --   -2.19874  -2.19585  -2.19563  -2.18880  -1.14402
  Beta  occ. eigenvalues --   -1.14306  -1.14280  -1.13871  -1.13790  -1.13775
  Beta  occ. eigenvalues --   -1.13621  -1.13596  -1.13587  -1.13547  -1.13541
  Beta  occ. eigenvalues --   -1.13539  -1.13294  -1.13279  -1.13239  -1.13225
  Beta  occ. eigenvalues --   -1.13218  -1.13156  -1.12567  -1.12538  -1.12505
  Beta  occ. eigenvalues --   -0.17118  -0.13365  -0.11868
  Beta virt. eigenvalues --   -0.07771  -0.05694  -0.05399  -0.03959  -0.03438
  Beta virt. eigenvalues --   -0.02452  -0.01790  -0.01628  -0.00989  -0.00621
  Beta virt. eigenvalues --   -0.00195  -0.00134   0.00417   0.00559   0.00705

 Mulliken charges and spin densities:
               1          2
     1  Na   0.345438   0.136415
     2  Na  -0.149635   0.265842
     3  Na  -0.108944   0.138429
     4  Na   0.357747   0.016856
     5  Na   0.018871  -0.021105
     6  Na   0.321082   0.344425
     7  Na  -0.784558   0.119139
 Sum of Mulliken charges =  -0.00000   1.00000

 Dipole moment (field-independent basis, Debye):
    X=             -0.2329    Y=             -0.3237    Z=              0.2183  Tot=              0.4546
 Quadrupole moment (field-independent basis, Debye-Ang):
   XX=            -60.5965   YY=            -70.2330   ZZ=            -67.3196
   XY=             -0.5516   XZ=              2.5613   YZ=              3.4403

 Normal termination of Gaussian 16 at Sun Dec  3 16:50:04 2023.
