 Gaussian 16, Revision B.01,
 Gaussian 16:  ES64L-G16RevB.01 20-Dec-2017

 -------------------------
 #P B3LYP/6-311+g(d) force
 -------------------------

 -----
 DPGEN
 -----
 Symbolic Z-matrix:
 Charge =  0 Multiplicity = 2

                         Standard orientation:
 ---------------------------------------------------------------------
 Center     Atomic      Atomic             Coordinates (Angstroms)
 Number     Number       Type             X           Y           Z
 ---------------------------------------------------------------------
      1         11           0       -1.585970   -0.410578   -1.628322
      2         11           0        1.010977    1.479343   -1.621830
      3         11           0       -1.975273    2.743020    0.561892
      4         11           0       -1.947902   -2.339107    0.741881
      5         11           0        1.029021   -1.930806   -0.665488
      6         11           0        3.313322    0.199705    0.598566
      7         11           0        0.155825    0.258423    2.013302
 ---------------------------------------------------------------------

 SCF Done:  E(UB3LYP) =  -1136.13273058     A.U. after   21 cycles

 The electronic state is 2-A.
 Alpha  occ. eigenvalues --  -38.44226 -38.43888 -38.43660 -38.43505 -38.43470
 Alpha  occ. eigenvalues --  -38.43382 -38.43286  -2.20111  -2.19774  -2.19620
 Alpha  occ. eigenvalues --   -2.19353  -2.19351  -2.19234  -2.19161  -1.13781
 Alpha  occ. eigenvalues --   -1.13754  -1.13730  -1.13520  -1.13418  -1.13374
 Alpha  occ. eigenvalues --   -1.13329  -1.13315  -1.13208  -1.13019  -1.13017
 Alpha  occ. eigenvalues --   -1.13012  -1.13001  -1.12997  -1.12985  -1.12937
 Alpha  occ. eigenvalues --   -1.12897  -1.12836  -1.12823  -1.12810  -1.12793
 Alpha  occ. eigenvalues --   -0.18799  -0.12811  -0.12039  -0.11962
 Alpha virt. eigenvalues --   -0.05231  -0.04930  -0.04417  -0.03412  -0.03269
 Alpha virt. eigenvalues --   -0.03230  -0.01281  -0.00939  -0.00559   0.00310
 Alpha virt. eigenvalues --    0.00362   0.00395   0.00741   0.00812   0.00871

  Beta  occ. eigenvalues --  -38.44144 -38.43839 -38.43614 -38.43501 -38.43460
  Beta  occ. eigenvalues --  -38.43377 -38.43269  -2.19961  -2.19687  -2.19538
  Beta  occ. eigenvalues --   -2.19347  -2.19335  -2.19207  -2.19153  -1.13683
  Beta  occ. eigenvalues --   -1.13644  -1.13619  -1.13444  -1.13354  -1.13314
  Beta  occ. eigenvalues --   -1.13281  -1.13238  -1.13156  -1.13015  -1.13004
  Beta  occ. eigenvalues --   -1.12998  -1.12992  -1.12982  -1.12962  -1.12913
  Beta  occ. eigenvalues --   -1.12850  -1.12821  -1.12816  -1.12798  -1.12790
  Beta  occ. eigenvalues --   -0.17946  -0.12664  -0.11792
  Beta virt. eigenvalues --   -0.07929  -0.05065  -0.04779  -0.04076  -0.02950
  Beta virt. eigenvalues --   -0.02658  -0.02304  -0.01213  -0.00867  -0.00226
  Beta virt. eigenvalues --    0.00300   0.00393   0.00490   0.00820   0.00901

 Mulliken charges and spin densities:
               1          2
     1  Na   0.435024   0.163531
     2  Na  -0.201885   0.183385
     3  Na  -0.264730  -0.109577
     4  Na   0.274942  -0.056919
     5  Na  -0.341580   0.240554
     6  Na   0.493254  -0.104696
     7  Na  -0.395024   0.683722
 Sum of Mulliken charges =  -0.00000   1.00000

 Dipole moment (field-independent basis, Debye):
    X=              0.1604    Y=             -0.0213    Z=              0.2569  Tot=              0.3036
 Quadrupole moment (field-independent basis, Debye-Ang):
   XX=            -60.9439   YY=            -68.3089   ZZ=            -66.2246
   XY=              1.4951   XZ=             -0.8939   YZ=             -0.8208

 Normal termination of Gaussian 16 at Wed Nov 29 15:52:03 2023.
