 Gaussian 16, Revision B.01,
 Gaussian 16:  ES64L-G16RevB.01 20-Dec-2017

 -------------------------
 #P B3LYP/6-311+g(d) force
 -------------------------

 -----
 DPGEN
 -----
 Symbolic Z-matrix:
 Charge =  0 Multiplicity = 2

                         Standard orientation:
 ---------------------------------------------------------------------
 Center     Atomic      Atomic             Coordinates (Angstroms)
 Number     Number       Type             X           Y           Z
 ---------------------------------------------------------------------
      1         11           0       -0.241419    3.436875   -0.144724
      2         11           0        0.302682   -3.155717   -0.011255
      3         11           0       -3.093828   -1.809879   -0.703181
      4         11           0       -3.151081    1.172307    0.924718
      5         11           0        3.293566   -1.476809    0.670507
      6         11           0        2.857220    1.658151   -0.523080
      7         11           0        0.032861    0.175072   -0.212985
 ---------------------------------------------------------------------

 SCF Done:  E(UB3LYP) =  -1136.12723769     A.U. after   25 cycles

 The electronic state is 2-A.
 Alpha  occ. eigenvalues --  -38.44754 -38.44607 -38.43931 -38.43743 -38.43500
 Alpha  occ. eigenvalues --  -38.43217 -38.43203  -2.20547  -2.20454  -2.19759
 Alpha  occ. eigenvalues --   -2.19576  -2.19458  -2.19065  -2.19055  -1.14235
 Alpha  occ. eigenvalues --   -1.14208  -1.14184  -1.14160  -1.14129  -1.14067
 Alpha  occ. eigenvalues --   -1.13438  -1.13425  -1.13384  -1.13266  -1.13244
 Alpha  occ. eigenvalues --   -1.13194  -1.13184  -1.13103  -1.13077  -1.12722
 Alpha  occ. eigenvalues --   -1.12712  -1.12708  -1.12703  -1.12691  -1.12680
 Alpha  occ. eigenvalues --   -0.17441  -0.13832  -0.13253  -0.09508
 Alpha virt. eigenvalues --   -0.06813  -0.05488  -0.04234  -0.03587  -0.02746
 Alpha virt. eigenvalues --   -0.02223  -0.01824  -0.01311  -0.01127  -0.00531
 Alpha virt. eigenvalues --   -0.00035   0.00298   0.00400   0.00563   0.00748

  Beta  occ. eigenvalues --  -38.44748 -38.44593 -38.43909 -38.43713 -38.43501
  Beta  occ. eigenvalues --  -38.43150 -38.43148  -2.20543  -2.20434  -2.19722
  Beta  occ. eigenvalues --   -2.19523  -2.19459  -2.18956  -2.18937  -1.14238
  Beta  occ. eigenvalues --   -1.14209  -1.14154  -1.14137  -1.14121  -1.14004
  Beta  occ. eigenvalues --   -1.13416  -1.13401  -1.13342  -1.13235  -1.13209
  Beta  occ. eigenvalues --   -1.13177  -1.13145  -1.13118  -1.13074  -1.12644
  Beta  occ. eigenvalues --   -1.12636  -1.12634  -1.12620  -1.12615  -1.12603
  Beta  occ. eigenvalues --   -0.17130  -0.13099  -0.12735
  Beta virt. eigenvalues --   -0.06862  -0.06238  -0.05258  -0.04105  -0.02998
  Beta virt. eigenvalues --   -0.02154  -0.02070  -0.01696  -0.01085  -0.00895
  Beta virt. eigenvalues --   -0.00251   0.00168   0.00414   0.00552   0.00674

 Mulliken charges and spin densities:
               1          2
     1  Na   0.881172   0.073593
     2  Na   1.262460   0.084017
     3  Na   0.975442   0.044294
     4  Na   0.781089   0.383837
     5  Na   0.317354   0.303541
     6  Na   0.673794   0.169052
     7  Na  -4.891311  -0.058334
 Sum of Mulliken charges =  -0.00000   1.00000

 Dipole moment (field-independent basis, Debye):
    X=             -0.0254    Y=              0.2172    Z=             -0.4350  Tot=              0.4869
 Quadrupole moment (field-independent basis, Debye-Ang):
   XX=            -66.8006   YY=            -58.8915   ZZ=            -71.0850
   XY=              4.4939   XZ=              1.3699   YZ=             -0.0304

 Normal termination of Gaussian 16 at Wed Nov 29 17:08:52 2023.
