 Gaussian 16, Revision B.01,
 Gaussian 16:  ES64L-G16RevB.01 20-Dec-2017

 -------------------------
 #P B3LYP/6-311+g(d) force
 -------------------------

 -----
 DPGEN
 -----
 Symbolic Z-matrix:
 Charge =  0 Multiplicity = 2

                         Standard orientation:
 ---------------------------------------------------------------------
 Center     Atomic      Atomic             Coordinates (Angstroms)
 Number     Number       Type             X           Y           Z
 ---------------------------------------------------------------------
      1         11           0       -1.954548   -2.390534    0.369794
      2         11           0        3.414958   -0.347528   -1.184925
      3         11           0       -4.113960    0.593019    0.237853
      4         11           0       -1.396828    2.598266   -0.712074
      5         11           0        2.120370    2.217310    0.708822
      6         11           0        0.297377   -1.678965   -1.724290
      7         11           0        1.632631   -0.991567    2.304820
 ---------------------------------------------------------------------

 SCF Done:  E(UB3LYP) =  -1136.11564125     A.U. after   21 cycles

 The electronic state is 2-A.
 Alpha  occ. eigenvalues --  -38.44983 -38.44832 -38.44737 -38.44218 -38.44064
 Alpha  occ. eigenvalues --  -38.43968 -38.43818  -2.20733  -2.20647  -2.20529
 Alpha  occ. eigenvalues --   -2.20009  -2.19814  -2.19795  -2.19619  -1.14412
 Alpha  occ. eigenvalues --   -1.14384  -1.14382  -1.14311  -1.14302  -1.14278
 Alpha  occ. eigenvalues --   -1.14192  -1.14153  -1.14143  -1.13687  -1.13674
 Alpha  occ. eigenvalues --   -1.13646  -1.13496  -1.13493  -1.13486  -1.13456
 Alpha  occ. eigenvalues --   -1.13441  -1.13440  -1.13282  -1.13276  -1.13246
 Alpha  occ. eigenvalues --   -0.16910  -0.13471  -0.11916  -0.11058
 Alpha virt. eigenvalues --   -0.06981  -0.06102  -0.04047  -0.03546  -0.03145
 Alpha virt. eigenvalues --   -0.02787  -0.02209  -0.01400  -0.00823  -0.00484
 Alpha virt. eigenvalues --   -0.00279   0.00027   0.00162   0.00276   0.00700

  Beta  occ. eigenvalues --  -38.44990 -38.44790 -38.44640 -38.44208 -38.44058
  Beta  occ. eigenvalues --  -38.43934 -38.43819  -2.20746  -2.20572  -2.20348
  Beta  occ. eigenvalues --   -2.19994  -2.19802  -2.19733  -2.19619  -1.14420
  Beta  occ. eigenvalues --   -1.14392  -1.14391  -1.14256  -1.14250  -1.14215
  Beta  occ. eigenvalues --   -1.14066  -1.14033  -1.14013  -1.13672  -1.13661
  Beta  occ. eigenvalues --   -1.13628  -1.13486  -1.13477  -1.13451  -1.13433
  Beta  occ. eigenvalues --   -1.13415  -1.13402  -1.13272  -1.13268  -1.13245
  Beta  occ. eigenvalues --   -0.16287  -0.13337  -0.11760
  Beta virt. eigenvalues --   -0.07188  -0.06874  -0.05772  -0.03564  -0.03297
  Beta virt. eigenvalues --   -0.02840  -0.02042  -0.01971  -0.01262  -0.00678
  Beta virt. eigenvalues --   -0.00230  -0.00178   0.00172   0.00297   0.00426

 Mulliken charges and spin densities:
               1          2
     1  Na   0.115415   0.192943
     2  Na   0.291347   0.072540
     3  Na   0.233135  -0.059341
     4  Na  -0.205724  -0.072266
     5  Na   0.020456   0.282257
     6  Na  -0.285915   0.178554
     7  Na  -0.168714   0.405314
 Sum of Mulliken charges =  -0.00000   1.00000

 Dipole moment (field-independent basis, Debye):
    X=              0.0327    Y=             -0.0869    Z=              0.2206  Tot=              0.2394
 Quadrupole moment (field-independent basis, Debye-Ang):
   XX=            -53.3798   YY=            -73.2443   ZZ=            -71.8668
   XY=              2.3828   XZ=             -2.3997   YZ=             -1.7874

 Normal termination of Gaussian 16 at Sun Dec  3 15:09:26 2023.
