 Gaussian 16, Revision B.01,
 Gaussian 16:  ES64L-G16RevB.01 20-Dec-2017

 -------------------------
 #P B3LYP/6-311+g(d) force
 -------------------------

 -----
 DPGEN
 -----
 Symbolic Z-matrix:
 Charge =  0 Multiplicity = 2

                         Standard orientation:
 ---------------------------------------------------------------------
 Center     Atomic      Atomic             Coordinates (Angstroms)
 Number     Number       Type             X           Y           Z
 ---------------------------------------------------------------------
      1         11           0       -3.607698    2.270408   -0.015927
      2         11           0       -0.003704    0.827874   -0.675568
      3         11           0       -0.598677   -1.020247    2.377738
      4         11           0        2.660858   -0.573587    0.648372
      5         11           0       -2.744261   -1.059338   -0.687226
      6         11           0        0.730109   -2.748929   -1.278612
      7         11           0        3.563373    2.303819   -0.368777
 ---------------------------------------------------------------------

 SCF Done:  E(UB3LYP) =  -1136.12322501     A.U. after   19 cycles

 The electronic state is 2-A.
 Alpha  occ. eigenvalues --  -38.44538 -38.44412 -38.44316 -38.43986 -38.43825
 Alpha  occ. eigenvalues --  -38.43689 -38.43467  -2.20371  -2.20196  -2.20170
 Alpha  occ. eigenvalues --   -2.19823  -2.19720  -2.19486  -2.19286  -1.14083
 Alpha  occ. eigenvalues --   -1.14050  -1.13968  -1.13923  -1.13856  -1.13842
 Alpha  occ. eigenvalues --   -1.13840  -1.13813  -1.13793  -1.13482  -1.13454
 Alpha  occ. eigenvalues --   -1.13425  -1.13414  -1.13394  -1.13359  -1.13149
 Alpha  occ. eigenvalues --   -1.13144  -1.13112  -1.12951  -1.12943  -1.12902
 Alpha  occ. eigenvalues --   -0.17831  -0.13533  -0.11621  -0.10829
 Alpha virt. eigenvalues --   -0.06368  -0.06020  -0.04383  -0.03174  -0.02614
 Alpha virt. eigenvalues --   -0.02352  -0.02233  -0.01656  -0.01061  -0.00319
 Alpha virt. eigenvalues --   -0.00196   0.00176   0.00213   0.00553   0.00704

  Beta  occ. eigenvalues --  -38.44525 -38.44418 -38.44302 -38.43875 -38.43817
  Beta  occ. eigenvalues --  -38.43693 -38.43423  -2.20348  -2.20182  -2.20172
  Beta  occ. eigenvalues --   -2.19708  -2.19616  -2.19494  -2.19204  -1.14067
  Beta  occ. eigenvalues --   -1.14020  -1.13953  -1.13884  -1.13852  -1.13844
  Beta  occ. eigenvalues --   -1.13836  -1.13805  -1.13795  -1.13411  -1.13371
  Beta  occ. eigenvalues --   -1.13353  -1.13332  -1.13307  -1.13283  -1.13154
  Beta  occ. eigenvalues --   -1.13148  -1.13116  -1.12895  -1.12878  -1.12851
  Beta  occ. eigenvalues --   -0.17170  -0.13433  -0.11411
  Beta virt. eigenvalues --   -0.06804  -0.06289  -0.05884  -0.04056  -0.02647
  Beta virt. eigenvalues --   -0.02200  -0.02031  -0.01869  -0.01274  -0.00914
  Beta virt. eigenvalues --   -0.00202  -0.00009   0.00226   0.00395   0.00581

 Mulliken charges and spin densities:
               1          2
     1  Na   0.218044  -0.040628
     2  Na  -1.709950   0.243204
     3  Na  -0.145266   0.399288
     4  Na   0.409899   0.231136
     5  Na   1.057778   0.110558
     6  Na  -0.042359   0.181087
     7  Na   0.211854  -0.124644
 Sum of Mulliken charges =  -0.00000   1.00000

 Dipole moment (field-independent basis, Debye):
    X=             -0.6489    Y=              0.0469    Z=              0.0396  Tot=              0.6518
 Quadrupole moment (field-independent basis, Debye-Ang):
   XX=            -56.9175   YY=            -63.5675   ZZ=            -73.8925
   XY=             -0.9147   XZ=             -0.8282   YZ=              0.3782

 Normal termination of Gaussian 16 at Tue Dec  5 14:54:18 2023.
