 Gaussian 16, Revision B.01,
 Gaussian 16:  ES64L-G16RevB.01 20-Dec-2017

 -------------------------
 #P B3LYP/6-311+g(d) force
 -------------------------

 -----
 DPGEN
 -----
 Symbolic Z-matrix:
 Charge =  0 Multiplicity = 2

                         Standard orientation:
 ---------------------------------------------------------------------
 Center     Atomic      Atomic             Coordinates (Angstroms)
 Number     Number       Type             X           Y           Z
 ---------------------------------------------------------------------
      1         11           0        0.310559    0.361758   -1.745741
      2         11           0       -0.317565   -0.456497    2.020345
      3         11           0        1.584489    2.150170    0.729595
      4         11           0       -1.712251    2.290274   -0.501089
      5         11           0        2.983244   -0.827605   -0.203812
      6         11           0       -0.123090   -2.636879   -0.398864
      7         11           0       -2.725386   -0.881221    0.099566
 ---------------------------------------------------------------------

 SCF Done:  E(UB3LYP) =  -1136.13631922     A.U. after   18 cycles

 The electronic state is 2-A.
 Alpha  occ. eigenvalues --  -38.43850 -38.43702 -38.43543 -38.43491 -38.43374
 Alpha  occ. eigenvalues --  -38.43204 -38.43176  -2.19793  -2.19549  -2.19461
 Alpha  occ. eigenvalues --   -2.19385  -2.19376  -2.19095  -2.19093  -1.13491
 Alpha  occ. eigenvalues --   -1.13434  -1.13418  -1.13248  -1.13210  -1.13192
 Alpha  occ. eigenvalues --   -1.13141  -1.13130  -1.13114  -1.13093  -1.13052
 Alpha  occ. eigenvalues --   -1.13046  -1.13042  -1.12994  -1.12980  -1.12776
 Alpha  occ. eigenvalues --   -1.12763  -1.12758  -1.12728  -1.12716  -1.12703
 Alpha  occ. eigenvalues --   -0.19197  -0.13073  -0.12562  -0.11391
 Alpha virt. eigenvalues --   -0.05262  -0.04815  -0.04461  -0.03517  -0.03136
 Alpha virt. eigenvalues --   -0.02890  -0.01275  -0.00872  -0.00150   0.00119
 Alpha virt. eigenvalues --    0.00150   0.00377   0.00882   0.00956   0.00965

  Beta  occ. eigenvalues --  -38.43764 -38.43699 -38.43537 -38.43470 -38.43305
  Beta  occ. eigenvalues --  -38.43194 -38.43165  -2.19636  -2.19548  -2.19454
  Beta  occ. eigenvalues --   -2.19341  -2.19261  -2.19078  -2.19076  -1.13393
  Beta  occ. eigenvalues --   -1.13326  -1.13306  -1.13239  -1.13195  -1.13190
  Beta  occ. eigenvalues --   -1.13133  -1.13111  -1.13072  -1.13062  -1.13000
  Beta  occ. eigenvalues --   -1.12991  -1.12972  -1.12961  -1.12905  -1.12764
  Beta  occ. eigenvalues --   -1.12733  -1.12726  -1.12712  -1.12701  -1.12686
  Beta  occ. eigenvalues --   -0.18441  -0.12830  -0.12293
  Beta virt. eigenvalues --   -0.07413  -0.05226  -0.04761  -0.04411  -0.02728
  Beta virt. eigenvalues --   -0.02381  -0.01807  -0.01207  -0.00799  -0.00020
  Beta virt. eigenvalues --    0.00087   0.00163   0.00401   0.00943   0.00952

 Mulliken charges and spin densities:
               1          2
     1  Na  -0.364411   0.454891
     2  Na  -0.496562   0.513937
     3  Na   0.089019   0.141202
     4  Na   0.207216  -0.017573
     5  Na   0.072739  -0.098846
     6  Na   0.166921  -0.035890
     7  Na   0.325078   0.042280
 Sum of Mulliken charges =  -0.00000   1.00000

 Dipole moment (field-independent basis, Debye):
    X=              0.1839    Y=             -0.0468    Z=              0.1861  Tot=              0.2658
 Quadrupole moment (field-independent basis, Debye-Ang):
   XX=            -59.2025   YY=            -65.2163   ZZ=            -70.7362
   XY=             -0.4888   XZ=              1.0285   YZ=              1.6301

 Normal termination of Gaussian 16 at Tue Dec  5 12:22:58 2023.
