 Gaussian 16, Revision B.01,
 Gaussian 16:  ES64L-G16RevB.01 20-Dec-2017

 -------------------------
 #P B3LYP/6-311+g(d) force
 -------------------------

 -----
 DPGEN
 -----
 Symbolic Z-matrix:
 Charge =  0 Multiplicity = 2

                         Standard orientation:
 ---------------------------------------------------------------------
 Center     Atomic      Atomic             Coordinates (Angstroms)
 Number     Number       Type             X           Y           Z
 ---------------------------------------------------------------------
      1         11           0       -1.240009    0.569075    1.745918
      2         11           0        3.225698   -0.423385   -1.553481
      3         11           0        0.105411   -0.646975   -0.825236
      4         11           0       -3.194110   -1.988157   -0.324488
      5         11           0       -2.963275    1.753235   -0.820192
      6         11           0        2.184166   -1.328050    1.492054
      7         11           0        1.882118    2.064257    0.285426
 ---------------------------------------------------------------------

 SCF Done:  E(UB3LYP) =  -1136.11801174     A.U. after   28 cycles

 The electronic state is 2-A.
 Alpha  occ. eigenvalues --  -38.44947 -38.44502 -38.44049 -38.43714 -38.43573
 Alpha  occ. eigenvalues --  -38.43545 -38.43459  -2.20743  -2.20386  -2.19947
 Alpha  occ. eigenvalues --   -2.19567  -2.19492  -2.19446  -2.19313  -1.14427
 Alpha  occ. eigenvalues --   -1.14392  -1.14355  -1.14081  -1.14023  -1.14007
 Alpha  occ. eigenvalues --   -1.13632  -1.13582  -1.13570  -1.13347  -1.13228
 Alpha  occ. eigenvalues --   -1.13197  -1.13173  -1.13150  -1.13129  -1.13124
 Alpha  occ. eigenvalues --   -1.13085  -1.13042  -1.12997  -1.12972  -1.12933
 Alpha  occ. eigenvalues --   -0.18519  -0.14386  -0.11075  -0.10474
 Alpha virt. eigenvalues --   -0.06318  -0.05965  -0.04955  -0.02889  -0.02431
 Alpha virt. eigenvalues --   -0.02283  -0.02115  -0.01242  -0.00988  -0.00265
 Alpha virt. eigenvalues --    0.00174   0.00253   0.00318   0.00343   0.00542

  Beta  occ. eigenvalues --  -38.44923 -38.44449 -38.43999 -38.43727 -38.43554
  Beta  occ. eigenvalues --  -38.43512 -38.43441  -2.20697  -2.20290  -2.19856
  Beta  occ. eigenvalues --   -2.19538  -2.19516  -2.19388  -2.19282  -1.14395
  Beta  occ. eigenvalues --   -1.14363  -1.14324  -1.14017  -1.13957  -1.13920
  Beta  occ. eigenvalues --   -1.13567  -1.13524  -1.13498  -1.13291  -1.13197
  Beta  occ. eigenvalues --   -1.13191  -1.13185  -1.13159  -1.13140  -1.13090
  Beta  occ. eigenvalues --   -1.13019  -1.13005  -1.12975  -1.12942  -1.12900
  Beta  occ. eigenvalues --   -0.17767  -0.14129  -0.10371
  Beta virt. eigenvalues --   -0.07239  -0.06018  -0.05798  -0.04421  -0.02716
  Beta virt. eigenvalues --   -0.02302  -0.01630  -0.01521  -0.01077  -0.00604
  Beta virt. eigenvalues --   -0.00148   0.00235   0.00279   0.00400   0.00503

 Mulliken charges and spin densities:
               1          2
     1  Na   0.483998   0.186502
     2  Na   0.738438   0.149608
     3  Na  -1.727025   0.303201
     4  Na   0.442957  -0.080630
     5  Na   0.091220   0.071084
     6  Na   0.012534   0.200526
     7  Na  -0.042122   0.169709
 Sum of Mulliken charges =  -0.00000   1.00000

 Dipole moment (field-independent basis, Debye):
    X=              0.0398    Y=              0.3804    Z=              0.1582  Tot=              0.4139
 Quadrupole moment (field-independent basis, Debye-Ang):
   XX=            -50.7699   YY=            -74.7633   ZZ=            -67.6181
   XY=             -2.4345   XZ=              1.5775   YZ=             -5.1053

 Normal termination of Gaussian 16 at Tue Dec  5 13:50:30 2023.
