 Gaussian 16, Revision B.01,
 Gaussian 16:  ES64L-G16RevB.01 20-Dec-2017

 -------------------------
 #P B3LYP/6-311+g(d) force
 -------------------------

 -----
 DPGEN
 -----
 Symbolic Z-matrix:
 Charge =  0 Multiplicity = 2

                         Standard orientation:
 ---------------------------------------------------------------------
 Center     Atomic      Atomic             Coordinates (Angstroms)
 Number     Number       Type             X           Y           Z
 ---------------------------------------------------------------------
      1         11           0       -0.940887   -0.858359   -1.405137
      2         11           0        1.085599    1.155423   -1.269356
      3         11           0        1.448600   -2.297838   -0.153684
      4         11           0       -1.425299    2.513143   -0.051724
      5         11           0        3.554289    0.338405    0.469958
      6         11           0       -0.004628    0.130081    2.018250
      7         11           0       -3.717674   -0.980854    0.391693
 ---------------------------------------------------------------------

 SCF Done:  E(UB3LYP) =  -1136.11686447     A.U. after   24 cycles

 The electronic state is 2-A.
 Alpha  occ. eigenvalues --  -38.45221 -38.45157 -38.44544 -38.43343 -38.43162
 Alpha  occ. eigenvalues --  -38.42945 -38.42899  -2.21047  -2.20915  -2.20407
 Alpha  occ. eigenvalues --   -2.19234  -2.19185  -2.18988  -2.18763  -1.14744
 Alpha  occ. eigenvalues --   -1.14688  -1.14675  -1.14598  -1.14566  -1.14551
 Alpha  occ. eigenvalues --   -1.14095  -1.14044  -1.14014  -1.13076  -1.12987
 Alpha  occ. eigenvalues --   -1.12893  -1.12847  -1.12797  -1.12759  -1.12645
 Alpha  occ. eigenvalues --   -1.12610  -1.12587  -1.12428  -1.12411  -1.12383
 Alpha  occ. eigenvalues --   -0.18935  -0.13471  -0.11420  -0.11266
 Alpha virt. eigenvalues --   -0.07152  -0.04731  -0.03860  -0.03176  -0.02913
 Alpha virt. eigenvalues --   -0.02700  -0.02398  -0.00877  -0.00612  -0.00095
 Alpha virt. eigenvalues --    0.00106   0.00215   0.00365   0.00747   0.00806

  Beta  occ. eigenvalues --  -38.45210 -38.45157 -38.44471 -38.43330 -38.43100
  Beta  occ. eigenvalues --  -38.42899 -38.42893  -2.21029  -2.20914  -2.20271
  Beta  occ. eigenvalues --   -2.19214  -2.19077  -2.18899  -2.18764  -1.14730
  Beta  occ. eigenvalues --   -1.14670  -1.14659  -1.14595  -1.14567  -1.14547
  Beta  occ. eigenvalues --   -1.14006  -1.13949  -1.13912  -1.13012  -1.12927
  Beta  occ. eigenvalues --   -1.12856  -1.12839  -1.12718  -1.12687  -1.12598
  Beta  occ. eigenvalues --   -1.12543  -1.12504  -1.12418  -1.12399  -1.12376
  Beta  occ. eigenvalues --   -0.18134  -0.13288  -0.11187
  Beta virt. eigenvalues --   -0.07352  -0.06920  -0.04715  -0.03375  -0.03049
  Beta virt. eigenvalues --   -0.02477  -0.01828  -0.01693  -0.00824  -0.00365
  Beta virt. eigenvalues --   -0.00115   0.00134   0.00227   0.00516   0.00799

 Mulliken charges and spin densities:
               1          2
     1  Na   0.367238  -0.006319
     2  Na   0.176872   0.073196
     3  Na  -0.127997   0.121702
     4  Na  -0.174905   0.037878
     5  Na   0.172224   0.168409
     6  Na  -0.288449   0.548597
     7  Na  -0.124984   0.056537
 Sum of Mulliken charges =  -0.00000   1.00000

 Dipole moment (field-independent basis, Debye):
    X=              0.0905    Y=              0.0224    Z=              0.8771  Tot=              0.8821
 Quadrupole moment (field-independent basis, Debye-Ang):
   XX=            -47.0370   YY=            -73.6131   ZZ=            -71.1390
   XY=             -0.2216   XZ=             -0.4612   YZ=             -0.3472

 Normal termination of Gaussian 16 at Tue Dec  5 14:34:36 2023.
