 Gaussian 16, Revision B.01,
 Gaussian 16:  ES64L-G16RevB.01 20-Dec-2017

 -------------------------
 #P B3LYP/6-311+g(d) force
 -------------------------

 -----
 DPGEN
 -----
 Symbolic Z-matrix:
 Charge =  0 Multiplicity = 2

                         Standard orientation:
 ---------------------------------------------------------------------
 Center     Atomic      Atomic             Coordinates (Angstroms)
 Number     Number       Type             X           Y           Z
 ---------------------------------------------------------------------
      1         11           0       -2.164581   -1.053142   -1.629281
      2         11           0        1.188044   -1.425526   -1.190166
      3         11           0        0.816682    0.465272    1.986692
      4         11           0       -1.416761   -1.989732    1.428107
      5         11           0        3.577894   -0.002332    0.060013
      6         11           0       -2.279704    1.912280    0.681824
      7         11           0        0.278427    2.093179   -1.337189
 ---------------------------------------------------------------------

 SCF Done:  E(UB3LYP) =  -1136.13187539     A.U. after   22 cycles

 The electronic state is 2-A.
 Alpha  occ. eigenvalues --  -38.44233 -38.44110 -38.43855 -38.43642 -38.43605
 Alpha  occ. eigenvalues --  -38.43369 -38.43312  -2.20125  -2.19956  -2.19711
 Alpha  occ. eigenvalues --   -2.19485  -2.19464  -2.19285  -2.19141  -1.13811
 Alpha  occ. eigenvalues --   -1.13772  -1.13743  -1.13665  -1.13603  -1.13579
 Alpha  occ. eigenvalues --   -1.13395  -1.13376  -1.13330  -1.13170  -1.13144
 Alpha  occ. eigenvalues --   -1.13142  -1.13112  -1.13102  -1.13082  -1.12968
 Alpha  occ. eigenvalues --   -1.12945  -1.12899  -1.12808  -1.12798  -1.12782
 Alpha  occ. eigenvalues --   -0.18524  -0.13166  -0.12094  -0.11549
 Alpha virt. eigenvalues --   -0.05770  -0.04790  -0.04412  -0.03480  -0.03344
 Alpha virt. eigenvalues --   -0.03088  -0.01593  -0.00756  -0.00525   0.00094
 Alpha virt. eigenvalues --    0.00297   0.00371   0.00474   0.00758   0.00918

  Beta  occ. eigenvalues --  -38.44160 -38.44111 -38.43824 -38.43611 -38.43569
  Beta  occ. eigenvalues --  -38.43340 -38.43310  -2.19992  -2.19959  -2.19655
  Beta  occ. eigenvalues --   -2.19430  -2.19398  -2.19234  -2.19140  -1.13722
  Beta  occ. eigenvalues --   -1.13681  -1.13662  -1.13652  -1.13588  -1.13578
  Beta  occ. eigenvalues --   -1.13348  -1.13337  -1.13290  -1.13133  -1.13094
  Beta  occ. eigenvalues --   -1.13089  -1.13073  -1.13062  -1.13027  -1.12931
  Beta  occ. eigenvalues --   -1.12892  -1.12865  -1.12800  -1.12792  -1.12779
  Beta  occ. eigenvalues --   -0.17689  -0.13026  -0.11403
  Beta virt. eigenvalues --   -0.08024  -0.05585  -0.04495  -0.03977  -0.03192
  Beta virt. eigenvalues --   -0.02728  -0.02238  -0.01524  -0.00608  -0.00274
  Beta virt. eigenvalues --    0.00182   0.00358   0.00412   0.00616   0.00860

 Mulliken charges and spin densities:
               1          2
     1  Na   0.152810   0.201290
     2  Na  -0.442739   0.301171
     3  Na  -0.155414   0.424563
     4  Na   0.042661   0.084425
     5  Na   0.616669  -0.131115
     6  Na   0.116188  -0.066273
     7  Na  -0.330175   0.185939
 Sum of Mulliken charges =  -0.00000   1.00000

 Dipole moment (field-independent basis, Debye):
    X=              0.3231    Y=              0.1017    Z=              0.0601  Tot=              0.3441
 Quadrupole moment (field-independent basis, Debye-Ang):
   XX=            -56.5348   YY=            -75.5027   ZZ=            -64.0982
   XY=              1.2006   XZ=             -0.0269   YZ=             -1.2478

 Normal termination of Gaussian 16 at Sun Dec  3 16:35:25 2023.
