 Gaussian 16, Revision B.01,
 Gaussian 16:  ES64L-G16RevB.01 20-Dec-2017

 -------------------------
 #P B3LYP/6-311+g(d) force
 -------------------------

 -----
 DPGEN
 -----
 Symbolic Z-matrix:
 Charge =  0 Multiplicity = 2

                         Standard orientation:
 ---------------------------------------------------------------------
 Center     Atomic      Atomic             Coordinates (Angstroms)
 Number     Number       Type             X           Y           Z
 ---------------------------------------------------------------------
      1         11           0        2.665538   -1.173897   -0.394773
      2         11           0       -2.971152   -0.713906   -0.482547
      3         11           0        2.261015    2.014745    0.017969
      4         11           0       -1.687712    2.267925    0.225586
      5         11           0       -0.083573    0.116873   -1.785564
      6         11           0       -0.114398   -2.570072    0.490097
      7         11           0       -0.069717    0.058332    1.929232
 ---------------------------------------------------------------------

 SCF Done:  E(UB3LYP) =  -1136.13576427     A.U. after   18 cycles

 The electronic state is 2-A.
 Alpha  occ. eigenvalues --  -38.43968 -38.43662 -38.43641 -38.43548 -38.43523
 Alpha  occ. eigenvalues --  -38.43410 -38.42781  -2.19838  -2.19620  -2.19561
 Alpha  occ. eigenvalues --   -2.19504  -2.19395  -2.19295  -2.18715  -1.13533
 Alpha  occ. eigenvalues --   -1.13491  -1.13473  -1.13324  -1.13286  -1.13268
 Alpha  occ. eigenvalues --   -1.13237  -1.13224  -1.13206  -1.13179  -1.13137
 Alpha  occ. eigenvalues --   -1.13123  -1.13061  -1.13045  -1.13024  -1.12973
 Alpha  occ. eigenvalues --   -1.12954  -1.12909  -1.12422  -1.12358  -1.12329
 Alpha  occ. eigenvalues --   -0.19209  -0.13360  -0.12270  -0.11276
 Alpha virt. eigenvalues --   -0.05480  -0.05110  -0.04116  -0.03483  -0.02977
 Alpha virt. eigenvalues --   -0.02817  -0.01504  -0.00933  -0.00128  -0.00014
 Alpha virt. eigenvalues --    0.00149   0.00368   0.00825   0.00921   0.00971

  Beta  occ. eigenvalues --  -38.43955 -38.43654 -38.43547 -38.43547 -38.43452
  Beta  occ. eigenvalues --  -38.43402 -38.42767  -2.19817  -2.19550  -2.19449
  Beta  occ. eigenvalues --   -2.19396  -2.19375  -2.19284  -2.18694  -1.13508
  Beta  occ. eigenvalues --   -1.13475  -1.13453  -1.13256  -1.13230  -1.13203
  Beta  occ. eigenvalues --   -1.13183  -1.13169  -1.13110  -1.13096  -1.13065
  Beta  occ. eigenvalues --   -1.13050  -1.13048  -1.13019  -1.13011  -1.12952
  Beta  occ. eigenvalues --   -1.12925  -1.12899  -1.12397  -1.12330  -1.12310
  Beta  occ. eigenvalues --   -0.18461  -0.13080  -0.11995
  Beta virt. eigenvalues --   -0.07317  -0.05422  -0.05101  -0.04112  -0.02680
  Beta virt. eigenvalues --   -0.02171  -0.01742  -0.01389  -0.00874  -0.00087
  Beta virt. eigenvalues --   -0.00001   0.00159   0.00394   0.00896   0.00912

 Mulliken charges and spin densities:
               1          2
     1  Na   0.093154  -0.004722
     2  Na   0.135416   0.018750
     3  Na  -0.000203  -0.085991
     4  Na   0.087439  -0.072243
     5  Na  -0.303174   0.511850
     6  Na   0.287306   0.047178
     7  Na  -0.299938   0.585179
 Sum of Mulliken charges =  -0.00000   1.00000

 Dipole moment (field-independent basis, Debye):
    X=             -0.1209    Y=              0.1948    Z=             -0.1079  Tot=              0.2534
 Quadrupole moment (field-independent basis, Debye-Ang):
   XX=            -56.6116   YY=            -66.0202   ZZ=            -71.8853
   XY=              0.4682   XZ=              0.1572   YZ=              0.8094

 Normal termination of Gaussian 16 at Fri Dec  8 01:43:32 2023.
