 Gaussian 16, Revision B.01,
 Gaussian 16:  ES64L-G16RevB.01 20-Dec-2017

 -------------------------
 #P B3LYP/6-311+g(d) force
 -------------------------

 -----
 DPGEN
 -----
 Symbolic Z-matrix:
 Charge =  0 Multiplicity = 2

                         Standard orientation:
 ---------------------------------------------------------------------
 Center     Atomic      Atomic             Coordinates (Angstroms)
 Number     Number       Type             X           Y           Z
 ---------------------------------------------------------------------
      1         11           0       -0.165455   -0.235589   -1.679834
      2         11           0        1.433294    2.772222    0.072364
      3         11           0        3.574472   -0.086380   -0.077210
      4         11           0        1.121854   -2.651411   -0.211061
      5         11           0       -2.740627    1.942125   -0.202333
      6         11           0       -0.029970   -0.305471    1.984111
      7         11           0       -3.193568   -1.435496    0.113963
 ---------------------------------------------------------------------

 SCF Done:  E(UB3LYP) =  -1136.12794805     A.U. after   21 cycles

 The electronic state is 2-A.
 Alpha  occ. eigenvalues --  -38.45173 -38.44880 -38.44318 -38.43605 -38.43581
 Alpha  occ. eigenvalues --  -38.43287 -38.43078  -2.20945  -2.20663  -2.20102
 Alpha  occ. eigenvalues --   -2.19511  -2.19441  -2.19066  -2.18948  -1.14623
 Alpha  occ. eigenvalues --   -1.14594  -1.14589  -1.14335  -1.14321  -1.14306
 Alpha  occ. eigenvalues --   -1.13777  -1.13758  -1.13744  -1.13222  -1.13166
 Alpha  occ. eigenvalues --   -1.13119  -1.13114  -1.13074  -1.13050  -1.12742
 Alpha  occ. eigenvalues --   -1.12736  -1.12707  -1.12641  -1.12605  -1.12565
 Alpha  occ. eigenvalues --   -0.17967  -0.13377  -0.11735  -0.10321
 Alpha virt. eigenvalues --   -0.06651  -0.05686  -0.04272  -0.03293  -0.02502
 Alpha virt. eigenvalues --   -0.02403  -0.02280  -0.01465  -0.00761  -0.00445
 Alpha virt. eigenvalues --   -0.00097   0.00258   0.00627   0.00689   0.00759

  Beta  occ. eigenvalues --  -38.45173 -38.44879 -38.44314 -38.43541 -38.43487
  Beta  occ. eigenvalues --  -38.43287 -38.43068  -2.20948  -2.20662  -2.20097
  Beta  occ. eigenvalues --   -2.19394  -2.19268  -2.19068  -2.18935  -1.14613
  Beta  occ. eigenvalues --   -1.14596  -1.14593  -1.14326  -1.14315  -1.14304
  Beta  occ. eigenvalues --   -1.13759  -1.13754  -1.13743  -1.13141  -1.13077
  Beta  occ. eigenvalues --   -1.13036  -1.12998  -1.12952  -1.12926  -1.12739
  Beta  occ. eigenvalues --   -1.12728  -1.12710  -1.12629  -1.12573  -1.12553
  Beta  occ. eigenvalues --   -0.17261  -0.13213  -0.11514
  Beta virt. eigenvalues --   -0.06562  -0.06455  -0.05690  -0.04229  -0.02586
  Beta virt. eigenvalues --   -0.02218  -0.01776  -0.01418  -0.01327  -0.00796
  Beta virt. eigenvalues --   -0.00471   0.00084   0.00295   0.00702   0.00756

 Mulliken charges and spin densities:
               1          2
     1  Na  -0.007861   0.544004
     2  Na  -0.178173  -0.115275
     3  Na   0.057540  -0.038913
     4  Na   0.262572  -0.082128
     5  Na  -0.094460  -0.064298
     6  Na  -0.283327   0.809484
     7  Na   0.243709  -0.052874
 Sum of Mulliken charges =  -0.00000   1.00000

 Dipole moment (field-independent basis, Debye):
    X=             -0.2242    Y=             -0.2701    Z=              0.0413  Tot=              0.3535
 Quadrupole moment (field-independent basis, Debye-Ang):
   XX=            -48.3457   YY=            -66.6031   ZZ=            -77.1328
   XY=             -0.2587   XZ=             -0.3017   YZ=             -0.1240

 Normal termination of Gaussian 16 at Thu Dec  7 12:14:07 2023.
