 Gaussian 16, Revision B.01,
 Gaussian 16:  ES64L-G16RevB.01 20-Dec-2017

 -------------------------
 #P B3LYP/6-311+g(d) force
 -------------------------

 -----
 DPGEN
 -----
 Symbolic Z-matrix:
 Charge =  0 Multiplicity = 2

                         Standard orientation:
 ---------------------------------------------------------------------
 Center     Atomic      Atomic             Coordinates (Angstroms)
 Number     Number       Type             X           Y           Z
 ---------------------------------------------------------------------
      1         11           0       -0.726446    0.995979    0.225446
      2         11           0        0.617250   -1.743029    2.200114
      3         11           0        2.060269   -2.322277   -0.832735
      4         11           0        2.396777    1.056498   -1.122357
      5         11           0        1.132383    3.385339    0.557894
      6         11           0       -1.485276   -2.097830   -0.609064
      7         11           0       -3.994958    0.725320   -0.419298
 ---------------------------------------------------------------------

 SCF Done:  E(UB3LYP) =  -1136.12684278     A.U. after   20 cycles

 The electronic state is 2-A.
 Alpha  occ. eigenvalues --  -38.44473 -38.43943 -38.43934 -38.43887 -38.43784
 Alpha  occ. eigenvalues --  -38.43590 -38.42979  -2.20309  -2.19813  -2.19790
 Alpha  occ. eigenvalues --   -2.19672  -2.19661  -2.19444  -2.18955  -1.14027
 Alpha  occ. eigenvalues --   -1.13996  -1.13893  -1.13522  -1.13491  -1.13442
 Alpha  occ. eigenvalues --   -1.13441  -1.13431  -1.13402  -1.13346  -1.13344
 Alpha  occ. eigenvalues --   -1.13335  -1.13318  -1.13296  -1.13261  -1.13115
 Alpha  occ. eigenvalues --   -1.13101  -1.13067  -1.12667  -1.12629  -1.12565
 Alpha  occ. eigenvalues --   -0.17931  -0.13275  -0.12726  -0.10538
 Alpha virt. eigenvalues --   -0.06066  -0.05355  -0.04819  -0.03232  -0.02840
 Alpha virt. eigenvalues --   -0.02186  -0.01716  -0.01459  -0.00568  -0.00283
 Alpha virt. eigenvalues --   -0.00239   0.00251   0.00430   0.00668   0.00799

  Beta  occ. eigenvalues --  -38.44467 -38.43935 -38.43880 -38.43846 -38.43750
  Beta  occ. eigenvalues --  -38.43560 -38.42966  -2.20301  -2.19798  -2.19660
  Beta  occ. eigenvalues --   -2.19627  -2.19602  -2.19392  -2.18934  -1.14024
  Beta  occ. eigenvalues --   -1.13968  -1.13892  -1.13510  -1.13476  -1.13429
  Beta  occ. eigenvalues --   -1.13338  -1.13325  -1.13325  -1.13320  -1.13306
  Beta  occ. eigenvalues --   -1.13296  -1.13287  -1.13280  -1.13207  -1.13079
  Beta  occ. eigenvalues --   -1.13062  -1.13012  -1.12648  -1.12596  -1.12553
  Beta  occ. eigenvalues --   -0.17353  -0.13122  -0.12361
  Beta virt. eigenvalues --   -0.06861  -0.05764  -0.05176  -0.04525  -0.02800
  Beta virt. eigenvalues --   -0.02343  -0.01743  -0.01475  -0.01229  -0.00474
  Beta virt. eigenvalues --   -0.00123   0.00035   0.00345   0.00634   0.00707

 Mulliken charges and spin densities:
               1          2
     1  Na  -2.640187   0.288132
     2  Na   0.285345   0.248954
     3  Na   0.047453   0.260109
     4  Na   0.084098   0.077531
     5  Na   1.086089   0.058751
     6  Na   0.517148   0.116402
     7  Na   0.620055  -0.049878
 Sum of Mulliken charges =  -0.00000   1.00000

 Dipole moment (field-independent basis, Debye):
    X=             -0.1403    Y=              0.1066    Z=              0.2572  Tot=              0.3118
 Quadrupole moment (field-independent basis, Debye-Ang):
   XX=            -62.0023   YY=            -59.2709   ZZ=            -72.0351
   XY=              0.3357   XZ=              1.1929   YZ=              2.5839

 Normal termination of Gaussian 16 at Tue Nov 28 23:16:14 2023.
