 Gaussian 16, Revision B.01,
 Gaussian 16:  ES64L-G16RevB.01 20-Dec-2017

 -------------------------
 #P B3LYP/6-311+g(d) force
 -------------------------

 -----
 DPGEN
 -----
 Symbolic Z-matrix:
 Charge =  0 Multiplicity = 2

                         Standard orientation:
 ---------------------------------------------------------------------
 Center     Atomic      Atomic             Coordinates (Angstroms)
 Number     Number       Type             X           Y           Z
 ---------------------------------------------------------------------
      1         11           0       -0.421556   -1.736832   -1.011438
      2         11           0       -3.005783   -3.010693    0.370812
      3         11           0       -2.867801    0.062865    0.934899
      4         11           0       -2.597006    3.457154   -0.123579
      5         11           0        0.130467    1.699502   -0.511818
      6         11           0        3.172310   -0.741935   -0.499977
      7         11           0        5.589369    0.269939    0.841102
 ---------------------------------------------------------------------

 SCF Done:  E(UB3LYP) =  -1136.12531917     A.U. after   19 cycles

 The electronic state is 2-A.
 Alpha  occ. eigenvalues --  -38.44378 -38.44180 -38.44103 -38.43976 -38.43853
 Alpha  occ. eigenvalues --  -38.43752 -38.43260  -2.20252  -2.20025  -2.19949
 Alpha  occ. eigenvalues --   -2.19856  -2.19669  -2.19620  -2.19106  -1.13947
 Alpha  occ. eigenvalues --   -1.13933  -1.13872  -1.13721  -1.13714  -1.13648
 Alpha  occ. eigenvalues --   -1.13631  -1.13565  -1.13562  -1.13538  -1.13529
 Alpha  occ. eigenvalues --   -1.13486  -1.13331  -1.13327  -1.13295  -1.13280
 Alpha  occ. eigenvalues --   -1.13259  -1.13242  -1.12788  -1.12772  -1.12754
 Alpha  occ. eigenvalues --   -0.17236  -0.13960  -0.12812  -0.11145
 Alpha virt. eigenvalues --   -0.05711  -0.05170  -0.04759  -0.04000  -0.02384
 Alpha virt. eigenvalues --   -0.02222  -0.02034  -0.01790  -0.01165  -0.00732
 Alpha virt. eigenvalues --   -0.00118   0.00086   0.00340   0.00474   0.00654

  Beta  occ. eigenvalues --  -38.44347 -38.44153 -38.44018 -38.43930 -38.43844
  Beta  occ. eigenvalues --  -38.43735 -38.43256  -2.20197  -2.19978  -2.19790
  Beta  occ. eigenvalues --   -2.19774  -2.19652  -2.19589  -2.19110  -1.13907
  Beta  occ. eigenvalues --   -1.13895  -1.13824  -1.13688  -1.13680  -1.13588
  Beta  occ. eigenvalues --   -1.13546  -1.13485  -1.13478  -1.13456  -1.13454
  Beta  occ. eigenvalues --   -1.13417  -1.13316  -1.13315  -1.13284  -1.13247
  Beta  occ. eigenvalues --   -1.13239  -1.13219  -1.12787  -1.12785  -1.12695
  Beta  occ. eigenvalues --   -0.16622  -0.13097  -0.12709
  Beta virt. eigenvalues --   -0.07664  -0.05558  -0.04794  -0.04298  -0.03710
  Beta virt. eigenvalues --   -0.02129  -0.02007  -0.01888  -0.01345  -0.00980
  Beta virt. eigenvalues --   -0.00370   0.00135   0.00236   0.00471   0.00575

 Mulliken charges and spin densities:
               1          2
     1  Na  -0.871558   0.047998
     2  Na   1.215688   0.104395
     3  Na  -0.469367   0.286437
     4  Na   0.573816   0.121604
     5  Na  -0.654244   0.010214
     6  Na  -0.121991   0.109972
     7  Na   0.327655   0.319379
 Sum of Mulliken charges =  -0.00000   1.00000

 Dipole moment (field-independent basis, Debye):
    X=             -1.2668    Y=              0.2403    Z=              0.0958  Tot=              1.2929
 Quadrupole moment (field-independent basis, Debye-Ang):
   XX=            -65.2939   YY=            -60.6205   ZZ=            -70.1735
   XY=              1.6882   XZ=              1.2813   YZ=              0.5156

 Normal termination of Gaussian 16 at Wed Nov 29 02:52:48 2023.
