 Gaussian 16, Revision B.01,
 Gaussian 16:  ES64L-G16RevB.01 20-Dec-2017

 -------------------------
 #P B3LYP/6-311+g(d) force
 -------------------------

 -----
 DPGEN
 -----
 Symbolic Z-matrix:
 Charge =  0 Multiplicity = 2

                         Standard orientation:
 ---------------------------------------------------------------------
 Center     Atomic      Atomic             Coordinates (Angstroms)
 Number     Number       Type             X           Y           Z
 ---------------------------------------------------------------------
      1         11           0        3.760747    1.191187   -1.078085
      2         11           0       -2.987694   -1.248764   -1.014637
      3         11           0        2.703915   -1.283214    0.462849
      4         11           0       -2.989277    2.433342   -0.430442
      5         11           0       -0.298287   -2.751864   -0.656579
      6         11           0       -0.846752   -0.413113    2.324997
      7         11           0        0.657349    2.072425    0.391897
 ---------------------------------------------------------------------

 SCF Done:  E(UB3LYP) =  -1136.12248188     A.U. after   21 cycles

 The electronic state is 2-A.
 Alpha  occ. eigenvalues --  -38.44744 -38.44410 -38.44197 -38.44196 -38.44184
 Alpha  occ. eigenvalues --  -38.44013 -38.43346  -2.20561  -2.20242  -2.20033
 Alpha  occ. eigenvalues --   -2.20026  -2.19940  -2.19812  -2.19179  -1.14232
 Alpha  occ. eigenvalues --   -1.14189  -1.14168  -1.13952  -1.13912  -1.13901
 Alpha  occ. eigenvalues --   -1.13715  -1.13679  -1.13677  -1.13671  -1.13654
 Alpha  occ. eigenvalues --   -1.13648  -1.13617  -1.13593  -1.13577  -1.13513
 Alpha  occ. eigenvalues --   -1.13505  -1.13409  -1.12861  -1.12836  -1.12817
 Alpha  occ. eigenvalues --   -0.17281  -0.13778  -0.12021  -0.11038
 Alpha virt. eigenvalues --   -0.06406  -0.05894  -0.04314  -0.03615  -0.03031
 Alpha virt. eigenvalues --   -0.02369  -0.01809  -0.01480  -0.01063  -0.00547
 Alpha virt. eigenvalues --   -0.00307   0.00304   0.00326   0.00567   0.00673

  Beta  occ. eigenvalues --  -38.44648 -38.44408 -38.44175 -38.44161 -38.44150
  Beta  occ. eigenvalues --  -38.44004 -38.43341  -2.20386  -2.20242  -2.19967
  Beta  occ. eigenvalues --   -2.19938  -2.19924  -2.19800  -2.19172  -1.14107
  Beta  occ. eigenvalues --   -1.14069  -1.14046  -1.13939  -1.13916  -1.13884
  Beta  occ. eigenvalues --   -1.13655  -1.13633  -1.13626  -1.13619  -1.13617
  Beta  occ. eigenvalues --   -1.13606  -1.13596  -1.13566  -1.13564  -1.13502
  Beta  occ. eigenvalues --   -1.13477  -1.13406  -1.12853  -1.12834  -1.12799
  Beta  occ. eigenvalues --   -0.16644  -0.13273  -0.11910
  Beta virt. eigenvalues --   -0.07420  -0.06227  -0.05567  -0.03867  -0.03424
  Beta virt. eigenvalues --   -0.02460  -0.01756  -0.01639  -0.01334  -0.00882
  Beta virt. eigenvalues --   -0.00319  -0.00111   0.00413   0.00437   0.00622

 Mulliken charges and spin densities:
               1          2
     1  Na   0.473124   0.098223
     2  Na  -0.052573   0.261522
     3  Na  -0.108259   0.173115
     4  Na   0.274438   0.005459
     5  Na   0.034206  -0.010233
     6  Na   0.127514   0.397647
     7  Na  -0.748450   0.074267
 Sum of Mulliken charges =  -0.00000   1.00000

 Dipole moment (field-independent basis, Debye):
    X=              0.2940    Y=              0.1819    Z=              0.1773  Tot=              0.3885
 Quadrupole moment (field-independent basis, Debye-Ang):
   XX=            -59.5214   YY=            -69.5519   ZZ=            -69.0978
   XY=             -1.4735   XZ=             -2.0885   YZ=             -2.7957

 Normal termination of Gaussian 16 at Sun Dec  3 19:37:38 2023.
