 Gaussian 16, Revision B.01,
 Gaussian 16:  ES64L-G16RevB.01 20-Dec-2017

 -------------------------
 #P B3LYP/6-311+g(d) force
 -------------------------

 -----
 DPGEN
 -----
 Symbolic Z-matrix:
 Charge =  0 Multiplicity = 2

                         Standard orientation:
 ---------------------------------------------------------------------
 Center     Atomic      Atomic             Coordinates (Angstroms)
 Number     Number       Type             X           Y           Z
 ---------------------------------------------------------------------
      1         11           0        3.914731   -1.161558   -0.991477
      2         11           0       -0.847857    3.138265   -0.290367
      3         11           0        2.534995    2.299213    0.669213
      4         11           0        1.112777   -2.578424   -0.122975
      5         11           0       -2.789435   -2.341856    0.468924
      6         11           0       -0.607350   -0.053809    1.574763
      7         11           0       -3.317861    0.698169   -1.308082
 ---------------------------------------------------------------------

 SCF Done:  E(UB3LYP) =  -1136.12355360     A.U. after   19 cycles

 The electronic state is 2-A.
 Alpha  occ. eigenvalues --  -38.44796 -38.44499 -38.44364 -38.44110 -38.43955
 Alpha  occ. eigenvalues --  -38.43950 -38.43674  -2.20548  -2.20304  -2.20214
 Alpha  occ. eigenvalues --   -2.19911  -2.19765  -2.19740  -2.19480  -1.14232
 Alpha  occ. eigenvalues --   -1.14201  -1.14176  -1.13993  -1.13967  -1.13946
 Alpha  occ. eigenvalues --   -1.13909  -1.13871  -1.13806  -1.13602  -1.13599
 Alpha  occ. eigenvalues --   -1.13543  -1.13431  -1.13425  -1.13422  -1.13398
 Alpha  occ. eigenvalues --   -1.13388  -1.13360  -1.13131  -1.13124  -1.13104
 Alpha  occ. eigenvalues --   -0.16936  -0.13441  -0.12790  -0.10490
 Alpha virt. eigenvalues --   -0.06708  -0.05504  -0.04623  -0.03675  -0.03177
 Alpha virt. eigenvalues --   -0.02048  -0.01652  -0.01625  -0.01083  -0.00849
 Alpha virt. eigenvalues --   -0.00336   0.00180   0.00363   0.00517   0.00621

  Beta  occ. eigenvalues --  -38.44783 -38.44494 -38.44317 -38.44107 -38.43954
  Beta  occ. eigenvalues --  -38.43873 -38.43619  -2.20525  -2.20299  -2.20128
  Beta  occ. eigenvalues --   -2.19911  -2.19741  -2.19622  -2.19377  -1.14216
  Beta  occ. eigenvalues --   -1.14186  -1.14155  -1.13985  -1.13964  -1.13924
  Beta  occ. eigenvalues --   -1.13855  -1.13815  -1.13740  -1.13605  -1.13600
  Beta  occ. eigenvalues --   -1.13508  -1.13432  -1.13423  -1.13346  -1.13327
  Beta  occ. eigenvalues --   -1.13299  -1.13288  -1.13060  -1.13055  -1.13037
  Beta  occ. eigenvalues --   -0.16425  -0.12881  -0.12331
  Beta virt. eigenvalues --   -0.07189  -0.06640  -0.05347  -0.04139  -0.03304
  Beta virt. eigenvalues --   -0.02553  -0.02030  -0.01429  -0.01159  -0.00892
  Beta virt. eigenvalues --   -0.00810  -0.00041   0.00323   0.00508   0.00603

 Mulliken charges and spin densities:
               1          2
     1  Na   0.247900   0.281655
     2  Na  -0.030750   0.083284
     3  Na  -0.071132  -0.032008
     4  Na  -0.525540   0.034088
     5  Na   0.590220   0.084153
     6  Na   0.043544   0.172629
     7  Na  -0.254243   0.376199
 Sum of Mulliken charges =  -0.00000   1.00000

 Dipole moment (field-independent basis, Debye):
    X=             -0.2519    Y=             -0.0362    Z=              0.2690  Tot=              0.3703
 Quadrupole moment (field-independent basis, Debye-Ang):
   XX=            -62.2813   YY=            -64.6560   ZZ=            -71.9093
   XY=              9.9534   XZ=             -0.2390   YZ=              0.1076

 Normal termination of Gaussian 16 at Sun Dec  3 21:20:11 2023.
