 Gaussian 16, Revision B.01,
 Gaussian 16:  ES64L-G16RevB.01 20-Dec-2017

 -------------------------
 #P B3LYP/6-311+g(d) force
 -------------------------

 -----
 DPGEN
 -----
 Symbolic Z-matrix:
 Charge =  0 Multiplicity = 2

                         Standard orientation:
 ---------------------------------------------------------------------
 Center     Atomic      Atomic             Coordinates (Angstroms)
 Number     Number       Type             X           Y           Z
 ---------------------------------------------------------------------
      1         11           0       -2.824244   -1.495327   -0.957691
      2         11           0       -5.443995   -0.377366    1.161876
      3         11           0       -3.380851    2.128190   -0.176733
      4         11           0        0.214401    1.269116   -0.582610
      5         11           0        0.681054   -1.892485   -0.009818
      6         11           0        3.295063    0.194417    0.254435
      7         11           0        7.458573    0.173454    0.310542
 ---------------------------------------------------------------------

 SCF Done:  E(UB3LYP) =  -1136.10875127     A.U. after   28 cycles

 The electronic state is 2-A.
 Alpha  occ. eigenvalues --  -38.45069 -38.45011 -38.44838 -38.44599 -38.44480
 Alpha  occ. eigenvalues --  -38.44270 -38.43876  -2.20874  -2.20789  -2.20655
 Alpha  occ. eigenvalues --   -2.20463  -2.20333  -2.19989  -2.19672  -1.14570
 Alpha  occ. eigenvalues --   -1.14540  -1.14491  -1.14461  -1.14452  -1.14417
 Alpha  occ. eigenvalues --   -1.14331  -1.14312  -1.14253  -1.14143  -1.14127
 Alpha  occ. eigenvalues --   -1.14107  -1.13998  -1.13971  -1.13958  -1.13656
 Alpha  occ. eigenvalues --   -1.13656  -1.13608  -1.13385  -1.13362  -1.13272
 Alpha  occ. eigenvalues --   -0.17263  -0.14314  -0.11627  -0.11064
 Alpha virt. eigenvalues --   -0.07708  -0.05807  -0.04639  -0.03903  -0.03330
 Alpha virt. eigenvalues --   -0.02462  -0.02171  -0.01625  -0.01218  -0.00796
 Alpha virt. eigenvalues --   -0.00561  -0.00360  -0.00335   0.00111   0.00440

  Beta  occ. eigenvalues --  -38.45034 -38.45012 -38.44777 -38.44553 -38.44455
  Beta  occ. eigenvalues --  -38.44239 -38.43890  -2.20810  -2.20790  -2.20542
  Beta  occ. eigenvalues --   -2.20378  -2.20287  -2.19932  -2.19699  -1.14519
  Beta  occ. eigenvalues --   -1.14493  -1.14462  -1.14458  -1.14444  -1.14407
  Beta  occ. eigenvalues --   -1.14257  -1.14237  -1.14162  -1.14089  -1.14078
  Beta  occ. eigenvalues --   -1.14035  -1.13965  -1.13942  -1.13915  -1.13617
  Beta  occ. eigenvalues --   -1.13617  -1.13570  -1.13399  -1.13381  -1.13288
  Beta  occ. eigenvalues --   -0.16703  -0.14255  -0.10767
  Beta virt. eigenvalues --   -0.07858  -0.07363  -0.05168  -0.04423  -0.03833
  Beta virt. eigenvalues --   -0.02623  -0.02350  -0.01815  -0.01519  -0.00905
  Beta virt. eigenvalues --   -0.00693  -0.00252  -0.00246  -0.00028   0.00284

 Mulliken charges and spin densities:
               1          2
     1  Na  -0.331837   0.243251
     2  Na   0.298711  -0.001320
     3  Na  -0.074147   0.132217
     4  Na  -0.523720   0.539621
     5  Na   0.075250   0.127311
     6  Na   0.609607  -0.149546
     7  Na  -0.053864   0.108465
 Sum of Mulliken charges =  -0.00000   1.00000

 Dipole moment (field-independent basis, Debye):
    X=             -3.4208    Y=             -0.5329    Z=              0.1283  Tot=              3.4645
 Quadrupole moment (field-independent basis, Debye-Ang):
   XX=            -66.9013   YY=            -68.8317   ZZ=            -70.3874
   XY=             -1.0496   XZ=             -3.6620   YZ=             -0.9181

 Normal termination of Gaussian 16 at Wed Nov 29 03:03:59 2023.
