 Gaussian 16, Revision B.01,
 Gaussian 16:  ES64L-G16RevB.01 20-Dec-2017

 -------------------------
 #P B3LYP/6-311+g(d) force
 -------------------------

 -----
 DPGEN
 -----
 Symbolic Z-matrix:
 Charge =  0 Multiplicity = 2

                         Standard orientation:
 ---------------------------------------------------------------------
 Center     Atomic      Atomic             Coordinates (Angstroms)
 Number     Number       Type             X           Y           Z
 ---------------------------------------------------------------------
      1         11           0       -2.047632    2.626800   -0.221513
      2         11           0       -0.017269   -0.296493    2.203676
      3         11           0        2.259069    2.359468   -0.145748
      4         11           0        3.367039   -0.969273   -0.058496
      5         11           0       -0.088823    0.045704   -1.291272
      6         11           0       -3.171509   -0.758674    0.052402
      7         11           0       -0.300876   -3.007533   -0.539049
 ---------------------------------------------------------------------

 SCF Done:  E(UB3LYP) =  -1136.13092387     A.U. after   20 cycles

 The electronic state is 2-A.
 Alpha  occ. eigenvalues --  -38.44776 -38.44546 -38.44126 -38.43710 -38.43578
 Alpha  occ. eigenvalues --  -38.43300 -38.43026  -2.20542  -2.20357  -2.19913
 Alpha  occ. eigenvalues --   -2.19502  -2.19420  -2.19134  -2.19005  -1.14219
 Alpha  occ. eigenvalues --   -1.14193  -1.14187  -1.14036  -1.14022  -1.13988
 Alpha  occ. eigenvalues --   -1.13595  -1.13576  -1.13544  -1.13183  -1.13160
 Alpha  occ. eigenvalues --   -1.13143  -1.13087  -1.13038  -1.13031  -1.12874
 Alpha  occ. eigenvalues --   -1.12782  -1.12757  -1.12707  -1.12631  -1.12623
 Alpha  occ. eigenvalues --   -0.17975  -0.13101  -0.12035  -0.10277
 Alpha virt. eigenvalues --   -0.06153  -0.05667  -0.04704  -0.03044  -0.02493
 Alpha virt. eigenvalues --   -0.02346  -0.01976  -0.01394  -0.00837  -0.00736
 Alpha virt. eigenvalues --   -0.00036   0.00287   0.00686   0.00757   0.00790

  Beta  occ. eigenvalues --  -38.44777 -38.44543 -38.44125 -38.43708 -38.43466
  Beta  occ. eigenvalues --  -38.43286 -38.42985  -2.20545  -2.20354  -2.19912
  Beta  occ. eigenvalues --   -2.19501  -2.19213  -2.19111  -2.18934  -1.14206
  Beta  occ. eigenvalues --   -1.14197  -1.14191  -1.14027  -1.14005  -1.13991
  Beta  occ. eigenvalues --   -1.13588  -1.13568  -1.13546  -1.13176  -1.13152
  Beta  occ. eigenvalues --   -1.13144  -1.12947  -1.12896  -1.12884  -1.12848
  Beta  occ. eigenvalues --   -1.12750  -1.12744  -1.12643  -1.12581  -1.12574
  Beta  occ. eigenvalues --   -0.17300  -0.12951  -0.11814
  Beta virt. eigenvalues --   -0.06333  -0.06076  -0.05670  -0.04640  -0.02361
  Beta virt. eigenvalues --   -0.01889  -0.01829  -0.01355  -0.01228  -0.00865
  Beta virt. eigenvalues --   -0.00752   0.00151   0.00341   0.00736   0.00781

 Mulliken charges and spin densities:
               1          2
     1  Na   0.025891  -0.012924
     2  Na  -0.460931   0.781326
     3  Na   0.050356  -0.013563
     4  Na   0.133653  -0.011729
     5  Na  -0.230828   0.139041
     6  Na   0.338868   0.073823
     7  Na   0.142991   0.044025
 Sum of Mulliken charges =  -0.00000   1.00000

 Dipole moment (field-independent basis, Debye):
    X=              0.2141    Y=             -0.0445    Z=              0.1347  Tot=              0.2568
 Quadrupole moment (field-independent basis, Debye-Ang):
   XX=            -51.7668   YY=            -61.8640   ZZ=            -77.9097
   XY=             -0.3095   XZ=             -0.2988   YZ=              0.5594

 Normal termination of Gaussian 16 at Fri Dec  8 06:18:08 2023.
