 Gaussian 16, Revision B.01,
 Gaussian 16:  ES64L-G16RevB.01 20-Dec-2017

 -------------------------
 #P B3LYP/6-311+g(d) force
 -------------------------

 -----
 DPGEN
 -----
 Symbolic Z-matrix:
 Charge =  0 Multiplicity = 2

                         Standard orientation:
 ---------------------------------------------------------------------
 Center     Atomic      Atomic             Coordinates (Angstroms)
 Number     Number       Type             X           Y           Z
 ---------------------------------------------------------------------
      1         11           0       -3.515830   -1.361886    0.512361
      2         11           0        0.118007   -2.666879   -0.518779
      3         11           0        2.668027   -0.417564   -1.394967
      4         11           0        2.270726   -0.515688    1.550648
      5         11           0       -3.393434    2.216953   -0.458231
      6         11           0       -0.660157    0.492533    0.084468
      7         11           0        2.512660    2.252531    0.224500
 ---------------------------------------------------------------------

 SCF Done:  E(UB3LYP) =  -1136.11534333     A.U. after   27 cycles

 The electronic state is 2-A.
 Alpha  occ. eigenvalues --  -38.45683 -38.44206 -38.44167 -38.43990 -38.43670
 Alpha  occ. eigenvalues --  -38.43563 -38.42706  -2.21450  -2.20141  -2.20004
 Alpha  occ. eigenvalues --   -2.19885  -2.19621  -2.19535  -2.18553  -1.15135
 Alpha  occ. eigenvalues --   -1.15109  -1.15067  -1.13886  -1.13819  -1.13754
 Alpha  occ. eigenvalues --   -1.13686  -1.13661  -1.13628  -1.13568  -1.13530
 Alpha  occ. eigenvalues --   -1.13514  -1.13331  -1.13287  -1.13254  -1.13203
 Alpha  occ. eigenvalues --   -1.13165  -1.13123  -1.12254  -1.12214  -1.12179
 Alpha  occ. eigenvalues --   -0.18383  -0.14423  -0.11732  -0.09795
 Alpha virt. eigenvalues --   -0.06871  -0.06371  -0.04274  -0.03145  -0.02651
 Alpha virt. eigenvalues --   -0.02202  -0.01795  -0.01346  -0.01079  -0.00459
 Alpha virt. eigenvalues --   -0.00244   0.00186   0.00370   0.00528   0.00608

  Beta  occ. eigenvalues --  -38.45677 -38.44189 -38.44114 -38.43980 -38.43658
  Beta  occ. eigenvalues --  -38.43495 -38.42700  -2.21440  -2.20047  -2.19973
  Beta  occ. eigenvalues --   -2.19872  -2.19603  -2.19409  -2.18545  -1.15126
  Beta  occ. eigenvalues --   -1.15102  -1.15058  -1.13826  -1.13738  -1.13687
  Beta  occ. eigenvalues --   -1.13664  -1.13639  -1.13608  -1.13548  -1.13526
  Beta  occ. eigenvalues --   -1.13469  -1.13293  -1.13269  -1.13247  -1.13110
  Beta  occ. eigenvalues --   -1.13083  -1.13034  -1.12251  -1.12208  -1.12150
  Beta  occ. eigenvalues --   -0.17795  -0.14215  -0.11436
  Beta virt. eigenvalues --   -0.06741  -0.06227  -0.05889  -0.04156  -0.02867
  Beta virt. eigenvalues --   -0.02531  -0.01634  -0.01513  -0.01032  -0.00724
  Beta virt. eigenvalues --   -0.00333   0.00136   0.00289   0.00517   0.00608

 Mulliken charges and spin densities:
               1          2
     1  Na   0.842341  -0.028116
     2  Na   0.585879  -0.019621
     3  Na   0.168562   0.357371
     4  Na   0.731832   0.137877
     5  Na  -0.432659   0.023583
     6  Na  -2.772044   0.284267
     7  Na   0.876090   0.244639
 Sum of Mulliken charges =  -0.00000   1.00000

 Dipole moment (field-independent basis, Debye):
    X=             -1.3957    Y=             -0.1225    Z=              0.4241  Tot=              1.4639
 Quadrupole moment (field-independent basis, Debye-Ang):
   XX=            -50.8185   YY=            -64.8468   ZZ=            -76.4867
   XY=              4.0303   XZ=              0.3795   YZ=             -2.7876

 Normal termination of Gaussian 16 at Tue Dec  5 17:48:17 2023.
