 Gaussian 16, Revision B.01,
 Gaussian 16:  ES64L-G16RevB.01 20-Dec-2017

 -------------------------
 #P B3LYP/6-311+g(d) force
 -------------------------

 -----
 DPGEN
 -----
 Symbolic Z-matrix:
 Charge =  0 Multiplicity = 2

                         Standard orientation:
 ---------------------------------------------------------------------
 Center     Atomic      Atomic             Coordinates (Angstroms)
 Number     Number       Type             X           Y           Z
 ---------------------------------------------------------------------
      1         11           0       -2.411310    2.327687    0.278261
      2         11           0        0.322053    2.724448   -0.767742
      3         11           0       -2.463842   -2.622526   -0.449973
      4         11           0        4.421428   -0.457237    2.406792
      5         11           0        3.660315   -0.270573   -1.306951
      6         11           0        0.728751   -1.195179   -1.349914
      7         11           0       -4.257394   -0.506620    1.189527
 ---------------------------------------------------------------------

 SCF Done:  E(UB3LYP) =  -1136.10824228     A.U. after   23 cycles

 The electronic state is 2-A.
 Alpha  occ. eigenvalues --  -38.45770 -38.45074 -38.44690 -38.44473 -38.43862
 Alpha  occ. eigenvalues --  -38.43494 -38.43220  -2.21546  -2.20863  -2.20493
 Alpha  occ. eigenvalues --   -2.20304  -2.19660  -2.19312  -2.19057  -1.15180
 Alpha  occ. eigenvalues --   -1.15179  -1.15143  -1.14588  -1.14520  -1.14508
 Alpha  occ. eigenvalues --   -1.14154  -1.14146  -1.14143  -1.13961  -1.13951
 Alpha  occ. eigenvalues --   -1.13929  -1.13325  -1.13324  -1.13305  -1.13077
 Alpha  occ. eigenvalues --   -1.12972  -1.12945  -1.12714  -1.12701  -1.12673
 Alpha  occ. eigenvalues --   -0.16239  -0.14195  -0.11840  -0.11729
 Alpha virt. eigenvalues --   -0.07204  -0.05476  -0.04194  -0.03727  -0.03122
 Alpha virt. eigenvalues --   -0.02468  -0.02246  -0.01469  -0.00930  -0.00668
 Alpha virt. eigenvalues --   -0.00572  -0.00298  -0.00010   0.00066   0.00544

  Beta  occ. eigenvalues --  -38.45637 -38.45093 -38.44670 -38.44419 -38.43855
  Beta  occ. eigenvalues --  -38.43499 -38.43216  -2.21299  -2.20903  -2.20456
  Beta  occ. eigenvalues --   -2.20204  -2.19647  -2.19321  -2.19048  -1.15012
  Beta  occ. eigenvalues --   -1.15009  -1.14978  -1.14606  -1.14551  -1.14511
  Beta  occ. eigenvalues --   -1.14130  -1.14125  -1.14113  -1.13896  -1.13892
  Beta  occ. eigenvalues --   -1.13852  -1.13318  -1.13313  -1.13288  -1.13087
  Beta  occ. eigenvalues --   -1.12977  -1.12948  -1.12707  -1.12697  -1.12668
  Beta  occ. eigenvalues --   -0.15768  -0.13632  -0.11782
  Beta virt. eigenvalues --   -0.08069  -0.06411  -0.05225  -0.04032  -0.03337
  Beta virt. eigenvalues --   -0.02844  -0.02107  -0.01969  -0.01014  -0.00781
  Beta virt. eigenvalues --   -0.00595  -0.00266   0.00028   0.00165   0.00250

 Mulliken charges and spin densities:
               1          2
     1  Na   0.028987   0.093639
     2  Na   0.050759  -0.028345
     3  Na   0.408712  -0.079278
     4  Na   0.168464   0.662136
     5  Na   0.452033   0.008451
     6  Na  -1.003881   0.257998
     7  Na  -0.105074   0.085399
 Sum of Mulliken charges =  -0.00000   1.00000

 Dipole moment (field-independent basis, Debye):
    X=              0.9801    Y=             -0.4621    Z=              0.6238  Tot=              1.2503
 Quadrupole moment (field-independent basis, Debye-Ang):
   XX=            -57.4040   YY=            -75.7890   ZZ=            -65.7843
   XY=              2.2682   XZ=             -4.7989   YZ=             -0.1323

 Normal termination of Gaussian 16 at Sun Dec  3 23:46:07 2023.
