 Gaussian 16, Revision B.01,
 Gaussian 16:  ES64L-G16RevB.01 20-Dec-2017

 -------------------------
 #P B3LYP/6-311+g(d) force
 -------------------------

 -----
 DPGEN
 -----
 Symbolic Z-matrix:
 Charge =  0 Multiplicity = 2

                         Standard orientation:
 ---------------------------------------------------------------------
 Center     Atomic      Atomic             Coordinates (Angstroms)
 Number     Number       Type             X           Y           Z
 ---------------------------------------------------------------------
      1         11           0       -2.234308   -0.833598    0.326847
      2         11           0       -5.170677   -2.255357   -0.244812
      3         11           0       -3.834004    1.818176   -0.991710
      4         11           0       -1.375459    2.117020    0.597470
      5         11           0        1.399861   -0.153435    1.486418
      6         11           0        3.924738   -0.482531   -0.880526
      7         11           0        7.289848   -0.210275   -0.293687
 ---------------------------------------------------------------------

 SCF Done:  E(UB3LYP) =  -1136.11004454     A.U. after   22 cycles

 The electronic state is 2-A.
 Alpha  occ. eigenvalues --  -38.45163 -38.44411 -38.44283 -38.44264 -38.44028
 Alpha  occ. eigenvalues --  -38.43968 -38.43838  -2.21045  -2.20205  -2.20175
 Alpha  occ. eigenvalues --   -2.20174  -2.19799  -2.19764  -2.19647  -1.14780
 Alpha  occ. eigenvalues --   -1.14688  -1.14632  -1.13991  -1.13876  -1.13852
 Alpha  occ. eigenvalues --   -1.13831  -1.13831  -1.13830  -1.13810  -1.13799
 Alpha  occ. eigenvalues --   -1.13741  -1.13486  -1.13482  -1.13432  -1.13422
 Alpha  occ. eigenvalues --   -1.13415  -1.13377  -1.13317  -1.13309  -1.13252
 Alpha  occ. eigenvalues --   -0.17156  -0.13835  -0.12079  -0.11500
 Alpha virt. eigenvalues --   -0.06611  -0.05148  -0.04368  -0.03875  -0.03119
 Alpha virt. eigenvalues --   -0.02353  -0.02134  -0.01667  -0.01138  -0.00918
 Alpha virt. eigenvalues --   -0.00621  -0.00232   0.00120   0.00493   0.00567

  Beta  occ. eigenvalues --  -38.45094 -38.44368 -38.44256 -38.44245 -38.44042
  Beta  occ. eigenvalues --  -38.43920 -38.43803  -2.20923  -2.20162  -2.20140
  Beta  occ. eigenvalues --   -2.20095  -2.19827  -2.19676  -2.19580  -1.14684
  Beta  occ. eigenvalues --   -1.14607  -1.14540  -1.13964  -1.13854  -1.13822
  Beta  occ. eigenvalues --   -1.13789  -1.13777  -1.13775  -1.13757  -1.13748
  Beta  occ. eigenvalues --   -1.13707  -1.13505  -1.13503  -1.13432  -1.13357
  Beta  occ. eigenvalues --   -1.13354  -1.13325  -1.13268  -1.13266  -1.13217
  Beta  occ. eigenvalues --   -0.16524  -0.13488  -0.11276
  Beta virt. eigenvalues --   -0.08249  -0.06211  -0.04919  -0.04081  -0.03668
  Beta virt. eigenvalues --   -0.02594  -0.02124  -0.01812  -0.01493  -0.00876
  Beta virt. eigenvalues --   -0.00574  -0.00346  -0.00122   0.00303   0.00547

 Mulliken charges and spin densities:
               1          2
     1  Na  -2.010590   0.341476
     2  Na  -0.216654   0.179163
     3  Na   0.071078   0.218940
     4  Na   0.661370   0.055044
     5  Na   1.381067   0.083720
     6  Na  -0.408791  -0.035465
     7  Na   0.522519   0.157121
 Sum of Mulliken charges =  -0.00000   1.00000

 Dipole moment (field-independent basis, Debye):
    X=             -1.0221    Y=              0.8139    Z=             -0.1227  Tot=              1.3123
 Quadrupole moment (field-independent basis, Debye-Ang):
   XX=            -57.1855   YY=            -68.6548   ZZ=            -69.5302
   XY=             -0.9412   XZ=              5.1976   YZ=             -1.0620

 Normal termination of Gaussian 16 at Wed Nov 29 01:33:01 2023.
