 Gaussian 16, Revision B.01,
 Gaussian 16:  ES64L-G16RevB.01 20-Dec-2017

 -------------------------
 #P B3LYP/6-311+g(d) force
 -------------------------

 -----
 DPGEN
 -----
 Symbolic Z-matrix:
 Charge =  0 Multiplicity = 2

                         Standard orientation:
 ---------------------------------------------------------------------
 Center     Atomic      Atomic             Coordinates (Angstroms)
 Number     Number       Type             X           Y           Z
 ---------------------------------------------------------------------
      1         11           0       -2.135996   -1.881303   -0.367793
      2         11           0        0.237433    2.739554   -0.137751
      3         11           0       -0.044463   -0.444791    1.878241
      4         11           0        1.369425   -2.452751   -0.032243
      5         11           0        2.888949    0.696993    0.139308
      6         11           0        0.196211    0.010286   -1.752066
      7         11           0       -2.511559    1.332013    0.272304
 ---------------------------------------------------------------------

 SCF Done:  E(UB3LYP) =  -1136.13798964     A.U. after   19 cycles

 The electronic state is 2-A.
 Alpha  occ. eigenvalues --  -38.43646 -38.43487 -38.43456 -38.43407 -38.43392
 Alpha  occ. eigenvalues --  -38.43211 -38.43200  -2.19517  -2.19385  -2.19383
 Alpha  occ. eigenvalues --   -2.19370  -2.19299  -2.19235  -2.19116  -1.13209
 Alpha  occ. eigenvalues --   -1.13188  -1.13173  -1.13149  -1.13105  -1.13074
 Alpha  occ. eigenvalues --   -1.13064  -1.13045  -1.13033  -1.13004  -1.12979
 Alpha  occ. eigenvalues --   -1.12969  -1.12964  -1.12943  -1.12927  -1.12918
 Alpha  occ. eigenvalues --   -1.12874  -1.12839  -1.12758  -1.12756  -1.12732
 Alpha  occ. eigenvalues --   -0.19400  -0.13052  -0.12853  -0.11055
 Alpha virt. eigenvalues --   -0.05245  -0.04952  -0.04653  -0.03203  -0.03106
 Alpha virt. eigenvalues --   -0.02600  -0.01243  -0.01011  -0.00071  -0.00005
 Alpha virt. eigenvalues --    0.00076   0.00375   0.00912   0.00937   0.00977

  Beta  occ. eigenvalues --  -38.43641 -38.43476 -38.43447 -38.43385 -38.43324
  Beta  occ. eigenvalues --  -38.43195 -38.43132  -2.19513  -2.19369  -2.19360
  Beta  occ. eigenvalues --   -2.19290  -2.19230  -2.19111  -2.19092  -1.13203
  Beta  occ. eigenvalues --   -1.13172  -1.13152  -1.13122  -1.13082  -1.13035
  Beta  occ. eigenvalues --   -1.13029  -1.13015  -1.13014  -1.12963  -1.12943
  Beta  occ. eigenvalues --   -1.12919  -1.12916  -1.12879  -1.12863  -1.12857
  Beta  occ. eigenvalues --   -1.12790  -1.12744  -1.12737  -1.12733  -1.12700
  Beta  occ. eigenvalues --   -0.18647  -0.12787  -0.12579
  Beta virt. eigenvalues --   -0.07086  -0.05243  -0.04928  -0.04634  -0.02377
  Beta virt. eigenvalues --   -0.02282  -0.01522  -0.01169  -0.00944  -0.00077
  Beta virt. eigenvalues --   -0.00038   0.00138   0.00391   0.00928   0.00949

 Mulliken charges and spin densities:
               1          2
     1  Na   0.250594  -0.030372
     2  Na   0.151958  -0.041474
     3  Na  -0.522299   0.675600
     4  Na   0.329208  -0.092754
     5  Na   0.106231  -0.076321
     6  Na  -0.410272   0.571084
     7  Na   0.094580  -0.005763
 Sum of Mulliken charges =  -0.00000   1.00000

 Dipole moment (field-independent basis, Debye):
    X=              0.1348    Y=             -0.1797    Z=              0.0945  Tot=              0.2437
 Quadrupole moment (field-independent basis, Debye-Ang):
   XX=            -59.0121   YY=            -62.5691   ZZ=            -72.7762
   XY=              0.3242   XZ=              0.5384   YZ=              1.0692

 Normal termination of Gaussian 16 at Sun Dec  3 12:22:18 2023.
