 Gaussian 16, Revision B.01,
 Gaussian 16:  ES64L-G16RevB.01 20-Dec-2017

 -------------------------
 #P B3LYP/6-311+g(d) force
 -------------------------

 -----
 DPGEN
 -----
 Symbolic Z-matrix:
 Charge =  0 Multiplicity = 2

                         Standard orientation:
 ---------------------------------------------------------------------
 Center     Atomic      Atomic             Coordinates (Angstroms)
 Number     Number       Type             X           Y           Z
 ---------------------------------------------------------------------
      1         11           0       -0.084453   -0.101012   -1.805029
      2         11           0        0.096002    0.233817    1.859679
      3         11           0       -2.530168   -0.951824    0.070034
      4         11           0       -1.526560    1.800961   -0.051991
      5         11           0        1.286327    1.830594   -0.147784
      6         11           0        0.088571   -2.117023    0.094339
      7         11           0        2.670280   -0.695512   -0.019249
 ---------------------------------------------------------------------

 SCF Done:  E(UB3LYP) =  -1136.09421267     A.U. after   19 cycles

 The electronic state is 2-A.
 Alpha  occ. eigenvalues --  -38.44115 -38.44112 -38.43771 -38.43713 -38.43375
 Alpha  occ. eigenvalues --  -38.43294 -38.43162  -2.20321  -2.20282  -2.19789
 Alpha  occ. eigenvalues --   -2.19743  -2.19544  -2.19415  -2.19308  -1.14127
 Alpha  occ. eigenvalues --   -1.14065  -1.14027  -1.13956  -1.13936  -1.13895
 Alpha  occ. eigenvalues --   -1.13570  -1.13529  -1.13474  -1.13471  -1.13404
 Alpha  occ. eigenvalues --   -1.13357  -1.13346  -1.13154  -1.13116  -1.13036
 Alpha  occ. eigenvalues --   -1.13030  -1.12960  -1.12938  -1.12913  -1.12853
 Alpha  occ. eigenvalues --   -0.21380  -0.13838  -0.12800  -0.12205
 Alpha virt. eigenvalues --   -0.05247  -0.04296  -0.04010  -0.03663  -0.03191
 Alpha virt. eigenvalues --   -0.02927  -0.01221  -0.00464  -0.00103   0.00352
 Alpha virt. eigenvalues --    0.00706   0.00734   0.01034   0.01135   0.01181

  Beta  occ. eigenvalues --  -38.44021 -38.44017 -38.43765 -38.43706 -38.43358
  Beta  occ. eigenvalues --  -38.43280 -38.43146  -2.20151  -2.20109  -2.19783
  Beta  occ. eigenvalues --   -2.19736  -2.19521  -2.19397  -2.19285  -1.14034
  Beta  occ. eigenvalues --   -1.13948  -1.13912  -1.13834  -1.13819  -1.13770
  Beta  occ. eigenvalues --   -1.13566  -1.13526  -1.13471  -1.13465  -1.13361
  Beta  occ. eigenvalues --   -1.13331  -1.13311  -1.13107  -1.13072  -1.13024
  Beta  occ. eigenvalues --   -1.12965  -1.12946  -1.12907  -1.12861  -1.12848
  Beta  occ. eigenvalues --   -0.20539  -0.13488  -0.12431
  Beta virt. eigenvalues --   -0.08027  -0.05269  -0.04288  -0.03981  -0.02720
  Beta virt. eigenvalues --   -0.02264  -0.01836  -0.01147  -0.00423   0.00048
  Beta virt. eigenvalues --    0.00380   0.00691   0.00710   0.01054   0.01146

 Mulliken charges and spin densities:
               1          2
     1  Na  -0.215664   0.452371
     2  Na  -0.268197   0.509427
     3  Na  -0.035444  -0.048166
     4  Na   0.193163   0.022540
     5  Na   0.201347   0.048160
     6  Na   0.180173   0.088140
     7  Na  -0.055378  -0.072472
 Sum of Mulliken charges =  -0.00000   1.00000

 Dipole moment (field-independent basis, Debye):
    X=              0.0230    Y=             -0.1540    Z=              0.1008  Tot=              0.1854
 Quadrupole moment (field-independent basis, Debye-Ang):
   XX=            -58.4224   YY=            -70.6058   ZZ=            -68.2643
   XY=             -0.2591   XZ=             -0.3415   YZ=             -0.5492

 Normal termination of Gaussian 16 at Fri Dec  8 02:12:38 2023.
