 Gaussian 16, Revision B.01,
 Gaussian 16:  ES64L-G16RevB.01 20-Dec-2017

 -------------------------
 #P B3LYP/6-311+g(d) force
 -------------------------

 -----
 DPGEN
 -----
 Symbolic Z-matrix:
 Charge =  0 Multiplicity = 2

                         Standard orientation:
 ---------------------------------------------------------------------
 Center     Atomic      Atomic             Coordinates (Angstroms)
 Number     Number       Type             X           Y           Z
 ---------------------------------------------------------------------
      1         11           0       -1.009891   -0.184687    1.572761
      2         11           0        1.902795   -1.774411    0.353390
      3         11           0       -4.059902   -0.498406   -0.156678
      4         11           0        1.502940    1.658217   -0.380401
      5         11           0       -1.525371    2.633953   -0.175686
      6         11           0       -1.342644   -1.873578   -1.035399
      7         11           0        4.532074    0.038912   -0.177987
 ---------------------------------------------------------------------

 SCF Done:  E(UB3LYP) =  -1136.12592858     A.U. after   21 cycles

 The electronic state is 2-A.
 Alpha  occ. eigenvalues --  -38.44611 -38.44075 -38.43971 -38.43882 -38.43378
 Alpha  occ. eigenvalues --  -38.43365 -38.42958  -2.20551  -2.19961  -2.19836
 Alpha  occ. eigenvalues --   -2.19734  -2.19254  -2.19252  -2.18808  -1.14260
 Alpha  occ. eigenvalues --   -1.14212  -1.14164  -1.13658  -1.13630  -1.13614
 Alpha  occ. eigenvalues --   -1.13487  -1.13449  -1.13444  -1.13387  -1.13370
 Alpha  occ. eigenvalues --   -1.13366  -1.12961  -1.12951  -1.12939  -1.12923
 Alpha  occ. eigenvalues --   -1.12886  -1.12864  -1.12482  -1.12470  -1.12438
 Alpha  occ. eigenvalues --   -0.18217  -0.14431  -0.11898  -0.10774
 Alpha virt. eigenvalues --   -0.06696  -0.05173  -0.04180  -0.03623  -0.03050
 Alpha virt. eigenvalues --   -0.02096  -0.01681  -0.01253  -0.00957  -0.00512
 Alpha virt. eigenvalues --   -0.00292   0.00031   0.00470   0.00677   0.00776

  Beta  occ. eigenvalues --  -38.44577 -38.44066 -38.43896 -38.43809 -38.43374
  Beta  occ. eigenvalues --  -38.43344 -38.42959  -2.20493  -2.19950  -2.19695
  Beta  occ. eigenvalues --   -2.19597  -2.19251  -2.19223  -2.18811  -1.14227
  Beta  occ. eigenvalues --   -1.14145  -1.14121  -1.13651  -1.13619  -1.13565
  Beta  occ. eigenvalues --   -1.13391  -1.13365  -1.13351  -1.13297  -1.13277
  Beta  occ. eigenvalues --   -1.13275  -1.12956  -1.12943  -1.12926  -1.12894
  Beta  occ. eigenvalues --   -1.12868  -1.12810  -1.12486  -1.12469  -1.12433
  Beta  occ. eigenvalues --   -0.17595  -0.13696  -0.11658
  Beta virt. eigenvalues --   -0.07244  -0.06522  -0.05011  -0.03524  -0.03355
  Beta virt. eigenvalues --   -0.02742  -0.01950  -0.01263  -0.00968  -0.00496
  Beta virt. eigenvalues --   -0.00289  -0.00028   0.00091   0.00591   0.00729

 Mulliken charges and spin densities:
               1          2
     1  Na  -0.384467   0.115180
     2  Na  -0.157284   0.105260
     3  Na   0.352391   0.416219
     4  Na  -0.773480  -0.058438
     5  Na   0.119308   0.127568
     6  Na   0.008940  -0.008522
     7  Na   0.834591   0.302733
 Sum of Mulliken charges =  -0.00000   1.00000

 Dipole moment (field-independent basis, Debye):
    X=             -0.3129    Y=             -0.3286    Z=              0.2527  Tot=              0.5194
 Quadrupole moment (field-independent basis, Debye-Ang):
   XX=            -63.4669   YY=            -74.1633   ZZ=            -64.2277
   XY=             -2.9012   XZ=             -0.7449   YZ=             -0.4383

 Normal termination of Gaussian 16 at Tue Nov 28 23:21:58 2023.
