 Gaussian 16, Revision B.01,
 Gaussian 16:  ES64L-G16RevB.01 20-Dec-2017

 -------------------------
 #P B3LYP/6-311+g(d) force
 -------------------------

 -----
 DPGEN
 -----
 Symbolic Z-matrix:
 Charge =  0 Multiplicity = 2

                         Standard orientation:
 ---------------------------------------------------------------------
 Center     Atomic      Atomic             Coordinates (Angstroms)
 Number     Number       Type             X           Y           Z
 ---------------------------------------------------------------------
      1         11           0       -4.438837   -1.181384    0.571965
      2         11           0        2.677236    2.184115    0.842844
      3         11           0        0.200527    3.504680   -0.485332
      4         11           0       -1.619097   -2.121776   -0.408501
      5         11           0        2.011010   -3.372647    0.019483
      6         11           0       -3.330886    1.645868   -0.269597
      7         11           0        4.500046   -0.658856   -0.270861
 ---------------------------------------------------------------------

 SCF Done:  E(UB3LYP) =  -1136.10955418     A.U. after   24 cycles

 The electronic state is 2-A.
 Alpha  occ. eigenvalues --  -38.46021 -38.45033 -38.44549 -38.44493 -38.44120
 Alpha  occ. eigenvalues --  -38.43984 -38.43229  -2.21806  -2.20835  -2.20423
 Alpha  occ. eigenvalues --   -2.20289  -2.19868  -2.19770  -2.19041  -1.15492
 Alpha  occ. eigenvalues --   -1.15466  -1.15441  -1.14536  -1.14510  -1.14452
 Alpha  occ. eigenvalues --   -1.14085  -1.14057  -1.14049  -1.13979  -1.13962
 Alpha  occ. eigenvalues --   -1.13935  -1.13554  -1.13535  -1.13502  -1.13434
 Alpha  occ. eigenvalues --   -1.13421  -1.13391  -1.12710  -1.12692  -1.12676
 Alpha  occ. eigenvalues --   -0.16217  -0.14167  -0.12789  -0.10527
 Alpha virt. eigenvalues --   -0.07526  -0.05220  -0.04425  -0.03743  -0.03085
 Alpha virt. eigenvalues --   -0.02635  -0.02243  -0.01780  -0.01196  -0.00547
 Alpha virt. eigenvalues --   -0.00378  -0.00080   0.00146   0.00441   0.00549

  Beta  occ. eigenvalues --  -38.45995 -38.44991 -38.44516 -38.44492 -38.44110
  Beta  occ. eigenvalues --  -38.43933 -38.43203  -2.21762  -2.20761  -2.20364
  Beta  occ. eigenvalues --   -2.20291  -2.19852  -2.19676  -2.18991  -1.15465
  Beta  occ. eigenvalues --   -1.15442  -1.15376  -1.14486  -1.14462  -1.14382
  Beta  occ. eigenvalues --   -1.14032  -1.14020  -1.14011  -1.13984  -1.13964
  Beta  occ. eigenvalues --   -1.13912  -1.13545  -1.13526  -1.13473  -1.13370
  Beta  occ. eigenvalues --   -1.13354  -1.13328  -1.12685  -1.12657  -1.12638
  Beta  occ. eigenvalues --   -0.15719  -0.13736  -0.12252
  Beta virt. eigenvalues --   -0.07535  -0.07130  -0.04783  -0.04081  -0.03439
  Beta virt. eigenvalues --   -0.02673  -0.02323  -0.02118  -0.01669  -0.01025
  Beta virt. eigenvalues --   -0.00287  -0.00107   0.00172   0.00313   0.00508

 Mulliken charges and spin densities:
               1          2
     1  Na   1.133838   0.192684
     2  Na  -0.268282   0.041592
     3  Na   0.176892   0.102030
     4  Na  -0.963241   0.296606
     5  Na   0.163191  -0.090295
     6  Na  -0.151171   0.218751
     7  Na  -0.091228   0.238632
 Sum of Mulliken charges =  -0.00000   1.00000

 Dipole moment (field-independent basis, Debye):
    X=             -2.0906    Y=             -0.2298    Z=              0.1378  Tot=              2.1077
 Quadrupole moment (field-independent basis, Debye-Ang):
   XX=            -58.1213   YY=            -69.4549   ZZ=            -71.3415
   XY=             -1.4472   XZ=             -0.8004   YZ=             -1.3002

 Normal termination of Gaussian 16 at Sun Dec  3 22:24:39 2023.
