 Gaussian 16, Revision B.01,
 Gaussian 16:  ES64L-G16RevB.01 20-Dec-2017

 -------------------------
 #P B3LYP/6-311+g(d) force
 -------------------------

 -----
 DPGEN
 -----
 Symbolic Z-matrix:
 Charge =  0 Multiplicity = 2

                         Standard orientation:
 ---------------------------------------------------------------------
 Center     Atomic      Atomic             Coordinates (Angstroms)
 Number     Number       Type             X           Y           Z
 ---------------------------------------------------------------------
      1         11           0       -1.531382   -1.189091    2.090615
      2         11           0       -3.183608    1.910646   -0.037720
      3         11           0        2.026131   -0.159982    2.137520
      4         11           0       -2.413313   -1.269870   -1.437657
      5         11           0        0.560971    2.380458   -0.558851
      6         11           0        0.852457   -2.240306   -1.300042
      7         11           0        3.688743    0.568145   -0.893865
 ---------------------------------------------------------------------

 SCF Done:  E(UB3LYP) =  -1136.12263566     A.U. after   21 cycles

 The electronic state is 2-A.
 Alpha  occ. eigenvalues --  -38.44898 -38.44806 -38.44661 -38.44097 -38.44043
 Alpha  occ. eigenvalues --  -38.43715 -38.43484  -2.20697  -2.20590  -2.20450
 Alpha  occ. eigenvalues --   -2.19916  -2.19792  -2.19503  -2.19259  -1.14375
 Alpha  occ. eigenvalues --   -1.14347  -1.14316  -1.14260  -1.14227  -1.14219
 Alpha  occ. eigenvalues --   -1.14123  -1.14095  -1.14084  -1.13602  -1.13571
 Alpha  occ. eigenvalues --   -1.13540  -1.13495  -1.13482  -1.13394  -1.13190
 Alpha  occ. eigenvalues --   -1.13148  -1.13125  -1.12939  -1.12911  -1.12904
 Alpha  occ. eigenvalues --   -0.17115  -0.13483  -0.11658  -0.11301
 Alpha virt. eigenvalues --   -0.06151  -0.05584  -0.05266  -0.03453  -0.03001
 Alpha virt. eigenvalues --   -0.02705  -0.01925  -0.01118  -0.00796  -0.00543
 Alpha virt. eigenvalues --   -0.00035   0.00108   0.00270   0.00299   0.00546

  Beta  occ. eigenvalues --  -38.44839 -38.44749 -38.44647 -38.44072 -38.44044
  Beta  occ. eigenvalues --  -38.43676 -38.43484  -2.20590  -2.20486  -2.20425
  Beta  occ. eigenvalues --   -2.19871  -2.19796  -2.19432  -2.19259  -1.14299
  Beta  occ. eigenvalues --   -1.14280  -1.14227  -1.14187  -1.14160  -1.14134
  Beta  occ. eigenvalues --   -1.14100  -1.14078  -1.14068  -1.13565  -1.13546
  Beta  occ. eigenvalues --   -1.13501  -1.13490  -1.13485  -1.13398  -1.13137
  Beta  occ. eigenvalues --   -1.13098  -1.13074  -1.12933  -1.12912  -1.12906
  Beta  occ. eigenvalues --   -0.16468  -0.13347  -0.11072
  Beta virt. eigenvalues --   -0.07747  -0.06025  -0.05295  -0.04774  -0.03177
  Beta virt. eigenvalues --   -0.02384  -0.02093  -0.01878  -0.00948  -0.00423
  Beta virt. eigenvalues --   -0.00343   0.00019   0.00250   0.00330   0.00416

 Mulliken charges and spin densities:
               1          2
     1  Na  -0.042722   0.304493
     2  Na   0.097489  -0.055662
     3  Na  -0.010863   0.210460
     4  Na   0.206642   0.121935
     5  Na  -0.457223   0.049970
     6  Na  -0.359467   0.252326
     7  Na   0.566145   0.116477
 Sum of Mulliken charges =  -0.00000   1.00000

 Dipole moment (field-independent basis, Debye):
    X=              0.7759    Y=             -0.2252    Z=              0.2324  Tot=              0.8407
 Quadrupole moment (field-independent basis, Debye-Ang):
   XX=            -53.5063   YY=            -77.4918   ZZ=            -66.8686
   XY=              1.1072   XZ=             -1.9669   YZ=             -0.0005

 Normal termination of Gaussian 16 at Sun Dec  3 14:46:56 2023.
