 Gaussian 16, Revision B.01,
 Gaussian 16:  ES64L-G16RevB.01 20-Dec-2017

 -------------------------
 #P B3LYP/6-311+g(d) force
 -------------------------

 -----
 DPGEN
 -----
 Symbolic Z-matrix:
 Charge =  0 Multiplicity = 2

                         Standard orientation:
 ---------------------------------------------------------------------
 Center     Atomic      Atomic             Coordinates (Angstroms)
 Number     Number       Type             X           Y           Z
 ---------------------------------------------------------------------
      1         11           0        0.921615   -2.693324   -0.084042
      2         11           0        3.333110   -0.359706   -0.263166
      3         11           0       -2.687242   -1.788606   -0.035931
      4         11           0       -2.686343    1.699362   -0.406856
      5         11           0       -0.227881   -0.084629    2.030347
      6         11           0        0.156196    0.407269   -1.647878
      7         11           0        1.190544    2.819634    0.407524
 ---------------------------------------------------------------------

 SCF Done:  E(UB3LYP) =  -1136.13732151     A.U. after   19 cycles

 The electronic state is 2-A.
 Alpha  occ. eigenvalues --  -38.44285 -38.44055 -38.43912 -38.43579 -38.43560
 Alpha  occ. eigenvalues --  -38.43378 -38.43206  -2.20093  -2.19872  -2.19719
 Alpha  occ. eigenvalues --   -2.19438  -2.19395  -2.19307  -2.19053  -1.13766
 Alpha  occ. eigenvalues --   -1.13754  -1.13731  -1.13559  -1.13530  -1.13504
 Alpha  occ. eigenvalues --   -1.13395  -1.13376  -1.13361  -1.13116  -1.13088
 Alpha  occ. eigenvalues --   -1.13076  -1.13067  -1.13037  -1.13024  -1.12990
 Alpha  occ. eigenvalues --   -1.12939  -1.12928  -1.12732  -1.12728  -1.12680
 Alpha  occ. eigenvalues --   -0.18273  -0.13031  -0.12254  -0.10622
 Alpha virt. eigenvalues --   -0.05837  -0.05423  -0.04604  -0.03129  -0.02883
 Alpha virt. eigenvalues --   -0.02474  -0.01757  -0.01257  -0.00584  -0.00368
 Alpha virt. eigenvalues --   -0.00033   0.00330   0.00734   0.00810   0.00869

  Beta  occ. eigenvalues --  -38.44281 -38.44042 -38.43911 -38.43569 -38.43466
  Beta  occ. eigenvalues --  -38.43324 -38.43201  -2.20086  -2.19851  -2.19720
  Beta  occ. eigenvalues --   -2.19378  -2.19263  -2.19209  -2.19049  -1.13752
  Beta  occ. eigenvalues --   -1.13747  -1.13726  -1.13536  -1.13511  -1.13490
  Beta  occ. eigenvalues --   -1.13385  -1.13378  -1.13354  -1.13077  -1.13034
  Beta  occ. eigenvalues --   -1.13017  -1.12992  -1.12950  -1.12921  -1.12918
  Beta  occ. eigenvalues --   -1.12874  -1.12853  -1.12730  -1.12710  -1.12670
  Beta  occ. eigenvalues --   -0.17574  -0.12785  -0.12022
  Beta virt. eigenvalues --   -0.06780  -0.05759  -0.05397  -0.04534  -0.02431
  Beta virt. eigenvalues --   -0.02135  -0.01643  -0.01456  -0.01180  -0.00611
  Beta virt. eigenvalues --   -0.00404   0.00112   0.00373   0.00801   0.00820

 Mulliken charges and spin densities:
               1          2
     1  Na   0.005202  -0.069617
     2  Na   0.156968  -0.029449
     3  Na   0.039809  -0.057487
     4  Na   0.197196  -0.008997
     5  Na  -0.290028   0.739780
     6  Na  -0.119570   0.462720
     7  Na   0.010423  -0.036951
 Sum of Mulliken charges =  -0.00000   1.00000

 Dipole moment (field-independent basis, Debye):
    X=              0.0108    Y=              0.1563    Z=              0.0489  Tot=              0.1641
 Quadrupole moment (field-independent basis, Debye-Ang):
   XX=            -54.5644   YY=            -63.6019   ZZ=            -74.9043
   XY=              0.6621   XZ=              0.5911   YZ=              0.9756

 Normal termination of Gaussian 16 at Fri Dec  8 04:24:00 2023.
