 Gaussian 16, Revision B.01,
 Gaussian 16:  ES64L-G16RevB.01 20-Dec-2017

 -------------------------
 #P B3LYP/6-311+g(d) force
 -------------------------

 -----
 DPGEN
 -----
 Symbolic Z-matrix:
 Charge =  0 Multiplicity = 2

                         Standard orientation:
 ---------------------------------------------------------------------
 Center     Atomic      Atomic             Coordinates (Angstroms)
 Number     Number       Type             X           Y           Z
 ---------------------------------------------------------------------
      1         11           0       -0.836905   -2.507317    0.307077
      2         11           0        2.230681    2.124945    0.512961
      3         11           0        0.276567    0.117340   -1.782556
      4         11           0        2.824050   -1.541677   -0.649347
      5         11           0        0.383442   -0.349312    1.926374
      6         11           0       -1.463665    2.552069   -0.191189
      7         11           0       -3.414171   -0.396048   -0.123320
 ---------------------------------------------------------------------

 SCF Done:  E(UB3LYP) =  -1136.13367012     A.U. after   20 cycles

 The electronic state is 2-A.
 Alpha  occ. eigenvalues --  -38.44258 -38.44129 -38.43823 -38.43721 -38.43623
 Alpha  occ. eigenvalues --  -38.43390 -38.43169  -2.20056  -2.19957  -2.19654
 Alpha  occ. eigenvalues --   -2.19647  -2.19553  -2.19207  -2.19071  -1.13731
 Alpha  occ. eigenvalues --   -1.13714  -1.13702  -1.13654  -1.13597  -1.13587
 Alpha  occ. eigenvalues --   -1.13391  -1.13348  -1.13306  -1.13276  -1.13269
 Alpha  occ. eigenvalues --   -1.13250  -1.13228  -1.13191  -1.13176  -1.12895
 Alpha  occ. eigenvalues --   -1.12876  -1.12829  -1.12773  -1.12724  -1.12665
 Alpha  occ. eigenvalues --   -0.18483  -0.13050  -0.12256  -0.10992
 Alpha virt. eigenvalues --   -0.05863  -0.05326  -0.04288  -0.03276  -0.02932
 Alpha virt. eigenvalues --   -0.02660  -0.01765  -0.01215  -0.00345  -0.00215
 Alpha virt. eigenvalues --   -0.00019   0.00308   0.00739   0.00839   0.00885

  Beta  occ. eigenvalues --  -38.44262 -38.44105 -38.43807 -38.43637 -38.43556
  Beta  occ. eigenvalues --  -38.43388 -38.43157  -2.20064  -2.19916  -2.19619
  Beta  occ. eigenvalues --   -2.19500  -2.19431  -2.19207  -2.19054  -1.13737
  Beta  occ. eigenvalues --   -1.13715  -1.13704  -1.13610  -1.13566  -1.13559
  Beta  occ. eigenvalues --   -1.13314  -1.13281  -1.13269  -1.13260  -1.13173
  Beta  occ. eigenvalues --   -1.13151  -1.13144  -1.13102  -1.13088  -1.12885
  Beta  occ. eigenvalues --   -1.12872  -1.12827  -1.12748  -1.12694  -1.12655
  Beta  occ. eigenvalues --   -0.17782  -0.12802  -0.11987
  Beta virt. eigenvalues --   -0.07096  -0.05769  -0.05284  -0.04234  -0.02587
  Beta virt. eigenvalues --   -0.02212  -0.01693  -0.01580  -0.01114  -0.00356
  Beta virt. eigenvalues --   -0.00212   0.00092   0.00353   0.00818   0.00861

 Mulliken charges and spin densities:
               1          2
     1  Na   0.394737   0.033038
     2  Na  -0.014062  -0.030002
     3  Na  -0.243233   0.610857
     4  Na   0.153652   0.009903
     5  Na  -0.129009   0.531819
     6  Na   0.039123  -0.058652
     7  Na  -0.201208  -0.096963
 Sum of Mulliken charges =  -0.00000   1.00000

 Dipole moment (field-independent basis, Debye):
    X=              0.1866    Y=              0.0216    Z=             -0.0296  Tot=              0.1902
 Quadrupole moment (field-independent basis, Debye-Ang):
   XX=            -54.1138   YY=            -66.1591   ZZ=            -73.5114
   XY=             -0.1272   XZ=              0.0201   YZ=              1.5026

 Normal termination of Gaussian 16 at Thu Dec  7 07:43:51 2023.
