 Gaussian 16, Revision B.01,
 Gaussian 16:  ES64L-G16RevB.01 20-Dec-2017

 -------------------------
 #P B3LYP/6-311+g(d) force
 -------------------------

 -----
 DPGEN
 -----
 Symbolic Z-matrix:
 Charge =  0 Multiplicity = 2

                         Standard orientation:
 ---------------------------------------------------------------------
 Center     Atomic      Atomic             Coordinates (Angstroms)
 Number     Number       Type             X           Y           Z
 ---------------------------------------------------------------------
      1         11           0        1.799362   -2.207268   -1.792673
      2         11           0        5.050942   -0.952127    1.734340
      3         11           0        3.204593    0.912493   -0.265766
      4         11           0        0.732807    2.862823   -0.680908
      5         11           0       -0.567501    0.070392   -0.242592
      6         11           0       -4.159587   -0.189779    1.704238
      7         11           0       -6.060616   -0.496533   -0.456639
 ---------------------------------------------------------------------

 SCF Done:  E(UB3LYP) =  -1136.10593265     A.U. after   20 cycles

 The electronic state is 2-A.
 Alpha  occ. eigenvalues --  -38.45123 -38.45058 -38.44703 -38.44327 -38.43577
 Alpha  occ. eigenvalues --  -38.43325 -38.43317  -2.20930  -2.20854  -2.20527
 Alpha  occ. eigenvalues --   -2.20156  -2.19453  -2.19205  -2.19095  -1.14691
 Alpha  occ. eigenvalues --   -1.14573  -1.14568  -1.14506  -1.14488  -1.14454
 Alpha  occ. eigenvalues --   -1.14170  -1.14159  -1.14156  -1.13849  -1.13833
 Alpha  occ. eigenvalues --   -1.13793  -1.13144  -1.13087  -1.13081  -1.12902
 Alpha  occ. eigenvalues --   -1.12874  -1.12834  -1.12755  -1.12744  -1.12708
 Alpha  occ. eigenvalues --   -0.16531  -0.14093  -0.11658  -0.11281
 Alpha virt. eigenvalues --   -0.06935  -0.05142  -0.04379  -0.03314  -0.03257
 Alpha virt. eigenvalues --   -0.02725  -0.02177  -0.01468  -0.01119  -0.00822
 Alpha virt. eigenvalues --   -0.00677  -0.00172   0.00200   0.00466   0.00580

  Beta  occ. eigenvalues --  -38.45125 -38.44948 -38.44702 -38.44319 -38.43538
  Beta  occ. eigenvalues --  -38.43300 -38.43290  -2.20935  -2.20650  -2.20525
  Beta  occ. eigenvalues --   -2.20145  -2.19380  -2.19163  -2.19046  -1.14693
  Beta  occ. eigenvalues --   -1.14576  -1.14571  -1.14368  -1.14347  -1.14312
  Beta  occ. eigenvalues --   -1.14168  -1.14158  -1.14156  -1.13845  -1.13806
  Beta  occ. eigenvalues --   -1.13777  -1.13087  -1.13044  -1.13031  -1.12874
  Beta  occ. eigenvalues --   -1.12831  -1.12798  -1.12722  -1.12707  -1.12678
  Beta  occ. eigenvalues --   -0.15846  -0.14002  -0.11134
  Beta virt. eigenvalues --   -0.07499  -0.06714  -0.04986  -0.03954  -0.03137
  Beta virt. eigenvalues --   -0.02958  -0.02418  -0.01617  -0.01283  -0.00918
  Beta virt. eigenvalues --   -0.00553  -0.00470   0.00064   0.00273   0.00540

 Mulliken charges and spin densities:
               1          2
     1  Na   0.670314   0.354317
     2  Na   0.284980   0.071667
     3  Na  -0.601235   0.333101
     4  Na   0.844734   0.138081
     5  Na  -1.120527   0.117892
     6  Na  -0.306897   0.006976
     7  Na   0.228631  -0.022034
 Sum of Mulliken charges =  -0.00000   1.00000

 Dipole moment (field-independent basis, Debye):
    X=             -2.6398    Y=             -0.2674    Z=             -0.5215  Tot=              2.7041
 Quadrupole moment (field-independent basis, Debye-Ang):
   XX=            -65.9529   YY=            -68.6134   ZZ=            -63.4970
   XY=             -0.0658   XZ=              3.1728   YZ=             -0.2434

 Normal termination of Gaussian 16 at Wed Nov 29 02:59:55 2023.
