 Gaussian 16, Revision B.01,
 Gaussian 16:  ES64L-G16RevB.01 20-Dec-2017

 -------------------------
 #P B3LYP/6-311+g(d) force
 -------------------------

 -----
 DPGEN
 -----
 Symbolic Z-matrix:
 Charge =  0 Multiplicity = 2

                         Standard orientation:
 ---------------------------------------------------------------------
 Center     Atomic      Atomic             Coordinates (Angstroms)
 Number     Number       Type             X           Y           Z
 ---------------------------------------------------------------------
      1         11           0       -1.316314    3.361555   -0.830825
      2         11           0       -0.250979   -0.550735    1.467661
      3         11           0        1.863429    2.516541    0.834603
      4         11           0       -3.351132    0.439829   -0.345936
      5         11           0        4.071612   -0.488115   -0.581126
      6         11           0       -2.444706   -2.736415    0.076492
      7         11           0        1.428090   -2.542660   -0.620867
 ---------------------------------------------------------------------

 SCF Done:  E(UB3LYP) =  -1136.12096685     A.U. after   21 cycles

 The electronic state is 2-A.
 Alpha  occ. eigenvalues --  -38.44591 -38.44400 -38.44376 -38.44246 -38.44131
 Alpha  occ. eigenvalues --  -38.44022 -38.43889  -2.20413  -2.20233  -2.20211
 Alpha  occ. eigenvalues --   -2.20005  -2.19925  -2.19800  -2.19712  -1.14085
 Alpha  occ. eigenvalues --   -1.14081  -1.14056  -1.13958  -1.13904  -1.13890
 Alpha  occ. eigenvalues --   -1.13866  -1.13839  -1.13822  -1.13688  -1.13666
 Alpha  occ. eigenvalues --   -1.13645  -1.13584  -1.13568  -1.13550  -1.13468
 Alpha  occ. eigenvalues --   -1.13451  -1.13428  -1.13386  -1.13372  -1.13333
 Alpha  occ. eigenvalues --   -0.17025  -0.13520  -0.12898  -0.10070
 Alpha virt. eigenvalues --   -0.06839  -0.06141  -0.04231  -0.03575  -0.03142
 Alpha virt. eigenvalues --   -0.02130  -0.01974  -0.01471  -0.01179  -0.00956
 Alpha virt. eigenvalues --   -0.00095   0.00263   0.00322   0.00538   0.00622

  Beta  occ. eigenvalues --  -38.44589 -38.44390 -38.44328 -38.44236 -38.44078
  Beta  occ. eigenvalues --  -38.43986 -38.43849  -2.20412  -2.20196  -2.20144
  Beta  occ. eigenvalues --   -2.19990  -2.19829  -2.19735  -2.19639  -1.14084
  Beta  occ. eigenvalues --   -1.14080  -1.14046  -1.13926  -1.13886  -1.13850
  Beta  occ. eigenvalues --   -1.13834  -1.13789  -1.13754  -1.13680  -1.13656
  Beta  occ. eigenvalues --   -1.13614  -1.13519  -1.13496  -1.13483  -1.13418
  Beta  occ. eigenvalues --   -1.13404  -1.13390  -1.13336  -1.13324  -1.13275
  Beta  occ. eigenvalues --   -0.16600  -0.13000  -0.12416
  Beta virt. eigenvalues --   -0.06801  -0.06733  -0.05963  -0.03922  -0.03071
  Beta virt. eigenvalues --   -0.02613  -0.01995  -0.01765  -0.01262  -0.00886
  Beta virt. eigenvalues --   -0.00798   0.00139   0.00375   0.00459   0.00623

 Mulliken charges and spin densities:
               1          2
     1  Na   0.084962   0.045118
     2  Na   0.080883   0.355123
     3  Na  -0.206116   0.089795
     4  Na  -0.441906   0.198501
     5  Na   0.075314   0.253375
     6  Na   0.755398   0.012488
     7  Na  -0.348534   0.045599
 Sum of Mulliken charges =  -0.00000   1.00000

 Dipole moment (field-independent basis, Debye):
    X=             -0.2707    Y=             -0.7048    Z=              0.0080  Tot=              0.7550
 Quadrupole moment (field-independent basis, Debye-Ang):
   XX=            -65.4990   YY=            -61.0379   ZZ=            -72.8357
   XY=             10.5289   XZ=              0.5403   YZ=             -0.3433

 Normal termination of Gaussian 16 at Mon Dec  4 01:49:52 2023.
