 Gaussian 16, Revision B.01,
 Gaussian 16:  ES64L-G16RevB.01 20-Dec-2017

 -------------------------
 #P B3LYP/6-311+g(d) force
 -------------------------

 -----
 DPGEN
 -----
 Symbolic Z-matrix:
 Charge =  0 Multiplicity = 2

                         Standard orientation:
 ---------------------------------------------------------------------
 Center     Atomic      Atomic             Coordinates (Angstroms)
 Number     Number       Type             X           Y           Z
 ---------------------------------------------------------------------
      1         11           0        2.147515    2.032300   -0.208516
      2         11           0       -0.122998    0.019642   -1.441849
      3         11           0       -1.284678    2.758599    0.228523
      4         11           0        0.245905   -0.404031    2.191271
      5         11           0        2.746895   -1.284867   -0.374496
      6         11           0       -2.972177   -0.197488   -0.340708
      7         11           0       -0.760462   -2.924156   -0.054225
 ---------------------------------------------------------------------

 SCF Done:  E(UB3LYP) =  -1136.13828491     A.U. after   18 cycles

 The electronic state is 2-A.
 Alpha  occ. eigenvalues --  -38.43739 -38.43716 -38.43691 -38.43609 -38.43576
 Alpha  occ. eigenvalues --  -38.43471 -38.42922  -2.19589  -2.19581  -2.19563
 Alpha  occ. eigenvalues --   -2.19457  -2.19436  -2.19309  -2.18973  -1.13303
 Alpha  occ. eigenvalues --   -1.13281  -1.13258  -1.13240  -1.13225  -1.13213
 Alpha  occ. eigenvalues --   -1.13207  -1.13197  -1.13190  -1.13139  -1.13131
 Alpha  occ. eigenvalues --   -1.13115  -1.13092  -1.13081  -1.13064  -1.12981
 Alpha  occ. eigenvalues --   -1.12970  -1.12946  -1.12650  -1.12617  -1.12591
 Alpha  occ. eigenvalues --   -0.18718  -0.12953  -0.12621  -0.10776
 Alpha virt. eigenvalues --   -0.05359  -0.05069  -0.04954  -0.03048  -0.02993
 Alpha virt. eigenvalues --   -0.02592  -0.01318  -0.01225  -0.00361  -0.00313
 Alpha virt. eigenvalues --   -0.00008   0.00352   0.00845   0.00875   0.00890

  Beta  occ. eigenvalues --  -38.43730 -38.43683 -38.43612 -38.43605 -38.43571
  Beta  occ. eigenvalues --  -38.43468 -38.42870  -2.19575  -2.19552  -2.19452
  Beta  occ. eigenvalues --   -2.19430  -2.19388  -2.19306  -2.18881  -1.13287
  Beta  occ. eigenvalues --   -1.13267  -1.13234  -1.13209  -1.13192  -1.13189
  Beta  occ. eigenvalues --   -1.13140  -1.13127  -1.13111  -1.13098  -1.13082
  Beta  occ. eigenvalues --   -1.13075  -1.13067  -1.13059  -1.13049  -1.12977
  Beta  occ. eigenvalues --   -1.12955  -1.12943  -1.12581  -1.12546  -1.12527
  Beta  occ. eigenvalues --   -0.18013  -0.12690  -0.12412
  Beta virt. eigenvalues --   -0.06825  -0.05364  -0.05054  -0.04861  -0.02289
  Beta virt. eigenvalues --   -0.02212  -0.01505  -0.01234  -0.01152  -0.00404
  Beta virt. eigenvalues --   -0.00355   0.00152   0.00391   0.00872   0.00887

 Mulliken charges and spin densities:
               1          2
     1  Na   0.171097   0.021514
     2  Na  -0.458316   0.135313
     3  Na   0.083825   0.052811
     4  Na  -0.672788   0.781831
     5  Na   0.273327  -0.009116
     6  Na   0.324197   0.031155
     7  Na   0.278659  -0.013508
 Sum of Mulliken charges =  -0.00000   1.00000

 Dipole moment (field-independent basis, Debye):
    X=              0.0622    Y=             -0.1375    Z=              0.2286  Tot=              0.2739
 Quadrupole moment (field-independent basis, Debye-Ang):
   XX=            -59.0919   YY=            -59.8762   ZZ=            -74.3963
   XY=             -0.2030   XZ=             -0.7096   YZ=              1.1295

 Normal termination of Gaussian 16 at Thu Dec  7 01:58:23 2023.
