 Gaussian 16, Revision B.01,
 Gaussian 16:  ES64L-G16RevB.01 20-Dec-2017

 -------------------------
 #P B3LYP/6-311+g(d) force
 -------------------------

 -----
 DPGEN
 -----
 Symbolic Z-matrix:
 Charge =  0 Multiplicity = 2

                         Standard orientation:
 ---------------------------------------------------------------------
 Center     Atomic      Atomic             Coordinates (Angstroms)
 Number     Number       Type             X           Y           Z
 ---------------------------------------------------------------------
      1         11           0       -0.230191   -1.232454   -0.597614
      2         11           0        1.222086    2.021964   -1.063788
      3         11           0       -3.037486    1.057882   -1.279937
      4         11           0       -3.334883   -1.585280    0.638833
      5         11           0       -0.889443    0.924594    1.837366
      6         11           0        2.975736    0.303151    1.547868
      7         11           0        3.294182   -1.489856   -1.082727
 ---------------------------------------------------------------------

 SCF Done:  E(UB3LYP) =  -1136.11944588     A.U. after   28 cycles

 The electronic state is 2-A.
 Alpha  occ. eigenvalues --  -38.45165 -38.45022 -38.44301 -38.43953 -38.43625
 Alpha  occ. eigenvalues --  -38.43475 -38.43253  -2.20986  -2.20848  -2.20190
 Alpha  occ. eigenvalues --   -2.19804  -2.19436  -2.19335  -2.19081  -1.14662
 Alpha  occ. eigenvalues --   -1.14631  -1.14605  -1.14530  -1.14508  -1.14465
 Alpha  occ. eigenvalues --   -1.13914  -1.13863  -1.13801  -1.13474  -1.13454
 Alpha  occ. eigenvalues --   -1.13447  -1.13131  -1.13085  -1.13064  -1.13051
 Alpha  occ. eigenvalues --   -1.12975  -1.12932  -1.12757  -1.12737  -1.12730
 Alpha  occ. eigenvalues --   -0.18179  -0.14425  -0.10874  -0.10696
 Alpha virt. eigenvalues --   -0.06982  -0.05532  -0.05197  -0.03065  -0.02756
 Alpha virt. eigenvalues --   -0.02427  -0.01999  -0.01244  -0.01014  -0.00407
 Alpha virt. eigenvalues --   -0.00010   0.00138   0.00261   0.00372   0.00614

  Beta  occ. eigenvalues --  -38.45124 -38.45002 -38.44268 -38.43945 -38.43609
  Beta  occ. eigenvalues --  -38.43430 -38.43254  -2.20909  -2.20811  -2.20135
  Beta  occ. eigenvalues --   -2.19791  -2.19407  -2.19253  -2.19085  -1.14600
  Beta  occ. eigenvalues --   -1.14579  -1.14556  -1.14497  -1.14481  -1.14446
  Beta  occ. eigenvalues --   -1.13854  -1.13812  -1.13764  -1.13460  -1.13444
  Beta  occ. eigenvalues --   -1.13431  -1.13107  -1.13054  -1.13044  -1.12997
  Beta  occ. eigenvalues --   -1.12905  -1.12872  -1.12762  -1.12737  -1.12727
  Beta  occ. eigenvalues --   -0.17529  -0.14326  -0.10480
  Beta virt. eigenvalues --   -0.07211  -0.06730  -0.05299  -0.04584  -0.02747
  Beta virt. eigenvalues --   -0.02633  -0.01963  -0.01444  -0.00902  -0.00648
  Beta virt. eigenvalues --   -0.00321   0.00028   0.00206   0.00370   0.00438

 Mulliken charges and spin densities:
               1          2
     1  Na  -1.516342   0.482085
     2  Na  -0.157173   0.217899
     3  Na   0.149490   0.127819
     4  Na   1.202794  -0.081844
     5  Na  -0.160188   0.320885
     6  Na   0.225222   0.004148
     7  Na   0.256197  -0.070994
 Sum of Mulliken charges =  -0.00000   1.00000

 Dipole moment (field-independent basis, Debye):
    X=             -0.6115    Y=              0.7052    Z=              0.2132  Tot=              0.9574
 Quadrupole moment (field-independent basis, Debye-Ang):
   XX=            -50.8013   YY=            -76.5411   ZZ=            -68.3276
   XY=              1.5148   XZ=              1.9220   YZ=             -2.6175

 Normal termination of Gaussian 16 at Thu Dec  7 21:46:35 2023.
