 Gaussian 16, Revision B.01,
 Gaussian 16:  ES64L-G16RevB.01 20-Dec-2017

 -------------------------
 #P B3LYP/6-311+g(d) force
 -------------------------

 -----
 DPGEN
 -----
 Symbolic Z-matrix:
 Charge =  0 Multiplicity = 2

                         Standard orientation:
 ---------------------------------------------------------------------
 Center     Atomic      Atomic             Coordinates (Angstroms)
 Number     Number       Type             X           Y           Z
 ---------------------------------------------------------------------
      1         11           0        0.370226    0.345194   -0.736612
      2         11           0        4.956470    1.243582    0.149965
      3         11           0       -1.903002    2.807538    0.350877
      4         11           0        3.772983   -1.517977   -0.030901
      5         11           0       -1.738871   -2.627021   -0.372053
      6         11           0       -3.153206    0.434551   -1.341940
      7         11           0       -2.304600   -0.685868    1.980664
 ---------------------------------------------------------------------

 SCF Done:  E(UB3LYP) =  -1136.11139304     A.U. after   25 cycles

 The electronic state is 2-A.
 Alpha  occ. eigenvalues --  -38.45479 -38.45041 -38.44923 -38.44172 -38.43653
 Alpha  occ. eigenvalues --  -38.42591 -38.42538  -2.21345  -2.20847  -2.20728
 Alpha  occ. eigenvalues --   -2.20017  -2.19540  -2.18441  -2.18407  -1.15024
 Alpha  occ. eigenvalues --   -1.15007  -1.14970  -1.14597  -1.14494  -1.14483
 Alpha  occ. eigenvalues --   -1.14385  -1.14369  -1.14322  -1.13722  -1.13656
 Alpha  occ. eigenvalues --   -1.13625  -1.13203  -1.13191  -1.13149  -1.12123
 Alpha  occ. eigenvalues --   -1.12103  -1.12089  -1.12081  -1.12074  -1.12045
 Alpha  occ. eigenvalues --   -0.17548  -0.14302  -0.11346  -0.10124
 Alpha virt. eigenvalues --   -0.07249  -0.05756  -0.03986  -0.03369  -0.02942
 Alpha virt. eigenvalues --   -0.02458  -0.02036  -0.01836  -0.00826  -0.00680
 Alpha virt. eigenvalues --   -0.00491  -0.00029   0.00284   0.00510   0.00593

  Beta  occ. eigenvalues --  -38.45466 -38.45017 -38.44926 -38.44112 -38.43567
  Beta  occ. eigenvalues --  -38.42591 -38.42537  -2.21325  -2.20801  -2.20734
  Beta  occ. eigenvalues --   -2.19910  -2.19381  -2.18444  -2.18409  -1.15000
  Beta  occ. eigenvalues --   -1.14973  -1.14963  -1.14576  -1.14463  -1.14451
  Beta  occ. eigenvalues --   -1.14391  -1.14364  -1.14310  -1.13641  -1.13578
  Beta  occ. eigenvalues --   -1.13551  -1.13092  -1.13088  -1.13033  -1.12125
  Beta  occ. eigenvalues --   -1.12109  -1.12087  -1.12082  -1.12062  -1.12015
  Beta  occ. eigenvalues --   -0.16857  -0.14027  -0.11154
  Beta virt. eigenvalues --   -0.06982  -0.06446  -0.05570  -0.03935  -0.02999
  Beta virt. eigenvalues --   -0.02857  -0.02003  -0.01629  -0.01305  -0.00687
  Beta virt. eigenvalues --   -0.00480  -0.00171   0.00093   0.00428   0.00593

 Mulliken charges and spin densities:
               1          2
     1  Na  -1.776569   0.204810
     2  Na   0.285097   0.127838
     3  Na   0.193646   0.032420
     4  Na   0.145736   0.023819
     5  Na   0.332081   0.057504
     6  Na   1.069427   0.154845
     7  Na  -0.249418   0.398765
 Sum of Mulliken charges =  -0.00000   1.00000

 Dipole moment (field-independent basis, Debye):
    X=              1.3732    Y=              0.2055    Z=             -0.5600  Tot=              1.4972
 Quadrupole moment (field-independent basis, Debye-Ang):
   XX=            -57.4844   YY=            -68.2726   ZZ=            -71.5449
   XY=              1.8140   XZ=              7.8605   YZ=              3.0788

 Normal termination of Gaussian 16 at Tue Dec  5 13:52:56 2023.
