 Gaussian 16, Revision B.01,
 Gaussian 16:  ES64L-G16RevB.01 20-Dec-2017

 -------------------------
 #P B3LYP/6-311+g(d) force
 -------------------------

 -----
 DPGEN
 -----
 Symbolic Z-matrix:
 Charge =  0 Multiplicity = 2

                         Standard orientation:
 ---------------------------------------------------------------------
 Center     Atomic      Atomic             Coordinates (Angstroms)
 Number     Number       Type             X           Y           Z
 ---------------------------------------------------------------------
      1         11           0        3.287868    0.090301   -0.235420
      2         11           0        0.696707    2.808658   -0.173323
      3         11           0       -0.273871   -0.187388   -1.631001
      4         11           0       -2.513556   -1.757598    0.098859
      5         11           0        1.015187   -2.656005   -0.095887
      6         11           0       -2.529642    1.604025   -0.051863
      7         11           0        0.317306    0.098008    2.088635
 ---------------------------------------------------------------------

 SCF Done:  E(UB3LYP) =  -1136.13910414     A.U. after   19 cycles

 The electronic state is 2-A.
 Alpha  occ. eigenvalues --  -38.44268 -38.43681 -38.43633 -38.43575 -38.43393
 Alpha  occ. eigenvalues --  -38.43305 -38.43156  -2.20063  -2.19538  -2.19501
 Alpha  occ. eigenvalues --   -2.19454  -2.19259  -2.19152  -2.19150  -1.13736
 Alpha  occ. eigenvalues --   -1.13714  -1.13711  -1.13252  -1.13208  -1.13189
 Alpha  occ. eigenvalues --   -1.13183  -1.13155  -1.13120  -1.13119  -1.13085
 Alpha  occ. eigenvalues --   -1.13070  -1.12994  -1.12921  -1.12872  -1.12849
 Alpha  occ. eigenvalues --   -1.12820  -1.12813  -1.12779  -1.12767  -1.12758
 Alpha  occ. eigenvalues --   -0.18681  -0.13003  -0.12488  -0.10707
 Alpha virt. eigenvalues --   -0.05744  -0.05092  -0.04675  -0.03175  -0.02899
 Alpha virt. eigenvalues --   -0.02537  -0.01599  -0.01068  -0.00368  -0.00317
 Alpha virt. eigenvalues --   -0.00020   0.00356   0.00790   0.00891   0.00899

  Beta  occ. eigenvalues --  -38.44265 -38.43677 -38.43629 -38.43478 -38.43386
  Beta  occ. eigenvalues --  -38.43300 -38.43095  -2.20060  -2.19535  -2.19496
  Beta  occ. eigenvalues --   -2.19275  -2.19250  -2.19144  -2.19040  -1.13717
  Beta  occ. eigenvalues --   -1.13714  -1.13711  -1.13248  -1.13198  -1.13176
  Beta  occ. eigenvalues --   -1.13170  -1.13133  -1.13121  -1.13007  -1.12976
  Beta  occ. eigenvalues --   -1.12956  -1.12943  -1.12889  -1.12870  -1.12831
  Beta  occ. eigenvalues --   -1.12791  -1.12778  -1.12745  -1.12692  -1.12683
  Beta  occ. eigenvalues --   -0.17950  -0.12788  -0.12249
  Beta virt. eigenvalues --   -0.06781  -0.05707  -0.05106  -0.04619  -0.02399
  Beta virt. eigenvalues --   -0.02100  -0.01516  -0.01472  -0.01003  -0.00423
  Beta virt. eigenvalues --   -0.00371   0.00129   0.00380   0.00840   0.00883

 Mulliken charges and spin densities:
               1          2
     1  Na   0.072646  -0.075737
     2  Na   0.106232  -0.080246
     3  Na  -0.273653   0.461981
     4  Na   0.243041  -0.006828
     5  Na   0.218850  -0.060679
     6  Na   0.215857  -0.024242
     7  Na  -0.582972   0.785752
 Sum of Mulliken charges =  -0.00000   1.00000

 Dipole moment (field-independent basis, Debye):
    X=              0.1921    Y=             -0.0281    Z=              0.1363  Tot=              0.2372
 Quadrupole moment (field-independent basis, Debye-Ang):
   XX=            -55.4696   YY=            -63.2878   ZZ=            -74.4687
   XY=              0.4483   XZ=             -1.3707   YZ=             -0.6881

 Normal termination of Gaussian 16 at Thu Dec  7 05:12:38 2023.
