 Gaussian 16, Revision B.01,
 Gaussian 16:  ES64L-G16RevB.01 20-Dec-2017

 -------------------------
 #P B3LYP/6-311+g(d) force
 -------------------------

 -----
 DPGEN
 -----
 Symbolic Z-matrix:
 Charge =  0 Multiplicity = 2

                         Standard orientation:
 ---------------------------------------------------------------------
 Center     Atomic      Atomic             Coordinates (Angstroms)
 Number     Number       Type             X           Y           Z
 ---------------------------------------------------------------------
      1         11           0       -3.999547   -0.287377   -1.056004
      2         11           0       -1.221157    1.899379    0.993599
      3         11           0        3.096203   -1.903899   -0.152610
      4         11           0        1.834796    0.543916    1.692323
      5         11           0       -1.948745   -1.360386    1.194344
      6         11           0        0.026914   -0.441592   -1.187010
      7         11           0        2.211535    1.549958   -1.484642
 ---------------------------------------------------------------------

 SCF Done:  E(UB3LYP) =  -1136.11846148     A.U. after   26 cycles

 The electronic state is 2-A.
 Alpha  occ. eigenvalues --  -38.44915 -38.44648 -38.44463 -38.44030 -38.43562
 Alpha  occ. eigenvalues --  -38.43240 -38.42479  -2.20713  -2.20533  -2.20359
 Alpha  occ. eigenvalues --   -2.20005  -2.19476  -2.19074  -2.18354  -1.14393
 Alpha  occ. eigenvalues --   -1.14365  -1.14351  -1.14251  -1.14170  -1.14131
 Alpha  occ. eigenvalues --   -1.14126  -1.13996  -1.13925  -1.13729  -1.13645
 Alpha  occ. eigenvalues --   -1.13594  -1.13157  -1.13147  -1.13095  -1.12748
 Alpha  occ. eigenvalues --   -1.12729  -1.12699  -1.12050  -1.12024  -1.11973
 Alpha  occ. eigenvalues --   -0.18561  -0.14326  -0.11162  -0.10689
 Alpha virt. eigenvalues --   -0.06788  -0.05271  -0.04747  -0.02940  -0.02710
 Alpha virt. eigenvalues --   -0.02310  -0.02117  -0.01180  -0.00931  -0.00181
 Alpha virt. eigenvalues --    0.00075   0.00168   0.00371   0.00498   0.00712

  Beta  occ. eigenvalues --  -38.44898 -38.44628 -38.44391 -38.44001 -38.43530
  Beta  occ. eigenvalues --  -38.43217 -38.42478  -2.20679  -2.20496  -2.20228
  Beta  occ. eigenvalues --   -2.19958  -2.19421  -2.19034  -2.18356  -1.14368
  Beta  occ. eigenvalues --   -1.14343  -1.14328  -1.14227  -1.14148  -1.14085
  Beta  occ. eigenvalues --   -1.14033  -1.13907  -1.13836  -1.13648  -1.13611
  Beta  occ. eigenvalues --   -1.13569  -1.13122  -1.13097  -1.13047  -1.12713
  Beta  occ. eigenvalues --   -1.12700  -1.12670  -1.12052  -1.12001  -1.11980
  Beta  occ. eigenvalues --   -0.17883  -0.14047  -0.10538
  Beta virt. eigenvalues --   -0.07352  -0.06446  -0.04959  -0.04430  -0.02742
  Beta virt. eigenvalues --   -0.02466  -0.01699  -0.01632  -0.00840  -0.00589
  Beta virt. eigenvalues --   -0.00073   0.00174   0.00313   0.00416   0.00588

 Mulliken charges and spin densities:
               1          2
     1  Na   0.204253   0.025044
     2  Na  -0.318447  -0.079405
     3  Na  -0.117545   0.110159
     4  Na   0.300046   0.432431
     5  Na   0.154339   0.125749
     6  Na  -0.317711   0.445986
     7  Na   0.095064  -0.059963
 Sum of Mulliken charges =  -0.00000   1.00000

 Dipole moment (field-independent basis, Debye):
    X=             -0.8483    Y=              0.4469    Z=              0.0525  Tot=              0.9603
 Quadrupole moment (field-independent basis, Debye-Ang):
   XX=            -52.2692   YY=            -72.2511   ZZ=            -70.1113
   XY=              0.5683   XZ=              1.5326   YZ=             -5.5654

 Normal termination of Gaussian 16 at Tue Dec  5 23:47:45 2023.
