 Gaussian 16, Revision B.01,
 Gaussian 16:  ES64L-G16RevB.01 20-Dec-2017

 -------------------------
 #P B3LYP/6-311+g(d) force
 -------------------------

 -----
 DPGEN
 -----
 Symbolic Z-matrix:
 Charge =  0 Multiplicity = 2

                         Standard orientation:
 ---------------------------------------------------------------------
 Center     Atomic      Atomic             Coordinates (Angstroms)
 Number     Number       Type             X           Y           Z
 ---------------------------------------------------------------------
      1         11           0        1.672748    2.696594   -0.322954
      2         11           0        0.019664    0.437486   -1.524738
      3         11           0       -0.355766   -2.842455   -0.108784
      4         11           0       -3.439851   -1.063013   -0.219848
      5         11           0        3.647260   -1.242989   -0.271811
      6         11           0        0.736526   -0.019795    2.104596
      7         11           0       -2.280581    2.034172    0.343539
 ---------------------------------------------------------------------

 SCF Done:  E(UB3LYP) =  -1136.12443890     A.U. after   23 cycles

 The electronic state is 2-A.
 Alpha  occ. eigenvalues --  -38.45510 -38.44236 -38.44079 -38.43914 -38.43755
 Alpha  occ. eigenvalues --  -38.43508 -38.43434  -2.21224  -2.20032  -2.19896
 Alpha  occ. eigenvalues --   -2.19740  -2.19546  -2.19364  -2.19347  -1.14905
 Alpha  occ. eigenvalues --   -1.14884  -1.14856  -1.13713  -1.13699  -1.13676
 Alpha  occ. eigenvalues --   -1.13578  -1.13558  -1.13518  -1.13483  -1.13388
 Alpha  occ. eigenvalues --   -1.13353  -1.13239  -1.13225  -1.13160  -1.13051
 Alpha  occ. eigenvalues --   -1.13009  -1.12999  -1.12982  -1.12978  -1.12954
 Alpha  occ. eigenvalues --   -0.17768  -0.12983  -0.12072  -0.10222
 Alpha virt. eigenvalues --   -0.06814  -0.05558  -0.04448  -0.03100  -0.02734
 Alpha virt. eigenvalues --   -0.02334  -0.02280  -0.01506  -0.00833  -0.00426
 Alpha virt. eigenvalues --   -0.00126   0.00213   0.00606   0.00648   0.00715

  Beta  occ. eigenvalues --  -38.45512 -38.44236 -38.44071 -38.43903 -38.43749
  Beta  occ. eigenvalues --  -38.43409 -38.43384  -2.21229  -2.20034  -2.19884
  Beta  occ. eigenvalues --   -2.19723  -2.19537  -2.19274  -2.19165  -1.14899
  Beta  occ. eigenvalues --   -1.14886  -1.14861  -1.13713  -1.13694  -1.13677
  Beta  occ. eigenvalues --   -1.13569  -1.13534  -1.13513  -1.13462  -1.13362
  Beta  occ. eigenvalues --   -1.13343  -1.13233  -1.13202  -1.13156  -1.12981
  Beta  occ. eigenvalues --   -1.12934  -1.12917  -1.12887  -1.12854  -1.12823
  Beta  occ. eigenvalues --   -0.17105  -0.12807  -0.11863
  Beta virt. eigenvalues --   -0.06761  -0.06378  -0.05493  -0.04369  -0.02482
  Beta virt. eigenvalues --   -0.02298  -0.01952  -0.01451  -0.01278  -0.00850
  Beta virt. eigenvalues --   -0.00434   0.00059   0.00263   0.00684   0.00728

 Mulliken charges and spin densities:
               1          2
     1  Na   0.202823  -0.031841
     2  Na  -0.008391   0.415641
     3  Na   0.012338  -0.054620
     4  Na  -0.025345  -0.024141
     5  Na  -0.011951  -0.100225
     6  Na  -0.343267   0.725062
     7  Na   0.173793   0.070124
 Sum of Mulliken charges =  -0.00000   1.00000

 Dipole moment (field-independent basis, Debye):
    X=              0.5123    Y=             -0.0231    Z=             -0.0198  Tot=              0.5132
 Quadrupole moment (field-independent basis, Debye-Ang):
   XX=            -49.5746   YY=            -64.7073   ZZ=            -77.4908
   XY=             -0.5931   XZ=             -1.3186   YZ=              1.4450

 Normal termination of Gaussian 16 at Thu Dec  7 12:02:20 2023.
