 Gaussian 16, Revision B.01,
 Gaussian 16:  ES64L-G16RevB.01 20-Dec-2017

 -------------------------
 #P B3LYP/6-311+g(d) force
 -------------------------

 -----
 DPGEN
 -----
 Symbolic Z-matrix:
 Charge =  0 Multiplicity = 2

                         Standard orientation:
 ---------------------------------------------------------------------
 Center     Atomic      Atomic             Coordinates (Angstroms)
 Number     Number       Type             X           Y           Z
 ---------------------------------------------------------------------
      1         11           0        3.481245   -0.437770   -0.429019
      2         11           0        0.073631    0.650679    1.855523
      3         11           0        0.746058   -2.189152    0.514232
      4         11           0       -2.487664   -1.809185    0.021108
      5         11           0       -3.426417    1.630549   -0.307280
      6         11           0       -0.078139   -0.311452   -1.566177
      7         11           0        1.691287    2.466330   -0.088388
 ---------------------------------------------------------------------

 SCF Done:  E(UB3LYP) =  -1136.12219164     A.U. after   23 cycles

 The electronic state is 2-A.
 Alpha  occ. eigenvalues --  -38.44831 -38.44586 -38.44142 -38.43976 -38.43546
 Alpha  occ. eigenvalues --  -38.43373 -38.42577  -2.20656  -2.20337  -2.20104
 Alpha  occ. eigenvalues --   -2.19840  -2.19401  -2.19309  -2.18566  -1.14324
 Alpha  occ. eigenvalues --   -1.14307  -1.14291  -1.14013  -1.13995  -1.13971
 Alpha  occ. eigenvalues --   -1.13863  -1.13751  -1.13715  -1.13518  -1.13503
 Alpha  occ. eigenvalues --   -1.13461  -1.13147  -1.13063  -1.13027  -1.12984
 Alpha  occ. eigenvalues --   -1.12920  -1.12899  -1.12282  -1.12211  -1.12172
 Alpha  occ. eigenvalues --   -0.18723  -0.13615  -0.11737  -0.10655
 Alpha virt. eigenvalues --   -0.06719  -0.05529  -0.03763  -0.03299  -0.02830
 Alpha virt. eigenvalues --   -0.02341  -0.02162  -0.01344  -0.00582  -0.00167
 Alpha virt. eigenvalues --    0.00030   0.00175   0.00639   0.00656   0.00780

  Beta  occ. eigenvalues --  -38.44809 -38.44580 -38.44105 -38.43973 -38.43539
  Beta  occ. eigenvalues --  -38.43276 -38.42556  -2.20617  -2.20325  -2.20036
  Beta  occ. eigenvalues --   -2.19838  -2.19393  -2.19134  -2.18533  -1.14292
  Beta  occ. eigenvalues --   -1.14271  -1.14268  -1.14004  -1.13981  -1.13964
  Beta  occ. eigenvalues --   -1.13812  -1.13706  -1.13663  -1.13512  -1.13487
  Beta  occ. eigenvalues --   -1.13457  -1.13115  -1.13047  -1.13017  -1.12870
  Beta  occ. eigenvalues --   -1.12797  -1.12786  -1.12265  -1.12165  -1.12133
  Beta  occ. eigenvalues --   -0.18021  -0.13308  -0.11503
  Beta virt. eigenvalues --   -0.06956  -0.06432  -0.05478  -0.03709  -0.02685
  Beta virt. eigenvalues --   -0.02346  -0.01878  -0.01353  -0.01204  -0.00576
  Beta virt. eigenvalues --   -0.00025   0.00058   0.00235   0.00697   0.00741

 Mulliken charges and spin densities:
               1          2
     1  Na   0.127150   0.166656
     2  Na  -0.139055   0.196679
     3  Na   0.142958   0.298587
     4  Na   0.214368  -0.005653
     5  Na  -0.071397   0.020217
     6  Na  -0.280868   0.291862
     7  Na   0.006844   0.031652
 Sum of Mulliken charges =  -0.00000   1.00000

 Dipole moment (field-independent basis, Debye):
    X=              0.0339    Y=              0.0959    Z=             -0.0292  Tot=              0.1058
 Quadrupole moment (field-independent basis, Debye-Ang):
   XX=            -50.9600   YY=            -68.4909   ZZ=            -73.7953
   XY=             -0.1735   XZ=             -0.8162   YZ=             -2.1564

 Normal termination of Gaussian 16 at Thu Dec  7 05:19:57 2023.
