 Gaussian 16, Revision B.01,
 Gaussian 16:  ES64L-G16RevB.01 20-Dec-2017

 -------------------------
 #P B3LYP/6-311+g(d) force
 -------------------------

 -----
 DPGEN
 -----
 Symbolic Z-matrix:
 Charge =  0 Multiplicity = 2

                         Standard orientation:
 ---------------------------------------------------------------------
 Center     Atomic      Atomic             Coordinates (Angstroms)
 Number     Number       Type             X           Y           Z
 ---------------------------------------------------------------------
      1         11           0       -0.201525   -0.459571    2.080796
      2         11           0        2.096478   -1.815065   -0.560474
      3         11           0        4.056491    0.030756   -0.194078
      4         11           0        1.913300    2.174100   -0.250863
      5         11           0       -1.840453    1.756411   -0.189780
      6         11           0       -4.575559   -0.069489   -0.393154
      7         11           0       -1.448732   -1.617141   -0.492449
 ---------------------------------------------------------------------

 SCF Done:  E(UB3LYP) =  -1136.11259148     A.U. after   23 cycles

 The electronic state is 2-A.
 Alpha  occ. eigenvalues --  -38.44919 -38.44544 -38.44360 -38.43872 -38.43771
 Alpha  occ. eigenvalues --  -38.43610 -38.43449  -2.20786  -2.20381  -2.20302
 Alpha  occ. eigenvalues --   -2.19783  -2.19628  -2.19517  -2.19285  -1.14474
 Alpha  occ. eigenvalues --   -1.14421  -1.14389  -1.14183  -1.14028  -1.14021
 Alpha  occ. eigenvalues --   -1.14007  -1.13938  -1.13900  -1.13439  -1.13398
 Alpha  occ. eigenvalues --   -1.13363  -1.13335  -1.13310  -1.13255  -1.13218
 Alpha  occ. eigenvalues --   -1.13208  -1.13097  -1.12960  -1.12947  -1.12926
 Alpha  occ. eigenvalues --   -0.18112  -0.14854  -0.11463  -0.11213
 Alpha virt. eigenvalues --   -0.06626  -0.05639  -0.04359  -0.03343  -0.03103
 Alpha virt. eigenvalues --   -0.02371  -0.01993  -0.01445  -0.00873  -0.00422
 Alpha virt. eigenvalues --   -0.00163   0.00064   0.00582   0.00595   0.00754

  Beta  occ. eigenvalues --  -38.44853 -38.44473 -38.44322 -38.43852 -38.43759
  Beta  occ. eigenvalues --  -38.43608 -38.43437  -2.20665  -2.20248  -2.20233
  Beta  occ. eigenvalues --   -2.19748  -2.19613  -2.19516  -2.19265  -1.14395
  Beta  occ. eigenvalues --   -1.14337  -1.14299  -1.14129  -1.13937  -1.13929
  Beta  occ. eigenvalues --   -1.13921  -1.13897  -1.13852  -1.13417  -1.13380
  Beta  occ. eigenvalues --   -1.13333  -1.13317  -1.13298  -1.13213  -1.13206
  Beta  occ. eigenvalues --   -1.13193  -1.13093  -1.12951  -1.12939  -1.12887
  Beta  occ. eigenvalues --   -0.17483  -0.14235  -0.11062
  Beta virt. eigenvalues --   -0.07855  -0.06268  -0.05342  -0.03784  -0.03164
  Beta virt. eigenvalues --   -0.02902  -0.01750  -0.01596  -0.01192  -0.00530
  Beta virt. eigenvalues --   -0.00343  -0.00039   0.00109   0.00682   0.00690

 Mulliken charges and spin densities:
               1          2
     1  Na  -0.005798   0.228385
     2  Na  -0.406326   0.333052
     3  Na   0.260383   0.146412
     4  Na  -0.380046  -0.077551
     5  Na  -0.445453   0.105173
     6  Na   1.163748   0.256475
     7  Na  -0.186509   0.008054
 Sum of Mulliken charges =  -0.00000   1.00000

 Dipole moment (field-independent basis, Debye):
    X=             -0.6666    Y=             -0.4483    Z=              0.9041  Tot=              1.2094
 Quadrupole moment (field-independent basis, Debye-Ang):
   XX=            -59.2450   YY=            -76.7916   ZZ=            -65.3090
   XY=              0.5268   XZ=              0.1917   YZ=              2.1174

 Normal termination of Gaussian 16 at Tue Dec  5 12:52:45 2023.
