 Gaussian 16, Revision B.01,
 Gaussian 16:  ES64L-G16RevB.01 20-Dec-2017

 -------------------------
 #P B3LYP/6-311+g(d) force
 -------------------------

 -----
 DPGEN
 -----
 Symbolic Z-matrix:
 Charge =  0 Multiplicity = 2

                         Standard orientation:
 ---------------------------------------------------------------------
 Center     Atomic      Atomic             Coordinates (Angstroms)
 Number     Number       Type             X           Y           Z
 ---------------------------------------------------------------------
      1         11           0       -0.021107   -0.637764   -2.371950
      2         11           0       -2.182629    2.088147   -0.849329
      3         11           0        3.354216   -0.476006   -0.165415
      4         11           0        1.596179    2.395250    0.273796
      5         11           0        0.670199   -2.142676    0.484829
      6         11           0       -2.659976   -1.484388    0.064013
      7         11           0       -0.756881    0.257436    2.564056
 ---------------------------------------------------------------------

 SCF Done:  E(UB3LYP) =  -1136.12923637     A.U. after   21 cycles

 The electronic state is 2-A.
 Alpha  occ. eigenvalues --  -38.45081 -38.44992 -38.43862 -38.43807 -38.43780
 Alpha  occ. eigenvalues --  -38.43263 -38.42843  -2.20902  -2.20826  -2.19691
 Alpha  occ. eigenvalues --   -2.19631  -2.19557  -2.19046  -2.18754  -1.14567
 Alpha  occ. eigenvalues --   -1.14527  -1.14509  -1.14495  -1.14459  -1.14439
 Alpha  occ. eigenvalues --   -1.13366  -1.13356  -1.13337  -1.13315  -1.13286
 Alpha  occ. eigenvalues --   -1.13277  -1.13236  -1.13207  -1.13195  -1.12728
 Alpha  occ. eigenvalues --   -1.12718  -1.12680  -1.12441  -1.12431  -1.12380
 Alpha  occ. eigenvalues --   -0.18044  -0.12835  -0.12108  -0.11567
 Alpha virt. eigenvalues --   -0.05697  -0.05165  -0.04461  -0.03592  -0.03465
 Alpha virt. eigenvalues --   -0.03243  -0.01382  -0.00808  -0.00507  -0.00106
 Alpha virt. eigenvalues --    0.00140   0.00301   0.00404   0.00576   0.00870

  Beta  occ. eigenvalues --  -38.44986 -38.44915 -38.43862 -38.43810 -38.43763
  Beta  occ. eigenvalues --  -38.43264 -38.42830  -2.20727  -2.20683  -2.19694
  Beta  occ. eigenvalues --   -2.19636  -2.19528  -2.19049  -2.18735  -1.14446
  Beta  occ. eigenvalues --   -1.14411  -1.14404  -1.14383  -1.14358  -1.14333
  Beta  occ. eigenvalues --   -1.13368  -1.13345  -1.13329  -1.13319  -1.13290
  Beta  occ. eigenvalues --   -1.13276  -1.13204  -1.13192  -1.13173  -1.12721
  Beta  occ. eigenvalues --   -1.12717  -1.12685  -1.12432  -1.12389  -1.12364
  Beta  occ. eigenvalues --   -0.17219  -0.12672  -0.11401
  Beta virt. eigenvalues --   -0.08127  -0.05421  -0.05145  -0.03853  -0.03226
  Beta virt. eigenvalues --   -0.02822  -0.02431  -0.01325  -0.00742  -0.00194
  Beta virt. eigenvalues --   -0.00093   0.00120   0.00445   0.00545   0.00737

 Mulliken charges and spin densities:
               1          2
     1  Na  -0.435358   0.565637
     2  Na  -0.165951   0.084880
     3  Na   0.173169  -0.074970
     4  Na  -0.183130  -0.004866
     5  Na   0.523255   0.022180
     6  Na   0.462614  -0.054449
     7  Na  -0.374598   0.461590
 Sum of Mulliken charges =  -0.00000   1.00000

 Dipole moment (field-independent basis, Debye):
    X=             -0.3472    Y=             -0.1868    Z=             -0.0994  Tot=              0.4066
 Quadrupole moment (field-independent basis, Debye-Ang):
   XX=            -60.0992   YY=            -73.9637   ZZ=            -63.3327
   XY=              0.1843   XZ=             -0.2232   YZ=             -0.6678

 Normal termination of Gaussian 16 at Sun Dec  3 21:39:43 2023.
