 Gaussian 16, Revision B.01,
 Gaussian 16:  ES64L-G16RevB.01 20-Dec-2017

 -------------------------
 #P B3LYP/6-311+g(d) force
 -------------------------

 -----
 DPGEN
 -----
 Symbolic Z-matrix:
 Charge =  0 Multiplicity = 2

                         Standard orientation:
 ---------------------------------------------------------------------
 Center     Atomic      Atomic             Coordinates (Angstroms)
 Number     Number       Type             X           Y           Z
 ---------------------------------------------------------------------
      1         11           0        1.058438    1.887435    1.177756
      2         11           0        3.310113   -1.761702    0.148088
      3         11           0        2.752076    1.294949   -1.461319
      4         11           0       -0.155618   -0.877814   -0.838130
      5         11           0       -2.422118    1.496129    0.523932
      6         11           0       -3.582306   -0.685989   -1.470576
      7         11           0       -0.960586   -1.353007    1.920249
 ---------------------------------------------------------------------

 SCF Done:  E(UB3LYP) =  -1136.11834268     A.U. after   27 cycles

 The electronic state is 2-A.
 Alpha  occ. eigenvalues --  -38.44854 -38.44381 -38.44369 -38.44236 -38.43847
 Alpha  occ. eigenvalues --  -38.43837 -38.42387  -2.20744  -2.20230  -2.20136
 Alpha  occ. eigenvalues --   -2.20084  -2.19791  -2.19721  -2.18250  -1.14501
 Alpha  occ. eigenvalues --   -1.14340  -1.14331  -1.13902  -1.13894  -1.13849
 Alpha  occ. eigenvalues --   -1.13813  -1.13790  -1.13769  -1.13767  -1.13735
 Alpha  occ. eigenvalues --   -1.13695  -1.13557  -1.13442  -1.13401  -1.13389
 Alpha  occ. eigenvalues --   -1.13358  -1.13341  -1.11939  -1.11917  -1.11888
 Alpha  occ. eigenvalues --   -0.18319  -0.14218  -0.11445  -0.10816
 Alpha virt. eigenvalues --   -0.06400  -0.05403  -0.04883  -0.03018  -0.02770
 Alpha virt. eigenvalues --   -0.02513  -0.02198  -0.01064  -0.00880  -0.00185
 Alpha virt. eigenvalues --    0.00053   0.00217   0.00315   0.00475   0.00701

  Beta  occ. eigenvalues --  -38.44758 -38.44376 -38.44343 -38.44179 -38.43835
  Beta  occ. eigenvalues --  -38.43823 -38.42388  -2.20569  -2.20159  -2.20150
  Beta  occ. eigenvalues --   -2.19978  -2.19775  -2.19700  -2.18253  -1.14383
  Beta  occ. eigenvalues --   -1.14220  -1.14201  -1.13855  -1.13849  -1.13823
  Beta  occ. eigenvalues --   -1.13817  -1.13790  -1.13761  -1.13692  -1.13662
  Beta  occ. eigenvalues --   -1.13627  -1.13498  -1.13435  -1.13388  -1.13370
  Beta  occ. eigenvalues --   -1.13352  -1.13306  -1.11944  -1.11907  -1.11881
  Beta  occ. eigenvalues --   -0.17627  -0.13786  -0.10630
  Beta virt. eigenvalues --   -0.07755  -0.06213  -0.04992  -0.04438  -0.02790
  Beta virt. eigenvalues --   -0.02455  -0.02006  -0.01671  -0.00945  -0.00450
  Beta virt. eigenvalues --   -0.00041   0.00172   0.00296   0.00377   0.00579

 Mulliken charges and spin densities:
               1          2
     1  Na  -0.063140   0.010704
     2  Na  -0.002254  -0.032069
     3  Na   0.376376   0.111080
     4  Na  -0.854751   0.210058
     5  Na  -0.083855   0.099408
     6  Na   0.667215   0.287234
     7  Na  -0.039590   0.313586
 Sum of Mulliken charges =  -0.00000   1.00000

 Dipole moment (field-independent basis, Debye):
    X=             -0.0823    Y=             -0.2775    Z=              0.1863  Tot=              0.3442
 Quadrupole moment (field-independent basis, Debye-Ang):
   XX=            -53.6269   YY=            -76.1636   ZZ=            -65.4730
   XY=             -0.1330   XZ=             -0.4974   YZ=             -5.1588

 Normal termination of Gaussian 16 at Thu Dec  7 02:37:30 2023.
