 Gaussian 16, Revision B.01,
 Gaussian 16:  ES64L-G16RevB.01 20-Dec-2017

 -------------------------
 #P B3LYP/6-311+g(d) force
 -------------------------

 -----
 DPGEN
 -----
 Symbolic Z-matrix:
 Charge =  0 Multiplicity = 2

                         Standard orientation:
 ---------------------------------------------------------------------
 Center     Atomic      Atomic             Coordinates (Angstroms)
 Number     Number       Type             X           Y           Z
 ---------------------------------------------------------------------
      1         11           0        0.390202    2.384836    0.361232
      2         11           0        0.259300    0.272657    2.064909
      3         11           0       -2.607114    1.492800   -0.973380
      4         11           0        3.124294    0.960239   -0.978428
      5         11           0        2.487571   -2.022427    0.378756
      6         11           0       -3.343092   -1.306293    0.450153
      7         11           0       -0.311162   -1.781812   -1.303243
 ---------------------------------------------------------------------

 SCF Done:  E(UB3LYP) =  -1136.11832419     A.U. after   22 cycles

 The electronic state is 2-A.
 Alpha  occ. eigenvalues --  -38.44903 -38.44593 -38.44437 -38.44194 -38.43859
 Alpha  occ. eigenvalues --  -38.43822 -38.42897  -2.20701  -2.20418  -2.20266
 Alpha  occ. eigenvalues --   -2.20005  -2.19798  -2.19666  -2.18830  -1.14382
 Alpha  occ. eigenvalues --   -1.14358  -1.14350  -1.14083  -1.14058  -1.14054
 Alpha  occ. eigenvalues --   -1.13941  -1.13915  -1.13894  -1.13696  -1.13685
 Alpha  occ. eigenvalues --   -1.13632  -1.13627  -1.13397  -1.13381  -1.13326
 Alpha  occ. eigenvalues --   -1.13320  -1.13313  -1.12527  -1.12456  -1.12428
 Alpha  occ. eigenvalues --   -0.18082  -0.13829  -0.11964  -0.10670
 Alpha virt. eigenvalues --   -0.06572  -0.05869  -0.03767  -0.03737  -0.02960
 Alpha virt. eigenvalues --   -0.02693  -0.02083  -0.01247  -0.00614  -0.00186
 Alpha virt. eigenvalues --    0.00045   0.00247   0.00500   0.00601   0.00684

  Beta  occ. eigenvalues --  -38.44909 -38.44543 -38.44417 -38.44188 -38.43817
  Beta  occ. eigenvalues --  -38.43756 -38.42887  -2.20713  -2.20325  -2.20228
  Beta  occ. eigenvalues --   -2.19994  -2.19662  -2.19609  -2.18818  -1.14389
  Beta  occ. eigenvalues --   -1.14360  -1.14355  -1.14015  -1.13998  -1.13987
  Beta  occ. eigenvalues --   -1.13914  -1.13890  -1.13868  -1.13687  -1.13667
  Beta  occ. eigenvalues --   -1.13627  -1.13504  -1.13327  -1.13322  -1.13292
  Beta  occ. eigenvalues --   -1.13260  -1.13242  -1.12491  -1.12435  -1.12418
  Beta  occ. eigenvalues --   -0.17449  -0.13527  -0.11774
  Beta virt. eigenvalues --   -0.07003  -0.06362  -0.05688  -0.03692  -0.03213
  Beta virt. eigenvalues --   -0.02298  -0.02112  -0.01655  -0.01044  -0.00501
  Beta virt. eigenvalues --   -0.00076   0.00133   0.00347   0.00592   0.00708

 Mulliken charges and spin densities:
               1          2
     1  Na   0.366943   0.693674
     2  Na  -0.544445   0.190309
     3  Na  -0.039072  -0.146657
     4  Na  -0.054581  -0.065782
     5  Na   0.355905   0.195816
     6  Na   0.356435   0.001473
     7  Na  -0.441186   0.131166
 Sum of Mulliken charges =  -0.00000   1.00000

 Dipole moment (field-independent basis, Debye):
    X=             -0.6414    Y=             -0.5936    Z=             -0.1604  Tot=              0.8885
 Quadrupole moment (field-independent basis, Debye-Ang):
   XX=            -54.2354   YY=            -71.5539   ZZ=            -71.0628
   XY=              0.2688   XZ=             -1.2952   YZ=             -4.1925

 Normal termination of Gaussian 16 at Tue Dec  5 12:04:01 2023.
