 Gaussian 16, Revision B.01,
 Gaussian 16:  ES64L-G16RevB.01 20-Dec-2017

 -------------------------
 #P B3LYP/6-311+g(d) force
 -------------------------

 -----
 DPGEN
 -----
 Symbolic Z-matrix:
 Charge =  0 Multiplicity = 2

                         Standard orientation:
 ---------------------------------------------------------------------
 Center     Atomic      Atomic             Coordinates (Angstroms)
 Number     Number       Type             X           Y           Z
 ---------------------------------------------------------------------
      1         11           0       -2.042372   -2.280033   -0.297912
      2         11           0        1.815329   -2.225326   -0.286330
      3         11           0        0.319121    2.851499   -0.226945
      4         11           0        0.048842    0.013189   -1.541678
      5         11           0        3.046386    0.689437    0.220095
      6         11           0       -0.320201   -0.353605    2.160835
      7         11           0       -2.867106    1.304838   -0.028065
 ---------------------------------------------------------------------

 SCF Done:  E(UB3LYP) =  -1136.13718915     A.U. after   19 cycles

 The electronic state is 2-A.
 Alpha  occ. eigenvalues --  -38.44080 -38.43878 -38.43745 -38.43697 -38.43539
 Alpha  occ. eigenvalues --  -38.43198 -38.43037  -2.19899  -2.19728  -2.19607
 Alpha  occ. eigenvalues --   -2.19531  -2.19423  -2.19065  -2.19055  -1.13575
 Alpha  occ. eigenvalues --   -1.13563  -1.13536  -1.13418  -1.13385  -1.13379
 Alpha  occ. eigenvalues --   -1.13270  -1.13240  -1.13228  -1.13219  -1.13181
 Alpha  occ. eigenvalues --   -1.13162  -1.13146  -1.13071  -1.13037  -1.12834
 Alpha  occ. eigenvalues --   -1.12735  -1.12707  -1.12688  -1.12667  -1.12652
 Alpha  occ. eigenvalues --   -0.18678  -0.13093  -0.12412  -0.10772
 Alpha virt. eigenvalues --   -0.05607  -0.05348  -0.04506  -0.03251  -0.02837
 Alpha virt. eigenvalues --   -0.02611  -0.01522  -0.01166  -0.00342  -0.00291
 Alpha virt. eigenvalues --   -0.00014   0.00354   0.00788   0.00864   0.00906

  Beta  occ. eigenvalues --  -38.44078 -38.43875 -38.43691 -38.43646 -38.43531
  Beta  occ. eigenvalues --  -38.43194 -38.42977  -2.19897  -2.19725  -2.19523
  Beta  occ. eigenvalues --   -2.19424  -2.19411  -2.19053  -2.18954  -1.13565
  Beta  occ. eigenvalues --   -1.13553  -1.13536  -1.13418  -1.13380  -1.13363
  Beta  occ. eigenvalues --   -1.13210  -1.13178  -1.13158  -1.13143  -1.13128
  Beta  occ. eigenvalues --   -1.13103  -1.13090  -1.13041  -1.13034  -1.12803
  Beta  occ. eigenvalues --   -1.12695  -1.12679  -1.12655  -1.12601  -1.12587
  Beta  occ. eigenvalues --   -0.17959  -0.12888  -0.12167
  Beta virt. eigenvalues --   -0.06826  -0.05579  -0.05317  -0.04478  -0.02461
  Beta virt. eigenvalues --   -0.02077  -0.01529  -0.01428  -0.01100  -0.00395
  Beta virt. eigenvalues --   -0.00330   0.00141   0.00384   0.00852   0.00859

 Mulliken charges and spin densities:
               1          2
     1  Na   0.226714  -0.063307
     2  Na   0.350867  -0.006991
     3  Na   0.178595  -0.006101
     4  Na  -0.299779   0.274478
     5  Na   0.062414   0.061516
     6  Na  -0.652736   0.770899
     7  Na   0.133925  -0.030493
 Sum of Mulliken charges =  -0.00000   1.00000

 Dipole moment (field-independent basis, Debye):
    X=             -0.2235    Y=             -0.0709    Z=              0.2431  Tot=              0.3378
 Quadrupole moment (field-independent basis, Debye-Ang):
   XX=            -55.7273   YY=            -63.2594   ZZ=            -74.4052
   XY=              0.2530   XZ=              0.9584   YZ=              0.9911

 Normal termination of Gaussian 16 at Thu Dec  7 07:00:08 2023.
