 Gaussian 16, Revision B.01,
 Gaussian 16:  ES64L-G16RevB.01 20-Dec-2017

 -------------------------
 #P B3LYP/6-311+g(d) force
 -------------------------

 -----
 DPGEN
 -----
 Symbolic Z-matrix:
 Charge =  0 Multiplicity = 2

                         Standard orientation:
 ---------------------------------------------------------------------
 Center     Atomic      Atomic             Coordinates (Angstroms)
 Number     Number       Type             X           Y           Z
 ---------------------------------------------------------------------
      1         11           0        0.399627    0.389702    1.968638
      2         11           0       -3.125036   -0.816414    0.053880
      3         11           0        2.015328    1.878293   -0.587808
      4         11           0       -0.195845   -2.693154    0.135472
      5         11           0       -0.503462   -0.186632   -1.679169
      6         11           0        2.646950   -1.376323   -0.030302
      7         11           0       -1.237562    2.804529    0.139288
 ---------------------------------------------------------------------

 SCF Done:  E(UB3LYP) =  -1136.13764858     A.U. after   19 cycles

 The electronic state is 2-A.
 Alpha  occ. eigenvalues --  -38.43924 -38.43760 -38.43513 -38.43478 -38.43397
 Alpha  occ. eigenvalues --  -38.43381 -38.43198  -2.19748  -2.19589  -2.19405
 Alpha  occ. eigenvalues --   -2.19397  -2.19316  -2.19271  -2.19184  -1.13443
 Alpha  occ. eigenvalues --   -1.13407  -1.13382  -1.13271  -1.13260  -1.13226
 Alpha  occ. eigenvalues --   -1.13119  -1.13091  -1.13082  -1.13051  -1.13041
 Alpha  occ. eigenvalues --   -1.13024  -1.13009  -1.13001  -1.12964  -1.12915
 Alpha  occ. eigenvalues --   -1.12909  -1.12865  -1.12846  -1.12801  -1.12798
 Alpha  occ. eigenvalues --   -0.18917  -0.12912  -0.12761  -0.10827
 Alpha virt. eigenvalues --   -0.05510  -0.05071  -0.04683  -0.03209  -0.03046
 Alpha virt. eigenvalues --   -0.02513  -0.01348  -0.01179  -0.00255  -0.00116
 Alpha virt. eigenvalues --   -0.00005   0.00365   0.00840   0.00879   0.00948

  Beta  occ. eigenvalues --  -38.43924 -38.43755 -38.43494 -38.43393 -38.43389
  Beta  occ. eigenvalues --  -38.43376 -38.43134  -2.19750  -2.19584  -2.19375
  Beta  occ. eigenvalues --   -2.19306  -2.19266  -2.19239  -2.19068  -1.13438
  Beta  occ. eigenvalues --   -1.13402  -1.13383  -1.13264  -1.13235  -1.13227
  Beta  occ. eigenvalues --   -1.13089  -1.13078  -1.13032  -1.13019  -1.12997
  Beta  occ. eigenvalues --   -1.12964  -1.12937  -1.12924  -1.12903  -1.12891
  Beta  occ. eigenvalues --   -1.12875  -1.12861  -1.12773  -1.12723  -1.12711
  Beta  occ. eigenvalues --   -0.18174  -0.12684  -0.12526
  Beta virt. eigenvalues --   -0.06894  -0.05495  -0.05008  -0.04649  -0.02439
  Beta virt. eigenvalues --   -0.02273  -0.01482  -0.01253  -0.01108  -0.00275
  Beta virt. eigenvalues --   -0.00153   0.00131   0.00392   0.00868   0.00888

 Mulliken charges and spin densities:
               1          2
     1  Na  -0.515669   0.690146
     2  Na   0.105291  -0.100120
     3  Na   0.266188   0.061677
     4  Na   0.177564  -0.020141
     5  Na  -0.270516   0.437631
     6  Na   0.178116   0.019073
     7  Na   0.059026  -0.088265
 Sum of Mulliken charges =  -0.00000   1.00000

 Dipole moment (field-independent basis, Debye):
    X=             -0.3219    Y=              0.2161    Z=              0.1501  Tot=              0.4157
 Quadrupole moment (field-independent basis, Debye-Ang):
   XX=            -58.2540   YY=            -62.0514   ZZ=            -73.5388
   XY=             -0.7332   XZ=             -1.9432   YZ=             -1.1074

 Normal termination of Gaussian 16 at Tue Dec  5 14:54:38 2023.
