 Gaussian 16, Revision B.01,
 Gaussian 16:  ES64L-G16RevB.01 20-Dec-2017

 -------------------------
 #P B3LYP/6-311+g(d) force
 -------------------------

 -----
 DPGEN
 -----
 Symbolic Z-matrix:
 Charge =  0 Multiplicity = 2

                         Standard orientation:
 ---------------------------------------------------------------------
 Center     Atomic      Atomic             Coordinates (Angstroms)
 Number     Number       Type             X           Y           Z
 ---------------------------------------------------------------------
      1         11           0       -3.317924    0.335523   -0.405725
      2         11           0        0.463634   -0.238604    2.111558
      3         11           0       -1.233262   -2.918133    0.256860
      4         11           0        2.576924   -1.747853   -0.491528
      5         11           0        2.612507    1.893260   -0.256779
      6         11           0       -0.117236   -0.210185   -1.460268
      7         11           0       -0.984643    2.885992    0.245882
 ---------------------------------------------------------------------

 SCF Done:  E(UB3LYP) =  -1136.13656242     A.U. after   19 cycles

 The electronic state is 2-A.
 Alpha  occ. eigenvalues --  -38.44006 -38.43997 -38.43975 -38.43875 -38.43599
 Alpha  occ. eigenvalues --  -38.43567 -38.43123  -2.19839  -2.19799  -2.19774
 Alpha  occ. eigenvalues --   -2.19676  -2.19459  -2.19372  -2.19086  -1.13537
 Alpha  occ. eigenvalues --   -1.13497  -1.13481  -1.13462  -1.13457  -1.13452
 Alpha  occ. eigenvalues --   -1.13434  -1.13429  -1.13408  -1.13353  -1.13346
 Alpha  occ. eigenvalues --   -1.13308  -1.13125  -1.13091  -1.13067  -1.13048
 Alpha  occ. eigenvalues --   -1.13041  -1.13004  -1.12781  -1.12725  -1.12713
 Alpha  occ. eigenvalues --   -0.18141  -0.12857  -0.12367  -0.10516
 Alpha virt. eigenvalues --   -0.05667  -0.05434  -0.04959  -0.02967  -0.02874
 Alpha virt. eigenvalues --   -0.02438  -0.01595  -0.01385  -0.00687  -0.00530
 Alpha virt. eigenvalues --   -0.00027   0.00324   0.00758   0.00788   0.00832

  Beta  occ. eigenvalues --  -38.43990 -38.43989 -38.43972 -38.43870 -38.43564
  Beta  occ. eigenvalues --  -38.43500 -38.43077  -2.19812  -2.19789  -2.19771
  Beta  occ. eigenvalues --   -2.19669  -2.19369  -2.19275  -2.19003  -1.13512
  Beta  occ. eigenvalues --   -1.13472  -1.13464  -1.13448  -1.13443  -1.13442
  Beta  occ. eigenvalues --   -1.13429  -1.13423  -1.13399  -1.13347  -1.13326
  Beta  occ. eigenvalues --   -1.13303  -1.13044  -1.13035  -1.13003  -1.12999
  Beta  occ. eigenvalues --   -1.12965  -1.12930  -1.12717  -1.12665  -1.12650
  Beta  occ. eigenvalues --   -0.17460  -0.12600  -0.12172
  Beta virt. eigenvalues --   -0.06657  -0.05638  -0.05367  -0.04853  -0.02314
  Beta virt. eigenvalues --   -0.02153  -0.01502  -0.01383  -0.01309  -0.00703
  Beta virt. eigenvalues --   -0.00560   0.00135   0.00374   0.00784   0.00837

 Mulliken charges and spin densities:
               1          2
     1  Na   0.101540  -0.002488
     2  Na  -0.363181   0.761219
     3  Na   0.049991  -0.007686
     4  Na   0.279714   0.021913
     5  Na   0.025289  -0.009449
     6  Na  -0.051359   0.234332
     7  Na  -0.041995   0.002160
 Sum of Mulliken charges =  -0.00000   1.00000

 Dipole moment (field-independent basis, Debye):
    X=              0.0791    Y=             -0.1764    Z=              0.0980  Tot=              0.2168
 Quadrupole moment (field-independent basis, Debye-Ang):
   XX=            -56.4197   YY=            -60.4313   ZZ=            -75.6739
   XY=              0.7778   XZ=             -0.9303   YZ=              0.1183

 Normal termination of Gaussian 16 at Tue Dec  5 22:12:17 2023.
