 Gaussian 16, Revision B.01,
 Gaussian 16:  ES64L-G16RevB.01 20-Dec-2017

 -------------------------
 #P B3LYP/6-311+g(d) force
 -------------------------

 -----
 DPGEN
 -----
 Symbolic Z-matrix:
 Charge =  0 Multiplicity = 2

                         Standard orientation:
 ---------------------------------------------------------------------
 Center     Atomic      Atomic             Coordinates (Angstroms)
 Number     Number       Type             X           Y           Z
 ---------------------------------------------------------------------
      1         11           0       -1.079856    2.924424   -0.053997
      2         11           0        2.032229    1.750073   -0.494809
      3         11           0        0.310382    0.230729    2.185341
      4         11           0        3.290205   -1.286894   -0.174073
      5         11           0       -3.639156   -1.240884    0.136361
      6         11           0       -1.080468    0.285129   -1.286477
      7         11           0        0.166664   -2.662576   -0.312347
 ---------------------------------------------------------------------

 SCF Done:  E(UB3LYP) =  -1136.12681610     A.U. after   20 cycles

 The electronic state is 2-A.
 Alpha  occ. eigenvalues --  -38.44923 -38.44075 -38.43946 -38.43772 -38.43717
 Alpha  occ. eigenvalues --  -38.43502 -38.43211  -2.20682  -2.19890  -2.19763
 Alpha  occ. eigenvalues --   -2.19654  -2.19597  -2.19363  -2.19196  -1.14359
 Alpha  occ. eigenvalues --   -1.14342  -1.14315  -1.13604  -1.13565  -1.13508
 Alpha  occ. eigenvalues --   -1.13452  -1.13439  -1.13416  -1.13394  -1.13305
 Alpha  occ. eigenvalues --   -1.13285  -1.13272  -1.13261  -1.13196  -1.13018
 Alpha  occ. eigenvalues --   -1.12990  -1.12972  -1.12869  -1.12855  -1.12790
 Alpha  occ. eigenvalues --   -0.18253  -0.12984  -0.12575  -0.10380
 Alpha virt. eigenvalues --   -0.06469  -0.05349  -0.04542  -0.03012  -0.02792
 Alpha virt. eigenvalues --   -0.02414  -0.02106  -0.01329  -0.00572  -0.00337
 Alpha virt. eigenvalues --   -0.00065   0.00212   0.00710   0.00737   0.00821

  Beta  occ. eigenvalues --  -38.44929 -38.44069 -38.43940 -38.43767 -38.43702
  Beta  occ. eigenvalues --  -38.43388 -38.43177  -2.20694  -2.19881  -2.19754
  Beta  occ. eigenvalues --   -2.19648  -2.19573  -2.19153  -2.19136  -1.14363
  Beta  occ. eigenvalues --   -1.14346  -1.14324  -1.13597  -1.13541  -1.13505
  Beta  occ. eigenvalues --   -1.13446  -1.13429  -1.13398  -1.13387  -1.13300
  Beta  occ. eigenvalues --   -1.13257  -1.13253  -1.13221  -1.13184  -1.12879
  Beta  occ. eigenvalues --   -1.12844  -1.12829  -1.12825  -1.12805  -1.12743
  Beta  occ. eigenvalues --   -0.17565  -0.12809  -0.12375
  Beta virt. eigenvalues --   -0.06447  -0.06393  -0.05268  -0.04501  -0.02410
  Beta virt. eigenvalues --   -0.02159  -0.01959  -0.01301  -0.01255  -0.00592
  Beta virt. eigenvalues --   -0.00332   0.00137   0.00283   0.00755   0.00804

 Mulliken charges and spin densities:
               1          2
     1  Na   0.241312   0.056015
     2  Na   0.056671   0.172917
     3  Na  -0.465860   0.698820
     4  Na  -0.012853   0.003558
     5  Na  -0.036725  -0.066011
     6  Na   0.394535   0.113267
     7  Na  -0.177080   0.021435
 Sum of Mulliken charges =  -0.00000   1.00000

 Dipole moment (field-independent basis, Debye):
    X=             -0.6115    Y=             -0.1787    Z=              0.2927  Tot=              0.7011
 Quadrupole moment (field-independent basis, Debye-Ang):
   XX=            -53.1377   YY=            -63.1346   ZZ=            -76.4828
   XY=             -0.0709   XZ=             -2.4787   YZ=             -0.0400

 Normal termination of Gaussian 16 at Fri Dec  8 04:25:12 2023.
