 Gaussian 16, Revision B.01,
 Gaussian 16:  ES64L-G16RevB.01 20-Dec-2017

 -------------------------
 #P B3LYP/6-311+g(d) force
 -------------------------

 -----
 DPGEN
 -----
 Symbolic Z-matrix:
 Charge =  0 Multiplicity = 2

                         Standard orientation:
 ---------------------------------------------------------------------
 Center     Atomic      Atomic             Coordinates (Angstroms)
 Number     Number       Type             X           Y           Z
 ---------------------------------------------------------------------
      1         11           0       -2.620166   -1.743284   -0.151650
      2         11           0        3.233072    0.011320    0.029767
      3         11           0       -0.499228    0.158235   -1.770529
      4         11           0        1.122108    2.489800   -0.023476
      5         11           0       -0.315631   -0.425528    1.877096
      6         11           0        1.335569   -2.383531   -0.186888
      7         11           0       -2.255724    1.892989    0.225680
 ---------------------------------------------------------------------

 SCF Done:  E(UB3LYP) =  -1136.13529777     A.U. after   19 cycles

 The electronic state is 2-A.
 Alpha  occ. eigenvalues --  -38.44130 -38.44008 -38.43776 -38.43453 -38.43399
 Alpha  occ. eigenvalues --  -38.43285 -38.43104  -2.19987  -2.19860  -2.19661
 Alpha  occ. eigenvalues --   -2.19341  -2.19339  -2.19267  -2.18982  -1.13690
 Alpha  occ. eigenvalues --   -1.13645  -1.13632  -1.13545  -1.13532  -1.13489
 Alpha  occ. eigenvalues --   -1.13366  -1.13333  -1.13280  -1.13068  -1.13013
 Alpha  occ. eigenvalues --   -1.12996  -1.12973  -1.12955  -1.12939  -1.12933
 Alpha  occ. eigenvalues --   -1.12897  -1.12887  -1.12660  -1.12642  -1.12619
 Alpha  occ. eigenvalues --   -0.18991  -0.13424  -0.12376  -0.10802
 Alpha virt. eigenvalues --   -0.05759  -0.05445  -0.04235  -0.03333  -0.02856
 Alpha virt. eigenvalues --   -0.02500  -0.01593  -0.01136  -0.00279  -0.00083
 Alpha virt. eigenvalues --   -0.00012   0.00346   0.00801   0.00882   0.00931

  Beta  occ. eigenvalues --  -38.44132 -38.44000 -38.43766 -38.43446 -38.43316
  Beta  occ. eigenvalues --  -38.43209 -38.43100  -2.19992  -2.19850  -2.19648
  Beta  occ. eigenvalues --   -2.19332  -2.19188  -2.19127  -2.18978  -1.13697
  Beta  occ. eigenvalues --   -1.13649  -1.13620  -1.13535  -1.13498  -1.13487
  Beta  occ. eigenvalues --   -1.13355  -1.13293  -1.13276  -1.13038  -1.12981
  Beta  occ. eigenvalues --   -1.12964  -1.12904  -1.12849  -1.12845  -1.12841
  Beta  occ. eigenvalues --   -1.12798  -1.12790  -1.12653  -1.12621  -1.12613
  Beta  occ. eigenvalues --   -0.18254  -0.13199  -0.12126
  Beta virt. eigenvalues --   -0.06860  -0.05701  -0.05434  -0.04222  -0.02542
  Beta virt. eigenvalues --   -0.02065  -0.01524  -0.01432  -0.01075  -0.00323
  Beta virt. eigenvalues --   -0.00125   0.00129   0.00373   0.00853   0.00888

 Mulliken charges and spin densities:
               1          2
     1  Na   0.336301  -0.123224
     2  Na  -0.195590  -0.061873
     3  Na  -0.434632   0.648192
     4  Na   0.158573  -0.036521
     5  Na  -0.493675   0.675852
     6  Na   0.359045  -0.053080
     7  Na   0.269978  -0.049347
 Sum of Mulliken charges =  -0.00000   1.00000

 Dipole moment (field-independent basis, Debye):
    X=             -0.2636    Y=             -0.1299    Z=              0.0794  Tot=              0.3044
 Quadrupole moment (field-independent basis, Debye-Ang):
   XX=            -54.5344   YY=            -65.3937   ZZ=            -74.1042
   XY=              0.5929   XZ=             -0.2399   YZ=              1.3114

 Normal termination of Gaussian 16 at Thu Dec  7 15:03:14 2023.
