 Gaussian 16, Revision B.01,
 Gaussian 16:  ES64L-G16RevB.01 20-Dec-2017

 -------------------------
 #P B3LYP/6-311+g(d) force
 -------------------------

 -----
 DPGEN
 -----
 Symbolic Z-matrix:
 Charge =  0 Multiplicity = 2

                         Standard orientation:
 ---------------------------------------------------------------------
 Center     Atomic      Atomic             Coordinates (Angstroms)
 Number     Number       Type             X           Y           Z
 ---------------------------------------------------------------------
      1         11           0        0.705025   -2.252247    0.135712
      2         11           0       -3.758862   -1.846967    0.284628
      3         11           0       -1.852956   -0.267245   -1.361722
      4         11           0        1.203659    1.979772   -1.341539
      5         11           0        3.991486   -1.092490   -0.197712
      6         11           0        1.060574    0.340752    1.743554
      7         11           0       -1.348925    3.138425    0.737079
 ---------------------------------------------------------------------

 SCF Done:  E(UB3LYP) =  -1136.12018863     A.U. after   20 cycles

 The electronic state is 2-A.
 Alpha  occ. eigenvalues --  -38.44814 -38.44522 -38.44382 -38.44016 -38.43620
 Alpha  occ. eigenvalues --  -38.43587 -38.43501  -2.20585  -2.20317  -2.20229
 Alpha  occ. eigenvalues --   -2.19795  -2.19513  -2.19419  -2.19376  -1.14264
 Alpha  occ. eigenvalues --   -1.14241  -1.14211  -1.14037  -1.13978  -1.13965
 Alpha  occ. eigenvalues --   -1.13947  -1.13909  -1.13802  -1.13464  -1.13456
 Alpha  occ. eigenvalues --   -1.13430  -1.13217  -1.13174  -1.13099  -1.13091
 Alpha  occ. eigenvalues --   -1.13076  -1.13066  -1.13038  -1.13018  -1.12980
 Alpha  occ. eigenvalues --   -0.17587  -0.13125  -0.12338  -0.10071
 Alpha virt. eigenvalues --   -0.06787  -0.05576  -0.04384  -0.03243  -0.02954
 Alpha virt. eigenvalues --   -0.02471  -0.01984  -0.01634  -0.00777  -0.00224
 Alpha virt. eigenvalues --   -0.00077   0.00086   0.00576   0.00616   0.00680

  Beta  occ. eigenvalues --  -38.44802 -38.44529 -38.44366 -38.44007 -38.43550
  Beta  occ. eigenvalues --  -38.43542 -38.43478  -2.20563  -2.20332  -2.20203
  Beta  occ. eigenvalues --   -2.19780  -2.19386  -2.19338  -2.19333  -1.14250
  Beta  occ. eigenvalues --   -1.14216  -1.14197  -1.14045  -1.13973  -1.13956
  Beta  occ. eigenvalues --   -1.13951  -1.13869  -1.13789  -1.13455  -1.13431
  Beta  occ. eigenvalues --   -1.13422  -1.13133  -1.13082  -1.13045  -1.13031
  Beta  occ. eigenvalues --   -1.13015  -1.13001  -1.12995  -1.12958  -1.12951
  Beta  occ. eigenvalues --   -0.16945  -0.12989  -0.12155
  Beta virt. eigenvalues --   -0.06561  -0.06372  -0.05427  -0.04209  -0.02727
  Beta virt. eigenvalues --   -0.02620  -0.02232  -0.01474  -0.01189  -0.00646
  Beta virt. eigenvalues --   -0.00049   0.00041   0.00161   0.00674   0.00687

 Mulliken charges and spin densities:
               1          2
     1  Na  -0.507815   0.021714
     2  Na   0.117618  -0.146923
     3  Na   0.210240   0.172733
     4  Na  -0.207639   0.411563
     5  Na   0.411174   0.097771
     6  Na   0.103986   0.427496
     7  Na  -0.127564   0.015646
 Sum of Mulliken charges =  -0.00000   1.00000

 Dipole moment (field-independent basis, Debye):
    X=              0.0492    Y=             -0.2594    Z=              0.5529  Tot=              0.6127
 Quadrupole moment (field-independent basis, Debye-Ang):
   XX=            -51.4393   YY=            -65.6433   ZZ=            -75.3101
   XY=             -2.1125   XZ=             -4.2976   YZ=              0.3914

 Normal termination of Gaussian 16 at Sun Dec  3 23:21:32 2023.
