 Gaussian 16, Revision B.01,
 Gaussian 16:  ES64L-G16RevB.01 20-Dec-2017

 -------------------------
 #P B3LYP/6-311+g(d) force
 -------------------------

 -----
 DPGEN
 -----
 Symbolic Z-matrix:
 Charge =  0 Multiplicity = 2

                         Standard orientation:
 ---------------------------------------------------------------------
 Center     Atomic      Atomic             Coordinates (Angstroms)
 Number     Number       Type             X           Y           Z
 ---------------------------------------------------------------------
      1         11           0        3.883218    0.676776   -1.052452
      2         11           0        0.803279    2.291775    0.168723
      3         11           0       -4.509894   -1.248946   -0.453451
      4         11           0        2.721056   -1.590070    1.386937
      5         11           0       -3.289355    1.421407   -0.132688
      6         11           0       -0.449353   -0.158850    1.839575
      7         11           0        0.841048   -1.392093   -1.756644
 ---------------------------------------------------------------------

 SCF Done:  E(UB3LYP) =  -1136.10814283     A.U. after   26 cycles

 The electronic state is 2-A.
 Alpha  occ. eigenvalues --  -38.46432 -38.45063 -38.44794 -38.44179 -38.43567
 Alpha  occ. eigenvalues --  -38.43297 -38.42801  -2.22158  -2.20896  -2.20613
 Alpha  occ. eigenvalues --   -2.20013  -2.19381  -2.19161  -2.18646  -1.15852
 Alpha  occ. eigenvalues --   -1.15835  -1.15775  -1.14571  -1.14537  -1.14510
 Alpha  occ. eigenvalues --   -1.14283  -1.14254  -1.14219  -1.13735  -1.13686
 Alpha  occ. eigenvalues --   -1.13631  -1.13050  -1.13025  -1.13015  -1.12850
 Alpha  occ. eigenvalues --   -1.12813  -1.12792  -1.12323  -1.12303  -1.12267
 Alpha  occ. eigenvalues --   -0.17569  -0.13900  -0.11581  -0.10677
 Alpha virt. eigenvalues --   -0.07568  -0.05334  -0.04543  -0.03239  -0.02881
 Alpha virt. eigenvalues --   -0.02803  -0.02371  -0.01802  -0.01307  -0.00370
 Alpha virt. eigenvalues --   -0.00203  -0.00041   0.00155   0.00485   0.00566

  Beta  occ. eigenvalues --  -38.46445 -38.44997 -38.44728 -38.44174 -38.43565
  Beta  occ. eigenvalues --  -38.43263 -38.42767  -2.22186  -2.20777  -2.20491
  Beta  occ. eigenvalues --   -2.20005  -2.19378  -2.19100  -2.18582  -1.15860
  Beta  occ. eigenvalues --   -1.15845  -1.15799  -1.14477  -1.14459  -1.14420
  Beta  occ. eigenvalues --   -1.14199  -1.14164  -1.14135  -1.13729  -1.13681
  Beta  occ. eigenvalues --   -1.13626  -1.13046  -1.13023  -1.13013  -1.12814
  Beta  occ. eigenvalues --   -1.12778  -1.12724  -1.12281  -1.12263  -1.12209
  Beta  occ. eigenvalues --   -0.16846  -0.13671  -0.10609
  Beta virt. eigenvalues --   -0.07569  -0.07434  -0.05032  -0.04070  -0.03008
  Beta virt. eigenvalues --   -0.02838  -0.02161  -0.01842  -0.01367  -0.01042
  Beta virt. eigenvalues --   -0.00326  -0.00150   0.00073   0.00232   0.00619

 Mulliken charges and spin densities:
               1          2
     1  Na   0.414400   0.376978
     2  Na  -0.376969   0.148485
     3  Na  -0.076667  -0.018219
     4  Na   0.210347   0.123996
     5  Na   0.113689   0.057877
     6  Na  -0.009343   0.341014
     7  Na  -0.275456  -0.030131
 Sum of Mulliken charges =  -0.00000   1.00000

 Dipole moment (field-independent basis, Debye):
    X=              1.3741    Y=             -0.4466    Z=             -0.0569  Tot=              1.4460
 Quadrupole moment (field-independent basis, Debye-Ang):
   XX=            -63.4675   YY=            -70.1192   ZZ=            -70.3672
   XY=              1.2123   XZ=              2.5887   YZ=             -3.8505

 Normal termination of Gaussian 16 at Thu Dec  7 20:32:02 2023.
