 Gaussian 16, Revision B.01,
 Gaussian 16:  ES64L-G16RevB.01 20-Dec-2017

 -------------------------
 #P B3LYP/6-311+g(d) force
 -------------------------

 -----
 DPGEN
 -----
 Symbolic Z-matrix:
 Charge =  0 Multiplicity = 2

                         Standard orientation:
 ---------------------------------------------------------------------
 Center     Atomic      Atomic             Coordinates (Angstroms)
 Number     Number       Type             X           Y           Z
 ---------------------------------------------------------------------
      1         11           0       -3.443105   -0.771349    0.227563
      2         11           0        2.456483    1.937282    0.274275
      3         11           0       -0.510547   -2.767496   -0.617598
      4         11           0       -0.368962   -0.122991    1.928882
      5         11           0       -1.647417    2.803055   -0.363788
      6         11           0        0.407208    0.335316   -1.633472
      7         11           0        3.106340   -1.413816    0.184138
 ---------------------------------------------------------------------

 SCF Done:  E(UB3LYP) =  -1136.13200722     A.U. after   20 cycles

 The electronic state is 2-A.
 Alpha  occ. eigenvalues --  -38.44744 -38.44306 -38.44090 -38.43902 -38.43683
 Alpha  occ. eigenvalues --  -38.43218 -38.43122  -2.20514  -2.20100  -2.19922
 Alpha  occ. eigenvalues --   -2.19751  -2.19464  -2.19062  -2.19048  -1.14192
 Alpha  occ. eigenvalues --   -1.14161  -1.14159  -1.13773  -1.13766  -1.13745
 Alpha  occ. eigenvalues --   -1.13619  -1.13583  -1.13538  -1.13434  -1.13385
 Alpha  occ. eigenvalues --   -1.13365  -1.13148  -1.13120  -1.13100  -1.12774
 Alpha  occ. eigenvalues --   -1.12740  -1.12709  -1.12697  -1.12670  -1.12654
 Alpha  occ. eigenvalues --   -0.18020  -0.13122  -0.12003  -0.10407
 Alpha virt. eigenvalues --   -0.06195  -0.05609  -0.04498  -0.03238  -0.02706
 Alpha virt. eigenvalues --   -0.02297  -0.01985  -0.01416  -0.00671  -0.00446
 Alpha virt. eigenvalues --   -0.00053   0.00310   0.00670   0.00747   0.00790

  Beta  occ. eigenvalues --  -38.44741 -38.44303 -38.44082 -38.43829 -38.43677
  Beta  occ. eigenvalues --  -38.43199 -38.43055  -2.20512  -2.20098  -2.19910
  Beta  occ. eigenvalues --   -2.19617  -2.19454  -2.19014  -2.18940  -1.14173
  Beta  occ. eigenvalues --   -1.14162  -1.14160  -1.13773  -1.13755  -1.13737
  Beta  occ. eigenvalues --   -1.13607  -1.13565  -1.13527  -1.13342  -1.13294
  Beta  occ. eigenvalues --   -1.13265  -1.13130  -1.13112  -1.13093  -1.12729
  Beta  occ. eigenvalues --   -1.12677  -1.12657  -1.12644  -1.12620  -1.12569
  Beta  occ. eigenvalues --   -0.17336  -0.12909  -0.11737
  Beta virt. eigenvalues --   -0.06670  -0.06014  -0.05632  -0.04388  -0.02553
  Beta virt. eigenvalues --   -0.02030  -0.01860  -0.01372  -0.01324  -0.00694
  Beta virt. eigenvalues --   -0.00433   0.00099   0.00345   0.00732   0.00764

 Mulliken charges and spin densities:
               1          2
     1  Na   0.059346  -0.021612
     2  Na   0.075776  -0.011821
     3  Na  -0.071650  -0.007677
     4  Na  -0.206685   0.650423
     5  Na  -0.106268  -0.116982
     6  Na   0.229021   0.498407
     7  Na   0.020459   0.009261
 Sum of Mulliken charges =  -0.00000   1.00000

 Dipole moment (field-independent basis, Debye):
    X=             -0.0968    Y=              0.0042    Z=              0.2346  Tot=              0.2538
 Quadrupole moment (field-independent basis, Debye-Ang):
   XX=            -51.6633   YY=            -64.5975   ZZ=            -75.8957
   XY=             -0.4548   XZ=              1.4735   YZ=              0.8412

 Normal termination of Gaussian 16 at Thu Dec  7 23:55:36 2023.
