 Gaussian 16, Revision B.01,
 Gaussian 16:  ES64L-G16RevB.01 20-Dec-2017

 -------------------------
 #P B3LYP/6-311+g(d) force
 -------------------------

 -----
 DPGEN
 -----
 Symbolic Z-matrix:
 Charge =  0 Multiplicity = 2

                         Standard orientation:
 ---------------------------------------------------------------------
 Center     Atomic      Atomic             Coordinates (Angstroms)
 Number     Number       Type             X           Y           Z
 ---------------------------------------------------------------------
      1         11           0        0.729854    2.712443   -0.303542
      2         11           0       -2.739679   -2.654710    0.596386
      3         11           0        4.263180   -1.823589   -0.626513
      4         11           0       -2.543990    2.939387   -0.274508
      5         11           0        3.871960    1.835660    0.882559
      6         11           0        0.831468   -2.743423   -0.152546
      7         11           0       -4.412792   -0.265769   -0.121837
 ---------------------------------------------------------------------

 SCF Done:  E(UB3LYP) =  -1136.10659080     A.U. after   25 cycles

 The electronic state is 2-A.
 Alpha  occ. eigenvalues --  -38.45429 -38.45375 -38.44884 -38.44469 -38.44241
 Alpha  occ. eigenvalues --  -38.44137 -38.43526  -2.21184  -2.21173  -2.20636
 Alpha  occ. eigenvalues --   -2.20252  -2.20039  -2.19964  -2.19338  -1.14888
 Alpha  occ. eigenvalues --   -1.14850  -1.14842  -1.14820  -1.14815  -1.14812
 Alpha  occ. eigenvalues --   -1.14320  -1.14312  -1.14247  -1.13937  -1.13931
 Alpha  occ. eigenvalues --   -1.13903  -1.13688  -1.13675  -1.13657  -1.13641
 Alpha  occ. eigenvalues --   -1.13612  -1.13599  -1.12990  -1.12987  -1.12971
 Alpha  occ. eigenvalues --   -0.15704  -0.14139  -0.13200  -0.10758
 Alpha virt. eigenvalues --   -0.07866  -0.04847  -0.04409  -0.03620  -0.03566
 Alpha virt. eigenvalues --   -0.02525  -0.02362  -0.01728  -0.01135  -0.00779
 Alpha virt. eigenvalues --   -0.00606  -0.00420   0.00200   0.00413   0.00590

  Beta  occ. eigenvalues --  -38.45410 -38.45354 -38.44861 -38.44458 -38.44157
  Beta  occ. eigenvalues --  -38.44116 -38.43474  -2.21149  -2.21143  -2.20595
  Beta  occ. eigenvalues --   -2.20239  -2.19929  -2.19884  -2.19242  -1.14852
  Beta  occ. eigenvalues --   -1.14832  -1.14822  -1.14802  -1.14774  -1.14774
  Beta  occ. eigenvalues --   -1.14293  -1.14286  -1.14213  -1.13935  -1.13929
  Beta  occ. eigenvalues --   -1.13842  -1.13609  -1.13589  -1.13584  -1.13574
  Beta  occ. eigenvalues --   -1.13569  -1.13554  -1.12926  -1.12921  -1.12908
  Beta  occ. eigenvalues --   -0.15256  -0.13321  -0.12487
  Beta virt. eigenvalues --   -0.08080  -0.07577  -0.04338  -0.04095  -0.03410
  Beta virt. eigenvalues --   -0.03235  -0.02280  -0.02101  -0.01513  -0.00829
  Beta virt. eigenvalues --   -0.00579  -0.00307  -0.00269   0.00277   0.00513

 Mulliken charges and spin densities:
               1          2
     1  Na  -0.929704   0.102434
     2  Na   0.314205   0.238940
     3  Na   0.328093  -0.126085
     4  Na   0.386157   0.225985
     5  Na   0.493292   0.329021
     6  Na  -0.433675   0.084685
     7  Na  -0.158368   0.145019
 Sum of Mulliken charges =  -0.00000   1.00000

 Dipole moment (field-independent basis, Debye):
    X=              0.2484    Y=             -0.7716    Z=             -0.0832  Tot=              0.8148
 Quadrupole moment (field-independent basis, Debye-Ang):
   XX=            -50.4437   YY=            -74.9548   ZZ=            -72.8888
   XY=             -3.8523   XZ=             -0.3702   YZ=             -0.2210

 Normal termination of Gaussian 16 at Sun Dec  3 21:43:48 2023.
