 Gaussian 16, Revision B.01,
 Gaussian 16:  ES64L-G16RevB.01 20-Dec-2017

 -------------------------
 #P B3LYP/6-311+g(d) force
 -------------------------

 -----
 DPGEN
 -----
 Symbolic Z-matrix:
 Charge =  0 Multiplicity = 2

                         Standard orientation:
 ---------------------------------------------------------------------
 Center     Atomic      Atomic             Coordinates (Angstroms)
 Number     Number       Type             X           Y           Z
 ---------------------------------------------------------------------
      1         11           0        2.852885   -1.320664    0.682035
      2         11           0        5.938905   -1.150146   -0.409480
      3         11           0        3.597826    1.742623    0.092954
      4         11           0        0.123650    2.051709   -0.067449
      5         11           0       -0.477532   -0.802801   -0.443855
      6         11           0       -4.398487   -0.088085    0.327756
      7         11           0       -7.637247   -0.432637   -0.181961
 ---------------------------------------------------------------------

 SCF Done:  E(UB3LYP) =  -1136.11404538     A.U. after   20 cycles

 The electronic state is 2-A.
 Alpha  occ. eigenvalues --  -38.44890 -38.44827 -38.44643 -38.44521 -38.44026
 Alpha  occ. eigenvalues --  -38.43821 -38.43680  -2.20697  -2.20682  -2.20504
 Alpha  occ. eigenvalues --   -2.20379  -2.19897  -2.19587  -2.19445  -1.14414
 Alpha  occ. eigenvalues --   -1.14390  -1.14365  -1.14344  -1.14326  -1.14252
 Alpha  occ. eigenvalues --   -1.14182  -1.14164  -1.14117  -1.14086  -1.14033
 Alpha  occ. eigenvalues --   -1.13998  -1.13547  -1.13536  -1.13516  -1.13248
 Alpha  occ. eigenvalues --   -1.13248  -1.13241  -1.13128  -1.13125  -1.13048
 Alpha  occ. eigenvalues --   -0.17285  -0.13796  -0.12184  -0.11138
 Alpha virt. eigenvalues --   -0.07099  -0.05279  -0.04838  -0.03504  -0.03136
 Alpha virt. eigenvalues --   -0.02713  -0.01971  -0.01603  -0.01394  -0.00853
 Alpha virt. eigenvalues --   -0.00498  -0.00099   0.00042   0.00383   0.00455

  Beta  occ. eigenvalues --  -38.44883 -38.44793 -38.44567 -38.44495 -38.43985
  Beta  occ. eigenvalues --  -38.43812 -38.43682  -2.20671  -2.20636  -2.20365
  Beta  occ. eigenvalues --   -2.20336  -2.19822  -2.19570  -2.19450  -1.14366
  Beta  occ. eigenvalues --   -1.14355  -1.14341  -1.14325  -1.14311  -1.14217
  Beta  occ. eigenvalues --   -1.14094  -1.14082  -1.14073  -1.14008  -1.13983
  Beta  occ. eigenvalues --   -1.13934  -1.13497  -1.13485  -1.13463  -1.13236
  Beta  occ. eigenvalues --   -1.13236  -1.13231  -1.13132  -1.13130  -1.13045
  Beta  occ. eigenvalues --   -0.16568  -0.13695  -0.11911
  Beta virt. eigenvalues --   -0.07437  -0.06749  -0.04972  -0.04458  -0.03247
  Beta virt. eigenvalues --   -0.02685  -0.02315  -0.01695  -0.01513  -0.01358
  Beta virt. eigenvalues --   -0.00447  -0.00124   0.00041   0.00196   0.00485

 Mulliken charges and spin densities:
               1          2
     1  Na  -0.264253   0.261204
     2  Na   0.545832  -0.003236
     3  Na   0.212550   0.199412
     4  Na  -0.140857   0.291457
     5  Na  -0.308532   0.252173
     6  Na  -0.526503  -0.017614
     7  Na   0.481763   0.016605
 Sum of Mulliken charges =  -0.00000   1.00000

 Dipole moment (field-independent basis, Debye):
    X=              2.8012    Y=             -0.0756    Z=             -0.3278  Tot=              2.8214
 Quadrupole moment (field-independent basis, Debye-Ang):
   XX=            -52.7866   YY=            -70.4875   ZZ=            -72.1000
   XY=             -3.3296   XZ=             -0.9963   YZ=              0.5499

 Normal termination of Gaussian 16 at Wed Nov 29 01:40:17 2023.
