 Gaussian 16, Revision B.01,
 Gaussian 16:  ES64L-G16RevB.01 20-Dec-2017

 -------------------------
 #P B3LYP/6-311+g(d) force
 -------------------------

 -----
 DPGEN
 -----
 Symbolic Z-matrix:
 Charge =  0 Multiplicity = 2

                         Standard orientation:
 ---------------------------------------------------------------------
 Center     Atomic      Atomic             Coordinates (Angstroms)
 Number     Number       Type             X           Y           Z
 ---------------------------------------------------------------------
      1         11           0       -0.450447   -0.101316   -1.936477
      2         11           0        1.118207    2.872474   -0.070709
      3         11           0        0.998341   -2.731518   -0.031604
      4         11           0        2.982218   -0.175991   -0.390093
      5         11           0       -2.517191    1.657465   -0.039072
      6         11           0        0.377072    0.121678    2.250551
      7         11           0       -2.508199   -1.642791    0.217403
 ---------------------------------------------------------------------

 SCF Done:  E(UB3LYP) =  -1136.13888861     A.U. after   19 cycles

 The electronic state is 2-A.
 Alpha  occ. eigenvalues --  -38.44159 -38.43805 -38.43793 -38.43753 -38.43654
 Alpha  occ. eigenvalues --  -38.43431 -38.43212  -2.20001  -2.19713  -2.19634
 Alpha  occ. eigenvalues --   -2.19595  -2.19504  -2.19232  -2.19065  -1.13656
 Alpha  occ. eigenvalues --   -1.13631  -1.13623  -1.13409  -1.13365  -1.13349
 Alpha  occ. eigenvalues --   -1.13308  -1.13300  -1.13276  -1.13274  -1.13257
 Alpha  occ. eigenvalues --   -1.13230  -1.13168  -1.13159  -1.13128  -1.12906
 Alpha  occ. eigenvalues --   -1.12895  -1.12875  -1.12738  -1.12727  -1.12706
 Alpha  occ. eigenvalues --   -0.18378  -0.12967  -0.12253  -0.11161
 Alpha virt. eigenvalues --   -0.05371  -0.05169  -0.04746  -0.03488  -0.03093
 Alpha virt. eigenvalues --   -0.02973  -0.01237  -0.01026  -0.00339  -0.00256
 Alpha virt. eigenvalues --   -0.00098   0.00401   0.00789   0.00871   0.00885

  Beta  occ. eigenvalues --  -38.44064 -38.43787 -38.43750 -38.43736 -38.43649
  Beta  occ. eigenvalues --  -38.43430 -38.43208  -2.19824  -2.19625  -2.19592
  Beta  occ. eigenvalues --   -2.19586  -2.19498  -2.19234  -2.19061  -1.13540
  Beta  occ. eigenvalues --   -1.13506  -1.13495  -1.13345  -1.13310  -1.13287
  Beta  occ. eigenvalues --   -1.13279  -1.13268  -1.13268  -1.13252  -1.13227
  Beta  occ. eigenvalues --   -1.13213  -1.13155  -1.13139  -1.13125  -1.12898
  Beta  occ. eigenvalues --   -1.12888  -1.12879  -1.12736  -1.12708  -1.12699
  Beta  occ. eigenvalues --   -0.17620  -0.12769  -0.12054
  Beta virt. eigenvalues --   -0.07244  -0.05355  -0.05115  -0.04610  -0.02705
  Beta virt. eigenvalues --   -0.02298  -0.01985  -0.01143  -0.00951  -0.00391
  Beta virt. eigenvalues --   -0.00317   0.00072   0.00425   0.00884   0.00899

 Mulliken charges and spin densities:
               1          2
     1  Na  -0.198412   0.507179
     2  Na   0.064220  -0.098453
     3  Na   0.162115  -0.024853
     4  Na   0.152949  -0.029554
     5  Na   0.192944  -0.071099
     6  Na  -0.555813   0.714903
     7  Na   0.181996   0.001876
 Sum of Mulliken charges =  -0.00000   1.00000

 Dipole moment (field-independent basis, Debye):
    X=             -0.1137    Y=              0.0718    Z=              0.0924  Tot=              0.1632
 Quadrupole moment (field-independent basis, Debye-Ang):
   XX=            -60.5713   YY=            -64.1592   ZZ=            -71.0370
   XY=              0.1613   XZ=             -1.6182   YZ=             -0.5809

 Normal termination of Gaussian 16 at Thu Dec  7 18:50:38 2023.
