 Gaussian 16, Revision B.01,
 Gaussian 16:  ES64L-G16RevB.01 20-Dec-2017

 -------------------------
 #P B3LYP/6-311+g(d) force
 -------------------------

 -----
 DPGEN
 -----
 Symbolic Z-matrix:
 Charge =  0 Multiplicity = 2

                         Standard orientation:
 ---------------------------------------------------------------------
 Center     Atomic      Atomic             Coordinates (Angstroms)
 Number     Number       Type             X           Y           Z
 ---------------------------------------------------------------------
      1         11           0        0.405084   -1.463129   -0.982528
      2         11           0       -1.058932   -1.750726    1.546954
      3         11           0        1.103194    0.539789    1.834214
      4         11           0       -1.782773    1.975982    0.648327
      5         11           0        3.765799   -0.473683   -0.572304
      6         11           0        0.855419    1.762486   -1.161549
      7         11           0       -3.287790   -0.590718   -1.313114
 ---------------------------------------------------------------------

 SCF Done:  E(UB3LYP) =  -1136.12452231     A.U. after   24 cycles

 The electronic state is 2-A.
 Alpha  occ. eigenvalues --  -38.44798 -38.44769 -38.43860 -38.43421 -38.43360
 Alpha  occ. eigenvalues --  -38.43324 -38.42697  -2.20587  -2.20558  -2.19824
 Alpha  occ. eigenvalues --   -2.19349  -2.19304  -2.19242  -2.18572  -1.14262
 Alpha  occ. eigenvalues --   -1.14241  -1.14229  -1.14214  -1.14202  -1.14173
 Alpha  occ. eigenvalues --   -1.13544  -1.13478  -1.13418  -1.13204  -1.13044
 Alpha  occ. eigenvalues --   -1.12992  -1.12941  -1.12923  -1.12920  -1.12897
 Alpha  occ. eigenvalues --   -1.12852  -1.12829  -1.12247  -1.12244  -1.12203
 Alpha  occ. eigenvalues --   -0.18821  -0.13388  -0.11807  -0.11269
 Alpha virt. eigenvalues --   -0.06543  -0.04695  -0.04006  -0.03200  -0.02890
 Alpha virt. eigenvalues --   -0.02813  -0.02321  -0.00951  -0.00470   0.00089
 Alpha virt. eigenvalues --    0.00178   0.00361   0.00451   0.00837   0.00927

  Beta  occ. eigenvalues --  -38.44792 -38.44725 -38.43786 -38.43372 -38.43344
  Beta  occ. eigenvalues --  -38.43305 -38.42692  -2.20577  -2.20476  -2.19693
  Beta  occ. eigenvalues --   -2.19286  -2.19257  -2.19207  -2.18566  -1.14250
  Beta  occ. eigenvalues --   -1.14235  -1.14208  -1.14170  -1.14144  -1.14121
  Beta  occ. eigenvalues --   -1.13452  -1.13367  -1.13328  -1.13159  -1.13022
  Beta  occ. eigenvalues --   -1.12917  -1.12906  -1.12885  -1.12871  -1.12860
  Beta  occ. eigenvalues --   -1.12822  -1.12803  -1.12247  -1.12218  -1.12194
  Beta  occ. eigenvalues --   -0.18049  -0.13070  -0.11119
  Beta virt. eigenvalues --   -0.07854  -0.06279  -0.04363  -0.03759  -0.03010
  Beta virt. eigenvalues --   -0.02302  -0.02185  -0.01815  -0.00737  -0.00314
  Beta virt. eigenvalues --    0.00194   0.00223   0.00382   0.00527   0.00904

 Mulliken charges and spin densities:
               1          2
     1  Na  -0.119543   0.282731
     2  Na  -0.039604   0.072761
     3  Na   0.201194   0.271810
     4  Na   0.062413   0.069232
     5  Na   0.278733   0.004390
     6  Na  -0.250289   0.194497
     7  Na  -0.132904   0.104579
 Sum of Mulliken charges =  -0.00000   1.00000

 Dipole moment (field-independent basis, Debye):
    X=              0.5247    Y=             -0.0760    Z=             -0.2586  Tot=              0.5898
 Quadrupole moment (field-independent basis, Debye-Ang):
   XX=            -48.9902   YY=            -78.4661   ZZ=            -65.1688
   XY=             -0.2146   XZ=              1.2450   YZ=             -0.3723

 Normal termination of Gaussian 16 at Wed Nov 29 16:41:33 2023.
