 Gaussian 16, Revision B.01,
 Gaussian 16:  ES64L-G16RevB.01 20-Dec-2017

 -------------------------
 #P B3LYP/6-311+g(d) force
 -------------------------

 -----
 DPGEN
 -----
 Symbolic Z-matrix:
 Charge =  0 Multiplicity = 2

                         Standard orientation:
 ---------------------------------------------------------------------
 Center     Atomic      Atomic             Coordinates (Angstroms)
 Number     Number       Type             X           Y           Z
 ---------------------------------------------------------------------
      1         11           0       -0.132888   -0.879738    1.928491
      2         11           0        0.291583    2.849509    0.002709
      3         11           0       -2.679431    1.517246    0.556499
      4         11           0        2.944320    1.115991   -0.255688
      5         11           0       -2.659107   -2.029109   -0.767086
      6         11           0        2.221656   -2.503943    0.217395
      7         11           0        0.013866   -0.069957   -1.682320
 ---------------------------------------------------------------------

 SCF Done:  E(UB3LYP) =  -1136.13361912     A.U. after   20 cycles

 The electronic state is 2-A.
 Alpha  occ. eigenvalues --  -38.44160 -38.43992 -38.43945 -38.43923 -38.43800
 Alpha  occ. eigenvalues --  -38.43602 -38.43016  -2.19959  -2.19833  -2.19771
 Alpha  occ. eigenvalues --   -2.19726  -2.19652  -2.19517  -2.18898  -1.13632
 Alpha  occ. eigenvalues --   -1.13603  -1.13593  -1.13521  -1.13507  -1.13461
 Alpha  occ. eigenvalues --   -1.13447  -1.13437  -1.13419  -1.13399  -1.13385
 Alpha  occ. eigenvalues --   -1.13365  -1.13321  -1.13289  -1.13258  -1.13205
 Alpha  occ. eigenvalues --   -1.13159  -1.13135  -1.12573  -1.12565  -1.12540
 Alpha  occ. eigenvalues --   -0.18153  -0.13022  -0.12440  -0.10718
 Alpha virt. eigenvalues --   -0.05879  -0.05491  -0.04599  -0.03178  -0.02973
 Alpha virt. eigenvalues --   -0.02430  -0.01702  -0.01445  -0.00600  -0.00259
 Alpha virt. eigenvalues --   -0.00054   0.00313   0.00703   0.00760   0.00813

  Beta  occ. eigenvalues --  -38.44128 -38.43988 -38.43927 -38.43919 -38.43732
  Beta  occ. eigenvalues --  -38.43541 -38.43014  -2.19901  -2.19827  -2.19741
  Beta  occ. eigenvalues --   -2.19721  -2.19526  -2.19406  -2.18898  -1.13578
  Beta  occ. eigenvalues --   -1.13564  -1.13555  -1.13520  -1.13491  -1.13455
  Beta  occ. eigenvalues --   -1.13428  -1.13404  -1.13398  -1.13375  -1.13374
  Beta  occ. eigenvalues --   -1.13363  -1.13240  -1.13204  -1.13168  -1.13126
  Beta  occ. eigenvalues --   -1.13088  -1.13047  -1.12573  -1.12569  -1.12515
  Beta  occ. eigenvalues --   -0.17523  -0.12748  -0.12129
  Beta virt. eigenvalues --   -0.07007  -0.05756  -0.05360  -0.04467  -0.02588
  Beta virt. eigenvalues --   -0.02322  -0.01608  -0.01474  -0.01259  -0.00615
  Beta virt. eigenvalues --   -0.00255   0.00098   0.00374   0.00753   0.00808

 Mulliken charges and spin densities:
               1          2
     1  Na  -0.256799   0.438581
     2  Na  -0.110563   0.031743
     3  Na   0.121989   0.146414
     4  Na   0.076836   0.011497
     5  Na   0.023980   0.079530
     6  Na   0.134973  -0.019751
     7  Na   0.009585   0.311987
 Sum of Mulliken charges =  -0.00000   1.00000

 Dipole moment (field-independent basis, Debye):
    X=              0.0010    Y=             -0.4344    Z=              0.0844  Tot=              0.4426
 Quadrupole moment (field-independent basis, Debye-Ang):
   XX=            -56.2450   YY=            -64.0862   ZZ=            -74.0179
   XY=             -0.0750   XZ=             -0.6025   YZ=              1.8152

 Normal termination of Gaussian 16 at Thu Dec  7 07:11:29 2023.
