 Gaussian 16, Revision B.01,
 Gaussian 16:  ES64L-G16RevB.01 20-Dec-2017

 -------------------------
 #P B3LYP/6-311+g(d) force
 -------------------------

 -----
 DPGEN
 -----
 Symbolic Z-matrix:
 Charge =  0 Multiplicity = 2

                         Standard orientation:
 ---------------------------------------------------------------------
 Center     Atomic      Atomic             Coordinates (Angstroms)
 Number     Number       Type             X           Y           Z
 ---------------------------------------------------------------------
      1         11           0        0.645842   -0.324593   -1.870651
      2         11           0       -2.753636   -1.163258   -0.534923
      3         11           0        0.335754   -2.589171    0.665101
      4         11           0       -0.638439   -0.065517    2.100943
      5         11           0        3.202043   -0.478198   -0.350354
      6         11           0        1.160066    2.694069    0.628365
      7         11           0       -1.951630    1.926669   -0.638481
 ---------------------------------------------------------------------

 SCF Done:  E(UB3LYP) =  -1136.13409130     A.U. after   18 cycles

 The electronic state is 2-A.
 Alpha  occ. eigenvalues --  -38.44090 -38.43944 -38.43900 -38.43705 -38.43395
 Alpha  occ. eigenvalues --  -38.43369 -38.43322  -2.20005  -2.19832  -2.19783
 Alpha  occ. eigenvalues --   -2.19570  -2.19245  -2.19215  -2.19210  -1.13704
 Alpha  occ. eigenvalues --   -1.13646  -1.13633  -1.13619  -1.13491  -1.13454
 Alpha  occ. eigenvalues --   -1.13422  -1.13395  -1.13364  -1.13263  -1.13230
 Alpha  occ. eigenvalues --   -1.13203  -1.12924  -1.12922  -1.12906  -1.12900
 Alpha  occ. eigenvalues --   -1.12887  -1.12870  -1.12850  -1.12831  -1.12810
 Alpha  occ. eigenvalues --   -0.18636  -0.12982  -0.12305  -0.11591
 Alpha virt. eigenvalues --   -0.05412  -0.04806  -0.04480  -0.03567  -0.03326
 Alpha virt. eigenvalues --   -0.03068  -0.01361  -0.00851  -0.00272   0.00002
 Alpha virt. eigenvalues --    0.00126   0.00366   0.00819   0.00908   0.00943

  Beta  occ. eigenvalues --  -38.44002 -38.43940 -38.43840 -38.43691 -38.43383
  Beta  occ. eigenvalues --  -38.43356 -38.43302  -2.19844  -2.19782  -2.19719
  Beta  occ. eigenvalues --   -2.19547  -2.19224  -2.19188  -2.19183  -1.13601
  Beta  occ. eigenvalues --   -1.13593  -1.13522  -1.13501  -1.13433  -1.13410
  Beta  occ. eigenvalues --   -1.13397  -1.13367  -1.13314  -1.13248  -1.13206
  Beta  occ. eigenvalues --   -1.13177  -1.12910  -1.12892  -1.12889  -1.12871
  Beta  occ. eigenvalues --   -1.12860  -1.12833  -1.12832  -1.12813  -1.12791
  Beta  occ. eigenvalues --   -0.17893  -0.12716  -0.12052
  Beta virt. eigenvalues --   -0.07666  -0.05296  -0.04751  -0.04354  -0.02906
  Beta virt. eigenvalues --   -0.02582  -0.02074  -0.01245  -0.00787  -0.00153
  Beta virt. eigenvalues --    0.00081   0.00103   0.00410   0.00887   0.00953

 Mulliken charges and spin densities:
               1          2
     1  Na  -0.269383   0.428664
     2  Na   0.145695  -0.007981
     3  Na   0.231420   0.006514
     4  Na  -0.259204   0.519602
     5  Na   0.204968  -0.034457
     6  Na  -0.085305   0.025044
     7  Na   0.031808   0.062615
 Sum of Mulliken charges =  -0.00000   1.00000

 Dipole moment (field-independent basis, Debye):
    X=              0.1090    Y=             -0.1282    Z=              0.0289  Tot=              0.1708
 Quadrupole moment (field-independent basis, Debye-Ang):
   XX=            -59.6091   YY=            -67.1335   ZZ=            -69.4066
   XY=              0.8076   XZ=              2.5442   YZ=              0.1411

 Normal termination of Gaussian 16 at Tue Dec  5 13:58:56 2023.
