 Gaussian 16, Revision B.01,
 Gaussian 16:  ES64L-G16RevB.01 20-Dec-2017

 -------------------------
 #P B3LYP/6-311+g(d) force
 -------------------------

 -----
 DPGEN
 -----
 Symbolic Z-matrix:
 Charge =  0 Multiplicity = 2

                         Standard orientation:
 ---------------------------------------------------------------------
 Center     Atomic      Atomic             Coordinates (Angstroms)
 Number     Number       Type             X           Y           Z
 ---------------------------------------------------------------------
      1         11           0       -2.095110   -3.239376   -0.248283
      2         11           0        0.094988    3.263076    0.127517
      3         11           0        3.568221    2.105762   -0.470005
      4         11           0       -3.571060    2.287879    0.038097
      5         11           0       -4.468428   -0.796241    0.197376
      6         11           0        4.578695   -1.170804    0.554850
      7         11           0        1.892694   -2.450297   -0.199551
 ---------------------------------------------------------------------

 SCF Done:  E(UB3LYP) =  -1136.10646419     A.U. after   25 cycles

 The electronic state is 2-A.
 Alpha  occ. eigenvalues --  -38.45591 -38.45507 -38.44705 -38.44427 -38.44263
 Alpha  occ. eigenvalues --  -38.44249 -38.43742  -2.21372  -2.21271  -2.20502
 Alpha  occ. eigenvalues --   -2.20163  -2.20108  -2.20052  -2.19529  -1.15054
 Alpha  occ. eigenvalues --   -1.15036  -1.15018  -1.14949  -1.14925  -1.14888
 Alpha  occ. eigenvalues --   -1.14189  -1.14176  -1.14153  -1.13854  -1.13850
 Alpha  occ. eigenvalues --   -1.13788  -1.13781  -1.13746  -1.13731  -1.13712
 Alpha  occ. eigenvalues --   -1.13708  -1.13671  -1.13186  -1.13176  -1.13159
 Alpha  occ. eigenvalues --   -0.15732  -0.14406  -0.12971  -0.10898
 Alpha virt. eigenvalues --   -0.07804  -0.04949  -0.04448  -0.03633  -0.03520
 Alpha virt. eigenvalues --   -0.02735  -0.02283  -0.01882  -0.01125  -0.00786
 Alpha virt. eigenvalues --   -0.00438  -0.00270   0.00089   0.00338   0.00449

  Beta  occ. eigenvalues --  -38.45564 -38.45463 -38.44701 -38.44429 -38.44221
  Beta  occ. eigenvalues --  -38.44203 -38.43683  -2.21327  -2.21193  -2.20500
  Beta  occ. eigenvalues --   -2.20171  -2.20032  -2.19969  -2.19419  -1.15026
  Beta  occ. eigenvalues --   -1.15010  -1.14952  -1.14899  -1.14875  -1.14816
  Beta  occ. eigenvalues --   -1.14181  -1.14179  -1.14124  -1.13861  -1.13857
  Beta  occ. eigenvalues --   -1.13776  -1.13722  -1.13695  -1.13683  -1.13655
  Beta  occ. eigenvalues --   -1.13653  -1.13617  -1.13111  -1.13103  -1.13085
  Beta  occ. eigenvalues --   -0.15159  -0.13846  -0.12210
  Beta virt. eigenvalues --   -0.08006  -0.07647  -0.04486  -0.03981  -0.03404
  Beta virt. eigenvalues --   -0.03153  -0.02569  -0.02108  -0.01664  -0.00898
  Beta virt. eigenvalues --   -0.00445  -0.00257  -0.00019   0.00241   0.00365

 Mulliken charges and spin densities:
               1          2
     1  Na   0.223186   0.224595
     2  Na  -0.192496  -0.053992
     3  Na  -0.174003   0.163360
     4  Na   0.070894   0.203346
     5  Na  -0.048043   0.074083
     6  Na   0.662242   0.125757
     7  Na  -0.541779   0.262850
 Sum of Mulliken charges =  -0.00000   1.00000

 Dipole moment (field-independent basis, Debye):
    X=              1.3064    Y=              0.1261    Z=              0.0231  Tot=              1.3127
 Quadrupole moment (field-independent basis, Debye-Ang):
   XX=            -54.0353   YY=            -71.9075   ZZ=            -73.5348
   XY=              1.9133   XZ=             -0.2642   YZ=             -0.2591

 Normal termination of Gaussian 16 at Sun Dec  3 17:15:29 2023.
