 Gaussian 16, Revision B.01,
 Gaussian 16:  ES64L-G16RevB.01 20-Dec-2017

 -------------------------
 #P B3LYP/6-311+g(d) force
 -------------------------

 -----
 DPGEN
 -----
 Symbolic Z-matrix:
 Charge =  0 Multiplicity = 2

                         Standard orientation:
 ---------------------------------------------------------------------
 Center     Atomic      Atomic             Coordinates (Angstroms)
 Number     Number       Type             X           Y           Z
 ---------------------------------------------------------------------
      1         11           0        1.423907    2.984682    0.004023
      2         11           0        0.079112   -0.569881    2.064780
      3         11           0        3.165549   -0.211246   -0.095939
      4         11           0        1.093521   -2.779488   -0.411005
      5         11           0       -2.575014    1.911001    0.150072
      6         11           0       -2.782566   -1.633315   -0.116907
      7         11           0       -0.404508    0.298247   -1.595023
 ---------------------------------------------------------------------

 SCF Done:  E(UB3LYP) =  -1136.13506743     A.U. after   19 cycles

 The electronic state is 2-A.
 Alpha  occ. eigenvalues --  -38.44332 -38.44194 -38.44113 -38.43723 -38.43506
 Alpha  occ. eigenvalues --  -38.43464 -38.43246  -2.20143  -2.20008  -2.19930
 Alpha  occ. eigenvalues --   -2.19497  -2.19364  -2.19309  -2.19177  -1.13842
 Alpha  occ. eigenvalues --   -1.13804  -1.13771  -1.13687  -1.13667  -1.13641
 Alpha  occ. eigenvalues --   -1.13605  -1.13595  -1.13573  -1.13174  -1.13157
 Alpha  occ. eigenvalues --   -1.13141  -1.13038  -1.13007  -1.12984  -1.12980
 Alpha  occ. eigenvalues --   -1.12953  -1.12945  -1.12866  -1.12818  -1.12797
 Alpha  occ. eigenvalues --   -0.18133  -0.13127  -0.12216  -0.10364
 Alpha virt. eigenvalues --   -0.05802  -0.05634  -0.04846  -0.03216  -0.02733
 Alpha virt. eigenvalues --   -0.02344  -0.01611  -0.01334  -0.00764  -0.00617
 Alpha virt. eigenvalues --   -0.00017   0.00347   0.00739   0.00777   0.00844

  Beta  occ. eigenvalues --  -38.44329 -38.44190 -38.44110 -38.43724 -38.43453
  Beta  occ. eigenvalues --  -38.43411 -38.43191  -2.20141  -2.20003  -2.19927
  Beta  occ. eigenvalues --   -2.19501  -2.19293  -2.19190  -2.19077  -1.13835
  Beta  occ. eigenvalues --   -1.13788  -1.13773  -1.13675  -1.13648  -1.13641
  Beta  occ. eigenvalues --   -1.13599  -1.13580  -1.13575  -1.13167  -1.13158
  Beta  occ. eigenvalues --   -1.13146  -1.12982  -1.12944  -1.12938  -1.12906
  Beta  occ. eigenvalues --   -1.12864  -1.12855  -1.12794  -1.12745  -1.12723
  Beta  occ. eigenvalues --   -0.17431  -0.12931  -0.12031
  Beta virt. eigenvalues --   -0.06486  -0.05798  -0.05575  -0.04757  -0.02451
  Beta virt. eigenvalues --   -0.02053  -0.01519  -0.01330  -0.01252  -0.00794
  Beta virt. eigenvalues --   -0.00660   0.00150   0.00388   0.00779   0.00819

 Mulliken charges and spin densities:
               1          2
     1  Na  -0.069540  -0.091212
     2  Na  -0.433080   0.781308
     3  Na   0.058655  -0.032035
     4  Na   0.162852  -0.013502
     5  Na   0.030186  -0.069441
     6  Na   0.216377  -0.044134
     7  Na   0.034550   0.469015
 Sum of Mulliken charges =  -0.00000   1.00000

 Dipole moment (field-independent basis, Debye):
    X=             -0.3703    Y=              0.0379    Z=              0.0799  Tot=              0.3807
 Quadrupole moment (field-independent basis, Debye-Ang):
   XX=            -55.3735   YY=            -61.2545   ZZ=            -76.3604
   XY=              0.0604   XZ=             -0.8668   YZ=              2.0513

 Normal termination of Gaussian 16 at Thu Dec  7 08:07:48 2023.
