 Gaussian 16, Revision B.01,
 Gaussian 16:  ES64L-G16RevB.01 20-Dec-2017

 -------------------------
 #P B3LYP/6-311+g(d) force
 -------------------------

 -----
 DPGEN
 -----
 Symbolic Z-matrix:
 Charge =  0 Multiplicity = 2

                         Standard orientation:
 ---------------------------------------------------------------------
 Center     Atomic      Atomic             Coordinates (Angstroms)
 Number     Number       Type             X           Y           Z
 ---------------------------------------------------------------------
      1         11           0        2.008273    0.904320    1.475217
      2         11           0       -0.942107    2.950684   -0.664762
      3         11           0        3.396361   -0.750629   -0.741778
      4         11           0       -0.378208   -2.386454    0.807504
      5         11           0       -2.949736   -1.173725   -0.670320
      6         11           0       -1.388130    0.589139    1.638103
      7         11           0        0.253548   -0.133335   -1.843964
 ---------------------------------------------------------------------

 SCF Done:  E(UB3LYP) =  -1136.13101887     A.U. after   20 cycles

 The electronic state is 2-A.
 Alpha  occ. eigenvalues --  -38.44207 -38.44014 -38.43903 -38.43873 -38.43574
 Alpha  occ. eigenvalues --  -38.43350 -38.42935  -2.20070  -2.19878  -2.19809
 Alpha  occ. eigenvalues --   -2.19711  -2.19457  -2.19305  -2.18751  -1.13748
 Alpha  occ. eigenvalues --   -1.13737  -1.13704  -1.13593  -1.13557  -1.13503
 Alpha  occ. eigenvalues --   -1.13485  -1.13457  -1.13443  -1.13359  -1.13349
 Alpha  occ. eigenvalues --   -1.13328  -1.13174  -1.13117  -1.13062  -1.12991
 Alpha  occ. eigenvalues --   -1.12955  -1.12908  -1.12425  -1.12407  -1.12388
 Alpha  occ. eigenvalues --   -0.18585  -0.13271  -0.11729  -0.11608
 Alpha virt. eigenvalues --   -0.05861  -0.04847  -0.04341  -0.03448  -0.03163
 Alpha virt. eigenvalues --   -0.02861  -0.01656  -0.00825  -0.00622   0.00164
 Alpha virt. eigenvalues --    0.00290   0.00335   0.00531   0.00822   0.00880

  Beta  occ. eigenvalues --  -38.44200 -38.43978 -38.43868 -38.43830 -38.43555
  Beta  occ. eigenvalues --  -38.43302 -38.42926  -2.20058  -2.19813  -2.19703
  Beta  occ. eigenvalues --   -2.19675  -2.19425  -2.19220  -2.18738  -1.13740
  Beta  occ. eigenvalues --   -1.13721  -1.13689  -1.13552  -1.13507  -1.13458
  Beta  occ. eigenvalues --   -1.13398  -1.13382  -1.13350  -1.13340  -1.13326
  Beta  occ. eigenvalues --   -1.13301  -1.13144  -1.13074  -1.13044  -1.12929
  Beta  occ. eigenvalues --   -1.12885  -1.12850  -1.12405  -1.12401  -1.12374
  Beta  occ. eigenvalues --   -0.17788  -0.13115  -0.11537
  Beta virt. eigenvalues --   -0.07620  -0.05733  -0.04460  -0.04177  -0.03078
  Beta virt. eigenvalues --   -0.02495  -0.01960  -0.01566  -0.00746  -0.00309
  Beta virt. eigenvalues --    0.00184   0.00356   0.00382   0.00631   0.00886

 Mulliken charges and spin densities:
               1          2
     1  Na  -0.186437   0.130202
     2  Na  -0.214714   0.007580
     3  Na   0.286910  -0.080269
     4  Na  -0.267733   0.081894
     5  Na   0.510562   0.008933
     6  Na   0.173343   0.286868
     7  Na  -0.301932   0.564793
 Sum of Mulliken charges =  -0.00000   1.00000

 Dipole moment (field-independent basis, Debye):
    X=             -0.0470    Y=             -0.3973    Z=             -0.2004  Tot=              0.4475
 Quadrupole moment (field-independent basis, Debye-Ang):
   XX=            -57.0247   YY=            -70.2722   ZZ=            -67.7894
   XY=             -0.0379   XZ=              1.6573   YZ=             -0.4824

 Normal termination of Gaussian 16 at Tue Dec  5 14:05:58 2023.
