 Gaussian 16, Revision B.01,
 Gaussian 16:  ES64L-G16RevB.01 20-Dec-2017

 -------------------------
 #P B3LYP/6-311+g(d) force
 -------------------------

 -----
 DPGEN
 -----
 Symbolic Z-matrix:
 Charge =  0 Multiplicity = 2

                         Standard orientation:
 ---------------------------------------------------------------------
 Center     Atomic      Atomic             Coordinates (Angstroms)
 Number     Number       Type             X           Y           Z
 ---------------------------------------------------------------------
      1         11           0        4.465479    1.168756   -0.291681
      2         11           0       -4.460948    0.349394   -0.304164
      3         11           0        0.320226   -3.268783   -0.779784
      4         11           0        3.338266   -1.969337    0.846361
      5         11           0       -2.177906    2.918486    0.566378
      6         11           0       -2.678494   -2.417491    0.349245
      7         11           0        1.193376    3.218974   -0.386355
 ---------------------------------------------------------------------

 SCF Done:  E(UB3LYP) =  -1136.10930919     A.U. after   23 cycles

 The electronic state is 2-A.
 Alpha  occ. eigenvalues --  -38.45483 -38.44905 -38.44738 -38.44547 -38.44482
 Alpha  occ. eigenvalues --  -38.43942 -38.43709  -2.21230  -2.20694  -2.20504
 Alpha  occ. eigenvalues --   -2.20319  -2.20244  -2.19759  -2.19513  -1.14916
 Alpha  occ. eigenvalues --   -1.14898  -1.14861  -1.14377  -1.14365  -1.14343
 Alpha  occ. eigenvalues --   -1.14187  -1.14177  -1.14138  -1.13986  -1.13966
 Alpha  occ. eigenvalues --   -1.13956  -1.13918  -1.13910  -1.13860  -1.13408
 Alpha  occ. eigenvalues --   -1.13407  -1.13391  -1.13169  -1.13163  -1.13149
 Alpha  occ. eigenvalues --   -0.15546  -0.13937  -0.13296  -0.10724
 Alpha virt. eigenvalues --   -0.07683  -0.04807  -0.04568  -0.03538  -0.03328
 Alpha virt. eigenvalues --   -0.02636  -0.02308  -0.01769  -0.01168  -0.00731
 Alpha virt. eigenvalues --   -0.00359  -0.00282   0.00056   0.00340   0.00592

  Beta  occ. eigenvalues --  -38.45473 -38.44892 -38.44721 -38.44510 -38.44443
  Beta  occ. eigenvalues --  -38.43883 -38.43662  -2.21215  -2.20678  -2.20478
  Beta  occ. eigenvalues --   -2.20252  -2.20175  -2.19651  -2.19426  -1.14909
  Beta  occ. eigenvalues --   -1.14892  -1.14824  -1.14371  -1.14359  -1.14287
  Beta  occ. eigenvalues --   -1.14174  -1.14162  -1.14087  -1.13941  -1.13924
  Beta  occ. eigenvalues --   -1.13902  -1.13874  -1.13865  -1.13798  -1.13334
  Beta  occ. eigenvalues --   -1.13330  -1.13322  -1.13110  -1.13102  -1.13092
  Beta  occ. eigenvalues --   -0.14996  -0.13261  -0.12502
  Beta virt. eigenvalues --   -0.07913  -0.07596  -0.04442  -0.03998  -0.03333
  Beta virt. eigenvalues --   -0.02944  -0.02408  -0.02081  -0.01675  -0.01014
  Beta virt. eigenvalues --   -0.00372  -0.00204  -0.00085   0.00213   0.00411

 Mulliken charges and spin densities:
               1          2
     1  Na   0.141141   0.199152
     2  Na   0.206640   0.275361
     3  Na  -0.166369   0.192898
     4  Na   0.026396   0.060618
     5  Na   0.012407   0.002583
     6  Na  -0.114995   0.084711
     7  Na  -0.105220   0.184679
 Sum of Mulliken charges =  -0.00000   1.00000

 Dipole moment (field-independent basis, Debye):
    X=              0.4275    Y=             -0.0824    Z=              0.1730  Tot=              0.4685
 Quadrupole moment (field-independent basis, Debye-Ang):
   XX=            -61.5335   YY=            -68.4068   ZZ=            -70.1799
   XY=             -0.5603   XZ=             -0.6455   YZ=             -2.1000

 Normal termination of Gaussian 16 at Mon Dec  4 03:24:48 2023.
