 Gaussian 16, Revision B.01,
 Gaussian 16:  ES64L-G16RevB.01 20-Dec-2017

 -------------------------
 #P B3LYP/6-311+g(d) force
 -------------------------

 -----
 DPGEN
 -----
 Symbolic Z-matrix:
 Charge =  0 Multiplicity = 2

                         Standard orientation:
 ---------------------------------------------------------------------
 Center     Atomic      Atomic             Coordinates (Angstroms)
 Number     Number       Type             X           Y           Z
 ---------------------------------------------------------------------
      1         11           0       -0.927409    2.805092   -0.756827
      2         11           0       -1.516304   -2.623295    0.730534
      3         11           0        0.403095   -0.754522   -1.254530
      4         11           0        2.241225    0.722623    1.418672
      5         11           0       -2.942884   -0.282121   -1.221934
      6         11           0        4.242101   -0.578830   -0.738100
      7         11           0       -1.499825    0.711053    1.822185
 ---------------------------------------------------------------------

 SCF Done:  E(UB3LYP) =  -1136.12845699     A.U. after   21 cycles

 The electronic state is 2-A.
 Alpha  occ. eigenvalues --  -38.44522 -38.44431 -38.44157 -38.44149 -38.43549
 Alpha  occ. eigenvalues --  -38.43000 -38.42874  -2.20314  -2.20307  -2.20026
 Alpha  occ. eigenvalues --   -2.19986  -2.19445  -2.18864  -2.18693  -1.14000
 Alpha  occ. eigenvalues --   -1.13994  -1.13973  -1.13971  -1.13949  -1.13903
 Alpha  occ. eigenvalues --   -1.13743  -1.13691  -1.13669  -1.13647  -1.13626
 Alpha  occ. eigenvalues --   -1.13597  -1.13121  -1.13100  -1.13060  -1.12536
 Alpha  occ. eigenvalues --   -1.12520  -1.12497  -1.12365  -1.12349  -1.12336
 Alpha  occ. eigenvalues --   -0.18143  -0.13602  -0.11464  -0.11111
 Alpha virt. eigenvalues --   -0.06532  -0.05051  -0.04279  -0.03181  -0.02961
 Alpha virt. eigenvalues --   -0.02451  -0.02291  -0.01091  -0.00725  -0.00235
 Alpha virt. eigenvalues --    0.00060   0.00196   0.00274   0.00758   0.00862

  Beta  occ. eigenvalues --  -38.44516 -38.44397 -38.44135 -38.44120 -38.43488
  Beta  occ. eigenvalues --  -38.42983 -38.42864  -2.20302  -2.20246  -2.19975
  Beta  occ. eigenvalues --   -2.19946  -2.19335  -2.18835  -2.18677  -1.13986
  Beta  occ. eigenvalues --   -1.13962  -1.13945  -1.13939  -1.13934  -1.13856
  Beta  occ. eigenvalues --   -1.13695  -1.13655  -1.13641  -1.13617  -1.13590
  Beta  occ. eigenvalues --   -1.13558  -1.13044  -1.13018  -1.12976  -1.12518
  Beta  occ. eigenvalues --   -1.12496  -1.12463  -1.12352  -1.12343  -1.12309
  Beta  occ. eigenvalues --   -0.17408  -0.13438  -0.11285
  Beta virt. eigenvalues --   -0.07253  -0.06335  -0.04584  -0.04154  -0.02984
  Beta virt. eigenvalues --   -0.02387  -0.02193  -0.01548  -0.00842  -0.00505
  Beta virt. eigenvalues --   -0.00148   0.00184   0.00232   0.00393   0.00837

 Mulliken charges and spin densities:
               1          2
     1  Na  -0.238517   0.050057
     2  Na  -0.001491   0.041025
     3  Na  -0.672444   0.251329
     4  Na  -0.239807   0.009593
     5  Na   0.677439   0.214779
     6  Na   0.394524   0.009649
     7  Na   0.080296   0.423568
 Sum of Mulliken charges =  -0.00000   1.00000

 Dipole moment (field-independent basis, Debye):
    X=              0.5469    Y=             -0.1743    Z=             -0.2752  Tot=              0.6366
 Quadrupole moment (field-independent basis, Debye-Ang):
   XX=            -52.5832   YY=            -72.4518   ZZ=            -68.3075
   XY=             -0.3786   XZ=             -0.6512   YZ=             -1.2674

 Normal termination of Gaussian 16 at Tue Dec  5 13:23:22 2023.
