 Gaussian 16, Revision B.01,
 Gaussian 16:  ES64L-G16RevB.01 20-Dec-2017

 -------------------------
 #P B3LYP/6-311+g(d) force
 -------------------------

 -----
 DPGEN
 -----
 Symbolic Z-matrix:
 Charge =  0 Multiplicity = 2

                         Standard orientation:
 ---------------------------------------------------------------------
 Center     Atomic      Atomic             Coordinates (Angstroms)
 Number     Number       Type             X           Y           Z
 ---------------------------------------------------------------------
      1         11           0        3.304383   -0.429590   -0.344821
      2         11           0       -0.368486    0.072092   -1.553691
      3         11           0       -2.968710   -1.312765    0.047090
      4         11           0        0.527676   -2.690111   -0.189414
      5         11           0       -2.154856    2.161741   -0.164612
      6         11           0        0.132460   -0.192202    2.090896
      7         11           0        1.527533    2.390836    0.114551
 ---------------------------------------------------------------------

 SCF Done:  E(UB3LYP) =  -1136.13650843     A.U. after   19 cycles

 The electronic state is 2-A.
 Alpha  occ. eigenvalues --  -38.44304 -38.44288 -38.43620 -38.43540 -38.43275
 Alpha  occ. eigenvalues --  -38.43178 -38.43147  -2.20114  -2.20107  -2.19475
 Alpha  occ. eigenvalues --   -2.19427  -2.19186  -2.19132  -2.19017  -1.13787
 Alpha  occ. eigenvalues --   -1.13781  -1.13777  -1.13769  -1.13756  -1.13741
 Alpha  occ. eigenvalues --   -1.13216  -1.13128  -1.13098  -1.13094  -1.13058
 Alpha  occ. eigenvalues --   -1.13041  -1.12883  -1.12859  -1.12819  -1.12801
 Alpha  occ. eigenvalues --   -1.12777  -1.12758  -1.12690  -1.12685  -1.12623
 Alpha  occ. eigenvalues --   -0.18658  -0.13178  -0.12277  -0.10670
 Alpha virt. eigenvalues --   -0.05972  -0.05263  -0.04346  -0.03198  -0.02773
 Alpha virt. eigenvalues --   -0.02506  -0.01821  -0.01143  -0.00381  -0.00247
 Alpha virt. eigenvalues --   -0.00028   0.00324   0.00758   0.00861   0.00897

  Beta  occ. eigenvalues --  -38.44298 -38.44286 -38.43616 -38.43438 -38.43269
  Beta  occ. eigenvalues --  -38.43138 -38.43123  -2.20107  -2.20105  -2.19470
  Beta  occ. eigenvalues --   -2.19240  -2.19125  -2.19086  -2.19006  -1.13778
  Beta  occ. eigenvalues --   -1.13775  -1.13761  -1.13757  -1.13752  -1.13740
  Beta  occ. eigenvalues --   -1.13203  -1.13110  -1.13093  -1.12975  -1.12926
  Beta  occ. eigenvalues --   -1.12909  -1.12827  -1.12820  -1.12773  -1.12766
  Beta  occ. eigenvalues --   -1.12757  -1.12716  -1.12673  -1.12645  -1.12617
  Beta  occ. eigenvalues --   -0.17939  -0.12958  -0.12031
  Beta virt. eigenvalues --   -0.06751  -0.05912  -0.05255  -0.04323  -0.02450
  Beta virt. eigenvalues --   -0.01983  -0.01730  -0.01430  -0.01089  -0.00429
  Beta virt. eigenvalues --   -0.00280   0.00124   0.00358   0.00824   0.00859

 Mulliken charges and spin densities:
               1          2
     1  Na   0.022488  -0.010649
     2  Na  -0.362153   0.401847
     3  Na   0.221561  -0.053500
     4  Na   0.202211  -0.042344
     5  Na   0.248975  -0.045716
     6  Na  -0.533526   0.759135
     7  Na   0.200445  -0.008773
 Sum of Mulliken charges =  -0.00000   1.00000

 Dipole moment (field-independent basis, Debye):
    X=             -0.1512    Y=             -0.1263    Z=              0.1618  Tot=              0.2549
 Quadrupole moment (field-independent basis, Debye-Ang):
   XX=            -52.8126   YY=            -65.0273   ZZ=            -74.8186
   XY=              0.2265   XZ=             -1.3558   YZ=              0.5418

 Normal termination of Gaussian 16 at Thu Dec  7 20:47:36 2023.
