 Gaussian 16, Revision B.01,
 Gaussian 16:  ES64L-G16RevB.01 20-Dec-2017

 -------------------------
 #P B3LYP/6-311+g(d) force
 -------------------------

 -----
 DPGEN
 -----
 Symbolic Z-matrix:
 Charge =  0 Multiplicity = 2

                         Standard orientation:
 ---------------------------------------------------------------------
 Center     Atomic      Atomic             Coordinates (Angstroms)
 Number     Number       Type             X           Y           Z
 ---------------------------------------------------------------------
      1         11           0       -0.232155   -0.936412   -0.610623
      2         11           0        3.010447    2.612269    0.196084
      3         11           0       -5.647311    0.841769    0.817716
      4         11           0       -4.304369   -1.626207   -0.381963
      5         11           0        0.013197    2.805408   -0.588170
      6         11           0        2.562476   -3.258768    0.175516
      7         11           0        4.597715   -0.438058    0.391440
 ---------------------------------------------------------------------

 SCF Done:  E(UB3LYP) =  -1136.11067152     A.U. after   19 cycles

 The electronic state is 2-A.
 Alpha  occ. eigenvalues --  -38.45059 -38.45036 -38.44696 -38.44414 -38.43870
 Alpha  occ. eigenvalues --  -38.43724 -38.43682  -2.20861  -2.20808  -2.20484
 Alpha  occ. eigenvalues --   -2.20216  -2.19697  -2.19495  -2.19491  -1.14547
 Alpha  occ. eigenvalues --   -1.14502  -1.14498  -1.14488  -1.14444  -1.14417
 Alpha  occ. eigenvalues --   -1.14146  -1.14134  -1.14131  -1.13881  -1.13876
 Alpha  occ. eigenvalues --   -1.13828  -1.13391  -1.13360  -1.13353  -1.13168
 Alpha  occ. eigenvalues --   -1.13152  -1.13151  -1.13143  -1.13142  -1.13120
 Alpha  occ. eigenvalues --   -0.15898  -0.14079  -0.12014  -0.11583
 Alpha virt. eigenvalues --   -0.06755  -0.05163  -0.04757  -0.03704  -0.03236
 Alpha virt. eigenvalues --   -0.02589  -0.01818  -0.01352  -0.01164  -0.00851
 Alpha virt. eigenvalues --   -0.00617  -0.00476   0.00129   0.00343   0.00612

  Beta  occ. eigenvalues --  -38.45017 -38.44952 -38.44704 -38.44351 -38.43844
  Beta  occ. eigenvalues --  -38.43732 -38.43672  -2.20781  -2.20652  -2.20502
  Beta  occ. eigenvalues --   -2.20099  -2.19651  -2.19507  -2.19475  -1.14499
  Beta  occ. eigenvalues --   -1.14448  -1.14443  -1.14384  -1.14340  -1.14304
  Beta  occ. eigenvalues --   -1.14162  -1.14147  -1.14118  -1.13803  -1.13795
  Beta  occ. eigenvalues --   -1.13746  -1.13357  -1.13332  -1.13316  -1.13180
  Beta  occ. eigenvalues --   -1.13160  -1.13144  -1.13139  -1.13121  -1.13103
  Beta  occ. eigenvalues --   -0.15091  -0.13545  -0.12042
  Beta virt. eigenvalues --   -0.08087  -0.06237  -0.04773  -0.04244  -0.03472
  Beta virt. eigenvalues --   -0.02858  -0.02460  -0.01642  -0.01337  -0.01019
  Beta virt. eigenvalues --   -0.00562  -0.00362  -0.00089   0.00297   0.00483

 Mulliken charges and spin densities:
               1          2
     1  Na  -0.695899   0.499052
     2  Na   0.245656   0.142279
     3  Na   0.090838   0.188688
     4  Na  -0.133710  -0.056047
     5  Na   0.198885  -0.027047
     6  Na   0.600485  -0.090621
     7  Na  -0.306253   0.343697
 Sum of Mulliken charges =  -0.00000   1.00000

 Dipole moment (field-independent basis, Debye):
    X=             -1.4661    Y=              0.1569    Z=              0.2059  Tot=              1.4888
 Quadrupole moment (field-independent basis, Debye-Ang):
   XX=            -59.9527   YY=            -63.4984   ZZ=            -73.0991
   XY=             -3.9821   XZ=             -0.4803   YZ=              2.8040

 Normal termination of Gaussian 16 at Sun Dec  3 14:01:09 2023.
