 Gaussian 16, Revision B.01,
 Gaussian 16:  ES64L-G16RevB.01 20-Dec-2017

 -------------------------
 #P B3LYP/6-311+g(d) force
 -------------------------

 -----
 DPGEN
 -----
 Symbolic Z-matrix:
 Charge =  0 Multiplicity = 2

                         Standard orientation:
 ---------------------------------------------------------------------
 Center     Atomic      Atomic             Coordinates (Angstroms)
 Number     Number       Type             X           Y           Z
 ---------------------------------------------------------------------
      1         11           0       -0.356518   -2.487659    0.786805
      2         11           0        2.592555   -0.598331    1.726767
      3         11           0       -0.432856    3.187549   -0.141331
      4         11           0       -3.555047    1.263498    0.361153
      5         11           0       -3.234446   -1.912942   -0.721782
      6         11           0        2.230255    2.208926   -0.448952
      7         11           0        2.756056   -1.661040   -1.562659
 ---------------------------------------------------------------------

 SCF Done:  E(UB3LYP) =  -1136.10950230     A.U. after   27 cycles

 The electronic state is 2-A.
 Alpha  occ. eigenvalues --  -38.45077 -38.45009 -38.44763 -38.44702 -38.44030
 Alpha  occ. eigenvalues --  -38.44006 -38.43553  -2.20874  -2.20781  -2.20558
 Alpha  occ. eigenvalues --   -2.20550  -2.19834  -2.19833  -2.19384  -1.14545
 Alpha  occ. eigenvalues --   -1.14534  -1.14524  -1.14452  -1.14435  -1.14424
 Alpha  occ. eigenvalues --   -1.14324  -1.14233  -1.14222  -1.14202  -1.14200
 Alpha  occ. eigenvalues --   -1.14168  -1.13513  -1.13507  -1.13497  -1.13471
 Alpha  occ. eigenvalues --   -1.13458  -1.13454  -1.13035  -1.13018  -1.12997
 Alpha  occ. eigenvalues --   -0.16716  -0.13953  -0.13027  -0.09733
 Alpha virt. eigenvalues --   -0.07397  -0.06585  -0.03966  -0.03618  -0.02959
 Alpha virt. eigenvalues --   -0.02186  -0.02127  -0.01715  -0.01539  -0.00764
 Alpha virt. eigenvalues --   -0.00359   0.00023   0.00191   0.00370   0.00522

  Beta  occ. eigenvalues --  -38.45067 -38.44986 -38.44766 -38.44691 -38.44005
  Beta  occ. eigenvalues --  -38.43992 -38.43453  -2.20859  -2.20737  -2.20567
  Beta  occ. eigenvalues --   -2.20533  -2.19832  -2.19764  -2.19197  -1.14533
  Beta  occ. eigenvalues --   -1.14519  -1.14495  -1.14420  -1.14406  -1.14396
  Beta  occ. eigenvalues --   -1.14308  -1.14236  -1.14226  -1.14197  -1.14183
  Beta  occ. eigenvalues --   -1.14152  -1.13509  -1.13469  -1.13452  -1.13452
  Beta  occ. eigenvalues --   -1.13450  -1.13411  -1.12908  -1.12887  -1.12871
  Beta  occ. eigenvalues --   -0.16289  -0.13594  -0.12720
  Beta virt. eigenvalues --   -0.07218  -0.06475  -0.06040  -0.03848  -0.03381
  Beta virt. eigenvalues --   -0.02614  -0.01863  -0.01745  -0.01473  -0.01138
  Beta virt. eigenvalues --   -0.00652  -0.00034   0.00121   0.00387   0.00518

 Mulliken charges and spin densities:
               1          2
     1  Na  -0.531567   0.138244
     2  Na   0.572320   0.190792
     3  Na   0.047214  -0.108316
     4  Na  -0.102949   0.162898
     5  Na   0.219734   0.003435
     6  Na  -0.052734   0.125495
     7  Na  -0.152019   0.487452
 Sum of Mulliken charges =  -0.00000   1.00000

 Dipole moment (field-independent basis, Debye):
    X=             -0.8420    Y=              0.0882    Z=              0.5475  Tot=              1.0082
 Quadrupole moment (field-independent basis, Debye-Ang):
   XX=            -63.0698   YY=            -69.0844   ZZ=            -71.4849
   XY=              3.2638   XZ=              5.7753   YZ=              1.9151

 Normal termination of Gaussian 16 at Mon Dec  4 05:23:43 2023.
