 Gaussian 16, Revision B.01,
 Gaussian 16:  ES64L-G16RevB.01 20-Dec-2017

 -------------------------
 #P B3LYP/6-311+g(d) force
 -------------------------

 -----
 DPGEN
 -----
 Symbolic Z-matrix:
 Charge =  0 Multiplicity = 2

                         Standard orientation:
 ---------------------------------------------------------------------
 Center     Atomic      Atomic             Coordinates (Angstroms)
 Number     Number       Type             X           Y           Z
 ---------------------------------------------------------------------
      1         11           0        1.331918   -0.029135    1.661780
      2         11           0        2.355386   -2.201964   -0.459351
      3         11           0       -1.688422    1.262780    1.410708
      4         11           0        0.541508   -0.047899   -1.712511
      5         11           0       -1.514028   -2.379314    0.582657
      6         11           0        1.913496    2.835845   -0.267996
      7         11           0       -2.939858    0.559687   -1.215287
 ---------------------------------------------------------------------

 SCF Done:  E(UB3LYP) =  -1136.12876539     A.U. after   20 cycles

 The electronic state is 2-A.
 Alpha  occ. eigenvalues --  -38.44292 -38.43958 -38.43810 -38.43670 -38.43599
 Alpha  occ. eigenvalues --  -38.43538 -38.43452  -2.20082  -2.19822  -2.19704
 Alpha  occ. eigenvalues --   -2.19533  -2.19481  -2.19396  -2.19384  -1.13769
 Alpha  occ. eigenvalues --   -1.13753  -1.13697  -1.13602  -1.13475  -1.13434
 Alpha  occ. eigenvalues --   -1.13396  -1.13324  -1.13307  -1.13284  -1.13233
 Alpha  occ. eigenvalues --   -1.13157  -1.13138  -1.13107  -1.13083  -1.13077
 Alpha  occ. eigenvalues --   -1.13060  -1.13039  -1.13029  -1.13023  -1.12971
 Alpha  occ. eigenvalues --   -0.18474  -0.13084  -0.11840  -0.11382
 Alpha virt. eigenvalues --   -0.05776  -0.05072  -0.04430  -0.03421  -0.02997
 Alpha virt. eigenvalues --   -0.02791  -0.01445  -0.01255  -0.00495   0.00170
 Alpha virt. eigenvalues --    0.00261   0.00386   0.00453   0.00756   0.00832

  Beta  occ. eigenvalues --  -38.44280 -38.43932 -38.43777 -38.43665 -38.43601
  Beta  occ. eigenvalues --  -38.43472 -38.43398  -2.20062  -2.19775  -2.19647
  Beta  occ. eigenvalues --   -2.19525  -2.19390  -2.19362  -2.19298  -1.13744
  Beta  occ. eigenvalues --   -1.13730  -1.13688  -1.13568  -1.13431  -1.13402
  Beta  occ. eigenvalues --   -1.13345  -1.13276  -1.13274  -1.13249  -1.13211
  Beta  occ. eigenvalues --   -1.13133  -1.13085  -1.13059  -1.13052  -1.13030
  Beta  occ. eigenvalues --   -1.13016  -1.13007  -1.12990  -1.12953  -1.12908
  Beta  occ. eigenvalues --   -0.17700  -0.12913  -0.11654
  Beta virt. eigenvalues --   -0.07416  -0.05734  -0.04870  -0.03954  -0.03147
  Beta virt. eigenvalues --   -0.02301  -0.01914  -0.01327  -0.01181  -0.00176
  Beta virt. eigenvalues --    0.00171   0.00279   0.00418   0.00566   0.00758

 Mulliken charges and spin densities:
               1          2
     1  Na   0.036481   0.348567
     2  Na   0.404747  -0.043851
     3  Na  -0.001294   0.113681
     4  Na  -0.346403   0.465575
     5  Na  -0.335086   0.092924
     6  Na  -0.040163  -0.023243
     7  Na   0.281719   0.046347
 Sum of Mulliken charges =  -0.00000   1.00000

 Dipole moment (field-independent basis, Debye):
    X=             -0.2163    Y=             -0.2877    Z=             -0.0625  Tot=              0.3654
 Quadrupole moment (field-independent basis, Debye-Ang):
   XX=            -60.7307   YY=            -64.4713   ZZ=            -68.9851
   XY=             -0.0767   XZ=              0.4227   YZ=             -1.2169

 Normal termination of Gaussian 16 at Thu Dec  7 16:35:45 2023.
