 Gaussian 16, Revision B.01,
 Gaussian 16:  ES64L-G16RevB.01 20-Dec-2017

 -------------------------
 #P B3LYP/6-311+g(d) force
 -------------------------

 -----
 DPGEN
 -----
 Symbolic Z-matrix:
 Charge =  0 Multiplicity = 2

                         Standard orientation:
 ---------------------------------------------------------------------
 Center     Atomic      Atomic             Coordinates (Angstroms)
 Number     Number       Type             X           Y           Z
 ---------------------------------------------------------------------
      1         11           0       -0.191793   -2.135029    1.221776
      2         11           0        2.212326    0.749117    1.276191
      3         11           0       -2.501187    1.114590    1.104974
      4         11           0        0.085586    0.034049   -1.567689
      5         11           0        0.979579    3.353121   -0.537350
      6         11           0        3.173863   -2.059517   -0.691610
      7         11           0       -3.758373   -1.056332   -0.806293
 ---------------------------------------------------------------------

 SCF Done:  E(UB3LYP) =  -1136.12523452     A.U. after   22 cycles

 The electronic state is 2-A.
 Alpha  occ. eigenvalues --  -38.44695 -38.44565 -38.44256 -38.44204 -38.43921
 Alpha  occ. eigenvalues --  -38.43826 -38.42888  -2.20500  -2.20363  -2.20036
 Alpha  occ. eigenvalues --   -2.20007  -2.19765  -2.19682  -2.18686  -1.14204
 Alpha  occ. eigenvalues --   -1.14163  -1.14145  -1.14018  -1.14013  -1.13979
 Alpha  occ. eigenvalues --   -1.13716  -1.13710  -1.13697  -1.13679  -1.13660
 Alpha  occ. eigenvalues --   -1.13595  -1.13453  -1.13438  -1.13384  -1.13375
 Alpha  occ. eigenvalues --   -1.13314  -1.13302  -1.12356  -1.12349  -1.12331
 Alpha  occ. eigenvalues --   -0.17568  -0.13443  -0.11758  -0.10092
 Alpha virt. eigenvalues --   -0.06538  -0.05637  -0.04717  -0.03444  -0.02675
 Alpha virt. eigenvalues --   -0.02211  -0.02102  -0.01498  -0.00789  -0.00444
 Alpha virt. eigenvalues --    0.00011   0.00255   0.00306   0.00517   0.00639

  Beta  occ. eigenvalues --  -38.44681 -38.44555 -38.44244 -38.44164 -38.43896
  Beta  occ. eigenvalues --  -38.43770 -38.42889  -2.20475  -2.20346  -2.20015
  Beta  occ. eigenvalues --   -2.19936  -2.19720  -2.19581  -2.18689  -1.14185
  Beta  occ. eigenvalues --   -1.14141  -1.14123  -1.14006  -1.13991  -1.13968
  Beta  occ. eigenvalues --   -1.13702  -1.13671  -1.13665  -1.13646  -1.13605
  Beta  occ. eigenvalues --   -1.13549  -1.13422  -1.13388  -1.13347  -1.13307
  Beta  occ. eigenvalues --   -1.13240  -1.13228  -1.12355  -1.12343  -1.12332
  Beta  occ. eigenvalues --   -0.16905  -0.13282  -0.11605
  Beta virt. eigenvalues --   -0.06513  -0.06326  -0.05364  -0.04576  -0.02963
  Beta virt. eigenvalues --   -0.02267  -0.02003  -0.01362  -0.01310  -0.00584
  Beta virt. eigenvalues --   -0.00298   0.00113   0.00288   0.00459   0.00647

 Mulliken charges and spin densities:
               1          2
     1  Na  -0.191811   0.176000
     2  Na   0.088377   0.295346
     3  Na  -0.074068   0.135496
     4  Na  -0.380014   0.633310
     5  Na   0.156365  -0.163599
     6  Na   0.146814  -0.057577
     7  Na   0.254338  -0.018976
 Sum of Mulliken charges =  -0.00000   1.00000

 Dipole moment (field-independent basis, Debye):
    X=             -0.5204    Y=             -0.5836    Z=              0.1533  Tot=              0.7968
 Quadrupole moment (field-independent basis, Debye-Ang):
   XX=            -53.0428   YY=            -65.9703   ZZ=            -73.7321
   XY=             -0.7207   XZ=              0.5893   YZ=              2.0952

 Normal termination of Gaussian 16 at Thu Dec  7 14:43:10 2023.
