 Gaussian 16, Revision B.01,
 Gaussian 16:  ES64L-G16RevB.01 20-Dec-2017

 -------------------------
 #P B3LYP/6-311+g(d) force
 -------------------------

 -----
 DPGEN
 -----
 Symbolic Z-matrix:
 Charge =  0 Multiplicity = 2

                         Standard orientation:
 ---------------------------------------------------------------------
 Center     Atomic      Atomic             Coordinates (Angstroms)
 Number     Number       Type             X           Y           Z
 ---------------------------------------------------------------------
      1         11           0       -1.825907    3.250094   -0.437137
      2         11           0       -3.100605   -0.211758    0.929799
      3         11           0        2.646010   -1.546308   -0.131364
      4         11           0       -0.417574   -0.538402    1.696278
      5         11           0       -1.296153   -2.804406   -0.928105
      6         11           0       -0.224702    0.517312   -1.508422
      7         11           0        4.218932    1.333469    0.378951
 ---------------------------------------------------------------------

 SCF Done:  E(UB3LYP) =  -1136.11762167     A.U. after   21 cycles

 The electronic state is 2-A.
 Alpha  occ. eigenvalues --  -38.44801 -38.44757 -38.44489 -38.44032 -38.43698
 Alpha  occ. eigenvalues --  -38.43593 -38.43152  -2.20692  -2.20561  -2.20390
 Alpha  occ. eigenvalues --   -2.19844  -2.19524  -2.19491  -2.18939  -1.14548
 Alpha  occ. eigenvalues --   -1.14349  -1.14273  -1.14225  -1.14219  -1.14195
 Alpha  occ. eigenvalues --   -1.14036  -1.14000  -1.13952  -1.13536  -1.13522
 Alpha  occ. eigenvalues --   -1.13458  -1.13209  -1.13195  -1.13175  -1.13161
 Alpha  occ. eigenvalues --   -1.13127  -1.13092  -1.12608  -1.12604  -1.12570
 Alpha  occ. eigenvalues --   -0.17975  -0.13403  -0.11717  -0.10821
 Alpha virt. eigenvalues --   -0.06731  -0.05225  -0.04560  -0.03204  -0.02754
 Alpha virt. eigenvalues --   -0.02245  -0.02186  -0.01588  -0.00949  -0.00470
 Alpha virt. eigenvalues --   -0.00076   0.00090   0.00434   0.00610   0.00739

  Beta  occ. eigenvalues --  -38.44784 -38.44704 -38.44437 -38.44031 -38.43678
  Beta  occ. eigenvalues --  -38.43533 -38.43145  -2.20599  -2.20530  -2.20298
  Beta  occ. eigenvalues --   -2.19844  -2.19488  -2.19380  -2.18928  -1.14470
  Beta  occ. eigenvalues --   -1.14266  -1.14214  -1.14204  -1.14195  -1.14176
  Beta  occ. eigenvalues --   -1.13956  -1.13940  -1.13889  -1.13536  -1.13521
  Beta  occ. eigenvalues --   -1.13443  -1.13180  -1.13146  -1.13127  -1.13118
  Beta  occ. eigenvalues --   -1.13060  -1.13004  -1.12598  -1.12588  -1.12565
  Beta  occ. eigenvalues --   -0.17335  -0.13073  -0.11435
  Beta virt. eigenvalues --   -0.07119  -0.06466  -0.05138  -0.04369  -0.02687
  Beta virt. eigenvalues --   -0.02205  -0.02084  -0.01560  -0.01359  -0.00746
  Beta virt. eigenvalues --   -0.00394   0.00031   0.00189   0.00585   0.00634

 Mulliken charges and spin densities:
               1          2
     1  Na  -0.238496  -0.032686
     2  Na   0.373061   0.132355
     3  Na   0.208318   0.052124
     4  Na   0.050432   0.255820
     5  Na  -0.085272   0.124055
     6  Na  -0.131897   0.410105
     7  Na  -0.176146   0.058227
 Sum of Mulliken charges =  -0.00000   1.00000

 Dipole moment (field-independent basis, Debye):
    X=              0.2526    Y=             -0.2891    Z=              0.0685  Tot=              0.3899
 Quadrupole moment (field-independent basis, Debye-Ang):
   XX=            -57.6435   YY=            -63.7183   ZZ=            -73.8194
   XY=              4.1119   XZ=              1.2218   YZ=              3.4270

 Normal termination of Gaussian 16 at Tue Dec  5 20:50:28 2023.
