 Gaussian 16, Revision B.01,
 Gaussian 16:  ES64L-G16RevB.01 20-Dec-2017

 -------------------------
 #P B3LYP/6-311+g(d) force
 -------------------------

 -----
 DPGEN
 -----
 Symbolic Z-matrix:
 Charge =  0 Multiplicity = 2

                         Standard orientation:
 ---------------------------------------------------------------------
 Center     Atomic      Atomic             Coordinates (Angstroms)
 Number     Number       Type             X           Y           Z
 ---------------------------------------------------------------------
      1         11           0       -3.419508   -1.350526    1.132212
      2         11           0       -2.867074    1.047147   -1.015251
      3         11           0        3.232431   -2.121240   -0.553699
      4         11           0       -0.383417    0.292260    1.082329
      5         11           0       -0.500511   -1.598779   -1.089734
      6         11           0        0.680806    2.950012   -0.455454
      7         11           0        3.257273    0.781126    0.899598
 ---------------------------------------------------------------------

 SCF Done:  E(UB3LYP) =  -1136.11800423     A.U. after   24 cycles

 The electronic state is 2-A.
 Alpha  occ. eigenvalues --  -38.45127 -38.44447 -38.44129 -38.44114 -38.43988
 Alpha  occ. eigenvalues --  -38.43886 -38.43047  -2.20990  -2.20425  -2.20019
 Alpha  occ. eigenvalues --   -2.19944  -2.19772  -2.19763  -2.18858  -1.14667
 Alpha  occ. eigenvalues --   -1.14655  -1.14615  -1.14266  -1.14075  -1.14021
 Alpha  occ. eigenvalues --   -1.13724  -1.13650  -1.13627  -1.13615  -1.13573
 Alpha  occ. eigenvalues --   -1.13571  -1.13443  -1.13427  -1.13426  -1.13409
 Alpha  occ. eigenvalues --   -1.13406  -1.13370  -1.12541  -1.12529  -1.12491
 Alpha  occ. eigenvalues --   -0.18282  -0.14183  -0.11736  -0.10207
 Alpha virt. eigenvalues --   -0.07049  -0.05410  -0.04972  -0.03120  -0.02845
 Alpha virt. eigenvalues --   -0.02428  -0.01705  -0.01484  -0.00750  -0.00348
 Alpha virt. eigenvalues --   -0.00147   0.00067   0.00359   0.00465   0.00658

  Beta  occ. eigenvalues --  -38.45099 -38.44434 -38.44088 -38.44076 -38.43994
  Beta  occ. eigenvalues --  -38.43822 -38.43053  -2.20942  -2.20405  -2.19924
  Beta  occ. eigenvalues --   -2.19895  -2.19785  -2.19643  -2.18872  -1.14634
  Beta  occ. eigenvalues --   -1.14607  -1.14571  -1.14231  -1.14049  -1.14005
  Beta  occ. eigenvalues --   -1.13666  -1.13595  -1.13585  -1.13566  -1.13544
  Beta  occ. eigenvalues --   -1.13510  -1.13453  -1.13423  -1.13408  -1.13344
  Beta  occ. eigenvalues --   -1.13322  -1.13292  -1.12553  -1.12540  -1.12481
  Beta  occ. eigenvalues --   -0.17679  -0.13892  -0.11492
  Beta virt. eigenvalues --   -0.06876  -0.06690  -0.05146  -0.04444  -0.02887
  Beta virt. eigenvalues --   -0.02633  -0.01988  -0.01286  -0.01094  -0.00471
  Beta virt. eigenvalues --   -0.00165  -0.00052   0.00186   0.00508   0.00639

 Mulliken charges and spin densities:
               1          2
     1  Na   0.878518   0.328512
     2  Na   0.219565   0.210789
     3  Na  -0.333400  -0.021979
     4  Na  -1.046741   0.045763
     5  Na  -0.327838   0.269298
     6  Na  -0.075671   0.018755
     7  Na   0.685567   0.148861
 Sum of Mulliken charges =  -0.00000   1.00000

 Dipole moment (field-independent basis, Debye):
    X=             -0.6381    Y=              0.1842    Z=             -0.7329  Tot=              0.9891
 Quadrupole moment (field-independent basis, Debye-Ang):
   XX=            -52.7456   YY=            -70.0242   ZZ=            -72.8005
   XY=             -1.4599   XZ=              3.2047   YZ=             -2.0325

 Normal termination of Gaussian 16 at Sat Dec  9 05:49:11 2023.
