 Gaussian 16, Revision B.01,
 Gaussian 16:  ES64L-G16RevB.01 20-Dec-2017

 -------------------------
 #P B3LYP/6-311+g(d) force
 -------------------------

 -----
 DPGEN
 -----
 Symbolic Z-matrix:
 Charge =  0 Multiplicity = 2

                         Standard orientation:
 ---------------------------------------------------------------------
 Center     Atomic      Atomic             Coordinates (Angstroms)
 Number     Number       Type             X           Y           Z
 ---------------------------------------------------------------------
      1         11           0        0.144705   -2.230824    1.137251
      2         11           0       -3.052608   -1.496273   -0.038890
      3         11           0       -0.282129    0.048369   -1.185895
      4         11           0        1.361558    2.993090    0.037161
      5         11           0        2.602550   -1.312217   -1.766869
      6         11           0        1.975709    0.127487    1.889101
      7         11           0       -2.749786    1.870367   -0.071859
 ---------------------------------------------------------------------

 SCF Done:  E(UB3LYP) =  -1136.12773609     A.U. after   20 cycles

 The electronic state is 2-A.
 Alpha  occ. eigenvalues --  -38.44540 -38.44258 -38.43907 -38.43902 -38.43544
 Alpha  occ. eigenvalues --  -38.43205 -38.43202  -2.20368  -2.20064  -2.19778
 Alpha  occ. eigenvalues --   -2.19746  -2.19329  -2.19200  -2.19105  -1.14047
 Alpha  occ. eigenvalues --   -1.13992  -1.13969  -1.13756  -1.13735  -1.13686
 Alpha  occ. eigenvalues --   -1.13486  -1.13423  -1.13410  -1.13408  -1.13398
 Alpha  occ. eigenvalues --   -1.13377  -1.13002  -1.12993  -1.12968  -1.12921
 Alpha  occ. eigenvalues --   -1.12863  -1.12828  -1.12791  -1.12743  -1.12712
 Alpha  occ. eigenvalues --   -0.18064  -0.13344  -0.11954  -0.11277
 Alpha virt. eigenvalues --   -0.05848  -0.05454  -0.04443  -0.03309  -0.02733
 Alpha virt. eigenvalues --   -0.02663  -0.01706  -0.01156  -0.00577  -0.00313
 Alpha virt. eigenvalues --   -0.00146   0.00321   0.00565   0.00775   0.00846

  Beta  occ. eigenvalues --  -38.44453 -38.44263 -38.43909 -38.43840 -38.43541
  Beta  occ. eigenvalues --  -38.43176 -38.43168  -2.20208  -2.20073  -2.19749
  Beta  occ. eigenvalues --   -2.19665  -2.19324  -2.19142  -2.19054  -1.13925
  Beta  occ. eigenvalues --   -1.13884  -1.13864  -1.13760  -1.13739  -1.13694
  Beta  occ. eigenvalues --   -1.13425  -1.13409  -1.13403  -1.13381  -1.13330
  Beta  occ. eigenvalues --   -1.13317  -1.12992  -1.12987  -1.12966  -1.12879
  Beta  occ. eigenvalues --   -1.12802  -1.12793  -1.12750  -1.12695  -1.12676
  Beta  occ. eigenvalues --   -0.17480  -0.13047  -0.11780
  Beta virt. eigenvalues --   -0.07244  -0.05713  -0.05239  -0.04260  -0.02936
  Beta virt. eigenvalues --   -0.02196  -0.01895  -0.01346  -0.01040  -0.00418
  Beta virt. eigenvalues --   -0.00158  -0.00019   0.00392   0.00714   0.00789

 Mulliken charges and spin densities:
               1          2
     1  Na  -0.474411   0.210762
     2  Na   0.313148  -0.052512
     3  Na   0.134279   0.504342
     4  Na  -0.197529  -0.025149
     5  Na   0.140958   0.110479
     6  Na   0.087232   0.300944
     7  Na  -0.003676  -0.048866
 Sum of Mulliken charges =  -0.00000   1.00000

 Dipole moment (field-independent basis, Debye):
    X=             -0.2379    Y=             -0.0156    Z=              0.1104  Tot=              0.2627
 Quadrupole moment (field-independent basis, Debye-Ang):
   XX=            -55.7835   YY=            -65.8257   ZZ=            -71.8541
   XY=             -0.2392   XZ=             -1.9867   YZ=              0.9482

 Normal termination of Gaussian 16 at Wed Nov 29 01:13:45 2023.
