 Gaussian 16, Revision B.01,
 Gaussian 16:  ES64L-G16RevB.01 20-Dec-2017

 -------------------------
 #P B3LYP/6-311+g(d) force
 -------------------------

 -----
 DPGEN
 -----
 Symbolic Z-matrix:
 Charge =  0 Multiplicity = 2

                         Standard orientation:
 ---------------------------------------------------------------------
 Center     Atomic      Atomic             Coordinates (Angstroms)
 Number     Number       Type             X           Y           Z
 ---------------------------------------------------------------------
      1         11           0       -0.614950   -2.819668    0.477416
      2         11           0       -0.219891    3.370385    1.017845
      3         11           0        3.019469   -1.325301    1.608482
      4         11           0        1.030312    1.192047   -0.610814
      5         11           0       -3.336718    1.427304   -0.265307
      6         11           0        4.120320   -0.102623   -1.663106
      7         11           0       -3.998540   -1.742144   -0.564517
 ---------------------------------------------------------------------

 SCF Done:  E(UB3LYP) =  -1136.11449171     A.U. after   21 cycles

 The electronic state is 2-A.
 Alpha  occ. eigenvalues --  -38.45409 -38.44872 -38.44592 -38.44173 -38.44147
 Alpha  occ. eigenvalues --  -38.43555 -38.43351  -2.21153  -2.20651  -2.20339
 Alpha  occ. eigenvalues --   -2.20023  -2.19966  -2.19359  -2.19184  -1.14841
 Alpha  occ. eigenvalues --   -1.14807  -1.14790  -1.14340  -1.14320  -1.14264
 Alpha  occ. eigenvalues --   -1.14024  -1.14009  -1.13938  -1.13761  -1.13699
 Alpha  occ. eigenvalues --   -1.13649  -1.13612  -1.13604  -1.13562  -1.13031
 Alpha  occ. eigenvalues --   -1.13023  -1.12992  -1.12870  -1.12825  -1.12795
 Alpha  occ. eigenvalues --   -0.16281  -0.13866  -0.12361  -0.10632
 Alpha virt. eigenvalues --   -0.06872  -0.05233  -0.05040  -0.03302  -0.02789
 Alpha virt. eigenvalues --   -0.02538  -0.01911  -0.01612  -0.01079  -0.00943
 Alpha virt. eigenvalues --   -0.00556  -0.00018   0.00180   0.00285   0.00648

  Beta  occ. eigenvalues --  -38.45405 -38.44846 -38.44549 -38.44163 -38.44060
  Beta  occ. eigenvalues --  -38.43541 -38.43334  -2.21150  -2.20604  -2.20260
  Beta  occ. eigenvalues --   -2.20008  -2.19802  -2.19335  -2.19152  -1.14840
  Beta  occ. eigenvalues --   -1.14803  -1.14766  -1.14311  -1.14293  -1.14214
  Beta  occ. eigenvalues --   -1.13971  -1.13955  -1.13880  -1.13740  -1.13678
  Beta  occ. eigenvalues --   -1.13632  -1.13503  -1.13494  -1.13461  -1.13008
  Beta  occ. eigenvalues --   -1.13005  -1.12975  -1.12845  -1.12802  -1.12777
  Beta  occ. eigenvalues --   -0.15810  -0.13301  -0.12031
  Beta virt. eigenvalues --   -0.07243  -0.06635  -0.05061  -0.04542  -0.03123
  Beta virt. eigenvalues --   -0.02394  -0.02275  -0.01506  -0.01451  -0.00886
  Beta virt. eigenvalues --   -0.00712  -0.00272   0.00165   0.00373   0.00494

 Mulliken charges and spin densities:
               1          2
     1  Na  -0.171299   0.223088
     2  Na   0.962302   0.142147
     3  Na   0.224048  -0.000062
     4  Na  -1.576959   0.120544
     5  Na   0.143333   0.246453
     6  Na   0.375593   0.260317
     7  Na   0.042983   0.007514
 Sum of Mulliken charges =  -0.00000   1.00000

 Dipole moment (field-independent basis, Debye):
    X=              0.5980    Y=             -0.0994    Z=              0.6226  Tot=              0.8690
 Quadrupole moment (field-independent basis, Debye-Ang):
   XX=            -62.4137   YY=            -68.7685   ZZ=            -67.3504
   XY=             -3.2724   XZ=              4.0639   YZ=              2.0908

 Normal termination of Gaussian 16 at Mon Dec  4 00:44:38 2023.
