 Gaussian 16, Revision B.01,
 Gaussian 16:  ES64L-G16RevB.01 20-Dec-2017

 -------------------------
 #P B3LYP/6-311+g(d) force
 -------------------------

 -----
 DPGEN
 -----
 Symbolic Z-matrix:
 Charge =  0 Multiplicity = 2

                         Standard orientation:
 ---------------------------------------------------------------------
 Center     Atomic      Atomic             Coordinates (Angstroms)
 Number     Number       Type             X           Y           Z
 ---------------------------------------------------------------------
      1         11           0       -2.282951   -1.780889    1.052900
      2         11           0       -2.727854    2.066303   -0.544078
      3         11           0        4.706132   -1.336690   -0.437224
      4         11           0        1.648568   -1.625706    0.773663
      5         11           0       -0.407141    2.633104    1.218715
      6         11           0        3.283059    1.572574   -0.867887
      7         11           0       -4.219813   -1.528696   -1.196089
 ---------------------------------------------------------------------

 SCF Done:  E(UB3LYP) =  -1136.11148460     A.U. after   21 cycles

 The electronic state is 2-A.
 Alpha  occ. eigenvalues --  -38.45819 -38.44918 -38.44527 -38.44232 -38.43926
 Alpha  occ. eigenvalues --  -38.43349 -38.42998  -2.21598  -2.20744  -2.20340
 Alpha  occ. eigenvalues --   -2.20050  -2.19745  -2.19189  -2.18818  -1.15274
 Alpha  occ. eigenvalues --   -1.15247  -1.15224  -1.14411  -1.14401  -1.14384
 Alpha  occ. eigenvalues --   -1.14053  -1.14008  -1.13952  -1.13722  -1.13711
 Alpha  occ. eigenvalues --   -1.13653  -1.13468  -1.13403  -1.13396  -1.12843
 Alpha  occ. eigenvalues --   -1.12828  -1.12813  -1.12513  -1.12459  -1.12452
 Alpha  occ. eigenvalues --   -0.16358  -0.14529  -0.11802  -0.10720
 Alpha virt. eigenvalues --   -0.07077  -0.05132  -0.04565  -0.03641  -0.03166
 Alpha virt. eigenvalues --   -0.02546  -0.02023  -0.01619  -0.01157  -0.00466
 Alpha virt. eigenvalues --   -0.00285  -0.00009   0.00213   0.00337   0.00509

  Beta  occ. eigenvalues --  -38.45781 -38.44909 -38.44519 -38.44157 -38.43919
  Beta  occ. eigenvalues --  -38.43316 -38.42992  -2.21528  -2.20729  -2.20324
  Beta  occ. eigenvalues --   -2.19913  -2.19737  -2.19127  -2.18808  -1.15228
  Beta  occ. eigenvalues --   -1.15199  -1.15165  -1.14394  -1.14392  -1.14366
  Beta  occ. eigenvalues --   -1.14037  -1.13999  -1.13939  -1.13630  -1.13617
  Beta  occ. eigenvalues --   -1.13548  -1.13454  -1.13396  -1.13372  -1.12809
  Beta  occ. eigenvalues --   -1.12784  -1.12765  -1.12508  -1.12451  -1.12441
  Beta  occ. eigenvalues --   -0.15758  -0.14197  -0.11635
  Beta virt. eigenvalues --   -0.07100  -0.06873  -0.04707  -0.04161  -0.03460
  Beta virt. eigenvalues --   -0.02708  -0.02443  -0.01572  -0.01462  -0.00933
  Beta virt. eigenvalues --   -0.00345   0.00003   0.00111   0.00353   0.00483

 Mulliken charges and spin densities:
               1          2
     1  Na  -0.406144  -0.158231
     2  Na  -0.005656   0.065718
     3  Na   1.241619   0.301840
     4  Na  -0.960711   0.306512
     5  Na  -0.227161   0.090757
     6  Na  -0.081121   0.217210
     7  Na   0.439174   0.176194
 Sum of Mulliken charges =  -0.00000   1.00000

 Dipole moment (field-independent basis, Debye):
    X=              2.0654    Y=              0.0052    Z=             -0.8184  Tot=              2.2217
 Quadrupole moment (field-independent basis, Debye-Ang):
   XX=            -57.2196   YY=            -71.8457   ZZ=            -68.1974
   XY=             -4.0710   XZ=              1.5243   YZ=             -1.2407

 Normal termination of Gaussian 16 at Mon Dec  4 02:54:49 2023.
