 Gaussian 16, Revision B.01,
 Gaussian 16:  ES64L-G16RevB.01 20-Dec-2017

 -------------------------
 #P B3LYP/6-311+g(d) force
 -------------------------

 -----
 DPGEN
 -----
 Symbolic Z-matrix:
 Charge =  0 Multiplicity = 2

                         Standard orientation:
 ---------------------------------------------------------------------
 Center     Atomic      Atomic             Coordinates (Angstroms)
 Number     Number       Type             X           Y           Z
 ---------------------------------------------------------------------
      1         11           0        2.004699    3.279700   -0.321099
      2         11           0       -3.050025    0.035070    0.462976
      3         11           0        0.062200   -2.424470    1.421408
      4         11           0        3.558217    0.390820   -1.241035
      5         11           0       -5.422633   -0.120493   -1.567775
      6         11           0       -0.116525    1.597380    1.886012
      7         11           0        2.964068   -2.758008   -0.640487
 ---------------------------------------------------------------------

 SCF Done:  E(UB3LYP) =  -1136.11496140     A.U. after   20 cycles

 The electronic state is 2-A.
 Alpha  occ. eigenvalues --  -38.45101 -38.44992 -38.44763 -38.44614 -38.43941
 Alpha  occ. eigenvalues --  -38.43482 -38.43480  -2.20921  -2.20750  -2.20550
 Alpha  occ. eigenvalues --   -2.20422  -2.19745  -2.19279  -2.19273  -1.14570
 Alpha  occ. eigenvalues --   -1.14544  -1.14544  -1.14431  -1.14411  -1.14358
 Alpha  occ. eigenvalues --   -1.14229  -1.14211  -1.14161  -1.14093  -1.14076
 Alpha  occ. eigenvalues --   -1.14051  -1.13429  -1.13422  -1.13406  -1.12956
 Alpha  occ. eigenvalues --   -1.12943  -1.12942  -1.12937  -1.12924  -1.12917
 Alpha  occ. eigenvalues --   -0.16133  -0.14040  -0.12112  -0.12015
 Alpha virt. eigenvalues --   -0.06235  -0.05767  -0.04570  -0.03612  -0.02704
 Alpha virt. eigenvalues --   -0.02625  -0.02074  -0.01279  -0.00998  -0.00887
 Alpha virt. eigenvalues --   -0.00813  -0.00458  -0.00107   0.00282   0.00689

  Beta  occ. eigenvalues --  -38.45005 -38.44953 -38.44720 -38.44567 -38.43944
  Beta  occ. eigenvalues --  -38.43485 -38.43479  -2.20742  -2.20677  -2.20471
  Beta  occ. eigenvalues --   -2.20336  -2.19759  -2.19281  -2.19277  -1.14449
  Beta  occ. eigenvalues --   -1.14422  -1.14422  -1.14382  -1.14362  -1.14306
  Beta  occ. eigenvalues --   -1.14179  -1.14158  -1.14101  -1.14035  -1.14020
  Beta  occ. eigenvalues --   -1.13988  -1.13443  -1.13439  -1.13355  -1.12949
  Beta  occ. eigenvalues --   -1.12947  -1.12944  -1.12939  -1.12924  -1.12913
  Beta  occ. eigenvalues --   -0.15474  -0.13063  -0.12065
  Beta virt. eigenvalues --   -0.08725  -0.05734  -0.05340  -0.04169  -0.03468
  Beta virt. eigenvalues --   -0.02412  -0.02317  -0.01727  -0.01018  -0.00914
  Beta virt. eigenvalues --   -0.00688  -0.00467  -0.00210   0.00087   0.00377

 Mulliken charges and spin densities:
               1          2
     1  Na   0.434924  -0.041369
     2  Na  -0.378947   0.022410
     3  Na  -0.070271   0.175267
     4  Na  -0.356998   0.281972
     5  Na  -0.007179   0.418477
     6  Na  -0.072621   0.191827
     7  Na   0.451092  -0.048583
 Sum of Mulliken charges =  -0.00000   1.00000

 Dipole moment (field-independent basis, Debye):
    X=             -0.8773    Y=             -0.1074    Z=             -0.3015  Tot=              0.9339
 Quadrupole moment (field-independent basis, Debye-Ang):
   XX=            -61.7871   YY=            -68.4743   ZZ=            -65.5608
   XY=              0.8891   XZ=              2.3504   YZ=             -0.9305

 Normal termination of Gaussian 16 at Mon Dec  4 02:03:11 2023.
