 Gaussian 16, Revision B.01,
 Gaussian 16:  ES64L-G16RevB.01 20-Dec-2017

 -------------------------
 #P B3LYP/6-311+g(d) force
 -------------------------

 -----
 DPGEN
 -----
 Symbolic Z-matrix:
 Charge =  0 Multiplicity = 2

                         Standard orientation:
 ---------------------------------------------------------------------
 Center     Atomic      Atomic             Coordinates (Angstroms)
 Number     Number       Type             X           Y           Z
 ---------------------------------------------------------------------
      1         11           0        2.126695   -1.266019    1.507361
      2         11           0        0.881603    0.228686   -1.345818
      3         11           0       -2.390726    1.555875    0.241617
      4         11           0       -1.091068   -1.971391    0.497925
      5         11           0       -4.462780   -1.009888   -0.476433
      6         11           0        0.967464    3.405626    0.446188
      7         11           0        3.968812   -0.942889   -0.870840
 ---------------------------------------------------------------------

 SCF Done:  E(UB3LYP) =  -1136.12062338     A.U. after   22 cycles

 The electronic state is 2-A.
 Alpha  occ. eigenvalues --  -38.44970 -38.44547 -38.44190 -38.43769 -38.43729
 Alpha  occ. eigenvalues --  -38.43536 -38.43338  -2.20835  -2.20433  -2.19997
 Alpha  occ. eigenvalues --   -2.19655  -2.19548  -2.19398  -2.19100  -1.14536
 Alpha  occ. eigenvalues --   -1.14518  -1.14442  -1.14133  -1.14084  -1.14076
 Alpha  occ. eigenvalues --   -1.13706  -1.13685  -1.13594  -1.13311  -1.13284
 Alpha  occ. eigenvalues --   -1.13268  -1.13204  -1.13200  -1.13164  -1.13098
 Alpha  occ. eigenvalues --   -1.13071  -1.12984  -1.12779  -1.12766  -1.12730
 Alpha  occ. eigenvalues --   -0.17627  -0.14157  -0.11754  -0.10509
 Alpha virt. eigenvalues --   -0.06889  -0.05344  -0.04324  -0.03643  -0.03003
 Alpha virt. eigenvalues --   -0.02350  -0.01608  -0.01419  -0.00993  -0.00709
 Alpha virt. eigenvalues --   -0.00226  -0.00099   0.00359   0.00572   0.00710

  Beta  occ. eigenvalues --  -38.44958 -38.44523 -38.44181 -38.43698 -38.43679
  Beta  occ. eigenvalues --  -38.43487 -38.43345  -2.20818  -2.20397  -2.19984
  Beta  occ. eigenvalues --   -2.19523  -2.19455  -2.19313  -2.19113  -1.14515
  Beta  occ. eigenvalues --   -1.14491  -1.14432  -1.14089  -1.14063  -1.14022
  Beta  occ. eigenvalues --   -1.13698  -1.13675  -1.13570  -1.13223  -1.13198
  Beta  occ. eigenvalues --   -1.13176  -1.13138  -1.13134  -1.13109  -1.13044
  Beta  occ. eigenvalues --   -1.13009  -1.12904  -1.12787  -1.12775  -1.12737
  Beta  occ. eigenvalues --   -0.17009  -0.13585  -0.11552
  Beta virt. eigenvalues --   -0.06884  -0.06674  -0.05269  -0.03856  -0.03338
  Beta virt. eigenvalues --   -0.02697  -0.02059  -0.01378  -0.01171  -0.00535
  Beta virt. eigenvalues --   -0.00467  -0.00004   0.00029   0.00501   0.00700

 Mulliken charges and spin densities:
               1          2
     1  Na   0.334189   0.032477
     2  Na   0.275757   0.180681
     3  Na  -0.181455   0.201779
     4  Na  -0.617788   0.050698
     5  Na   0.428682   0.279732
     6  Na  -0.164003  -0.070011
     7  Na  -0.075382   0.324645
 Sum of Mulliken charges =  -0.00000   1.00000

 Dipole moment (field-independent basis, Debye):
    X=              0.3582    Y=             -0.3429    Z=              0.4336  Tot=              0.6587
 Quadrupole moment (field-independent basis, Debye-Ang):
   XX=            -64.8858   YY=            -71.6489   ZZ=            -65.0983
   XY=              1.7175   XZ=              3.6532   YZ=              2.9817

 Normal termination of Gaussian 16 at Wed Nov 29 00:33:18 2023.
