 Gaussian 16, Revision B.01,
 Gaussian 16:  ES64L-G16RevB.01 20-Dec-2017

 -------------------------
 #P B3LYP/6-311+g(d) force
 -------------------------

 -----
 DPGEN
 -----
 Symbolic Z-matrix:
 Charge =  0 Multiplicity = 2

                         Standard orientation:
 ---------------------------------------------------------------------
 Center     Atomic      Atomic             Coordinates (Angstroms)
 Number     Number       Type             X           Y           Z
 ---------------------------------------------------------------------
      1         11           0       -3.689335   -1.762519   -0.730897
      2         11           0        4.047933   -0.307962   -0.909031
      3         11           0        1.780810   -1.716556    1.202627
      4         11           0       -2.096061    2.416275   -0.681433
      5         11           0       -0.045284   -0.667679   -1.226858
      6         11           0        1.874765    1.775278    0.467107
      7         11           0       -1.872827    0.263163    1.878485
 ---------------------------------------------------------------------

 SCF Done:  E(UB3LYP) =  -1136.11604723     A.U. after   26 cycles

 The electronic state is 2-A.
 Alpha  occ. eigenvalues --  -38.44927 -38.44896 -38.44621 -38.43920 -38.43868
 Alpha  occ. eigenvalues --  -38.43800 -38.43655  -2.20778  -2.20730  -2.20442
 Alpha  occ. eigenvalues --   -2.19754  -2.19745  -2.19565  -2.19450  -1.14514
 Alpha  occ. eigenvalues --   -1.14438  -1.14393  -1.14387  -1.14382  -1.14350
 Alpha  occ. eigenvalues --   -1.14111  -1.14106  -1.14062  -1.13459  -1.13445
 Alpha  occ. eigenvalues --   -1.13433  -1.13388  -1.13364  -1.13346  -1.13237
 Alpha  occ. eigenvalues --   -1.13221  -1.13191  -1.13138  -1.13110  -1.13069
 Alpha  occ. eigenvalues --   -0.18001  -0.14197  -0.10779  -0.10479
 Alpha virt. eigenvalues --   -0.07036  -0.05876  -0.05007  -0.02960  -0.02906
 Alpha virt. eigenvalues --   -0.02257  -0.01952  -0.01564  -0.01100  -0.00457
 Alpha virt. eigenvalues --   -0.00085   0.00046   0.00254   0.00402   0.00503

  Beta  occ. eigenvalues --  -38.44915 -38.44859 -38.44586 -38.43915 -38.43820
  Beta  occ. eigenvalues --  -38.43776 -38.43648  -2.20758  -2.20660  -2.20379
  Beta  occ. eigenvalues --   -2.19748  -2.19658  -2.19520  -2.19437  -1.14469
  Beta  occ. eigenvalues --   -1.14430  -1.14374  -1.14347  -1.14331  -1.14307
  Beta  occ. eigenvalues --   -1.14070  -1.14043  -1.14020  -1.13457  -1.13413
  Beta  occ. eigenvalues --   -1.13381  -1.13358  -1.13322  -1.13274  -1.13204
  Beta  occ. eigenvalues --   -1.13188  -1.13163  -1.13125  -1.13104  -1.13057
  Beta  occ. eigenvalues --   -0.17394  -0.13898  -0.10569
  Beta virt. eigenvalues --   -0.06946  -0.06759  -0.05739  -0.04418  -0.02811
  Beta virt. eigenvalues --   -0.02635  -0.01823  -0.01484  -0.01301  -0.00700
  Beta virt. eigenvalues --   -0.00283   0.00041   0.00096   0.00372   0.00489

 Mulliken charges and spin densities:
               1          2
     1  Na  -0.035779   0.185334
     2  Na   0.650431   0.219921
     3  Na  -0.109403   0.312102
     4  Na  -0.089386   0.084500
     5  Na  -0.396484  -0.049625
     6  Na  -0.262128   0.095812
     7  Na   0.242750   0.151956
 Sum of Mulliken charges =  -0.00000   1.00000

 Dipole moment (field-independent basis, Debye):
    X=              0.8912    Y=              0.0478    Z=              0.3213  Tot=              0.9485
 Quadrupole moment (field-independent basis, Debye-Ang):
   XX=            -51.9146   YY=            -76.7371   ZZ=            -67.6119
   XY=             -3.5760   XZ=             -2.4457   YZ=             -0.5749

 Normal termination of Gaussian 16 at Tue Dec  5 12:35:45 2023.
