 Gaussian 16, Revision B.01,
 Gaussian 16:  ES64L-G16RevB.01 20-Dec-2017

 -------------------------
 #P B3LYP/6-311+g(d) force
 -------------------------

 -----
 DPGEN
 -----
 Symbolic Z-matrix:
 Charge =  0 Multiplicity = 2

                         Standard orientation:
 ---------------------------------------------------------------------
 Center     Atomic      Atomic             Coordinates (Angstroms)
 Number     Number       Type             X           Y           Z
 ---------------------------------------------------------------------
      1         11           0        3.866319   -0.707425    0.837268
      2         11           0       -3.587012    0.455304    1.349701
      3         11           0       -1.463348    1.534321   -1.623050
      4         11           0        1.341896   -1.278822   -1.188044
      5         11           0       -2.124590   -2.061592   -0.669210
      6         11           0        1.994314    1.981474   -0.278319
      7         11           0       -0.027580    0.076740    1.571655
 ---------------------------------------------------------------------

 SCF Done:  E(UB3LYP) =  -1136.12338154     A.U. after   27 cycles

 The electronic state is 2-A.
 Alpha  occ. eigenvalues --  -38.45041 -38.44814 -38.44672 -38.43612 -38.43412
 Alpha  occ. eigenvalues --  -38.43398 -38.43041  -2.20908  -2.20629  -2.20492
 Alpha  occ. eigenvalues --   -2.19519  -2.19234  -2.19226  -2.18912  -1.14630
 Alpha  occ. eigenvalues --   -1.14552  -1.14530  -1.14292  -1.14262  -1.14249
 Alpha  occ. eigenvalues --   -1.14166  -1.14147  -1.14127  -1.13227  -1.13158
 Alpha  occ. eigenvalues --   -1.13145  -1.12913  -1.12896  -1.12896  -1.12883
 Alpha  occ. eigenvalues --   -1.12864  -1.12854  -1.12607  -1.12595  -1.12519
 Alpha  occ. eigenvalues --   -0.18349  -0.14305  -0.11272  -0.10662
 Alpha virt. eigenvalues --   -0.06905  -0.05161  -0.05021  -0.03058  -0.02830
 Alpha virt. eigenvalues --   -0.02395  -0.02205  -0.01258  -0.00942  -0.00255
 Alpha virt. eigenvalues --    0.00062   0.00240   0.00336   0.00588   0.00647

  Beta  occ. eigenvalues --  -38.45017 -38.44756 -38.44664 -38.43573 -38.43378
  Beta  occ. eigenvalues --  -38.43374 -38.43042  -2.20865  -2.20522  -2.20477
  Beta  occ. eigenvalues --   -2.19450  -2.19194  -2.19164  -2.18917  -1.14581
  Beta  occ. eigenvalues --   -1.14529  -1.14494  -1.14211  -1.14189  -1.14184
  Beta  occ. eigenvalues --   -1.14158  -1.14136  -1.14114  -1.13185  -1.13107
  Beta  occ. eigenvalues --   -1.13075  -1.12875  -1.12873  -1.12846  -1.12830
  Beta  occ. eigenvalues --   -1.12821  -1.12817  -1.12613  -1.12592  -1.12512
  Beta  occ. eigenvalues --   -0.17704  -0.13976  -0.10433
  Beta virt. eigenvalues --   -0.07541  -0.06662  -0.05094  -0.04422  -0.02794
  Beta virt. eigenvalues --   -0.02571  -0.01853  -0.01512  -0.00910  -0.00825
  Beta virt. eigenvalues --   -0.00174   0.00104   0.00320   0.00386   0.00695

 Mulliken charges and spin densities:
               1          2
     1  Na   0.733735   0.039647
     2  Na   0.617726   0.236692
     3  Na  -0.313584   0.228971
     4  Na  -0.312519   0.159870
     5  Na  -0.095737   0.091753
     6  Na   0.148313   0.078626
     7  Na  -0.777934   0.164440
 Sum of Mulliken charges =  -0.00000   1.00000

 Dipole moment (field-independent basis, Debye):
    X=              0.1024    Y=              0.2527    Z=              0.4833  Tot=              0.5549
 Quadrupole moment (field-independent basis, Debye-Ang):
   XX=            -47.8008   YY=            -79.1969   ZZ=            -67.4138
   XY=             -0.5132   XZ=              2.0052   YZ=              1.2194

 Normal termination of Gaussian 16 at Fri Dec  8 01:35:54 2023.
