 Gaussian 16, Revision B.01,
 Gaussian 16:  ES64L-G16RevB.01 20-Dec-2017

 -------------------------
 #P B3LYP/6-311+g(d) force
 -------------------------

 -----
 DPGEN
 -----
 Symbolic Z-matrix:
 Charge =  0 Multiplicity = 2

                         Standard orientation:
 ---------------------------------------------------------------------
 Center     Atomic      Atomic             Coordinates (Angstroms)
 Number     Number       Type             X           Y           Z
 ---------------------------------------------------------------------
      1         11           0       -3.860081   -2.317365   -0.195622
      2         11           0       -0.051335   -2.262853    1.178719
      3         11           0        3.287986    0.246913   -0.595202
      4         11           0        6.314627   -0.331473   -1.020012
      5         11           0       -4.507398    0.661388   -1.542614
      6         11           0        0.782538    1.117931    1.828561
      7         11           0       -1.966338    2.885459    0.346170
 ---------------------------------------------------------------------

 SCF Done:  E(UB3LYP) =  -1136.10739153     A.U. after   21 cycles

 The electronic state is 2-A.
 Alpha  occ. eigenvalues --  -38.46154 -38.45739 -38.44752 -38.44469 -38.43986
 Alpha  occ. eigenvalues --  -38.43337 -38.43275  -2.21924  -2.21507  -2.20520
 Alpha  occ. eigenvalues --   -2.20241  -2.19783  -2.19153  -2.19064  -1.15584
 Alpha  occ. eigenvalues --   -1.15562  -1.15528  -1.15170  -1.15144  -1.15120
 Alpha  occ. eigenvalues --   -1.14192  -1.14178  -1.14163  -1.13913  -1.13897
 Alpha  occ. eigenvalues --   -1.13879  -1.13467  -1.13447  -1.13435  -1.12861
 Alpha  occ. eigenvalues --   -1.12834  -1.12816  -1.12716  -1.12716  -1.12659
 Alpha  occ. eigenvalues --   -0.16187  -0.13571  -0.12628  -0.11516
 Alpha virt. eigenvalues --   -0.06618  -0.06296  -0.04797  -0.03546  -0.03047
 Alpha virt. eigenvalues --   -0.02500  -0.01982  -0.01534  -0.01185  -0.00954
 Alpha virt. eigenvalues --   -0.00850  -0.00532  -0.00431   0.00081   0.00614

  Beta  occ. eigenvalues --  -38.46063 -38.45657 -38.44731 -38.44461 -38.43996
  Beta  occ. eigenvalues --  -38.43336 -38.43273  -2.21754  -2.21354  -2.20480
  Beta  occ. eigenvalues --   -2.20228  -2.19803  -2.19150  -2.19061  -1.15469
  Beta  occ. eigenvalues --   -1.15449  -1.15406  -1.15067  -1.15044  -1.15010
  Beta  occ. eigenvalues --   -1.14166  -1.14155  -1.14127  -1.13905  -1.13887
  Beta  occ. eigenvalues --   -1.13863  -1.13481  -1.13463  -1.13431  -1.12861
  Beta  occ. eigenvalues --   -1.12832  -1.12813  -1.12715  -1.12714  -1.12657
  Beta  occ. eigenvalues --   -0.15411  -0.13401  -0.11433
  Beta virt. eigenvalues --   -0.08898  -0.05961  -0.05549  -0.04563  -0.03231
  Beta virt. eigenvalues --   -0.02867  -0.02153  -0.01871  -0.01391  -0.00897
  Beta virt. eigenvalues --   -0.00619  -0.00522  -0.00373  -0.00195   0.00133

 Mulliken charges and spin densities:
               1          2
     1  Na   0.012119   0.072562
     2  Na   0.299178   0.559724
     3  Na  -0.462152  -0.006088
     4  Na   0.093070   0.005221
     5  Na  -0.017090   0.036235
     6  Na  -0.109250  -0.134009
     7  Na   0.184125   0.466355
 Sum of Mulliken charges =  -0.00000   1.00000

 Dipole moment (field-independent basis, Debye):
    X=             -1.7832    Y=             -0.1987    Z=              0.6237  Tot=              1.8995
 Quadrupole moment (field-independent basis, Debye-Ang):
   XX=            -72.1799   YY=            -61.0483   ZZ=            -71.4434
   XY=             -3.8116   XZ=              3.0342   YZ=             -2.8876

 Normal termination of Gaussian 16 at Sun Dec  3 20:33:36 2023.
