 Gaussian 16, Revision B.01,
 Gaussian 16:  ES64L-G16RevB.01 20-Dec-2017

 -------------------------
 #P B3LYP/6-311+g(d) force
 -------------------------

 -----
 DPGEN
 -----
 Symbolic Z-matrix:
 Charge =  0 Multiplicity = 2

                         Standard orientation:
 ---------------------------------------------------------------------
 Center     Atomic      Atomic             Coordinates (Angstroms)
 Number     Number       Type             X           Y           Z
 ---------------------------------------------------------------------
      1         11           0       -2.889112   -0.898391   -1.677716
      2         11           0       -4.917398   -2.474406    0.353234
      3         11           0       -3.618929    1.026747    1.786052
      4         11           0       -1.497314    2.809763   -0.839230
      5         11           0        1.105286    0.551637   -0.039071
      6         11           0        4.536454    0.020885    0.325786
      7         11           0        7.281012   -1.036234    0.090943
 ---------------------------------------------------------------------

 SCF Done:  E(UB3LYP) =  -1136.10786219     A.U. after   22 cycles

 The electronic state is 2-A.
 Alpha  occ. eigenvalues --  -38.45334 -38.45318 -38.44626 -38.44244 -38.44241
 Alpha  occ. eigenvalues --  -38.43972 -38.43370  -2.21111  -2.21108  -2.20395
 Alpha  occ. eigenvalues --   -2.20064  -2.20041  -2.19758  -2.19205  -1.14795
 Alpha  occ. eigenvalues --   -1.14785  -1.14760  -1.14742  -1.14725  -1.14711
 Alpha  occ. eigenvalues --   -1.14084  -1.14048  -1.14045  -1.13766  -1.13709
 Alpha  occ. eigenvalues --   -1.13705  -1.13694  -1.13694  -1.13648  -1.13426
 Alpha  occ. eigenvalues --   -1.13424  -1.13397  -1.12879  -1.12858  -1.12857
 Alpha  occ. eigenvalues --   -0.16216  -0.13989  -0.12207  -0.10785
 Alpha virt. eigenvalues --   -0.07676  -0.05362  -0.04576  -0.03293  -0.02859
 Alpha virt. eigenvalues --   -0.02622  -0.02322  -0.02185  -0.01374  -0.01134
 Alpha virt. eigenvalues --   -0.00721  -0.00150   0.00128   0.00346   0.00486

  Beta  occ. eigenvalues --  -38.45285 -38.45250 -38.44634 -38.44199 -38.44193
  Beta  occ. eigenvalues --  -38.43971 -38.43372  -2.21047  -2.20954  -2.20413
  Beta  occ. eigenvalues --   -2.19986  -2.19945  -2.19759  -2.19215  -1.14750
  Beta  occ. eigenvalues --   -1.14714  -1.14682  -1.14677  -1.14639  -1.14601
  Beta  occ. eigenvalues --   -1.14099  -1.14062  -1.14035  -1.13716  -1.13643
  Beta  occ. eigenvalues --   -1.13640  -1.13640  -1.13637  -1.13591  -1.13428
  Beta  occ. eigenvalues --   -1.13411  -1.13402  -1.12871  -1.12870  -1.12842
  Beta  occ. eigenvalues --   -0.15704  -0.13512  -0.11970
  Beta virt. eigenvalues --   -0.07504  -0.06971  -0.05257  -0.04269  -0.02947
  Beta virt. eigenvalues --   -0.02482  -0.02274  -0.02153  -0.01956  -0.01292
  Beta virt. eigenvalues --   -0.00788  -0.00403   0.00055   0.00229   0.00431

 Mulliken charges and spin densities:
               1          2
     1  Na  -0.029105   0.187220
     2  Na   0.298610  -0.089297
     3  Na   0.128122   0.445879
     4  Na   0.811057   0.024958
     5  Na   0.126196   0.045894
     6  Na  -1.271346   0.187718
     7  Na  -0.063533   0.197628
 Sum of Mulliken charges =  -0.00000   1.00000

 Dipole moment (field-independent basis, Debye):
    X=             -1.4480    Y=              0.0457    Z=             -0.0680  Tot=              1.4504
 Quadrupole moment (field-independent basis, Debye-Ang):
   XX=            -62.9170   YY=            -68.9642   ZZ=            -66.3634
   XY=             -2.1243   XZ=             -2.2770   YZ=             -3.8833

 Normal termination of Gaussian 16 at Thu Nov 30 08:52:38 2023.
