 Gaussian 16, Revision B.01,
 Gaussian 16:  ES64L-G16RevB.01 20-Dec-2017

 -------------------------
 #P B3LYP/6-311+g(d) force
 -------------------------

 -----
 DPGEN
 -----
 Symbolic Z-matrix:
 Charge =  0 Multiplicity = 2

                         Standard orientation:
 ---------------------------------------------------------------------
 Center     Atomic      Atomic             Coordinates (Angstroms)
 Number     Number       Type             X           Y           Z
 ---------------------------------------------------------------------
      1         11           0       -1.643455    1.646760   -1.185155
      2         11           0       -0.502480   -2.363628   -0.592435
      3         11           0       -3.690775   -1.005537    0.412646
      4         11           0        0.181526   -0.027222    1.837555
      5         11           0        3.138480   -1.785387    0.284008
      6         11           0        0.834557    2.985621    0.795932
      7         11           0        1.682147    0.549393   -1.552551
 ---------------------------------------------------------------------

 SCF Done:  E(UB3LYP) =  -1136.13452945     A.U. after   19 cycles

 The electronic state is 2-A.
 Alpha  occ. eigenvalues --  -38.44065 -38.44062 -38.44024 -38.43741 -38.43687
 Alpha  occ. eigenvalues --  -38.43447 -38.43301  -2.19869  -2.19840  -2.19830
 Alpha  occ. eigenvalues --   -2.19584  -2.19577  -2.19346  -2.19162  -1.13556
 Alpha  occ. eigenvalues --   -1.13553  -1.13531  -1.13528  -1.13504  -1.13501
 Alpha  occ. eigenvalues --   -1.13499  -1.13471  -1.13415  -1.13275  -1.13261
 Alpha  occ. eigenvalues --   -1.13242  -1.13235  -1.13193  -1.13187  -1.13034
 Alpha  occ. eigenvalues --   -1.13006  -1.12949  -1.12832  -1.12814  -1.12786
 Alpha  occ. eigenvalues --   -0.18119  -0.12739  -0.12448  -0.10801
 Alpha virt. eigenvalues --   -0.06003  -0.05119  -0.04614  -0.03176  -0.03076
 Alpha virt. eigenvalues --   -0.02559  -0.01881  -0.01227  -0.00603  -0.00131
 Alpha virt. eigenvalues --    0.00097   0.00284   0.00728   0.00761   0.00806

  Beta  occ. eigenvalues --  -38.44065 -38.44065 -38.44016 -38.43711 -38.43604
  Beta  occ. eigenvalues --  -38.43396 -38.43284  -2.19871  -2.19838  -2.19827
  Beta  occ. eigenvalues --   -2.19525  -2.19432  -2.19254  -2.19133  -1.13553
  Beta  occ. eigenvalues --   -1.13547  -1.13518  -1.13509  -1.13506  -1.13502
  Beta  occ. eigenvalues --   -1.13496  -1.13475  -1.13411  -1.13232  -1.13200
  Beta  occ. eigenvalues --   -1.13157  -1.13153  -1.13119  -1.13089  -1.12968
  Beta  occ. eigenvalues --   -1.12935  -1.12885  -1.12800  -1.12797  -1.12752
  Beta  occ. eigenvalues --   -0.17391  -0.12610  -0.12223
  Beta virt. eigenvalues --   -0.06881  -0.05916  -0.04978  -0.04519  -0.02584
  Beta virt. eigenvalues --   -0.02463  -0.01842  -0.01608  -0.01078  -0.00344
  Beta virt. eigenvalues --   -0.00116   0.00163   0.00326   0.00759   0.00811

 Mulliken charges and spin densities:
               1          2
     1  Na  -0.294812   0.154536
     2  Na  -0.280631   0.009203
     3  Na   0.258349  -0.046970
     4  Na  -0.110496   0.644123
     5  Na   0.151882  -0.082091
     6  Na   0.066161  -0.069511
     7  Na   0.209546   0.390710
 Sum of Mulliken charges =  -0.00000   1.00000

 Dipole moment (field-independent basis, Debye):
    X=              0.0401    Y=             -0.2403    Z=              0.1056  Tot=              0.2656
 Quadrupole moment (field-independent basis, Debye-Ang):
   XX=            -55.7107   YY=            -64.8765   ZZ=            -72.5773
   XY=             -1.0845   XZ=              0.4155   YZ=              0.0355

 Normal termination of Gaussian 16 at Tue Dec  5 22:33:30 2023.
