 Gaussian 16, Revision B.01,
 Gaussian 16:  ES64L-G16RevB.01 20-Dec-2017

 -------------------------
 #P B3LYP/6-311+g(d) force
 -------------------------

 -----
 DPGEN
 -----
 Symbolic Z-matrix:
 Charge =  0 Multiplicity = 2

                         Standard orientation:
 ---------------------------------------------------------------------
 Center     Atomic      Atomic             Coordinates (Angstroms)
 Number     Number       Type             X           Y           Z
 ---------------------------------------------------------------------
      1         11           0       -0.264839    0.369329   -1.878111
      2         11           0        0.725861   -2.702965   -0.723155
      3         11           0       -2.567122    1.830096   -0.117647
      4         11           0       -2.584370   -1.355026    0.461044
      5         11           0        0.071809   -0.458219    1.909112
      6         11           0        1.583212    2.577814    0.191922
      7         11           0        3.035449   -0.261028    0.156835
 ---------------------------------------------------------------------

 SCF Done:  E(UB3LYP) =  -1136.13650297     A.U. after   19 cycles

 The electronic state is 2-A.
 Alpha  occ. eigenvalues --  -38.43946 -38.43825 -38.43779 -38.43748 -38.43576
 Alpha  occ. eigenvalues --  -38.43447 -38.43093  -2.19812  -2.19671  -2.19668
 Alpha  occ. eigenvalues --   -2.19660  -2.19498  -2.19281  -2.18954  -1.13500
 Alpha  occ. eigenvalues --   -1.13477  -1.13458  -1.13439  -1.13389  -1.13354
 Alpha  occ. eigenvalues --   -1.13326  -1.13311  -1.13299  -1.13284  -1.13257
 Alpha  occ. eigenvalues --   -1.13245  -1.13165  -1.13128  -1.13121  -1.12951
 Alpha  occ. eigenvalues --   -1.12943  -1.12917  -1.12632  -1.12603  -1.12589
 Alpha  occ. eigenvalues --   -0.18679  -0.13343  -0.12165  -0.11118
 Alpha virt. eigenvalues --   -0.05570  -0.05216  -0.04396  -0.03482  -0.03072
 Alpha virt. eigenvalues --   -0.02692  -0.01457  -0.01014  -0.00294  -0.00200
 Alpha virt. eigenvalues --    0.00018   0.00381   0.00785   0.00889   0.00930

  Beta  occ. eigenvalues --  -38.43941 -38.43822 -38.43764 -38.43674 -38.43498
  Beta  occ. eigenvalues --  -38.43445 -38.43071  -2.19807  -2.19666  -2.19641
  Beta  occ. eigenvalues --   -2.19532  -2.19357  -2.19279  -2.18917  -1.13492
  Beta  occ. eigenvalues --   -1.13472  -1.13442  -1.13405  -1.13367  -1.13333
  Beta  occ. eigenvalues --   -1.13306  -1.13274  -1.13242  -1.13233  -1.13193
  Beta  occ. eigenvalues --   -1.13174  -1.13074  -1.13030  -1.13019  -1.12949
  Beta  occ. eigenvalues --   -1.12933  -1.12908  -1.12601  -1.12575  -1.12555
  Beta  occ. eigenvalues --   -0.17947  -0.13089  -0.11924
  Beta virt. eigenvalues --   -0.07210  -0.05512  -0.05161  -0.04327  -0.02702
  Beta virt. eigenvalues --   -0.02335  -0.01688  -0.01359  -0.00927  -0.00323
  Beta virt. eigenvalues --   -0.00184   0.00114   0.00410   0.00865   0.00894

 Mulliken charges and spin densities:
               1          2
     1  Na  -0.170187   0.598271
     2  Na   0.025100   0.057572
     3  Na   0.000865  -0.116158
     4  Na   0.254071   0.061647
     5  Na  -0.162016   0.510748
     6  Na  -0.108857  -0.095175
     7  Na   0.161024  -0.016906
 Sum of Mulliken charges =  -0.00000   1.00000

 Dipole moment (field-independent basis, Debye):
    X=             -0.0772    Y=              0.0819    Z=              0.0997  Tot=              0.1504
 Quadrupole moment (field-independent basis, Debye-Ang):
   XX=            -57.9477   YY=            -64.7970   ZZ=            -72.3577
   XY=             -0.7419   XZ=             -0.5497   YZ=              1.6172

 Normal termination of Gaussian 16 at Tue Dec  5 23:08:24 2023.
