 Gaussian 16, Revision B.01,
 Gaussian 16:  ES64L-G16RevB.01 20-Dec-2017

 -------------------------
 #P B3LYP/6-311+g(d) force
 -------------------------

 -----
 DPGEN
 -----
 Symbolic Z-matrix:
 Charge =  0 Multiplicity = 2

                         Standard orientation:
 ---------------------------------------------------------------------
 Center     Atomic      Atomic             Coordinates (Angstroms)
 Number     Number       Type             X           Y           Z
 ---------------------------------------------------------------------
      1         11           0       -1.535413    2.152652    0.699235
      2         11           0        1.566938   -0.483719    1.685565
      3         11           0       -3.934090   -0.175410   -1.549065
      4         11           0        2.415218    1.836435   -0.386910
      5         11           0       -0.215674   -0.829294   -1.072527
      6         11           0        3.888309   -1.104096   -0.921299
      7         11           0       -2.185288   -1.396569    1.545001
 ---------------------------------------------------------------------

 SCF Done:  E(UB3LYP) =  -1136.11763093     A.U. after   33 cycles

 The electronic state is 2-A.
 Alpha  occ. eigenvalues --  -38.44949 -38.44757 -38.44352 -38.44214 -38.43842
 Alpha  occ. eigenvalues --  -38.43697 -38.43380  -2.20798  -2.20595  -2.20216
 Alpha  occ. eigenvalues --   -2.20110  -2.19632  -2.19517  -2.19177  -1.14544
 Alpha  occ. eigenvalues --   -1.14468  -1.14407  -1.14278  -1.14238  -1.14197
 Alpha  occ. eigenvalues --   -1.13932  -1.13897  -1.13817  -1.13809  -1.13748
 Alpha  occ. eigenvalues --   -1.13696  -1.13298  -1.13288  -1.13247  -1.13192
 Alpha  occ. eigenvalues --   -1.13178  -1.13149  -1.12866  -1.12836  -1.12792
 Alpha  occ. eigenvalues --   -0.18139  -0.14365  -0.11260  -0.10386
 Alpha virt. eigenvalues --   -0.06633  -0.05559  -0.05408  -0.03065  -0.02745
 Alpha virt. eigenvalues --   -0.02351  -0.01992  -0.01353  -0.01178  -0.00462
 Alpha virt. eigenvalues --    0.00032   0.00211   0.00275   0.00286   0.00447

  Beta  occ. eigenvalues --  -38.44943 -38.44710 -38.44321 -38.44180 -38.43801
  Beta  occ. eigenvalues --  -38.43693 -38.43359  -2.20793  -2.20511  -2.20157
  Beta  occ. eigenvalues --   -2.20050  -2.19555  -2.19509  -2.19139  -1.14500
  Beta  occ. eigenvalues --   -1.14466  -1.14409  -1.14216  -1.14188  -1.14121
  Beta  occ. eigenvalues --   -1.13894  -1.13856  -1.13774  -1.13760  -1.13691
  Beta  occ. eigenvalues --   -1.13653  -1.13246  -1.13230  -1.13201  -1.13180
  Beta  occ. eigenvalues --   -1.13173  -1.13146  -1.12834  -1.12810  -1.12763
  Beta  occ. eigenvalues --   -0.17498  -0.14056  -0.10185
  Beta virt. eigenvalues --   -0.07494  -0.06472  -0.05316  -0.04859  -0.02680
  Beta virt. eigenvalues --   -0.02644  -0.01880  -0.01565  -0.01151  -0.00676
  Beta virt. eigenvalues --   -0.00276   0.00075   0.00306   0.00362   0.00413

 Mulliken charges and spin densities:
               1          2
     1  Na  -0.401068   0.178250
     2  Na   0.069608   0.155070
     3  Na   0.390886   0.211932
     4  Na   0.072079   0.142171
     5  Na  -1.038380   0.193442
     6  Na   0.550264   0.028367
     7  Na   0.356610   0.090767
 Sum of Mulliken charges =  -0.00000   1.00000

 Dipole moment (field-independent basis, Debye):
    X=              0.1727    Y=              0.1264    Z=              0.6701  Tot=              0.7034
 Quadrupole moment (field-independent basis, Debye-Ang):
   XX=            -56.4810   YY=            -73.0777   ZZ=            -69.0276
   XY=             -0.1794   XZ=             -2.5543   YZ=             -5.8328

 Normal termination of Gaussian 16 at Tue Dec  5 15:53:06 2023.
