 Gaussian 16, Revision B.01,
 Gaussian 16:  ES64L-G16RevB.01 20-Dec-2017

 -------------------------
 #P B3LYP/6-311+g(d) force
 -------------------------

 -----
 DPGEN
 -----
 Symbolic Z-matrix:
 Charge =  0 Multiplicity = 2

                         Standard orientation:
 ---------------------------------------------------------------------
 Center     Atomic      Atomic             Coordinates (Angstroms)
 Number     Number       Type             X           Y           Z
 ---------------------------------------------------------------------
      1         11           0       -1.198650    1.281514   -0.964052
      2         11           0       -2.232733   -0.545204    1.810674
      3         11           0       -3.314698   -1.394264   -1.112339
      4         11           0        0.103818   -2.018178    0.114394
      5         11           0        0.667136    4.157639   -0.057368
      6         11           0        1.840482    0.323193    0.713263
      7         11           0        4.134644   -1.804699   -0.504572
 ---------------------------------------------------------------------

 SCF Done:  E(UB3LYP) =  -1136.12151023     A.U. after   21 cycles

 The electronic state is 2-A.
 Alpha  occ. eigenvalues --  -38.44532 -38.44495 -38.44222 -38.43863 -38.43676
 Alpha  occ. eigenvalues --  -38.43611 -38.43590  -2.20433  -2.20402  -2.20006
 Alpha  occ. eigenvalues --   -2.19745  -2.19502  -2.19468  -2.19431  -1.14181
 Alpha  occ. eigenvalues --   -1.14121  -1.14086  -1.14072  -1.14064  -1.13952
 Alpha  occ. eigenvalues --   -1.13676  -1.13664  -1.13618  -1.13403  -1.13395
 Alpha  occ. eigenvalues --   -1.13364  -1.13252  -1.13180  -1.13165  -1.13161
 Alpha  occ. eigenvalues --   -1.13106  -1.13104  -1.13080  -1.13060  -1.13027
 Alpha  occ. eigenvalues --   -0.18218  -0.13592  -0.12036  -0.10397
 Alpha virt. eigenvalues --   -0.06637  -0.05750  -0.04620  -0.03173  -0.02550
 Alpha virt. eigenvalues --   -0.02123  -0.02063  -0.01630  -0.00891  -0.00636
 Alpha virt. eigenvalues --   -0.00038   0.00064   0.00254   0.00585   0.00605

  Beta  occ. eigenvalues --  -38.44480 -38.44478 -38.44189 -38.43806 -38.43682
  Beta  occ. eigenvalues --  -38.43602 -38.43568  -2.20377  -2.20340  -2.19944
  Beta  occ. eigenvalues --   -2.19640  -2.19489  -2.19443  -2.19430  -1.14155
  Beta  occ. eigenvalues --   -1.14064  -1.14033  -1.14021  -1.13983  -1.13924
  Beta  occ. eigenvalues --   -1.13634  -1.13621  -1.13580  -1.13332  -1.13317
  Beta  occ. eigenvalues --   -1.13291  -1.13242  -1.13159  -1.13138  -1.13124
  Beta  occ. eigenvalues --   -1.13112  -1.13109  -1.13076  -1.13053  -1.12998
  Beta  occ. eigenvalues --   -0.17555  -0.13260  -0.11946
  Beta virt. eigenvalues --   -0.06682  -0.06261  -0.05596  -0.04316  -0.02840
  Beta virt. eigenvalues --   -0.02381  -0.01816  -0.01769  -0.01108  -0.00537
  Beta virt. eigenvalues --   -0.00421   0.00061   0.00227   0.00493   0.00647

 Mulliken charges and spin densities:
               1          2
     1  Na  -1.064132   0.170332
     2  Na   0.424917   0.321153
     3  Na   0.758220   0.257240
     4  Na  -0.302458   0.022923
     5  Na   0.388379  -0.001787
     6  Na  -0.368051   0.091266
     7  Na   0.163125   0.138874
 Sum of Mulliken charges =  -0.00000   1.00000

 Dipole moment (field-independent basis, Debye):
    X=             -0.1653    Y=             -0.5798    Z=              0.6277  Tot=              0.8704
 Quadrupole moment (field-independent basis, Debye-Ang):
   XX=            -58.0629   YY=            -63.6045   ZZ=            -71.9424
   XY=              2.1992   XZ=             -3.9537   YZ=              3.9563

 Normal termination of Gaussian 16 at Tue Dec  5 12:56:51 2023.
