 Gaussian 16, Revision B.01,
 Gaussian 16:  ES64L-G16RevB.01 20-Dec-2017

 -------------------------
 #P B3LYP/6-311+g(d) force
 -------------------------

 -----
 DPGEN
 -----
 Symbolic Z-matrix:
 Charge =  0 Multiplicity = 2

                         Standard orientation:
 ---------------------------------------------------------------------
 Center     Atomic      Atomic             Coordinates (Angstroms)
 Number     Number       Type             X           Y           Z
 ---------------------------------------------------------------------
      1         11           0        2.805857   -1.016776   -0.263572
      2         11           0        1.835667    2.172456    0.247294
      3         11           0       -1.762554    2.430044   -0.194345
      4         11           0       -0.270929    0.222420    1.681231
      5         11           0       -2.764624   -1.187062   -0.213470
      6         11           0        0.126818    0.047379   -1.588800
      7         11           0        0.029764   -2.668460    0.331663
 ---------------------------------------------------------------------

 SCF Done:  E(UB3LYP) =  -1136.13677025     A.U. after   19 cycles

 The electronic state is 2-A.
 Alpha  occ. eigenvalues --  -38.43723 -38.43660 -38.43595 -38.43501 -38.43168
 Alpha  occ. eigenvalues --  -38.42929 -38.42854  -2.19600  -2.19525  -2.19496
 Alpha  occ. eigenvalues --   -2.19398  -2.19112  -2.18970  -2.18917  -1.13290
 Alpha  occ. eigenvalues --   -1.13264  -1.13244  -1.13222  -1.13204  -1.13198
 Alpha  occ. eigenvalues --   -1.13170  -1.13151  -1.13116  -1.13098  -1.13052
 Alpha  occ. eigenvalues --   -1.13023  -1.12834  -1.12773  -1.12733  -1.12677
 Alpha  occ. eigenvalues --   -1.12579  -1.12579  -1.12576  -1.12532  -1.12530
 Alpha  occ. eigenvalues --   -0.19432  -0.13104  -0.12908  -0.10619
 Alpha virt. eigenvalues --   -0.05361  -0.05128  -0.04672  -0.03009  -0.02926
 Alpha virt. eigenvalues --   -0.02136  -0.01385  -0.01213  -0.00161  -0.00090
 Alpha virt. eigenvalues --    0.00087   0.00364   0.00863   0.00913   0.00954

  Beta  occ. eigenvalues --  -38.43717 -38.43653 -38.43585 -38.43494 -38.43156
  Beta  occ. eigenvalues --  -38.42850 -38.42784  -2.19593  -2.19517  -2.19482
  Beta  occ. eigenvalues --   -2.19389  -2.19095  -2.18826  -2.18789  -1.13288
  Beta  occ. eigenvalues --   -1.13245  -1.13229  -1.13216  -1.13193  -1.13174
  Beta  occ. eigenvalues --   -1.13144  -1.13129  -1.13112  -1.13088  -1.13033
  Beta  occ. eigenvalues --   -1.13010  -1.12813  -1.12733  -1.12720  -1.12589
  Beta  occ. eigenvalues --   -1.12485  -1.12477  -1.12475  -1.12443  -1.12433
  Beta  occ. eigenvalues --   -0.18708  -0.12825  -0.12626
  Beta virt. eigenvalues --   -0.06678  -0.05359  -0.05098  -0.04664  -0.02207
  Beta virt. eigenvalues --   -0.02123  -0.01300  -0.01153  -0.01109  -0.00196
  Beta virt. eigenvalues --   -0.00109   0.00178   0.00391   0.00886   0.00926

 Mulliken charges and spin densities:
               1          2
     1  Na   0.198854  -0.003909
     2  Na   0.207156  -0.058173
     3  Na   0.022606  -0.106654
     4  Na  -0.280137   0.571442
     5  Na   0.051203  -0.058559
     6  Na  -0.473004   0.623029
     7  Na   0.273323   0.032825
 Sum of Mulliken charges =  -0.00000   1.00000

 Dipole moment (field-independent basis, Debye):
    X=             -0.1620    Y=              0.2324    Z=             -0.0083  Tot=              0.2834
 Quadrupole moment (field-independent basis, Debye-Ang):
   XX=            -56.5044   YY=            -60.4525   ZZ=            -75.2331
   XY=             -0.2041   XZ=              0.9452   YZ=             -0.2977

 Normal termination of Gaussian 16 at Wed Nov 29 01:43:46 2023.
