 Gaussian 16, Revision B.01,
 Gaussian 16:  ES64L-G16RevB.01 20-Dec-2017

 -------------------------
 #P B3LYP/6-311+g(d) force
 -------------------------

 -----
 DPGEN
 -----
 Symbolic Z-matrix:
 Charge =  0 Multiplicity = 2

                         Standard orientation:
 ---------------------------------------------------------------------
 Center     Atomic      Atomic             Coordinates (Angstroms)
 Number     Number       Type             X           Y           Z
 ---------------------------------------------------------------------
      1         11           0        1.234753    2.377569    1.493475
      2         11           0        4.418643    0.960432   -0.225869
      3         11           0       -0.225637   -2.843593   -0.423255
      4         11           0       -1.337931    3.087259   -0.979291
      5         11           0       -3.033163   -2.227376    0.901055
      6         11           0       -4.586612    0.698081   -0.392485
      7         11           0        3.529947   -2.052372   -0.373630
 ---------------------------------------------------------------------

 SCF Done:  E(UB3LYP) =  -1136.10465297     A.U. after   21 cycles

 The electronic state is 2-A.
 Alpha  occ. eigenvalues --  -38.44938 -38.44768 -38.44750 -38.44692 -38.44482
 Alpha  occ. eigenvalues --  -38.44321 -38.43831  -2.20657  -2.20569  -2.20506
 Alpha  occ. eigenvalues --   -2.20483  -2.20273  -2.20107  -2.19636  -1.14347
 Alpha  occ. eigenvalues --   -1.14327  -1.14298  -1.14287  -1.14228  -1.14204
 Alpha  occ. eigenvalues --   -1.14172  -1.14155  -1.14149  -1.14130  -1.14123
 Alpha  occ. eigenvalues --   -1.14093  -1.13967  -1.13946  -1.13925  -1.13759
 Alpha  occ. eigenvalues --   -1.13734  -1.13730  -1.13290  -1.13282  -1.13266
 Alpha  occ. eigenvalues --   -0.15540  -0.13951  -0.12748  -0.10682
 Alpha virt. eigenvalues --   -0.07530  -0.05344  -0.04382  -0.03469  -0.03375
 Alpha virt. eigenvalues --   -0.02533  -0.02443  -0.01439  -0.00987  -0.00902
 Alpha virt. eigenvalues --   -0.00736  -0.00382   0.00139   0.00423   0.00542

  Beta  occ. eigenvalues --  -38.44951 -38.44735 -38.44705 -38.44677 -38.44486
  Beta  occ. eigenvalues --  -38.44230 -38.43779  -2.20683  -2.20511  -2.20459
  Beta  occ. eigenvalues --   -2.20423  -2.20287  -2.19938  -2.19541  -1.14368
  Beta  occ. eigenvalues --   -1.14347  -1.14296  -1.14244  -1.14191  -1.14159
  Beta  occ. eigenvalues --   -1.14135  -1.14116  -1.14113  -1.14100  -1.14065
  Beta  occ. eigenvalues --   -1.14051  -1.13968  -1.13960  -1.13903  -1.13644
  Beta  occ. eigenvalues --   -1.13624  -1.13617  -1.13225  -1.13219  -1.13205
  Beta  occ. eigenvalues --   -0.15024  -0.13201  -0.12200
  Beta virt. eigenvalues --   -0.07656  -0.07508  -0.04860  -0.03978  -0.03223
  Beta virt. eigenvalues --   -0.03046  -0.02347  -0.02159  -0.01209  -0.00839
  Beta virt. eigenvalues --   -0.00765  -0.00433  -0.00150   0.00250   0.00496

 Mulliken charges and spin densities:
               1          2
     1  Na  -0.237883   0.233366
     2  Na  -0.042507   0.158818
     3  Na  -0.495429   0.208566
     4  Na   0.173929  -0.085837
     5  Na   0.371044  -0.037932
     6  Na  -0.038170   0.458444
     7  Na   0.269017   0.064576
 Sum of Mulliken charges =  -0.00000   1.00000

 Dipole moment (field-independent basis, Debye):
    X=              0.7953    Y=              0.4758    Z=              0.0028  Tot=              0.9268
 Quadrupole moment (field-independent basis, Debye-Ang):
   XX=            -65.4565   YY=            -69.7091   ZZ=            -67.3670
   XY=              1.6101   XZ=             -0.1606   YZ=             -2.3983

 Normal termination of Gaussian 16 at Mon Dec  4 02:27:02 2023.
