 Gaussian 16, Revision B.01,
 Gaussian 16:  ES64L-G16RevB.01 20-Dec-2017

 -------------------------
 #P B3LYP/6-311+g(d) force
 -------------------------

 -----
 DPGEN
 -----
 Symbolic Z-matrix:
 Charge =  0 Multiplicity = 2

                         Standard orientation:
 ---------------------------------------------------------------------
 Center     Atomic      Atomic             Coordinates (Angstroms)
 Number     Number       Type             X           Y           Z
 ---------------------------------------------------------------------
      1         11           0       -2.326626    1.933155   -0.005204
      2         11           0       -2.922768   -1.172011   -0.046702
      3         11           0        0.600641   -2.788344   -0.035659
      4         11           0       -0.054840   -0.148005    1.658762
      5         11           0        3.093194   -0.447717   -0.016423
      6         11           0        0.032390    0.009856   -1.596787
      7         11           0        1.578009    2.613067    0.042014
 ---------------------------------------------------------------------

 SCF Done:  E(UB3LYP) =  -1136.13714500     A.U. after   23 cycles

 The electronic state is 2-A.
 Alpha  occ. eigenvalues --  -38.44242 -38.44139 -38.43826 -38.43393 -38.43092
 Alpha  occ. eigenvalues --  -38.42868 -38.42841  -2.20102  -2.19999  -2.19692
 Alpha  occ. eigenvalues --   -2.19231  -2.18987  -2.18868  -2.18854  -1.13773
 Alpha  occ. eigenvalues --   -1.13767  -1.13743  -1.13694  -1.13661  -1.13640
 Alpha  occ. eigenvalues --   -1.13361  -1.13353  -1.13322  -1.12907  -1.12897
 Alpha  occ. eigenvalues --   -1.12871  -1.12730  -1.12668  -1.12609  -1.12604
 Alpha  occ. eigenvalues --   -1.12506  -1.12477  -1.12473  -1.12468  -1.12460
 Alpha  occ. eigenvalues --   -0.19032  -0.13510  -0.12357  -0.10236
 Alpha virt. eigenvalues --   -0.05882  -0.05333  -0.04578  -0.03150  -0.02522
 Alpha virt. eigenvalues --   -0.01968  -0.01792  -0.01184  -0.00431  -0.00376
 Alpha virt. eigenvalues --    0.00042   0.00354   0.00768   0.00872   0.00885

  Beta  occ. eigenvalues --  -38.44238 -38.44134 -38.43821 -38.43390 -38.43084
  Beta  occ. eigenvalues --  -38.42790 -38.42769  -2.20097  -2.19994  -2.19686
  Beta  occ. eigenvalues --   -2.19228  -2.18977  -2.18727  -2.18722  -1.13767
  Beta  occ. eigenvalues --   -1.13745  -1.13739  -1.13694  -1.13640  -1.13628
  Beta  occ. eigenvalues --   -1.13359  -1.13324  -1.13320  -1.12905  -1.12875
  Beta  occ. eigenvalues --   -1.12871  -1.12710  -1.12622  -1.12606  -1.12520
  Beta  occ. eigenvalues --   -1.12409  -1.12381  -1.12375  -1.12372  -1.12362
  Beta  occ. eigenvalues --   -0.18313  -0.13256  -0.12096
  Beta virt. eigenvalues --   -0.06338  -0.05850  -0.05341  -0.04578  -0.02333
  Beta virt. eigenvalues --   -0.01769  -0.01699  -0.01134  -0.00955  -0.00486
  Beta virt. eigenvalues --   -0.00429   0.00183   0.00382   0.00809   0.00868

 Mulliken charges and spin densities:
               1          2
     1  Na   0.106233  -0.080951
     2  Na   0.265560  -0.050184
     3  Na   0.239198  -0.104409
     4  Na  -0.421124   0.729180
     5  Na   0.210769  -0.040814
     6  Na  -0.424726   0.662686
     7  Na   0.024090  -0.115508
 Sum of Mulliken charges =  -0.00000   1.00000

 Dipole moment (field-independent basis, Debye):
    X=             -0.0550    Y=              0.0065    Z=              0.0184  Tot=              0.0584
 Quadrupole moment (field-independent basis, Debye-Ang):
   XX=            -52.3064   YY=            -61.5778   ZZ=            -77.2784
   XY=              0.1177   XZ=              0.2030   YZ=              0.4098

 Normal termination of Gaussian 16 at Wed Nov 29 00:08:56 2023.
