 Gaussian 16, Revision B.01,
 Gaussian 16:  ES64L-G16RevB.01 20-Dec-2017

 -------------------------
 #P B3LYP/6-311+g(d) force
 -------------------------

 -----
 DPGEN
 -----
 Symbolic Z-matrix:
 Charge =  0 Multiplicity = 2

                         Standard orientation:
 ---------------------------------------------------------------------
 Center     Atomic      Atomic             Coordinates (Angstroms)
 Number     Number       Type             X           Y           Z
 ---------------------------------------------------------------------
      1         11           0       -0.485189   -0.986579    1.908532
      2         11           0        3.464685    1.802500    0.378147
      3         11           0        4.521021   -0.723247   -0.894161
      4         11           0       -3.923484    1.686780   -0.894411
      5         11           0       -3.612545   -1.783195   -0.166788
      6         11           0        0.662100   -2.541683   -0.512908
      7         11           0       -0.626588    2.545423    0.181589
 ---------------------------------------------------------------------

 SCF Done:  E(UB3LYP) =  -1136.11019193     A.U. after   21 cycles

 The electronic state is 2-A.
 Alpha  occ. eigenvalues --  -38.45196 -38.44510 -38.44493 -38.44439 -38.44182
 Alpha  occ. eigenvalues --  -38.44017 -38.43823  -2.20969  -2.20335  -2.20277
 Alpha  occ. eigenvalues --   -2.20227  -2.20002  -2.19791  -2.19599  -1.14652
 Alpha  occ. eigenvalues --   -1.14617  -1.14573  -1.14092  -1.13980  -1.13969
 Alpha  occ. eigenvalues --   -1.13968  -1.13941  -1.13912  -1.13896  -1.13871
 Alpha  occ. eigenvalues --   -1.13866  -1.13643  -1.13626  -1.13622  -1.13470
 Alpha  occ. eigenvalues --   -1.13449  -1.13435  -1.13274  -1.13260  -1.13209
 Alpha  occ. eigenvalues --   -0.16341  -0.13833  -0.11912  -0.11064
 Alpha virt. eigenvalues --   -0.06869  -0.05599  -0.04393  -0.03592  -0.03400
 Alpha virt. eigenvalues --   -0.02343  -0.02058  -0.01724  -0.01033  -0.00597
 Alpha virt. eigenvalues --   -0.00300  -0.00046   0.00063   0.00436   0.00526

  Beta  occ. eigenvalues --  -38.45136 -38.44489 -38.44472 -38.44442 -38.44134
  Beta  occ. eigenvalues --  -38.44008 -38.43774  -2.20858  -2.20273  -2.20263
  Beta  occ. eigenvalues --   -2.20237  -2.19914  -2.19777  -2.19509  -1.14578
  Beta  occ. eigenvalues --   -1.14545  -1.14483  -1.14058  -1.13955  -1.13949
  Beta  occ. eigenvalues --   -1.13927  -1.13913  -1.13907  -1.13900  -1.13864
  Beta  occ. eigenvalues --   -1.13844  -1.13583  -1.13574  -1.13563  -1.13462
  Beta  occ. eigenvalues --   -1.13441  -1.13408  -1.13212  -1.13195  -1.13152
  Beta  occ. eigenvalues --   -0.15720  -0.13195  -0.11787
  Beta virt. eigenvalues --   -0.07626  -0.06758  -0.05163  -0.03944  -0.03313
  Beta virt. eigenvalues --   -0.02858  -0.02176  -0.01920  -0.01409  -0.00774
  Beta virt. eigenvalues --   -0.00505  -0.00146   0.00157   0.00231   0.00506

 Mulliken charges and spin densities:
               1          2
     1  Na  -0.040389   0.109188
     2  Na  -0.162484   0.000656
     3  Na   0.158230   0.164463
     4  Na   0.394427   0.244488
     5  Na  -0.122038   0.303510
     6  Na   0.074941   0.064936
     7  Na  -0.302687   0.112760
 Sum of Mulliken charges =  -0.00000   1.00000

 Dipole moment (field-independent basis, Debye):
    X=             -0.1389    Y=             -1.0254    Z=              0.0360  Tot=              1.0354
 Quadrupole moment (field-independent basis, Debye-Ang):
   XX=            -67.0196   YY=            -68.1811   ZZ=            -67.2779
   XY=              0.3959   XZ=             -0.6205   YZ=              3.4471

 Normal termination of Gaussian 16 at Sun Dec  3 19:42:08 2023.
