 Gaussian 16, Revision B.01,
 Gaussian 16:  ES64L-G16RevB.01 20-Dec-2017

 -------------------------
 #P B3LYP/6-311+g(d) force
 -------------------------

 -----
 DPGEN
 -----
 Symbolic Z-matrix:
 Charge =  0 Multiplicity = 2

                         Standard orientation:
 ---------------------------------------------------------------------
 Center     Atomic      Atomic             Coordinates (Angstroms)
 Number     Number       Type             X           Y           Z
 ---------------------------------------------------------------------
      1         11           0       -2.230897   -2.171447   -1.348227
      2         11           0       -5.072827   -1.339176    0.189684
      3         11           0       -2.953442    1.014324    1.688187
      4         11           0       -1.130012    3.206860   -0.938414
      5         11           0        0.580943    0.671200   -0.194744
      6         11           0        4.148729   -1.511100    0.807062
      7         11           0        6.657507    0.129339   -0.203548
 ---------------------------------------------------------------------

 SCF Done:  E(UB3LYP) =  -1136.10979157     A.U. after   20 cycles

 The electronic state is 2-A.
 Alpha  occ. eigenvalues --  -38.44746 -38.44700 -38.44412 -38.44358 -38.44137
 Alpha  occ. eigenvalues --  -38.44059 -38.43519  -2.20539  -2.20479  -2.20205
 Alpha  occ. eigenvalues --   -2.20134  -2.19931  -2.19871  -2.19317  -1.14225
 Alpha  occ. eigenvalues --   -1.14184  -1.14142  -1.14138  -1.14133  -1.14131
 Alpha  occ. eigenvalues --   -1.13896  -1.13867  -1.13843  -1.13800  -1.13791
 Alpha  occ. eigenvalues --   -1.13772  -1.13596  -1.13573  -1.13554  -1.13553
 Alpha  occ. eigenvalues --   -1.13520  -1.13485  -1.12988  -1.12976  -1.12968
 Alpha  occ. eigenvalues --   -0.16032  -0.13562  -0.12154  -0.10705
 Alpha virt. eigenvalues --   -0.06877  -0.05528  -0.04676  -0.03451  -0.02977
 Alpha virt. eigenvalues --   -0.02535  -0.02132  -0.01753  -0.01606  -0.00734
 Alpha virt. eigenvalues --   -0.00403  -0.00299   0.00244   0.00342   0.00564

  Beta  occ. eigenvalues --  -38.44680 -38.44675 -38.44414 -38.44365 -38.44071
  Beta  occ. eigenvalues --  -38.44030 -38.43519  -2.20441  -2.20408  -2.20209
  Beta  occ. eigenvalues --   -2.20147  -2.19818  -2.19806  -2.19321  -1.14131
  Beta  occ. eigenvalues --   -1.14118  -1.14107  -1.14105  -1.14097  -1.14042
  Beta  occ. eigenvalues --   -1.13894  -1.13871  -1.13838  -1.13811  -1.13800
  Beta  occ. eigenvalues --   -1.13770  -1.13519  -1.13512  -1.13489  -1.13478
  Beta  occ. eigenvalues --   -1.13467  -1.13445  -1.12993  -1.12974  -1.12955
  Beta  occ. eigenvalues --   -0.15351  -0.13351  -0.12057
  Beta virt. eigenvalues --   -0.07243  -0.06368  -0.05248  -0.04309  -0.03099
  Beta virt. eigenvalues --   -0.02621  -0.02274  -0.02007  -0.01511  -0.01230
  Beta virt. eigenvalues --   -0.00568  -0.00288  -0.00135   0.00428   0.00457

 Mulliken charges and spin densities:
               1          2
     1  Na   0.357110   0.361899
     2  Na  -0.053141  -0.027861
     3  Na   0.247803   0.441253
     4  Na   1.378726   0.099797
     5  Na  -1.840516   0.100681
     6  Na  -0.141361  -0.067825
     7  Na   0.051379   0.092055
 Sum of Mulliken charges =  -0.00000   1.00000

 Dipole moment (field-independent basis, Debye):
    X=              0.6749    Y=              0.9690    Z=             -0.3097  Tot=              1.2208
 Quadrupole moment (field-independent basis, Debye-Ang):
   XX=            -59.7274   YY=            -67.0367   ZZ=            -69.1199
   XY=              1.9466   XZ=             -1.1073   YZ=             -4.5877

 Normal termination of Gaussian 16 at Wed Nov 29 01:23:07 2023.
