 Gaussian 16, Revision B.01,
 Gaussian 16:  ES64L-G16RevB.01 20-Dec-2017

 -------------------------
 #P B3LYP/6-311+g(d) force
 -------------------------

 -----
 DPGEN
 -----
 Symbolic Z-matrix:
 Charge =  0 Multiplicity = 2

                         Standard orientation:
 ---------------------------------------------------------------------
 Center     Atomic      Atomic             Coordinates (Angstroms)
 Number     Number       Type             X           Y           Z
 ---------------------------------------------------------------------
      1         11           0        3.568159   -1.536622    0.558948
      2         11           0        0.180329   -3.394294   -0.425306
      3         11           0        3.025393    2.094980   -0.469268
      4         11           0       -0.250360    3.384171    0.620577
      5         11           0       -0.012531   -0.261821   -0.424322
      6         11           0       -3.156601   -1.819609    0.604429
      7         11           0       -3.354389    1.533196   -0.465059
 ---------------------------------------------------------------------

 SCF Done:  E(UB3LYP) =  -1136.12302177     A.U. after   21 cycles

 The electronic state is 2-A.
 Alpha  occ. eigenvalues --  -38.44891 -38.44866 -38.43984 -38.43854 -38.43766
 Alpha  occ. eigenvalues --  -38.43728 -38.43550  -2.20675  -2.20625  -2.19855
 Alpha  occ. eigenvalues --   -2.19648  -2.19556  -2.19536  -2.19388  -1.14365
 Alpha  occ. eigenvalues --   -1.14337  -1.14322  -1.14300  -1.14289  -1.14252
 Alpha  occ. eigenvalues --   -1.13587  -1.13523  -1.13478  -1.13321  -1.13291
 Alpha  occ. eigenvalues --   -1.13279  -1.13224  -1.13212  -1.13188  -1.13182
 Alpha  occ. eigenvalues --   -1.13181  -1.13164  -1.13060  -1.13033  -1.13000
 Alpha  occ. eigenvalues --   -0.16794  -0.13482  -0.13099  -0.09557
 Alpha virt. eigenvalues --   -0.06795  -0.05700  -0.04803  -0.02833  -0.02556
 Alpha virt. eigenvalues --   -0.02297  -0.02241  -0.01853  -0.01755  -0.00279
 Alpha virt. eigenvalues --    0.00192   0.00252   0.00426   0.00532   0.00553

  Beta  occ. eigenvalues --  -38.44876 -38.44863 -38.43985 -38.43821 -38.43699
  Beta  occ. eigenvalues --  -38.43689 -38.43511  -2.20653  -2.20624  -2.19855
  Beta  occ. eigenvalues --   -2.19585  -2.19466  -2.19431  -2.19316  -1.14355
  Beta  occ. eigenvalues --   -1.14327  -1.14326  -1.14293  -1.14245  -1.14213
  Beta  occ. eigenvalues --   -1.13586  -1.13521  -1.13489  -1.13278  -1.13252
  Beta  occ. eigenvalues --   -1.13234  -1.13165  -1.13140  -1.13138  -1.13104
  Beta  occ. eigenvalues --   -1.13101  -1.13089  -1.13012  -1.12986  -1.12948
  Beta  occ. eigenvalues --   -0.16514  -0.12735  -0.12561
  Beta virt. eigenvalues --   -0.06874  -0.06341  -0.05453  -0.04558  -0.02323
  Beta virt. eigenvalues --   -0.02234  -0.02075  -0.01878  -0.01609  -0.01551
  Beta virt. eigenvalues --   -0.00175   0.00389   0.00462   0.00513   0.00569

 Mulliken charges and spin densities:
               1          2
     1  Na   0.531522   0.395750
     2  Na   0.319452   0.123918
     3  Na   0.013358   0.089123
     4  Na   0.654536   0.135266
     5  Na  -2.136976  -0.125073
     6  Na   0.764535   0.090176
     7  Na  -0.146428   0.290839
 Sum of Mulliken charges =  -0.00000   1.00000

 Dipole moment (field-independent basis, Debye):
    X=             -0.4148    Y=             -0.0906    Z=              0.1873  Tot=              0.4640
 Quadrupole moment (field-independent basis, Debye-Ang):
   XX=            -70.2359   YY=            -57.9878   ZZ=            -70.0005
   XY=              3.9116   XZ=             -2.5421   YZ=             -2.1620

 Normal termination of Gaussian 16 at Fri Dec  8 20:22:56 2023.
