 Gaussian 16, Revision B.01,
 Gaussian 16:  ES64L-G16RevB.01 20-Dec-2017

 -------------------------
 #P B3LYP/6-311+g(d) force
 -------------------------

 -----
 DPGEN
 -----
 Symbolic Z-matrix:
 Charge =  0 Multiplicity = 2

                         Standard orientation:
 ---------------------------------------------------------------------
 Center     Atomic      Atomic             Coordinates (Angstroms)
 Number     Number       Type             X           Y           Z
 ---------------------------------------------------------------------
      1         11           0        3.082640   -1.090888   -0.377302
      2         11           0       -1.316199    2.624899   -0.104883
      3         11           0        1.858433    1.850338    0.057320
      4         11           0       -2.889026   -0.783609   -0.513040
      5         11           0       -0.086356   -0.199606   -1.720007
      6         11           0       -0.429132   -2.724294    0.605957
      7         11           0       -0.220359    0.323161    2.051955
 ---------------------------------------------------------------------

 SCF Done:  E(UB3LYP) =  -1136.13692498     A.U. after   19 cycles

 The electronic state is 2-A.
 Alpha  occ. eigenvalues --  -38.43797 -38.43796 -38.43632 -38.43471 -38.43437
 Alpha  occ. eigenvalues --  -38.43234 -38.43186  -2.19728  -2.19672  -2.19455
 Alpha  occ. eigenvalues --   -2.19426  -2.19336  -2.19172  -2.19068  -1.13411
 Alpha  occ. eigenvalues --   -1.13399  -1.13364  -1.13354  -1.13317  -1.13297
 Alpha  occ. eigenvalues --   -1.13150  -1.13125  -1.13107  -1.13090  -1.13073
 Alpha  occ. eigenvalues --   -1.13036  -1.13014  -1.12983  -1.12955  -1.12861
 Alpha  occ. eigenvalues --   -1.12846  -1.12803  -1.12735  -1.12722  -1.12686
 Alpha  occ. eigenvalues --   -0.18983  -0.13039  -0.12474  -0.11271
 Alpha virt. eigenvalues --   -0.05325  -0.04808  -0.04662  -0.03364  -0.03054
 Alpha virt. eigenvalues --   -0.02857  -0.01376  -0.01018  -0.00227   0.00034
 Alpha virt. eigenvalues --    0.00096   0.00357   0.00859   0.00929   0.00942

  Beta  occ. eigenvalues --  -38.43783 -38.43703 -38.43629 -38.43454 -38.43371
  Beta  occ. eigenvalues --  -38.43226 -38.43182  -2.19651  -2.19556  -2.19453
  Beta  occ. eigenvalues --   -2.19309  -2.19305  -2.19163  -2.19064  -1.13381
  Beta  occ. eigenvalues --   -1.13296  -1.13288  -1.13286  -1.13239  -1.13228
  Beta  occ. eigenvalues --   -1.13147  -1.13111  -1.13090  -1.13032  -1.13010
  Beta  occ. eigenvalues --   -1.12975  -1.12954  -1.12942  -1.12933  -1.12854
  Beta  occ. eigenvalues --   -1.12823  -1.12784  -1.12725  -1.12710  -1.12677
  Beta  occ. eigenvalues --   -0.18233  -0.12769  -0.12230
  Beta virt. eigenvalues --   -0.07309  -0.05255  -0.04808  -0.04586  -0.02559
  Beta virt. eigenvalues --   -0.02339  -0.01791  -0.01272  -0.00965  -0.00157
  Beta virt. eigenvalues --    0.00059   0.00112   0.00382   0.00903   0.00929

 Mulliken charges and spin densities:
               1          2
     1  Na   0.022117  -0.056620
     2  Na   0.171359  -0.061620
     3  Na   0.245114   0.024023
     4  Na   0.241003  -0.032474
     5  Na  -0.383145   0.512716
     6  Na   0.066067   0.082512
     7  Na  -0.362515   0.531464
 Sum of Mulliken charges =  -0.00000   1.00000

 Dipole moment (field-independent basis, Debye):
    X=             -0.2013    Y=             -0.1624    Z=              0.1027  Tot=              0.2783
 Quadrupole moment (field-independent basis, Debye-Ang):
   XX=            -59.1745   YY=            -63.8216   ZZ=            -71.6755
   XY=             -1.3665   XZ=              0.4980   YZ=             -1.0084

 Normal termination of Gaussian 16 at Tue Dec  5 10:26:44 2023.
