 Gaussian 16, Revision B.01,
 Gaussian 16:  ES64L-G16RevB.01 20-Dec-2017

 -------------------------
 #P B3LYP/6-311+g(d) force
 -------------------------

 -----
 DPGEN
 -----
 Symbolic Z-matrix:
 Charge =  0 Multiplicity = 2

                         Standard orientation:
 ---------------------------------------------------------------------
 Center     Atomic      Atomic             Coordinates (Angstroms)
 Number     Number       Type             X           Y           Z
 ---------------------------------------------------------------------
      1         11           0        2.455771   -1.793890    0.027687
      2         11           0       -0.027231   -0.156894   -1.798321
      3         11           0       -0.793093    2.769449    0.006076
      4         11           0       -3.063906    0.213107   -0.075350
      5         11           0       -1.392323   -2.573592    0.115710
      6         11           0        2.652340    1.371837   -0.190158
      7         11           0        0.168442    0.169983    1.914355
 ---------------------------------------------------------------------

 SCF Done:  E(UB3LYP) =  -1136.14008683     A.U. after   19 cycles

 The electronic state is 2-A.
 Alpha  occ. eigenvalues --  -38.44011 -38.43840 -38.43752 -38.43401 -38.43324
 Alpha  occ. eigenvalues --  -38.43280 -38.43034  -2.19872  -2.19715  -2.19611
 Alpha  occ. eigenvalues --   -2.19331  -2.19278  -2.19139  -2.18898  -1.13545
 Alpha  occ. eigenvalues --   -1.13539  -1.13519  -1.13431  -1.13383  -1.13362
 Alpha  occ. eigenvalues --   -1.13275  -1.13266  -1.13232  -1.13010  -1.12963
 Alpha  occ. eigenvalues --   -1.12956  -1.12951  -1.12920  -1.12900  -1.12804
 Alpha  occ. eigenvalues --   -1.12798  -1.12773  -1.12573  -1.12562  -1.12532
 Alpha  occ. eigenvalues --   -0.18895  -0.13356  -0.12286  -0.10809
 Alpha virt. eigenvalues --   -0.05628  -0.05222  -0.04487  -0.03359  -0.02807
 Alpha virt. eigenvalues --   -0.02555  -0.01520  -0.01043  -0.00287  -0.00242
 Alpha virt. eigenvalues --   -0.00009   0.00380   0.00796   0.00902   0.00921

  Beta  occ. eigenvalues --  -38.44008 -38.43833 -38.43748 -38.43315 -38.43275
  Beta  occ. eigenvalues --  -38.43249 -38.43030  -2.19870  -2.19707  -2.19607
  Beta  occ. eigenvalues --   -2.19172  -2.19140  -2.19134  -2.18893  -1.13545
  Beta  occ. eigenvalues --   -1.13526  -1.13509  -1.13430  -1.13361  -1.13345
  Beta  occ. eigenvalues --   -1.13265  -1.13244  -1.13231  -1.12910  -1.12869
  Beta  occ. eigenvalues --   -1.12848  -1.12840  -1.12835  -1.12802  -1.12789
  Beta  occ. eigenvalues --   -1.12769  -1.12760  -1.12569  -1.12533  -1.12531
  Beta  occ. eigenvalues --   -0.18144  -0.13116  -0.12042
  Beta virt. eigenvalues --   -0.06887  -0.05580  -0.05236  -0.04465  -0.02527
  Beta virt. eigenvalues --   -0.02025  -0.01497  -0.01426  -0.00977  -0.00347
  Beta virt. eigenvalues --   -0.00300   0.00126   0.00395   0.00864   0.00891

 Mulliken charges and spin densities:
               1          2
     1  Na   0.143674  -0.086110
     2  Na  -0.298308   0.641687
     3  Na   0.130819  -0.106527
     4  Na   0.126948  -0.055038
     5  Na   0.089375  -0.105178
     6  Na   0.221360  -0.053317
     7  Na  -0.413869   0.764483
 Sum of Mulliken charges =  -0.00000   1.00000

 Dipole moment (field-independent basis, Debye):
    X=              0.0787    Y=             -0.0473    Z=              0.0205  Tot=              0.0941
 Quadrupole moment (field-independent basis, Debye-Ang):
   XX=            -56.1067   YY=            -63.7583   ZZ=            -73.9700
   XY=             -0.2510   XZ=             -0.3471   YZ=             -0.8831

 Normal termination of Gaussian 16 at Thu Dec  7 15:57:55 2023.
