 Gaussian 16, Revision B.01,
 Gaussian 16:  ES64L-G16RevB.01 20-Dec-2017

 -------------------------
 #P B3LYP/6-311+g(d) force
 -------------------------

 -----
 DPGEN
 -----
 Symbolic Z-matrix:
 Charge =  0 Multiplicity = 2

                         Standard orientation:
 ---------------------------------------------------------------------
 Center     Atomic      Atomic             Coordinates (Angstroms)
 Number     Number       Type             X           Y           Z
 ---------------------------------------------------------------------
      1         11           0       -0.347648    0.168576    1.970260
      2         11           0       -4.020442    0.048670    0.168877
      3         11           0       -0.760844    1.224016   -1.770040
      4         11           0       -0.936059   -2.141309   -0.736072
      5         11           0        1.203248    3.024641    0.723560
      6         11           0        2.844659    0.278750   -0.994686
      7         11           0        2.017087   -2.603345    0.638102
 ---------------------------------------------------------------------

 SCF Done:  E(UB3LYP) =  -1136.12997756     A.U. after   20 cycles

 The electronic state is 2-A.
 Alpha  occ. eigenvalues --  -38.44923 -38.44434 -38.43990 -38.43986 -38.43862
 Alpha  occ. eigenvalues --  -38.43369 -38.43118  -2.20657  -2.20236  -2.19835
 Alpha  occ. eigenvalues --   -2.19816  -2.19703  -2.19182  -2.18951  -1.14332
 Alpha  occ. eigenvalues --   -1.14332  -1.14282  -1.13917  -1.13897  -1.13859
 Alpha  occ. eigenvalues --   -1.13524  -1.13506  -1.13474  -1.13468  -1.13456
 Alpha  occ. eigenvalues --   -1.13414  -1.13393  -1.13384  -1.13305  -1.12852
 Alpha  occ. eigenvalues --   -1.12844  -1.12816  -1.12617  -1.12605  -1.12602
 Alpha  occ. eigenvalues --   -0.17754  -0.12690  -0.12195  -0.10913
 Alpha virt. eigenvalues --   -0.06493  -0.04892  -0.04602  -0.03317  -0.03092
 Alpha virt. eigenvalues --   -0.02761  -0.02161  -0.01033  -0.00610  -0.00276
 Alpha virt. eigenvalues --    0.00068   0.00280   0.00446   0.00724   0.00787

  Beta  occ. eigenvalues --  -38.44931 -38.44412 -38.43931 -38.43903 -38.43850
  Beta  occ. eigenvalues --  -38.43358 -38.43115  -2.20673  -2.20196  -2.19716
  Beta  occ. eigenvalues --   -2.19683  -2.19674  -2.19164  -2.18947  -1.14345
  Beta  occ. eigenvalues --   -1.14334  -1.14293  -1.13874  -1.13872  -1.13836
  Beta  occ. eigenvalues --   -1.13457  -1.13409  -1.13396  -1.13381  -1.13356
  Beta  occ. eigenvalues --   -1.13345  -1.13338  -1.13332  -1.13295  -1.12835
  Beta  occ. eigenvalues --   -1.12829  -1.12796  -1.12617  -1.12604  -1.12587
  Beta  occ. eigenvalues --   -0.17010  -0.12564  -0.12001
  Beta virt. eigenvalues --   -0.07053  -0.06375  -0.04715  -0.04481  -0.02727
  Beta virt. eigenvalues --   -0.02497  -0.02152  -0.01699  -0.00966  -0.00465
  Beta virt. eigenvalues --   -0.00199   0.00132   0.00312   0.00580   0.00755

 Mulliken charges and spin densities:
               1          2
     1  Na  -0.288857   0.674579
     2  Na   0.110944  -0.103002
     3  Na   0.040801   0.405194
     4  Na  -0.166002   0.040165
     5  Na   0.082306  -0.102735
     6  Na  -0.153463   0.112012
     7  Na   0.374272  -0.026213
 Sum of Mulliken charges =  -0.00000   1.00000

 Dipole moment (field-independent basis, Debye):
    X=             -0.6539    Y=              0.2135    Z=             -0.0533  Tot=              0.6899
 Quadrupole moment (field-independent basis, Debye-Ang):
   XX=            -54.2174   YY=            -67.6646   ZZ=            -71.7573
   XY=             -0.2038   XZ=             -0.9024   YZ=              0.1966

 Normal termination of Gaussian 16 at Wed Nov 29 17:24:15 2023.
