 Gaussian 16, Revision B.01,
 Gaussian 16:  ES64L-G16RevB.01 20-Dec-2017

 -------------------------
 #P B3LYP/6-311+g(d) force
 -------------------------

 -----
 DPGEN
 -----
 Symbolic Z-matrix:
 Charge =  0 Multiplicity = 2

                         Standard orientation:
 ---------------------------------------------------------------------
 Center     Atomic      Atomic             Coordinates (Angstroms)
 Number     Number       Type             X           Y           Z
 ---------------------------------------------------------------------
      1         11           0       -1.738304    2.456943   -0.363963
      2         11           0        1.623827   -1.099487    1.947895
      3         11           0        0.117693   -2.245584   -0.534701
      4         11           0        3.249563   -0.060016   -1.818886
      5         11           0        1.393534    2.060846    0.091896
      6         11           0       -3.324435   -1.085057   -1.470942
      7         11           0       -1.321877   -0.027644    2.148701
 ---------------------------------------------------------------------

 SCF Done:  E(UB3LYP) =  -1136.12276757     A.U. after   22 cycles

 The electronic state is 2-A.
 Alpha  occ. eigenvalues --  -38.44876 -38.44625 -38.44616 -38.44028 -38.43806
 Alpha  occ. eigenvalues --  -38.43176 -38.42976  -2.20640  -2.20476  -2.20409
 Alpha  occ. eigenvalues --   -2.19928  -2.19634  -2.18993  -2.18826  -1.14305
 Alpha  occ. eigenvalues --   -1.14278  -1.14258  -1.14188  -1.14111  -1.14093
 Alpha  occ. eigenvalues --   -1.14072  -1.14056  -1.14028  -1.13627  -1.13599
 Alpha  occ. eigenvalues --   -1.13528  -1.13312  -1.13301  -1.13251  -1.12705
 Alpha  occ. eigenvalues --   -1.12661  -1.12626  -1.12511  -1.12498  -1.12445
 Alpha  occ. eigenvalues --   -0.17765  -0.12975  -0.11979  -0.11791
 Alpha virt. eigenvalues --   -0.05767  -0.05444  -0.04658  -0.03512  -0.03122
 Alpha virt. eigenvalues --   -0.02957  -0.01520  -0.01103  -0.00551  -0.00046
 Alpha virt. eigenvalues --   -0.00001   0.00175   0.00353   0.00471   0.00543

  Beta  occ. eigenvalues --  -38.44815 -38.44577 -38.44563 -38.43988 -38.43797
  Beta  occ. eigenvalues --  -38.43176 -38.42979  -2.20525  -2.20382  -2.20320
  Beta  occ. eigenvalues --   -2.19858  -2.19618  -2.18994  -2.18834  -1.14225
  Beta  occ. eigenvalues --   -1.14198  -1.14185  -1.14111  -1.14039  -1.14028
  Beta  occ. eigenvalues --   -1.14008  -1.13997  -1.13970  -1.13591  -1.13534
  Beta  occ. eigenvalues --   -1.13471  -1.13304  -1.13272  -1.13239  -1.12707
  Beta  occ. eigenvalues --   -1.12655  -1.12628  -1.12512  -1.12500  -1.12442
  Beta  occ. eigenvalues --   -0.17104  -0.12497  -0.11592
  Beta virt. eigenvalues --   -0.08348  -0.05348  -0.04914  -0.04528  -0.03380
  Beta virt. eigenvalues --   -0.02613  -0.02285  -0.01293  -0.00729  -0.00503
  Beta virt. eigenvalues --    0.00101   0.00152   0.00368   0.00392   0.00532

 Mulliken charges and spin densities:
               1          2
     1  Na   0.216046  -0.048446
     2  Na   0.685871   0.117904
     3  Na  -0.565548   0.279896
     4  Na   0.250448   0.096841
     5  Na  -0.537800   0.135610
     6  Na   0.077484   0.260506
     7  Na  -0.126501   0.157690
 Sum of Mulliken charges =  -0.00000   1.00000

 Dipole moment (field-independent basis, Debye):
    X=             -0.1051    Y=             -0.6388    Z=             -0.2313  Tot=              0.6875
 Quadrupole moment (field-independent basis, Debye-Ang):
   XX=            -58.3951   YY=            -75.6213   ZZ=            -62.6651
   XY=             -1.4891   XZ=              0.2283   YZ=              2.4797

 Normal termination of Gaussian 16 at Sun Dec  3 15:12:33 2023.
