 Gaussian 16, Revision B.01,
 Gaussian 16:  ES64L-G16RevB.01 20-Dec-2017

 -------------------------
 #P B3LYP/6-311+g(d) force
 -------------------------

 -----
 DPGEN
 -----
 Symbolic Z-matrix:
 Charge =  0 Multiplicity = 2

                         Standard orientation:
 ---------------------------------------------------------------------
 Center     Atomic      Atomic             Coordinates (Angstroms)
 Number     Number       Type             X           Y           Z
 ---------------------------------------------------------------------
      1         11           0        0.384111    3.097971   -0.294225
      2         11           0        2.021011   -2.459858   -0.197329
      3         11           0        0.066770   -0.130513    1.960878
      4         11           0        0.076712    0.136384   -1.699901
      5         11           0       -3.427088    0.954240    0.260078
      6         11           0        3.362399    0.526845    0.227378
      7         11           0       -2.483915   -2.125069   -0.256880
 ---------------------------------------------------------------------

 SCF Done:  E(UB3LYP) =  -1136.12889544     A.U. after   21 cycles

 The electronic state is 2-A.
 Alpha  occ. eigenvalues --  -38.45027 -38.44986 -38.44039 -38.44013 -38.43512
 Alpha  occ. eigenvalues --  -38.43275 -38.42888  -2.20804  -2.20787  -2.19874
 Alpha  occ. eigenvalues --   -2.19818  -2.19335  -2.19177  -2.18691  -1.14477
 Alpha  occ. eigenvalues --   -1.14466  -1.14464  -1.14448  -1.14440  -1.14420
 Alpha  occ. eigenvalues --   -1.13559  -1.13509  -1.13488  -1.13488  -1.13473
 Alpha  occ. eigenvalues --   -1.13465  -1.13010  -1.12993  -1.12986  -1.12867
 Alpha  occ. eigenvalues --   -1.12812  -1.12799  -1.12374  -1.12346  -1.12328
 Alpha  occ. eigenvalues --   -0.17901  -0.13432  -0.11680  -0.10345
 Alpha virt. eigenvalues --   -0.06582  -0.05486  -0.04480  -0.03372  -0.02496
 Alpha virt. eigenvalues --   -0.02379  -0.02240  -0.01332  -0.00688  -0.00655
 Alpha virt. eigenvalues --   -0.00081   0.00307   0.00646   0.00658   0.00782

  Beta  occ. eigenvalues --  -38.45024 -38.44982 -38.44009 -38.43959 -38.43508
  Beta  occ. eigenvalues --  -38.43202 -38.42885  -2.20800  -2.20781  -2.19814
  Beta  occ. eigenvalues --   -2.19727  -2.19331  -2.19044  -2.18687  -1.14472
  Beta  occ. eigenvalues --   -1.14455  -1.14452  -1.14440  -1.14436  -1.14418
  Beta  occ. eigenvalues --   -1.13483  -1.13472  -1.13454  -1.13454  -1.13406
  Beta  occ. eigenvalues --   -1.13377  -1.13005  -1.12989  -1.12966  -1.12776
  Beta  occ. eigenvalues --   -1.12712  -1.12707  -1.12362  -1.12334  -1.12329
  Beta  occ. eigenvalues --   -0.17194  -0.13278  -0.11452
  Beta virt. eigenvalues --   -0.06622  -0.06351  -0.05473  -0.04437  -0.02674
  Beta virt. eigenvalues --   -0.02100  -0.01822  -0.01403  -0.01223  -0.00747
  Beta virt. eigenvalues --   -0.00650   0.00086   0.00336   0.00722   0.00790

 Mulliken charges and spin densities:
               1          2
     1  Na  -0.139793  -0.119276
     2  Na  -0.007998  -0.090883
     3  Na  -0.217089   0.654233
     4  Na   0.085725   0.616463
     5  Na   0.036230  -0.008799
     6  Na   0.198809   0.021861
     7  Na   0.044117  -0.073599
 Sum of Mulliken charges =  -0.00000   1.00000

 Dipole moment (field-independent basis, Debye):
    X=             -0.1557    Y=             -0.0041    Z=              0.2251  Tot=              0.2738
 Quadrupole moment (field-independent basis, Debye-Ang):
   XX=            -50.3404   YY=            -65.4906   ZZ=            -76.8289
   XY=             -0.4487   XZ=              0.0173   YZ=              1.3659

 Normal termination of Gaussian 16 at Thu Dec  7 10:46:36 2023.
