 Gaussian 16, Revision B.01,
 Gaussian 16:  ES64L-G16RevB.01 20-Dec-2017

 -------------------------
 #P B3LYP/6-311+g(d) force
 -------------------------

 -----
 DPGEN
 -----
 Symbolic Z-matrix:
 Charge =  0 Multiplicity = 2

                         Standard orientation:
 ---------------------------------------------------------------------
 Center     Atomic      Atomic             Coordinates (Angstroms)
 Number     Number       Type             X           Y           Z
 ---------------------------------------------------------------------
      1         11           0       -3.319324    1.596537    0.472186
      2         11           0        2.725490   -0.753503   -0.426985
      3         11           0        5.858665   -0.116408    0.097223
      4         11           0       -0.586399   -1.081756    1.787206
      5         11           0        0.386902    2.092767    0.128130
      6         11           0       -3.908518   -1.664760   -0.283271
      7         11           0       -1.156815   -0.072876   -1.774488
 ---------------------------------------------------------------------

 SCF Done:  E(UB3LYP) =  -1136.11148494     A.U. after   30 cycles

 The electronic state is 2-A.
 Alpha  occ. eigenvalues --  -38.46356 -38.45513 -38.44968 -38.43239 -38.43210
 Alpha  occ. eigenvalues --  -38.43120 -38.43065  -2.22207  -2.21343  -2.20800
 Alpha  occ. eigenvalues --   -2.19100  -2.18994  -2.18948  -2.18880  -1.15893
 Alpha  occ. eigenvalues --   -1.15877  -1.15826  -1.15030  -1.14992  -1.14948
 Alpha  occ. eigenvalues --   -1.14467  -1.14429  -1.14397  -1.12785  -1.12758
 Alpha  occ. eigenvalues --   -1.12730  -1.12672  -1.12648  -1.12647  -1.12631
 Alpha  occ. eigenvalues --   -1.12600  -1.12596  -1.12572  -1.12563  -1.12477
 Alpha  occ. eigenvalues --   -0.18201  -0.13508  -0.11386  -0.10813
 Alpha virt. eigenvalues --   -0.08156  -0.04774  -0.04744  -0.03335  -0.03169
 Alpha virt. eigenvalues --   -0.02590  -0.02075  -0.01682  -0.01365  -0.00900
 Alpha virt. eigenvalues --   -0.00371   0.00040   0.00146   0.00484   0.00562

  Beta  occ. eigenvalues --  -38.46349 -38.45475 -38.44860 -38.43230 -38.43188
  Beta  occ. eigenvalues --  -38.43117 -38.43067  -2.22198  -2.21272  -2.20601
  Beta  occ. eigenvalues --   -2.19085  -2.18953  -2.18945  -2.18887  -1.15875
  Beta  occ. eigenvalues --   -1.15853  -1.15827  -1.14972  -1.14947  -1.14896
  Beta  occ. eigenvalues --   -1.14327  -1.14298  -1.14255  -1.12778  -1.12748
  Beta  occ. eigenvalues --   -1.12704  -1.12651  -1.12630  -1.12620  -1.12619
  Beta  occ. eigenvalues --   -1.12601  -1.12577  -1.12574  -1.12566  -1.12465
  Beta  occ. eigenvalues --   -0.17526  -0.13296  -0.10739
  Beta virt. eigenvalues --   -0.07934  -0.07382  -0.04644  -0.04442  -0.02939
  Beta virt. eigenvalues --   -0.02698  -0.02081  -0.01707  -0.01346  -0.01153
  Beta virt. eigenvalues --   -0.00722  -0.00297   0.00136   0.00273   0.00549

 Mulliken charges and spin densities:
               1          2
     1  Na   0.177539   0.100414
     2  Na  -0.656606  -0.081490
     3  Na   0.368586   0.066028
     4  Na  -0.153045   0.584526
     5  Na  -0.101781   0.005125
     6  Na   0.177341  -0.068295
     7  Na   0.187965   0.393693
 Sum of Mulliken charges =  -0.00000   1.00000

 Dipole moment (field-independent basis, Debye):
    X=             -2.3543    Y=              0.9873    Z=              0.3128  Tot=              2.5720
 Quadrupole moment (field-independent basis, Debye-Ang):
   XX=            -75.3167   YY=            -71.1391   ZZ=            -63.1503
   XY=              0.4078   XZ=             -0.7894   YZ=              5.2573

 Normal termination of Gaussian 16 at Fri Dec  8 04:28:49 2023.
