 Gaussian 16, Revision B.01,
 Gaussian 16:  ES64L-G16RevB.01 20-Dec-2017

 -------------------------
 #P B3LYP/6-311+g(d) force
 -------------------------

 -----
 DPGEN
 -----
 Symbolic Z-matrix:
 Charge =  0 Multiplicity = 2

                         Standard orientation:
 ---------------------------------------------------------------------
 Center     Atomic      Atomic             Coordinates (Angstroms)
 Number     Number       Type             X           Y           Z
 ---------------------------------------------------------------------
      1         11           0       -1.476564   -2.130793   -0.642410
      2         11           0        1.146996    1.855617   -0.703001
      3         11           0        0.116256   -0.139372    2.221038
      4         11           0        3.948862   -0.008751    0.632434
      5         11           0       -3.592458   -0.123731    0.596827
      6         11           0       -1.752989    1.947446   -0.783524
      7         11           0        1.609896   -1.400417   -1.321364
 ---------------------------------------------------------------------

 SCF Done:  E(UB3LYP) =  -1136.11616221     A.U. after   26 cycles

 The electronic state is 2-A.
 Alpha  occ. eigenvalues --  -38.45807 -38.45390 -38.45263 -38.43611 -38.43004
 Alpha  occ. eigenvalues --  -38.42980 -38.42904  -2.21591  -2.21181  -2.21113
 Alpha  occ. eigenvalues --   -2.19503  -2.18901  -2.18871  -2.18809  -1.15259
 Alpha  occ. eigenvalues --   -1.15250  -1.15221  -1.14853  -1.14826  -1.14803
 Alpha  occ. eigenvalues --   -1.14787  -1.14768  -1.14746  -1.13196  -1.13152
 Alpha  occ. eigenvalues --   -1.13134  -1.12747  -1.12560  -1.12551  -1.12550
 Alpha  occ. eigenvalues --   -1.12524  -1.12518  -1.12444  -1.12430  -1.12382
 Alpha  occ. eigenvalues --   -0.18366  -0.14166  -0.11413  -0.11076
 Alpha virt. eigenvalues --   -0.07566  -0.04816  -0.04605  -0.03398  -0.03046
 Alpha virt. eigenvalues --   -0.02491  -0.02475  -0.00994  -0.00904  -0.00090
 Alpha virt. eigenvalues --    0.00043   0.00200   0.00218   0.00786   0.00799

  Beta  occ. eigenvalues --  -38.45799 -38.45308 -38.45262 -38.43562 -38.42983
  Beta  occ. eigenvalues --  -38.42967 -38.42894  -2.21576  -2.21111  -2.21027
  Beta  occ. eigenvalues --   -2.19416  -2.18879  -2.18837  -2.18792  -1.15250
  Beta  occ. eigenvalues --   -1.15233  -1.15210  -1.14800  -1.14774  -1.14747
  Beta  occ. eigenvalues --   -1.14736  -1.14722  -1.14671  -1.13134  -1.13084
  Beta  occ. eigenvalues --   -1.13065  -1.12735  -1.12544  -1.12523  -1.12515
  Beta  occ. eigenvalues --   -1.12504  -1.12476  -1.12432  -1.12407  -1.12374
  Beta  occ. eigenvalues --   -0.17685  -0.14080  -0.11067
  Beta virt. eigenvalues --   -0.07482  -0.07113  -0.04839  -0.04020  -0.03114
  Beta virt. eigenvalues --   -0.02722  -0.01888  -0.01650  -0.00881  -0.00671
  Beta virt. eigenvalues --   -0.00046   0.00075   0.00218   0.00391   0.00812

 Mulliken charges and spin densities:
               1          2
     1  Na  -0.280726   0.061524
     2  Na  -0.292444   0.276963
     3  Na  -0.485383   0.426547
     4  Na   0.956799   0.106757
     5  Na   0.710771   0.115642
     6  Na  -0.456344  -0.074462
     7  Na  -0.152673   0.087029
 Sum of Mulliken charges =  -0.00000   1.00000

 Dipole moment (field-independent basis, Debye):
    X=              0.8070    Y=             -0.1552    Z=              0.9737  Tot=              1.2741
 Quadrupole moment (field-independent basis, Debye-Ang):
   XX=            -42.3863   YY=            -80.5441   ZZ=            -71.1155
   XY=              0.0734   XZ=              0.0682   YZ=              1.0018

 Normal termination of Gaussian 16 at Thu Dec  7 11:19:53 2023.
