 Gaussian 16, Revision B.01,
 Gaussian 16:  ES64L-G16RevB.01 20-Dec-2017

 -------------------------
 #P B3LYP/6-311+g(d) force
 -------------------------

 -----
 DPGEN
 -----
 Symbolic Z-matrix:
 Charge =  0 Multiplicity = 2

                         Standard orientation:
 ---------------------------------------------------------------------
 Center     Atomic      Atomic             Coordinates (Angstroms)
 Number     Number       Type             X           Y           Z
 ---------------------------------------------------------------------
      1         11           0       -0.149471   -2.857641    0.086581
      2         11           0        0.013295   -0.111066   -1.489514
      3         11           0       -2.851311   -1.038639   -0.311193
      4         11           0       -0.742462   -0.047625    2.053750
      5         11           0        1.825802    1.867363    0.702362
      6         11           0        3.269799   -0.829353   -0.439029
      7         11           0       -1.365651    3.016961   -0.602957
 ---------------------------------------------------------------------

 SCF Done:  E(UB3LYP) =  -1136.13451117     A.U. after   20 cycles

 The electronic state is 2-A.
 Alpha  occ. eigenvalues --  -38.44077 -38.43796 -38.43672 -38.43660 -38.43569
 Alpha  occ. eigenvalues --  -38.43483 -38.43091  -2.19959  -2.19675  -2.19566
 Alpha  occ. eigenvalues --   -2.19463  -2.19387  -2.19356  -2.19095  -1.13657
 Alpha  occ. eigenvalues --   -1.13634  -1.13585  -1.13383  -1.13348  -1.13281
 Alpha  occ. eigenvalues --   -1.13234  -1.13202  -1.13171  -1.13140  -1.13116
 Alpha  occ. eigenvalues --   -1.13104  -1.13099  -1.13057  -1.13039  -1.13021
 Alpha  occ. eigenvalues --   -1.13014  -1.12947  -1.12787  -1.12736  -1.12709
 Alpha  occ. eigenvalues --   -0.18628  -0.13094  -0.12287  -0.10865
 Alpha virt. eigenvalues --   -0.05569  -0.05110  -0.04795  -0.03282  -0.02854
 Alpha virt. eigenvalues --   -0.02509  -0.01450  -0.01334  -0.00350  -0.00157
 Alpha virt. eigenvalues --    0.00026   0.00347   0.00765   0.00865   0.00883

  Beta  occ. eigenvalues --  -38.44068 -38.43789 -38.43662 -38.43569 -38.43567
  Beta  occ. eigenvalues --  -38.43469 -38.43036  -2.19947  -2.19667  -2.19446
  Beta  occ. eigenvalues --   -2.19394  -2.19388  -2.19332  -2.18996  -1.13650
  Beta  occ. eigenvalues --   -1.13601  -1.13573  -1.13376  -1.13314  -1.13276
  Beta  occ. eigenvalues --   -1.13124  -1.13119  -1.13102  -1.13098  -1.13092
  Beta  occ. eigenvalues --   -1.13082  -1.13053  -1.13046  -1.13029  -1.13007
  Beta  occ. eigenvalues --   -1.12978  -1.12940  -1.12717  -1.12663  -1.12631
  Beta  occ. eigenvalues --   -0.17906  -0.12887  -0.12042
  Beta virt. eigenvalues --   -0.06954  -0.05530  -0.04995  -0.04683  -0.02540
  Beta virt. eigenvalues --   -0.02224  -0.01535  -0.01355  -0.01243  -0.00288
  Beta virt. eigenvalues --   -0.00145   0.00133   0.00383   0.00778   0.00901

 Mulliken charges and spin densities:
               1          2
     1  Na   0.131813   0.088272
     2  Na  -0.198517   0.390886
     3  Na   0.215916  -0.024599
     4  Na  -0.205714   0.460160
     5  Na   0.128791   0.132897
     6  Na   0.007751  -0.048617
     7  Na  -0.080040   0.001002
 Sum of Mulliken charges =  -0.00000   1.00000

 Dipole moment (field-independent basis, Debye):
    X=             -0.3777    Y=             -0.2521    Z=              0.1101  Tot=              0.4673
 Quadrupole moment (field-independent basis, Debye-Ang):
   XX=            -58.3179   YY=            -61.2440   ZZ=            -73.6338
   XY=             -0.5739   XZ=              1.1593   YZ=             -0.2039

 Normal termination of Gaussian 16 at Tue Dec  5 14:00:25 2023.
