 Gaussian 16, Revision B.01,
 Gaussian 16:  ES64L-G16RevB.01 20-Dec-2017

 -------------------------
 #P B3LYP/6-311+g(d) force
 -------------------------

 -----
 DPGEN
 -----
 Symbolic Z-matrix:
 Charge =  0 Multiplicity = 2

                         Standard orientation:
 ---------------------------------------------------------------------
 Center     Atomic      Atomic             Coordinates (Angstroms)
 Number     Number       Type             X           Y           Z
 ---------------------------------------------------------------------
      1         11           0       -3.004993   -1.167451   -0.488910
      2         11           0       -0.099877    0.165279   -1.646383
      3         11           0        3.072196   -0.487510   -0.750483
      4         11           0        0.365885   -2.829797    0.314062
      5         11           0        0.173802   -0.477048    2.072518
      6         11           0       -2.126915    2.307441    0.163270
      7         11           0        1.619901    2.489086    0.335927
 ---------------------------------------------------------------------

 SCF Done:  E(UB3LYP) =  -1136.13597416     A.U. after   20 cycles

 The electronic state is 2-A.
 Alpha  occ. eigenvalues --  -38.44030 -38.43897 -38.43861 -38.43758 -38.43492
 Alpha  occ. eigenvalues --  -38.43385 -38.43308  -2.19837  -2.19767  -2.19733
 Alpha  occ. eigenvalues --   -2.19562  -2.19335  -2.19321  -2.19186  -1.13525
 Alpha  occ. eigenvalues --   -1.13498  -1.13490  -1.13466  -1.13420  -1.13395
 Alpha  occ. eigenvalues --   -1.13383  -1.13370  -1.13361  -1.13247  -1.13230
 Alpha  occ. eigenvalues --   -1.13193  -1.13029  -1.13001  -1.12994  -1.12965
 Alpha  occ. eigenvalues --   -1.12952  -1.12950  -1.12885  -1.12826  -1.12790
 Alpha  occ. eigenvalues --   -0.18408  -0.12881  -0.12405  -0.10981
 Alpha virt. eigenvalues --   -0.05465  -0.05267  -0.04632  -0.03204  -0.03138
 Alpha virt. eigenvalues --   -0.02645  -0.01561  -0.01118  -0.00402  -0.00289
 Alpha virt. eigenvalues --   -0.00005   0.00336   0.00782   0.00857   0.00891

  Beta  occ. eigenvalues --  -38.44020 -38.43874 -38.43768 -38.43758 -38.43486
  Beta  occ. eigenvalues --  -38.43330 -38.43298  -2.19820  -2.19693  -2.19596
  Beta  occ. eigenvalues --   -2.19564  -2.19313  -2.19235  -2.19172  -1.13501
  Beta  occ. eigenvalues --   -1.13480  -1.13455  -1.13386  -1.13377  -1.13354
  Beta  occ. eigenvalues --   -1.13335  -1.13273  -1.13256  -1.13243  -1.13228
  Beta  occ. eigenvalues --   -1.13189  -1.12998  -1.12977  -1.12950  -1.12940
  Beta  occ. eigenvalues --   -1.12900  -1.12878  -1.12856  -1.12797  -1.12787
  Beta  occ. eigenvalues --   -0.17710  -0.12609  -0.12140
  Beta virt. eigenvalues --   -0.07140  -0.05399  -0.05207  -0.04522  -0.02548
  Beta virt. eigenvalues --   -0.02360  -0.01673  -0.01417  -0.01040  -0.00389
  Beta virt. eigenvalues --   -0.00302   0.00114   0.00383   0.00853   0.00877

 Mulliken charges and spin densities:
               1          2
     1  Na   0.059504  -0.046260
     2  Na  -0.060571   0.391564
     3  Na   0.146681   0.066965
     4  Na   0.234877   0.017752
     5  Na  -0.276976   0.561424
     6  Na  -0.082088  -0.025741
     7  Na  -0.021428   0.034296
 Sum of Mulliken charges =  -0.00000   1.00000

 Dipole moment (field-independent basis, Debye):
    X=             -0.1390    Y=              0.0319    Z=              0.0381  Tot=              0.1477
 Quadrupole moment (field-independent basis, Debye-Ang):
   XX=            -57.2783   YY=            -63.6749   ZZ=            -73.0423
   XY=              0.1014   XZ=             -0.8043   YZ=              2.3229

 Normal termination of Gaussian 16 at Thu Dec  7 16:20:42 2023.
