 Gaussian 16, Revision B.01,
 Gaussian 16:  ES64L-G16RevB.01 20-Dec-2017

 -------------------------
 #P B3LYP/6-311+g(d) force
 -------------------------

 -----
 DPGEN
 -----
 Symbolic Z-matrix:
 Charge =  0 Multiplicity = 2

                         Standard orientation:
 ---------------------------------------------------------------------
 Center     Atomic      Atomic             Coordinates (Angstroms)
 Number     Number       Type             X           Y           Z
 ---------------------------------------------------------------------
      1         11           0        0.754502   -1.582151    1.199146
      2         11           0        3.782179   -3.123019   -0.519851
      3         11           0        2.490787    0.103666   -0.640441
      4         11           0        1.968714    4.041753   -0.243036
      5         11           0       -0.152409    1.846428    0.649385
      6         11           0       -2.873509   -0.842850    0.186024
      7         11           0       -5.970265   -0.443827   -0.631228
 ---------------------------------------------------------------------

 SCF Done:  E(UB3LYP) =  -1136.12260241     A.U. after   20 cycles

 The electronic state is 2-A.
 Alpha  occ. eigenvalues --  -38.44699 -38.44431 -38.44409 -38.44039 -38.43945
 Alpha  occ. eigenvalues --  -38.43899 -38.43135  -2.20572  -2.20306  -2.20201
 Alpha  occ. eigenvalues --   -2.19847  -2.19777  -2.19758  -2.18937  -1.14360
 Alpha  occ. eigenvalues --   -1.14265  -1.14144  -1.13997  -1.13972  -1.13874
 Alpha  occ. eigenvalues --   -1.13861  -1.13860  -1.13805  -1.13483  -1.13481
 Alpha  occ. eigenvalues --   -1.13481  -1.13479  -1.13469  -1.13462  -1.13408
 Alpha  occ. eigenvalues --   -1.13396  -1.13319  -1.12628  -1.12624  -1.12581
 Alpha  occ. eigenvalues --   -0.17233  -0.13398  -0.12933  -0.11034
 Alpha virt. eigenvalues --   -0.06075  -0.05281  -0.04861  -0.03612  -0.02386
 Alpha virt. eigenvalues --   -0.02288  -0.02119  -0.01841  -0.01311  -0.00996
 Alpha virt. eigenvalues --   -0.00309  -0.00044   0.00090   0.00466   0.00612

  Beta  occ. eigenvalues --  -38.44695 -38.44388 -38.44372 -38.43956 -38.43917
  Beta  occ. eigenvalues --  -38.43886 -38.43139  -2.20566  -2.20230  -2.20131
  Beta  occ. eigenvalues --   -2.19756  -2.19705  -2.19692  -2.18954  -1.14338
  Beta  occ. eigenvalues --   -1.14261  -1.14137  -1.13953  -1.13925  -1.13814
  Beta  occ. eigenvalues --   -1.13812  -1.13794  -1.13761  -1.13462  -1.13454
  Beta  occ. eigenvalues --   -1.13438  -1.13382  -1.13375  -1.13374  -1.13372
  Beta  occ. eigenvalues --   -1.13357  -1.13281  -1.12649  -1.12643  -1.12530
  Beta  occ. eigenvalues --   -0.16660  -0.12784  -0.12436
  Beta virt. eigenvalues --   -0.07799  -0.05771  -0.04935  -0.04516  -0.03368
  Beta virt. eigenvalues --   -0.02241  -0.02016  -0.01891  -0.01435  -0.01016
  Beta virt. eigenvalues --   -0.00664  -0.00012   0.00078   0.00267   0.00541

 Mulliken charges and spin densities:
               1          2
     1  Na   0.024103  -0.230884
     2  Na   0.697402   0.159482
     3  Na  -0.490329   0.108080
     4  Na   0.547197   0.141653
     5  Na  -0.386608   0.054830
     6  Na  -0.676034   0.530185
     7  Na   0.284269   0.236655
 Sum of Mulliken charges =  -0.00000   1.00000

 Dipole moment (field-independent basis, Debye):
    X=              1.5470    Y=             -0.1658    Z=              0.0204  Tot=              1.5560
 Quadrupole moment (field-independent basis, Debye-Ang):
   XX=            -63.9188   YY=            -59.5922   ZZ=            -70.4803
   XY=             -4.2212   XZ=             -0.3587   YZ=             -0.8182

 Normal termination of Gaussian 16 at Wed Nov 29 02:09:37 2023.
