 Gaussian 16, Revision B.01,
 Gaussian 16:  ES64L-G16RevB.01 20-Dec-2017

 -------------------------
 #P B3LYP/6-311+g(d) force
 -------------------------

 -----
 DPGEN
 -----
 Symbolic Z-matrix:
 Charge =  0 Multiplicity = 2

                         Standard orientation:
 ---------------------------------------------------------------------
 Center     Atomic      Atomic             Coordinates (Angstroms)
 Number     Number       Type             X           Y           Z
 ---------------------------------------------------------------------
      1         11           0       -1.224180    2.388400    1.106618
      2         11           0        3.309552   -1.707006   -0.840830
      3         11           0       -3.138725   -2.177805    0.743969
      4         11           0       -0.251763   -0.976880    0.016150
      5         11           0       -2.811923    0.593785   -1.442140
      6         11           0        2.587626    0.271138    1.686685
      7         11           0        1.529413    1.608369   -1.270452
 ---------------------------------------------------------------------

 SCF Done:  E(UB3LYP) =  -1136.12395363     A.U. after   22 cycles

 The electronic state is 2-A.
 Alpha  occ. eigenvalues --  -38.44636 -38.44257 -38.44133 -38.44047 -38.43535
 Alpha  occ. eigenvalues --  -38.43481 -38.43353  -2.20468  -2.20077  -2.20003
 Alpha  occ. eigenvalues --   -2.19896  -2.19338  -2.19305  -2.19298  -1.14160
 Alpha  occ. eigenvalues --   -1.14134  -1.14065  -1.13760  -1.13735  -1.13721
 Alpha  occ. eigenvalues --   -1.13674  -1.13666  -1.13602  -1.13595  -1.13556
 Alpha  occ. eigenvalues --   -1.13484  -1.13047  -1.13020  -1.13006  -1.12993
 Alpha  occ. eigenvalues --   -1.12979  -1.12959  -1.12946  -1.12940  -1.12879
 Alpha  occ. eigenvalues --   -0.17992  -0.14103  -0.11312  -0.10173
 Alpha virt. eigenvalues --   -0.06243  -0.05678  -0.05277  -0.03057  -0.02468
 Alpha virt. eigenvalues --   -0.02242  -0.01932  -0.01338  -0.00908  -0.00291
 Alpha virt. eigenvalues --   -0.00005   0.00198   0.00224   0.00349   0.00660

  Beta  occ. eigenvalues --  -38.44614 -38.44238 -38.44083 -38.44017 -38.43526
  Beta  occ. eigenvalues --  -38.43474 -38.43335  -2.20427  -2.20042  -2.19910
  Beta  occ. eigenvalues --   -2.19843  -2.19323  -2.19287  -2.19276  -1.14128
  Beta  occ. eigenvalues --   -1.14108  -1.14036  -1.13731  -1.13711  -1.13687
  Beta  occ. eigenvalues --   -1.13611  -1.13605  -1.13564  -1.13527  -1.13499
  Beta  occ. eigenvalues --   -1.13444  -1.13022  -1.13008  -1.12973  -1.12962
  Beta  occ. eigenvalues --   -1.12954  -1.12948  -1.12933  -1.12928  -1.12869
  Beta  occ. eigenvalues --   -0.17364  -0.13899  -0.11139
  Beta virt. eigenvalues --   -0.06662  -0.06029  -0.05503  -0.04628  -0.02863
  Beta virt. eigenvalues --   -0.02179  -0.01990  -0.01338  -0.01109  -0.00515
  Beta virt. eigenvalues --   -0.00156   0.00162   0.00264   0.00334   0.00462

 Mulliken charges and spin densities:
               1          2
     1  Na  -0.082317   0.108872
     2  Na   0.999214   0.090953
     3  Na   0.025973  -0.105962
     4  Na  -2.267065   0.364620
     5  Na   0.397142   0.005420
     6  Na   0.301103   0.151882
     7  Na   0.625950   0.384216
 Sum of Mulliken charges =  -0.00000   1.00000

 Dipole moment (field-independent basis, Debye):
    X=              0.0909    Y=              0.3162    Z=             -0.1993  Tot=              0.3847
 Quadrupole moment (field-independent basis, Debye-Ang):
   XX=            -52.1241   YY=            -70.8194   ZZ=            -69.5923
   XY=             -3.0522   XZ=             -0.0639   YZ=              0.0140

 Normal termination of Gaussian 16 at Tue Dec  5 14:50:15 2023.
