 Gaussian 16, Revision B.01,
 Gaussian 16:  ES64L-G16RevB.01 20-Dec-2017

 -------------------------
 #P B3LYP/6-311+g(d) force
 -------------------------

 -----
 DPGEN
 -----
 Symbolic Z-matrix:
 Charge =  0 Multiplicity = 2

                         Standard orientation:
 ---------------------------------------------------------------------
 Center     Atomic      Atomic             Coordinates (Angstroms)
 Number     Number       Type             X           Y           Z
 ---------------------------------------------------------------------
      1         11           0        2.560295   -1.808968   -1.443819
      2         11           0        1.967040   -2.347317    1.817043
      3         11           0        2.115536    1.495316   -1.276167
      4         11           0        0.906404    3.540382    0.927883
      5         11           0       -0.454147   -0.117106    0.611142
      6         11           0       -3.582315   -2.090880   -0.348950
      7         11           0       -3.512813    1.328573   -0.287133
 ---------------------------------------------------------------------

 SCF Done:  E(UB3LYP) =  -1136.12134324     A.U. after   20 cycles

 The electronic state is 2-A.
 Alpha  occ. eigenvalues --  -38.45395 -38.45200 -38.43790 -38.43396 -38.43352
 Alpha  occ. eigenvalues --  -38.43345 -38.43326  -2.21170  -2.20967  -2.19646
 Alpha  occ. eigenvalues --   -2.19221  -2.19195  -2.19191  -2.19149  -1.14844
 Alpha  occ. eigenvalues --   -1.14840  -1.14792  -1.14635  -1.14628  -1.14580
 Alpha  occ. eigenvalues --   -1.13369  -1.13291  -1.13281  -1.12912  -1.12888
 Alpha  occ. eigenvalues --   -1.12878  -1.12872  -1.12867  -1.12867  -1.12849
 Alpha  occ. eigenvalues --   -1.12824  -1.12807  -1.12789  -1.12782  -1.12741
 Alpha  occ. eigenvalues --   -0.16774  -0.13782  -0.12050  -0.10239
 Alpha virt. eigenvalues --   -0.06455  -0.05649  -0.04301  -0.03531  -0.02934
 Alpha virt. eigenvalues --   -0.02051  -0.01891  -0.01744  -0.00787  -0.00623
 Alpha virt. eigenvalues --   -0.00251   0.00241   0.00374   0.00492   0.00590

  Beta  occ. eigenvalues --  -38.45394 -38.45189 -38.43765 -38.43344 -38.43342
  Beta  occ. eigenvalues --  -38.43303 -38.43282  -2.21170  -2.20947  -2.19602
  Beta  occ. eigenvalues --   -2.19133  -2.19120  -2.19116  -2.19115  -1.14844
  Beta  occ. eigenvalues --   -1.14838  -1.14787  -1.14621  -1.14611  -1.14568
  Beta  occ. eigenvalues --   -1.13321  -1.13258  -1.13254  -1.12857  -1.12841
  Beta  occ. eigenvalues --   -1.12828  -1.12817  -1.12804  -1.12799  -1.12795
  Beta  occ. eigenvalues --   -1.12791  -1.12781  -1.12766  -1.12718  -1.12681
  Beta  occ. eigenvalues --   -0.16267  -0.13393  -0.11862
  Beta virt. eigenvalues --   -0.06585  -0.06323  -0.05479  -0.03906  -0.03176
  Beta virt. eigenvalues --   -0.02560  -0.01975  -0.01727  -0.01184  -0.00659
  Beta virt. eigenvalues --   -0.00434   0.00032   0.00333   0.00441   0.00506

 Mulliken charges and spin densities:
               1          2
     1  Na   0.234645   0.091589
     2  Na   0.760700   0.041235
     3  Na  -0.088709   0.184393
     4  Na   0.589847   0.083121
     5  Na  -2.635072   0.585476
     6  Na   0.371451  -0.012409
     7  Na   0.767139   0.026596
 Sum of Mulliken charges =  -0.00000   1.00000

 Dipole moment (field-independent basis, Debye):
    X=             -2.2689    Y=             -0.2598    Z=              0.0229  Tot=              2.2838
 Quadrupole moment (field-independent basis, Debye-Ang):
   XX=            -60.5227   YY=            -59.3466   ZZ=            -72.7394
   XY=             -0.7769   XZ=              3.0223   YZ=              2.4492

 Normal termination of Gaussian 16 at Tue Dec  5 15:18:29 2023.
