 Gaussian 16, Revision B.01,
 Gaussian 16:  ES64L-G16RevB.01 20-Dec-2017

 -------------------------
 #P B3LYP/6-311+g(d) force
 -------------------------

 -----
 DPGEN
 -----
 Symbolic Z-matrix:
 Charge =  0 Multiplicity = 2

                         Standard orientation:
 ---------------------------------------------------------------------
 Center     Atomic      Atomic             Coordinates (Angstroms)
 Number     Number       Type             X           Y           Z
 ---------------------------------------------------------------------
      1         11           0       -2.962695   -0.169860    1.615731
      2         11           0       -2.558268    0.966738   -1.433125
      3         11           0        3.282984    1.204571    0.087183
      4         11           0        0.297547   -0.286495    1.892140
      5         11           0        0.316458    2.815029   -0.590328
      6         11           0        2.778648   -2.039217   -0.344872
      7         11           0       -1.154674   -2.490767   -1.226729
 ---------------------------------------------------------------------

 SCF Done:  E(UB3LYP) =  -1136.12438029     A.U. after   21 cycles

 The electronic state is 2-A.
 Alpha  occ. eigenvalues --  -38.44629 -38.44487 -38.44357 -38.44231 -38.44141
 Alpha  occ. eigenvalues --  -38.44114 -38.43274  -2.20474  -2.20328  -2.20122
 Alpha  occ. eigenvalues --   -2.20047  -2.19974  -2.19899  -2.19066  -1.14170
 Alpha  occ. eigenvalues --   -1.14129  -1.14097  -1.13996  -1.13968  -1.13947
 Alpha  occ. eigenvalues --   -1.13802  -1.13772  -1.13743  -1.13733  -1.13709
 Alpha  occ. eigenvalues --   -1.13695  -1.13651  -1.13623  -1.13596  -1.13575
 Alpha  occ. eigenvalues --   -1.13548  -1.13536  -1.12746  -1.12734  -1.12704
 Alpha  occ. eigenvalues --   -0.17465  -0.13720  -0.11749  -0.11254
 Alpha virt. eigenvalues --   -0.06436  -0.05740  -0.04747  -0.03468  -0.02849
 Alpha virt. eigenvalues --   -0.02680  -0.01936  -0.01040  -0.00795  -0.00502
 Alpha virt. eigenvalues --   -0.00301   0.00290   0.00334   0.00471   0.00675

  Beta  occ. eigenvalues --  -38.44580 -38.44416 -38.44314 -38.44233 -38.44116
  Beta  occ. eigenvalues --  -38.44103 -38.43271  -2.20389  -2.20201  -2.20052
  Beta  occ. eigenvalues --   -2.20043  -2.19905  -2.19904  -2.19062  -1.14092
  Beta  occ. eigenvalues --   -1.14067  -1.14035  -1.13916  -1.13887  -1.13836
  Beta  occ. eigenvalues --   -1.13742  -1.13735  -1.13717  -1.13710  -1.13703
  Beta  occ. eigenvalues --   -1.13689  -1.13596  -1.13580  -1.13577  -1.13553
  Beta  occ. eigenvalues --   -1.13543  -1.13537  -1.12741  -1.12728  -1.12699
  Beta  occ. eigenvalues --   -0.16836  -0.13561  -0.11508
  Beta virt. eigenvalues --   -0.07367  -0.06311  -0.05577  -0.04216  -0.03247
  Beta virt. eigenvalues --   -0.02331  -0.01849  -0.01794  -0.00963  -0.00673
  Beta virt. eigenvalues --   -0.00270  -0.00135   0.00355   0.00458   0.00615

 Mulliken charges and spin densities:
               1          2
     1  Na   0.267736   0.064907
     2  Na   0.283816   0.430304
     3  Na   0.518542  -0.043796
     4  Na  -0.235899   0.399357
     5  Na  -0.429536  -0.056898
     6  Na   0.078694   0.001900
     7  Na  -0.483352   0.204226
 Sum of Mulliken charges =  -0.00000   1.00000

 Dipole moment (field-independent basis, Debye):
    X=             -0.0311    Y=             -0.3436    Z=              0.0476  Tot=              0.3483
 Quadrupole moment (field-independent basis, Debye-Ang):
   XX=            -53.8708   YY=            -72.4116   ZZ=            -71.2875
   XY=             -0.0097   XZ=             -0.9407   YZ=              1.0897

 Normal termination of Gaussian 16 at Sun Dec  3 20:12:18 2023.
