 Gaussian 16, Revision B.01,
 Gaussian 16:  ES64L-G16RevB.01 20-Dec-2017

 -------------------------
 #P B3LYP/6-311+g(d) force
 -------------------------

 -----
 DPGEN
 -----
 Symbolic Z-matrix:
 Charge =  0 Multiplicity = 2

                         Standard orientation:
 ---------------------------------------------------------------------
 Center     Atomic      Atomic             Coordinates (Angstroms)
 Number     Number       Type             X           Y           Z
 ---------------------------------------------------------------------
      1         11           0       -3.555076    1.583217    0.374327
      2         11           0        3.469053    1.072088   -0.899382
      3         11           0       -0.854561   -1.657458    1.288127
      4         11           0        1.395976   -1.200377   -1.090692
      5         11           0       -2.430951   -1.185315   -1.271283
      6         11           0       -0.340850    1.478077   -0.105367
      7         11           0        2.316409   -0.090232    1.704270
 ---------------------------------------------------------------------

 SCF Done:  E(UB3LYP) =  -1136.12056412     A.U. after   23 cycles

 The electronic state is 2-A.
 Alpha  occ. eigenvalues --  -38.44333 -38.44252 -38.44206 -38.44108 -38.43452
 Alpha  occ. eigenvalues --  -38.43446 -38.42808  -2.20231  -2.20204  -2.20107
 Alpha  occ. eigenvalues --   -2.20013  -2.19455  -2.19275  -2.18750  -1.13942
 Alpha  occ. eigenvalues --   -1.13939  -1.13899  -1.13866  -1.13848  -1.13823
 Alpha  occ. eigenvalues --   -1.13790  -1.13733  -1.13724  -1.13699  -1.13692
 Alpha  occ. eigenvalues --   -1.13620  -1.13155  -1.13121  -1.13046  -1.12943
 Alpha  occ. eigenvalues --   -1.12929  -1.12920  -1.12430  -1.12416  -1.12369
 Alpha  occ. eigenvalues --   -0.19092  -0.14675  -0.11235  -0.10944
 Alpha virt. eigenvalues --   -0.06740  -0.05310  -0.04791  -0.03002  -0.02587
 Alpha virt. eigenvalues --   -0.02351  -0.02029  -0.01173  -0.00862   0.00040
 Alpha virt. eigenvalues --    0.00111   0.00330   0.00457   0.00583   0.00671

  Beta  occ. eigenvalues --  -38.44305 -38.44198 -38.44184 -38.44089 -38.43447
  Beta  occ. eigenvalues --  -38.43413 -38.42789  -2.20179  -2.20106  -2.20066
  Beta  occ. eigenvalues --   -2.19984  -2.19387  -2.19276  -2.18719  -1.13908
  Beta  occ. eigenvalues --   -1.13891  -1.13859  -1.13792  -1.13785  -1.13783
  Beta  occ. eigenvalues --   -1.13743  -1.13702  -1.13693  -1.13655  -1.13644
  Beta  occ. eigenvalues --   -1.13605  -1.13114  -1.13051  -1.12990  -1.12939
  Beta  occ. eigenvalues --   -1.12929  -1.12922  -1.12415  -1.12371  -1.12336
  Beta  occ. eigenvalues --   -0.18390  -0.14478  -0.10920
  Beta virt. eigenvalues --   -0.07142  -0.06563  -0.05084  -0.04224  -0.02809
  Beta virt. eigenvalues --   -0.02524  -0.01749  -0.01367  -0.01015  -0.00373
  Beta virt. eigenvalues --    0.00100   0.00167   0.00363   0.00546   0.00736

 Mulliken charges and spin densities:
               1          2
     1  Na   0.305777  -0.078587
     2  Na   1.332128   0.060048
     3  Na  -0.091893   0.149786
     4  Na  -0.601521   0.440464
     5  Na   0.477054   0.048169
     6  Na  -1.529297   0.246537
     7  Na   0.107752   0.133583
 Sum of Mulliken charges =  -0.00000   1.00000

 Dipole moment (field-independent basis, Debye):
    X=              0.3202    Y=             -0.3540    Z=              0.0936  Tot=              0.4865
 Quadrupole moment (field-independent basis, Debye-Ang):
   XX=            -51.6477   YY=            -75.8100   ZZ=            -68.2529
   XY=              4.2031   XZ=              0.7643   YZ=              0.4224

 Normal termination of Gaussian 16 at Tue Dec  5 17:19:29 2023.
