 Gaussian 16, Revision B.01,
 Gaussian 16:  ES64L-G16RevB.01 20-Dec-2017

 -------------------------
 #P B3LYP/6-311+g(d) force
 -------------------------

 -----
 DPGEN
 -----
 Symbolic Z-matrix:
 Charge =  0 Multiplicity = 2

                         Standard orientation:
 ---------------------------------------------------------------------
 Center     Atomic      Atomic             Coordinates (Angstroms)
 Number     Number       Type             X           Y           Z
 ---------------------------------------------------------------------
      1         11           0        2.929445   -1.116492    0.010999
      2         11           0       -0.162203    0.134111    1.842957
      3         11           0       -1.004249   -2.917333    0.370412
      4         11           0       -1.083083    2.836224   -0.207038
      5         11           0       -2.829928   -0.010206   -0.235795
      6         11           0        1.960446    1.808242    0.047946
      7         11           0        0.189573   -0.734545   -1.829482
 ---------------------------------------------------------------------

 SCF Done:  E(UB3LYP) =  -1136.13725891     A.U. after   19 cycles

 The electronic state is 2-A.
 Alpha  occ. eigenvalues --  -38.43837 -38.43779 -38.43751 -38.43370 -38.43363
 Alpha  occ. eigenvalues --  -38.43356 -38.43313  -2.19698  -2.19630  -2.19622
 Alpha  occ. eigenvalues --   -2.19312  -2.19302  -2.19297  -2.19180  -1.13410
 Alpha  occ. eigenvalues --   -1.13361  -1.13335  -1.13329  -1.13307  -1.13299
 Alpha  occ. eigenvalues --   -1.13290  -1.13275  -1.13229  -1.13052  -1.12983
 Alpha  occ. eigenvalues --   -1.12972  -1.12961  -1.12943  -1.12931  -1.12926
 Alpha  occ. eigenvalues --   -1.12914  -1.12905  -1.12828  -1.12828  -1.12816
 Alpha  occ. eigenvalues --   -0.18926  -0.13126  -0.12681  -0.10804
 Alpha virt. eigenvalues --   -0.05526  -0.05044  -0.04760  -0.03263  -0.03058
 Alpha virt. eigenvalues --   -0.02467  -0.01311  -0.01216  -0.00256  -0.00091
 Alpha virt. eigenvalues --   -0.00009   0.00372   0.00850   0.00896   0.00916

  Beta  occ. eigenvalues --  -38.43834 -38.43770 -38.43742 -38.43355 -38.43309
  Beta  occ. eigenvalues --  -38.43299 -38.43275  -2.19697  -2.19617  -2.19609
  Beta  occ. eigenvalues --   -2.19289  -2.19177  -2.19170  -2.19161  -1.13412
  Beta  occ. eigenvalues --   -1.13349  -1.13323  -1.13321  -1.13293  -1.13271
  Beta  occ. eigenvalues --   -1.13267  -1.13254  -1.13224  -1.13017  -1.12963
  Beta  occ. eigenvalues --   -1.12918  -1.12888  -1.12869  -1.12843  -1.12838
  Beta  occ. eigenvalues --   -1.12825  -1.12823  -1.12816  -1.12810  -1.12791
  Beta  occ. eigenvalues --   -0.18189  -0.12868  -0.12458
  Beta virt. eigenvalues --   -0.06906  -0.05519  -0.04939  -0.04743  -0.02436
  Beta virt. eigenvalues --   -0.02315  -0.01457  -0.01219  -0.01138  -0.00306
  Beta virt. eigenvalues --   -0.00123   0.00137   0.00397   0.00859   0.00905

 Mulliken charges and spin densities:
               1          2
     1  Na   0.273780  -0.095741
     2  Na  -0.319904   0.575818
     3  Na   0.137070  -0.107256
     4  Na  -0.079038  -0.020989
     5  Na   0.184386   0.033644
     6  Na   0.161475   0.054132
     7  Na  -0.357769   0.560392
 Sum of Mulliken charges =  -0.00000   1.00000

 Dipole moment (field-independent basis, Debye):
    X=             -0.0517    Y=             -0.4149    Z=              0.0028  Tot=              0.4181
 Quadrupole moment (field-independent basis, Debye-Ang):
   XX=            -60.0537   YY=            -60.5707   ZZ=            -73.6651
   XY=             -0.8436   XZ=              0.7985   YZ=             -1.8172

 Normal termination of Gaussian 16 at Tue Dec  5 18:19:47 2023.
