 Gaussian 16, Revision B.01,
 Gaussian 16:  ES64L-G16RevB.01 20-Dec-2017

 -------------------------
 #P B3LYP/6-311+g(d) force
 -------------------------

 -----
 DPGEN
 -----
 Symbolic Z-matrix:
 Charge =  0 Multiplicity = 2

                         Standard orientation:
 ---------------------------------------------------------------------
 Center     Atomic      Atomic             Coordinates (Angstroms)
 Number     Number       Type             X           Y           Z
 ---------------------------------------------------------------------
      1         11           0        0.020748   -0.599053    2.381260
      2         11           0        1.719530    2.131052    0.149783
      3         11           0        3.421569   -0.267800   -0.124451
      4         11           0        0.945562   -2.274520   -0.673169
      5         11           0       -0.262314    0.087665   -1.575876
      6         11           0       -3.638898   -1.028531    0.003894
      7         11           0       -2.206198    1.951187   -0.161441
 ---------------------------------------------------------------------

 SCF Done:  E(UB3LYP) =  -1136.11402607     A.U. after   25 cycles

 The electronic state is 2-A.
 Alpha  occ. eigenvalues --  -38.45575 -38.45244 -38.44434 -38.44007 -38.43689
 Alpha  occ. eigenvalues --  -38.42868 -38.42867  -2.21333  -2.21110  -2.20250
 Alpha  occ. eigenvalues --   -2.20022  -2.19552  -2.18795  -2.18753  -1.15009
 Alpha  occ. eigenvalues --   -1.14998  -1.14968  -1.14822  -1.14755  -1.14744
 Alpha  occ. eigenvalues --   -1.13899  -1.13876  -1.13864  -1.13814  -1.13699
 Alpha  occ. eigenvalues --   -1.13604  -1.13250  -1.13202  -1.13159  -1.12523
 Alpha  occ. eigenvalues --   -1.12448  -1.12411  -1.12401  -1.12395  -1.12394
 Alpha  occ. eigenvalues --   -0.18556  -0.13842  -0.11349  -0.11153
 Alpha virt. eigenvalues --   -0.07153  -0.05103  -0.03694  -0.03354  -0.03155
 Alpha virt. eigenvalues --   -0.02624  -0.02445  -0.01221  -0.00252  -0.00202
 Alpha virt. eigenvalues --    0.00015   0.00209   0.00463   0.00668   0.00821

  Beta  occ. eigenvalues --  -38.45585 -38.45242 -38.44322 -38.43949 -38.43684
  Beta  occ. eigenvalues --  -38.42861 -38.42845  -2.21352  -2.21108  -2.20042
  Beta  occ. eigenvalues --   -2.19919  -2.19546  -2.18758  -2.18744  -1.15022
  Beta  occ. eigenvalues --   -1.15003  -1.14982  -1.14822  -1.14747  -1.14733
  Beta  occ. eigenvalues --   -1.13760  -1.13736  -1.13731  -1.13718  -1.13626
  Beta  occ. eigenvalues --   -1.13534  -1.13235  -1.13187  -1.13162  -1.12489
  Beta  occ. eigenvalues --   -1.12444  -1.12397  -1.12383  -1.12366  -1.12351
  Beta  occ. eigenvalues --   -0.17844  -0.13702  -0.11108
  Beta virt. eigenvalues --   -0.07186  -0.06947  -0.05134  -0.03349  -0.02999
  Beta virt. eigenvalues --   -0.02506  -0.02055  -0.01619  -0.01159  -0.00261
  Beta virt. eigenvalues --   -0.00010   0.00012   0.00233   0.00637   0.00730

 Mulliken charges and spin densities:
               1          2
     1  Na  -0.734856   0.673084
     2  Na   0.041408   0.167187
     3  Na   0.142172  -0.015124
     4  Na   0.472409   0.182647
     5  Na  -0.192407  -0.106140
     6  Na   0.066237  -0.032149
     7  Na   0.205037   0.130495
 Sum of Mulliken charges =  -0.00000   1.00000

 Dipole moment (field-independent basis, Debye):
    X=             -0.7225    Y=             -0.4307    Z=              0.4329  Tot=              0.9460
 Quadrupole moment (field-independent basis, Debye-Ang):
   XX=            -46.3160   YY=            -74.0616   ZZ=            -73.1857
   XY=              0.9274   XZ=             -0.4881   YZ=              0.3858

 Normal termination of Gaussian 16 at Thu Dec  7 15:07:42 2023.
