 Gaussian 16, Revision B.01,
 Gaussian 16:  ES64L-G16RevB.01 20-Dec-2017

 -------------------------
 #P B3LYP/6-311+g(d) force
 -------------------------

 -----
 DPGEN
 -----
 Symbolic Z-matrix:
 Charge =  0 Multiplicity = 2

                         Standard orientation:
 ---------------------------------------------------------------------
 Center     Atomic      Atomic             Coordinates (Angstroms)
 Number     Number       Type             X           Y           Z
 ---------------------------------------------------------------------
      1         11           0       -0.391516    3.318985   -0.646336
      2         11           0       -4.157958    1.367536    0.363708
      3         11           0       -4.515495   -1.646352    0.595328
      4         11           0       -0.857711   -2.202500   -0.803943
      5         11           0        2.950789    2.654362   -0.062005
      6         11           0        4.358810   -0.598669    1.142881
      7         11           0        2.613081   -2.893362   -0.589632
 ---------------------------------------------------------------------

 SCF Done:  E(UB3LYP) =  -1136.10721720     A.U. after   23 cycles

 The electronic state is 2-A.
 Alpha  occ. eigenvalues --  -38.45519 -38.44920 -38.44891 -38.44516 -38.44209
 Alpha  occ. eigenvalues --  -38.44199 -38.43703  -2.21309  -2.20704  -2.20689
 Alpha  occ. eigenvalues --   -2.20259  -2.20001  -2.19981  -2.19471  -1.14998
 Alpha  occ. eigenvalues --   -1.14969  -1.14947  -1.14364  -1.14356  -1.14354
 Alpha  occ. eigenvalues --   -1.14348  -1.14336  -1.14286  -1.13950  -1.13937
 Alpha  occ. eigenvalues --   -1.13899  -1.13687  -1.13664  -1.13654  -1.13645
 Alpha  occ. eigenvalues --   -1.13634  -1.13593  -1.13134  -1.13127  -1.13098
 Alpha  occ. eigenvalues --   -0.15576  -0.14197  -0.12605  -0.10974
 Alpha virt. eigenvalues --   -0.07468  -0.05159  -0.04737  -0.03669  -0.03259
 Alpha virt. eigenvalues --   -0.02466  -0.02138  -0.01613  -0.01487  -0.00902
 Alpha virt. eigenvalues --   -0.00624  -0.00173  -0.00031   0.00311   0.00625

  Beta  occ. eigenvalues --  -38.45494 -38.44872 -38.44841 -38.44528 -38.44220
  Beta  occ. eigenvalues --  -38.44130 -38.43661  -2.21267  -2.20671  -2.20545
  Beta  occ. eigenvalues --   -2.20286  -2.20007  -2.19873  -2.19392  -1.14961
  Beta  occ. eigenvalues --   -1.14943  -1.14909  -1.14335  -1.14332  -1.14309
  Beta  occ. eigenvalues --   -1.14258  -1.14250  -1.14184  -1.13972  -1.13959
  Beta  occ. eigenvalues --   -1.13891  -1.13689  -1.13682  -1.13630  -1.13565
  Beta  occ. eigenvalues --   -1.13549  -1.13535  -1.13079  -1.13073  -1.13048
  Beta  occ. eigenvalues --   -0.14990  -0.13651  -0.12078
  Beta virt. eigenvalues --   -0.07734  -0.07455  -0.04668  -0.04202  -0.03491
  Beta virt. eigenvalues --   -0.02911  -0.02326  -0.02022  -0.01517  -0.01013
  Beta virt. eigenvalues --   -0.00757  -0.00417   0.00096   0.00227   0.00314

 Mulliken charges and spin densities:
               1          2
     1  Na   0.331665   0.201028
     2  Na  -0.298087   0.117000
     3  Na   0.857024   0.131061
     4  Na  -0.646312   0.362284
     5  Na  -0.282894  -0.035183
     6  Na   0.053169   0.347211
     7  Na  -0.014566  -0.123401
 Sum of Mulliken charges =  -0.00000   1.00000

 Dipole moment (field-independent basis, Debye):
    X=             -1.4668    Y=             -0.6112    Z=              0.3019  Tot=              1.6175
 Quadrupole moment (field-independent basis, Debye-Ang):
   XX=            -57.8142   YY=            -67.8596   ZZ=            -72.9097
   XY=             -0.1249   XZ=             -0.0333   YZ=             -0.1387

 Normal termination of Gaussian 16 at Sun Dec  3 12:17:44 2023.
