 Gaussian 16, Revision B.01,
 Gaussian 16:  ES64L-G16RevB.01 20-Dec-2017

 -------------------------
 #P B3LYP/6-311+g(d) force
 -------------------------

 -----
 DPGEN
 -----
 Symbolic Z-matrix:
 Charge =  0 Multiplicity = 2

                         Standard orientation:
 ---------------------------------------------------------------------
 Center     Atomic      Atomic             Coordinates (Angstroms)
 Number     Number       Type             X           Y           Z
 ---------------------------------------------------------------------
      1         11           0       -2.303241    0.355011    1.551996
      2         11           0        2.727519    1.490842   -1.193243
      3         11           0        1.253424    0.136193    1.930330
      4         11           0       -4.259363   -0.977911   -0.784755
      5         11           0       -0.303971    2.399997   -0.401633
      6         11           0       -0.413348   -1.178528   -1.234486
      7         11           0        3.298980   -2.225604    0.131792
 ---------------------------------------------------------------------

 SCF Done:  E(UB3LYP) =  -1136.12431445     A.U. after   23 cycles

 The electronic state is 2-A.
 Alpha  occ. eigenvalues --  -38.45371 -38.44598 -38.44482 -38.44022 -38.43984
 Alpha  occ. eigenvalues --  -38.43234 -38.42712  -2.21147  -2.20426  -2.20266
 Alpha  occ. eigenvalues --   -2.19895  -2.19859  -2.19009  -2.18588  -1.14859
 Alpha  occ. eigenvalues --   -1.14830  -1.14733  -1.14100  -1.14080  -1.14036
 Alpha  occ. eigenvalues --   -1.13942  -1.13926  -1.13894  -1.13597  -1.13546
 Alpha  occ. eigenvalues --   -1.13539  -1.13524  -1.13491  -1.13462  -1.12682
 Alpha  occ. eigenvalues --   -1.12677  -1.12647  -1.12272  -1.12243  -1.12236
 Alpha  occ. eigenvalues --   -0.17980  -0.13701  -0.11307  -0.11206
 Alpha virt. eigenvalues --   -0.06873  -0.05220  -0.04682  -0.03200  -0.02688
 Alpha virt. eigenvalues --   -0.02642  -0.02358  -0.01369  -0.00960  -0.00267
 Alpha virt. eigenvalues --    0.00037   0.00110   0.00283   0.00441   0.00666

  Beta  occ. eigenvalues --  -38.45349 -38.44553 -38.44469 -38.43953 -38.43947
  Beta  occ. eigenvalues --  -38.43235 -38.42706  -2.21107  -2.20343  -2.20243
  Beta  occ. eigenvalues --   -2.19795  -2.19768  -2.19013  -2.18581  -1.14823
  Beta  occ. eigenvalues --   -1.14799  -1.14705  -1.14038  -1.14026  -1.13975
  Beta  occ. eigenvalues --   -1.13927  -1.13910  -1.13876  -1.13514  -1.13488
  Beta  occ. eigenvalues --   -1.13486  -1.13456  -1.13408  -1.13380  -1.12682
  Beta  occ. eigenvalues --   -1.12675  -1.12651  -1.12270  -1.12242  -1.12200
  Beta  occ. eigenvalues --   -0.17287  -0.13490  -0.11028
  Beta virt. eigenvalues --   -0.07428  -0.06667  -0.05052  -0.04182  -0.02947
  Beta virt. eigenvalues --   -0.02515  -0.02093  -0.01749  -0.01099  -0.00609
  Beta virt. eigenvalues --   -0.00255   0.00079   0.00218   0.00397   0.00538

 Mulliken charges and spin densities:
               1          2
     1  Na   0.515856   0.089926
     2  Na   0.175163   0.203579
     3  Na  -0.332017   0.377820
     4  Na   0.068858   0.072499
     5  Na  -0.028363   0.087939
     6  Na  -0.752645   0.253032
     7  Na   0.353148  -0.084794
 Sum of Mulliken charges =  -0.00000   1.00000

 Dipole moment (field-independent basis, Debye):
    X=             -0.4953    Y=              0.2727    Z=             -0.3001  Tot=              0.6401
 Quadrupole moment (field-independent basis, Debye-Ang):
   XX=            -52.8154   YY=            -74.5469   ZZ=            -68.8392
   XY=              1.4164   XZ=             -0.8845   YZ=              0.9266

 Normal termination of Gaussian 16 at Wed Dec  6 01:04:52 2023.
