 Gaussian 16, Revision B.01,
 Gaussian 16:  ES64L-G16RevB.01 20-Dec-2017

 -------------------------
 #P B3LYP/6-311+g(d) force
 -------------------------

 -----
 DPGEN
 -----
 Symbolic Z-matrix:
 Charge =  0 Multiplicity = 2

                         Standard orientation:
 ---------------------------------------------------------------------
 Center     Atomic      Atomic             Coordinates (Angstroms)
 Number     Number       Type             X           Y           Z
 ---------------------------------------------------------------------
      1         11           0       -3.391651   -2.591261   -0.272913
      2         11           0       -0.054226    3.387298   -0.094850
      3         11           0       -0.439532    0.542871    1.507999
      4         11           0        2.497105    1.805536   -0.455986
      5         11           0       -3.821804    0.799839   -0.592387
      6         11           0        0.880105   -2.104586    0.288569
      7         11           0        4.330004   -1.839697   -0.380431
 ---------------------------------------------------------------------

 SCF Done:  E(UB3LYP) =  -1136.11597280     A.U. after   21 cycles

 The electronic state is 2-A.
 Alpha  occ. eigenvalues --  -38.45160 -38.44778 -38.44634 -38.44123 -38.43849
 Alpha  occ. eigenvalues --  -38.43818 -38.43426  -2.20901  -2.20599  -2.20408
 Alpha  occ. eigenvalues --   -2.20011  -2.19710  -2.19595  -2.19254  -1.14583
 Alpha  occ. eigenvalues --   -1.14556  -1.14544  -1.14291  -1.14269  -1.14235
 Alpha  occ. eigenvalues --   -1.14078  -1.14053  -1.14031  -1.13708  -1.13666
 Alpha  occ. eigenvalues --   -1.13621  -1.13383  -1.13352  -1.13344  -1.13257
 Alpha  occ. eigenvalues --   -1.13245  -1.13220  -1.12953  -1.12927  -1.12850
 Alpha  occ. eigenvalues --   -0.16978  -0.13496  -0.12617  -0.10348
 Alpha virt. eigenvalues --   -0.07064  -0.05326  -0.04825  -0.03520  -0.03168
 Alpha virt. eigenvalues --   -0.02039  -0.01827  -0.01690  -0.01212  -0.01100
 Alpha virt. eigenvalues --   -0.00301   0.00223   0.00347   0.00489   0.00603

  Beta  occ. eigenvalues --  -38.45161 -38.44758 -38.44593 -38.44053 -38.43846
  Beta  occ. eigenvalues --  -38.43775 -38.43392  -2.20906  -2.20563  -2.20331
  Beta  occ. eigenvalues --   -2.19885  -2.19705  -2.19514  -2.19196  -1.14589
  Beta  occ. eigenvalues --   -1.14551  -1.14538  -1.14266  -1.14234  -1.14209
  Beta  occ. eigenvalues --   -1.14026  -1.14000  -1.13976  -1.13615  -1.13577
  Beta  occ. eigenvalues --   -1.13538  -1.13378  -1.13344  -1.13336  -1.13202
  Beta  occ. eigenvalues --   -1.13188  -1.13169  -1.12902  -1.12887  -1.12800
  Beta  occ. eigenvalues --   -0.16400  -0.12985  -0.12340
  Beta virt. eigenvalues --   -0.06967  -0.06888  -0.05095  -0.04495  -0.03054
  Beta virt. eigenvalues --   -0.02733  -0.01856  -0.01623  -0.01555  -0.01026
  Beta virt. eigenvalues --   -0.00750  -0.00052   0.00386   0.00415   0.00590

 Mulliken charges and spin densities:
               1          2
     1  Na   0.146118  -0.018003
     2  Na   0.347644  -0.016559
     3  Na   0.095185   0.329179
     4  Na  -0.311378   0.143543
     5  Na  -0.091208   0.249947
     6  Na  -0.694700  -0.046789
     7  Na   0.508338   0.358682
 Sum of Mulliken charges =  -0.00000   1.00000

 Dipole moment (field-independent basis, Debye):
    X=             -0.8327    Y=              0.2156    Z=              0.0092  Tot=              0.8602
 Quadrupole moment (field-independent basis, Debye-Ang):
   XX=            -68.0684   YY=            -58.5053   ZZ=            -73.0463
   XY=              1.0245   XZ=             -0.6116   YZ=              0.2021

 Normal termination of Gaussian 16 at Sun Dec  3 17:11:57 2023.
