 Gaussian 16, Revision B.01,
 Gaussian 16:  ES64L-G16RevB.01 20-Dec-2017

 -------------------------
 #P B3LYP/6-311+g(d) force
 -------------------------

 -----
 DPGEN
 -----
 Symbolic Z-matrix:
 Charge =  0 Multiplicity = 2

                         Standard orientation:
 ---------------------------------------------------------------------
 Center     Atomic      Atomic             Coordinates (Angstroms)
 Number     Number       Type             X           Y           Z
 ---------------------------------------------------------------------
      1         11           0       -1.658940    1.921386   -0.117112
      2         11           0        3.630638   -1.645188   -0.163737
      3         11           0       -2.150722   -0.629700    1.737635
      4         11           0        1.300278    0.288499    1.829717
      5         11           0       -3.999197   -0.789793   -1.060790
      6         11           0        2.750663    1.587178   -0.838917
      7         11           0        0.127280   -0.732381   -1.386795
 ---------------------------------------------------------------------

 SCF Done:  E(UB3LYP) =  -1136.11761455     A.U. after   49 cycles

 The electronic state is 2-A.
 Alpha  occ. eigenvalues --  -38.45203 -38.45092 -38.44344 -38.43946 -38.43945
 Alpha  occ. eigenvalues --  -38.43562 -38.42775  -2.21034  -2.20941  -2.20208
 Alpha  occ. eigenvalues --   -2.19840  -2.19768  -2.19357  -2.18670  -1.14748
 Alpha  occ. eigenvalues --   -1.14714  -1.14639  -1.14623  -1.14588  -1.14547
 Alpha  occ. eigenvalues --   -1.13904  -1.13900  -1.13795  -1.13526  -1.13500
 Alpha  occ. eigenvalues --   -1.13433  -1.13432  -1.13426  -1.13395  -1.13041
 Alpha  occ. eigenvalues --   -1.13030  -1.12996  -1.12372  -1.12345  -1.12265
 Alpha  occ. eigenvalues --   -0.18336  -0.14578  -0.10964  -0.10472
 Alpha virt. eigenvalues --   -0.06988  -0.05788  -0.05093  -0.02971  -0.02858
 Alpha virt. eigenvalues --   -0.02282  -0.01992  -0.01390  -0.01100  -0.00441
 Alpha virt. eigenvalues --    0.00039   0.00182   0.00287   0.00354   0.00432

  Beta  occ. eigenvalues --  -38.45168 -38.45059 -38.44319 -38.43917 -38.43908
  Beta  occ. eigenvalues --  -38.43582 -38.42748  -2.20974  -2.20881  -2.20164
  Beta  occ. eigenvalues --   -2.19769  -2.19716  -2.19396  -2.18620  -1.14686
  Beta  occ. eigenvalues --   -1.14660  -1.14599  -1.14578  -1.14547  -1.14497
  Beta  occ. eigenvalues --   -1.13877  -1.13846  -1.13768  -1.13473  -1.13456
  Beta  occ. eigenvalues --   -1.13397  -1.13387  -1.13382  -1.13364  -1.13061
  Beta  occ. eigenvalues --   -1.13058  -1.13020  -1.12338  -1.12294  -1.12230
  Beta  occ. eigenvalues --   -0.17665  -0.14438  -0.10276
  Beta virt. eigenvalues --   -0.07265  -0.06793  -0.05340  -0.04669  -0.02789
  Beta virt. eigenvalues --   -0.02632  -0.01773  -0.01479  -0.01097  -0.00650
  Beta virt. eigenvalues --   -0.00337   0.00060   0.00260   0.00334   0.00475

 Mulliken charges and spin densities:
               1          2
     1  Na   0.093133   0.238172
     2  Na   0.295463  -0.021172
     3  Na  -0.019365   0.016485
     4  Na  -0.328462   0.347516
     5  Na   0.242148  -0.111818
     6  Na   0.408221   0.108026
     7  Na  -0.691138   0.422791
 Sum of Mulliken charges =  -0.00000   1.00000

 Dipole moment (field-independent basis, Debye):
    X=              0.5067    Y=              0.8190    Z=             -0.0223  Tot=              0.9633
 Quadrupole moment (field-independent basis, Debye-Ang):
   XX=            -56.2069   YY=            -67.4727   ZZ=            -75.2318
   XY=              0.6695   XZ=             -1.0229   YZ=             -4.4789

 Normal termination of Gaussian 16 at Thu Dec  7 17:31:23 2023.
