 Gaussian 16, Revision B.01,
 Gaussian 16:  ES64L-G16RevB.01 20-Dec-2017

 -------------------------
 #P B3LYP/6-311+g(d) force
 -------------------------

 -----
 DPGEN
 -----
 Symbolic Z-matrix:
 Charge =  0 Multiplicity = 2

                         Standard orientation:
 ---------------------------------------------------------------------
 Center     Atomic      Atomic             Coordinates (Angstroms)
 Number     Number       Type             X           Y           Z
 ---------------------------------------------------------------------
      1         11           0       -0.138689   -0.105637   -1.016008
      2         11           0       -0.805327   -2.806342   -0.508110
      3         11           0        2.569781   -1.396527    0.177705
      4         11           0        2.653541    1.632659   -0.446623
      5         11           0       -1.093063    3.086100    0.006587
      6         11           0       -0.124483   -0.306756    1.925334
      7         11           0       -3.061761   -0.103497   -0.138886
 ---------------------------------------------------------------------

 SCF Done:  E(UB3LYP) =  -1136.12632224     A.U. after   19 cycles

 The electronic state is 2-A.
 Alpha  occ. eigenvalues --  -38.44184 -38.43882 -38.43848 -38.43618 -38.43550
 Alpha  occ. eigenvalues --  -38.43187 -38.42767  -2.20053  -2.19700  -2.19666
 Alpha  occ. eigenvalues --   -2.19533  -2.19469  -2.19154  -2.18967  -1.13779
 Alpha  occ. eigenvalues --   -1.13712  -1.13659  -1.13428  -1.13366  -1.13345
 Alpha  occ. eigenvalues --   -1.13336  -1.13322  -1.13306  -1.13299  -1.13214
 Alpha  occ. eigenvalues --   -1.13188  -1.13146  -1.13099  -1.13065  -1.12956
 Alpha  occ. eigenvalues --   -1.12751  -1.12735  -1.12608  -1.12578  -1.12559
 Alpha  occ. eigenvalues --   -0.19062  -0.13337  -0.12519  -0.10271
 Alpha virt. eigenvalues --   -0.05722  -0.05167  -0.04890  -0.02949  -0.02510
 Alpha virt. eigenvalues --   -0.01957  -0.01598  -0.01330  -0.00535  -0.00358
 Alpha virt. eigenvalues --    0.00034   0.00340   0.00803   0.00835   0.00878

  Beta  occ. eigenvalues --  -38.44176 -38.43883 -38.43838 -38.43610 -38.43531
  Beta  occ. eigenvalues --  -38.43085 -38.42728  -2.20043  -2.19682  -2.19671
  Beta  occ. eigenvalues --   -2.19522  -2.19439  -2.18968  -2.18900  -1.13771
  Beta  occ. eigenvalues --   -1.13687  -1.13650  -1.13420  -1.13347  -1.13339
  Beta  occ. eigenvalues --   -1.13328  -1.13314  -1.13308  -1.13276  -1.13207
  Beta  occ. eigenvalues --   -1.13153  -1.13134  -1.13060  -1.13036  -1.12845
  Beta  occ. eigenvalues --   -1.12623  -1.12602  -1.12532  -1.12523  -1.12503
  Beta  occ. eigenvalues --   -0.18345  -0.13053  -0.12285
  Beta virt. eigenvalues --   -0.06384  -0.05673  -0.05131  -0.04783  -0.02195
  Beta virt. eigenvalues --   -0.01861  -0.01520  -0.01309  -0.00910  -0.00522
  Beta virt. eigenvalues --   -0.00383   0.00193   0.00401   0.00819   0.00877

 Mulliken charges and spin densities:
               1          2
     1  Na  -1.498203  -0.160084
     2  Na   0.654105   0.191130
     3  Na   0.619148   0.171791
     4  Na   0.002089   0.059563
     5  Na  -0.012992   0.018797
     6  Na  -0.123013   0.662938
     7  Na   0.358865   0.055865
 Sum of Mulliken charges =  -0.00000   1.00000

 Dipole moment (field-independent basis, Debye):
    X=             -0.2293    Y=              0.1755    Z=              0.3206  Tot=              0.4315
 Quadrupole moment (field-independent basis, Debye-Ang):
   XX=            -55.5049   YY=            -58.4359   ZZ=            -76.7434
   XY=             -0.3514   XZ=             -0.1572   YZ=              0.2674

 Normal termination of Gaussian 16 at Fri Dec  8 03:50:39 2023.
