 Gaussian 16, Revision B.01,
 Gaussian 16:  ES64L-G16RevB.01 20-Dec-2017

 -------------------------
 #P B3LYP/6-311+g(d) force
 -------------------------

 -----
 DPGEN
 -----
 Symbolic Z-matrix:
 Charge =  0 Multiplicity = 2

                         Standard orientation:
 ---------------------------------------------------------------------
 Center     Atomic      Atomic             Coordinates (Angstroms)
 Number     Number       Type             X           Y           Z
 ---------------------------------------------------------------------
      1         11           0       -0.730919   -2.755837    0.127377
      2         11           0       -0.271484   -0.243490   -1.608827
      3         11           0        2.502403   -1.684538    0.146961
      4         11           0       -3.527173    0.041494   -0.383264
      5         11           0       -0.211594    0.262921    2.163290
      6         11           0        2.621001    1.335548   -0.591303
      7         11           0       -0.382235    3.043902    0.145767
 ---------------------------------------------------------------------

 SCF Done:  E(UB3LYP) =  -1136.13361017     A.U. after   19 cycles

 The electronic state is 2-A.
 Alpha  occ. eigenvalues --  -38.44602 -38.43843 -38.43608 -38.43603 -38.43548
 Alpha  occ. eigenvalues --  -38.43512 -38.43419  -2.20365  -2.19702  -2.19469
 Alpha  occ. eigenvalues --   -2.19420  -2.19417  -2.19384  -2.19374  -1.14044
 Alpha  occ. eigenvalues --   -1.14009  -1.14004  -1.13364  -1.13331  -1.13327
 Alpha  occ. eigenvalues --   -1.13244  -1.13185  -1.13132  -1.13111  -1.13094
 Alpha  occ. eigenvalues --   -1.13092  -1.13081  -1.13064  -1.13043  -1.13038
 Alpha  occ. eigenvalues --   -1.13026  -1.13016  -1.12993  -1.12981  -1.12974
 Alpha  occ. eigenvalues --   -0.18413  -0.12822  -0.12447  -0.10879
 Alpha virt. eigenvalues --   -0.06046  -0.04912  -0.04644  -0.03139  -0.03064
 Alpha virt. eigenvalues --   -0.02653  -0.01828  -0.01077  -0.00406  -0.00268
 Alpha virt. eigenvalues --   -0.00050   0.00319   0.00752   0.00857   0.00901

  Beta  occ. eigenvalues --  -38.44593 -38.43743 -38.43605 -38.43596 -38.43534
  Beta  occ. eigenvalues --  -38.43509 -38.43367  -2.20351  -2.19518  -2.19460
  Beta  occ. eigenvalues --   -2.19415  -2.19396  -2.19381  -2.19280  -1.14023
  Beta  occ. eigenvalues --   -1.14000  -1.13997  -1.13246  -1.13224  -1.13203
  Beta  occ. eigenvalues --   -1.13195  -1.13176  -1.13103  -1.13099  -1.13088
  Beta  occ. eigenvalues --   -1.13068  -1.13064  -1.13054  -1.13021  -1.13017
  Beta  occ. eigenvalues --   -1.13011  -1.12979  -1.12969  -1.12938  -1.12904
  Beta  occ. eigenvalues --   -0.17707  -0.12554  -0.12223
  Beta virt. eigenvalues --   -0.07011  -0.05983  -0.04798  -0.04624  -0.02437
  Beta virt. eigenvalues --   -0.02286  -0.01742  -0.01629  -0.00993  -0.00408
  Beta virt. eigenvalues --   -0.00315   0.00098   0.00362   0.00788   0.00880

 Mulliken charges and spin densities:
               1          2
     1  Na   0.217616   0.018289
     2  Na  -0.192415   0.318552
     3  Na   0.107845   0.068315
     4  Na   0.047272  -0.063896
     5  Na  -0.448390   0.619586
     6  Na   0.208361   0.074030
     7  Na   0.059711  -0.034877
 Sum of Mulliken charges =  -0.00000   1.00000

 Dipole moment (field-independent basis, Debye):
    X=             -0.5874    Y=              0.0380    Z=              0.1598  Tot=              0.6099
 Quadrupole moment (field-independent basis, Debye-Ang):
   XX=            -56.8357   YY=            -63.3892   ZZ=            -73.6333
   XY=             -0.7271   XZ=             -0.1250   YZ=             -1.4261

 Normal termination of Gaussian 16 at Tue Dec  5 21:16:35 2023.
