 Gaussian 16, Revision B.01,
 Gaussian 16:  ES64L-G16RevB.01 20-Dec-2017

 -------------------------
 #P B3LYP/6-311+g(d) force
 -------------------------

 -----
 DPGEN
 -----
 Symbolic Z-matrix:
 Charge =  0 Multiplicity = 2

                         Standard orientation:
 ---------------------------------------------------------------------
 Center     Atomic      Atomic             Coordinates (Angstroms)
 Number     Number       Type             X           Y           Z
 ---------------------------------------------------------------------
      1         11           0       -0.389129   -1.653857    0.928464
      2         11           0       -3.132147   -1.888553   -0.820728
      3         11           0       -8.714736    2.371377    0.507826
      4         11           0       -6.630396   -0.129711   -0.722838
      5         11           0        6.241836    0.766004   -0.768841
      6         11           0        9.277135    1.125829   -0.119778
      7         11           0        3.347438   -0.591089    0.995894
 ---------------------------------------------------------------------

 SCF Done:  E(UB3LYP) =  -1136.10315415     A.U. after   20 cycles

 The electronic state is 2-A.
 Alpha  occ. eigenvalues --  -38.45182 -38.45173 -38.44994 -38.44544 -38.44464
 Alpha  occ. eigenvalues --  -38.44352 -38.44294  -2.20984  -2.20951  -2.20756
 Alpha  occ. eigenvalues --   -2.20340  -2.20218  -2.20088  -2.20085  -1.14636
 Alpha  occ. eigenvalues --   -1.14620  -1.14618  -1.14603  -1.14601  -1.14550
 Alpha  occ. eigenvalues --   -1.14409  -1.14408  -1.14371  -1.14009  -1.13994
 Alpha  occ. eigenvalues --   -1.13979  -1.13902  -1.13896  -1.13849  -1.13777
 Alpha  occ. eigenvalues --   -1.13772  -1.13759  -1.13758  -1.13748  -1.13723
 Alpha  occ. eigenvalues --   -0.14971  -0.14180  -0.12944  -0.11757
 Alpha virt. eigenvalues --   -0.07479  -0.05633  -0.03940  -0.03300  -0.03217
 Alpha virt. eigenvalues --   -0.02786  -0.02486  -0.02243  -0.01842  -0.01504
 Alpha virt. eigenvalues --   -0.00979  -0.00830  -0.00387   0.00211   0.00435

  Beta  occ. eigenvalues --  -38.45117 -38.45078 -38.44939 -38.44491 -38.44486
  Beta  occ. eigenvalues --  -38.44374 -38.44304  -2.20862  -2.20774  -2.20653
  Beta  occ. eigenvalues --   -2.20272  -2.20232  -2.20129  -2.20113  -1.14556
  Beta  occ. eigenvalues --   -1.14538  -1.14536  -1.14483  -1.14481  -1.14439
  Beta  occ. eigenvalues --   -1.14338  -1.14338  -1.14304  -1.13969  -1.13945
  Beta  occ. eigenvalues --   -1.13933  -1.13916  -1.13906  -1.13833  -1.13810
  Beta  occ. eigenvalues --   -1.13805  -1.13782  -1.13778  -1.13728  -1.13725
  Beta  occ. eigenvalues --   -0.14290  -0.13652  -0.12363
  Beta virt. eigenvalues --   -0.08721  -0.07020  -0.05178  -0.03621  -0.03113
  Beta virt. eigenvalues --   -0.03043  -0.02652  -0.02275  -0.01920  -0.01662
  Beta virt. eigenvalues --   -0.01145  -0.00556  -0.00454  -0.00252   0.00305

 Mulliken charges and spin densities:
               1          2
     1  Na  -0.169505  -0.070171
     2  Na  -0.133763   0.226620
     3  Na   0.285679   0.235754
     4  Na  -0.111225  -0.070556
     5  Na  -0.462378  -0.047311
     6  Na   0.396055   0.281314
     7  Na   0.195137   0.444349
 Sum of Mulliken charges =  -0.00000   1.00000

 Dipole moment (field-independent basis, Debye):
    X=              1.1883    Y=              0.6488    Z=              0.3442  Tot=              1.3969
 Quadrupole moment (field-independent basis, Debye-Ang):
   XX=            -39.1884   YY=            -69.1689   ZZ=            -71.0535
   XY=             -3.6660   XZ=              0.2079   YZ=              2.5259

 Normal termination of Gaussian 16 at Sun Dec  3 20:11:38 2023.
