 Gaussian 16, Revision B.01,
 Gaussian 16:  ES64L-G16RevB.01 20-Dec-2017

 -------------------------
 #P B3LYP/6-311+g(d) force
 -------------------------

 -----
 DPGEN
 -----
 Symbolic Z-matrix:
 Charge =  0 Multiplicity = 2

                         Standard orientation:
 ---------------------------------------------------------------------
 Center     Atomic      Atomic             Coordinates (Angstroms)
 Number     Number       Type             X           Y           Z
 ---------------------------------------------------------------------
      1         11           0        1.487533    2.484449   -0.745754
      2         11           0       -0.177015   -0.362498   -1.375105
      3         11           0        2.939310   -1.201904   -0.328966
      4         11           0       -0.130344   -2.734632    0.306998
      5         11           0       -1.830389    2.155409    0.168687
      6         11           0        0.785567    0.599388    2.137553
      7         11           0       -3.074663   -0.940211   -0.163413
 ---------------------------------------------------------------------

 SCF Done:  E(UB3LYP) =  -1136.13541390     A.U. after   19 cycles

 The electronic state is 2-A.
 Alpha  occ. eigenvalues --  -38.44019 -38.43620 -38.43605 -38.43598 -38.43571
 Alpha  occ. eigenvalues --  -38.43542 -38.42946  -2.19844  -2.19502  -2.19481
 Alpha  occ. eigenvalues --   -2.19452  -2.19438  -2.19411  -2.19014  -1.13523
 Alpha  occ. eigenvalues --   -1.13502  -1.13484  -1.13303  -1.13186  -1.13154
 Alpha  occ. eigenvalues --   -1.13150  -1.13146  -1.13133  -1.13124  -1.13101
 Alpha  occ. eigenvalues --   -1.13098  -1.13079  -1.13075  -1.13069  -1.13058
 Alpha  occ. eigenvalues --   -1.13042  -1.13017  -1.12689  -1.12648  -1.12619
 Alpha  occ. eigenvalues --   -0.18724  -0.12934  -0.12745  -0.10684
 Alpha virt. eigenvalues --   -0.05567  -0.05121  -0.04715  -0.03159  -0.03010
 Alpha virt. eigenvalues --   -0.02406  -0.01504  -0.01111  -0.00330  -0.00213
 Alpha virt. eigenvalues --   -0.00003   0.00349   0.00802   0.00867   0.00917

  Beta  occ. eigenvalues --  -38.44013 -38.43620 -38.43599 -38.43578 -38.43537
  Beta  occ. eigenvalues --  -38.43478 -38.42898  -2.19837  -2.19492  -2.19482
  Beta  occ. eigenvalues --   -2.19419  -2.19404  -2.19265  -2.18929  -1.13512
  Beta  occ. eigenvalues --   -1.13486  -1.13478  -1.13291  -1.13184  -1.13148
  Beta  occ. eigenvalues --   -1.13134  -1.13128  -1.13116  -1.13083  -1.13078
  Beta  occ. eigenvalues --   -1.13075  -1.13060  -1.13044  -1.13014  -1.12978
  Beta  occ. eigenvalues --   -1.12947  -1.12924  -1.12622  -1.12590  -1.12556
  Beta  occ. eigenvalues --   -0.18034  -0.12722  -0.12523
  Beta virt. eigenvalues --   -0.06736  -0.05549  -0.05067  -0.04627  -0.02437
  Beta virt. eigenvalues --   -0.02263  -0.01446  -0.01380  -0.01028  -0.00309
  Beta virt. eigenvalues --   -0.00237   0.00162   0.00399   0.00848   0.00873

 Mulliken charges and spin densities:
               1          2
     1  Na   0.160041   0.042772
     2  Na  -0.267137   0.147967
     3  Na   0.171945  -0.011748
     4  Na   0.171299   0.101476
     5  Na   0.237048   0.077849
     6  Na  -0.641046   0.621146
     7  Na   0.167851   0.020537
 Sum of Mulliken charges =  -0.00000   1.00000

 Dipole moment (field-independent basis, Debye):
    X=              0.2195    Y=             -0.0239    Z=              0.1934  Tot=              0.2935
 Quadrupole moment (field-independent basis, Debye-Ang):
   XX=            -56.3067   YY=            -62.6718   ZZ=            -74.1177
   XY=             -0.1260   XZ=             -1.7029   YZ=             -1.6543

 Normal termination of Gaussian 16 at Thu Dec  7 06:36:24 2023.
