 Gaussian 16, Revision B.01,
 Gaussian 16:  ES64L-G16RevB.01 20-Dec-2017

 -------------------------
 #P B3LYP/6-311+g(d) force
 -------------------------

 -----
 DPGEN
 -----
 Symbolic Z-matrix:
 Charge =  0 Multiplicity = 2

                         Standard orientation:
 ---------------------------------------------------------------------
 Center     Atomic      Atomic             Coordinates (Angstroms)
 Number     Number       Type             X           Y           Z
 ---------------------------------------------------------------------
      1         11           0       -2.872784   -2.017151    0.107849
      2         11           0       -1.384039    1.152339    1.654664
      3         11           0        0.257075   -1.443007   -0.682263
      4         11           0       -2.398485    1.244020   -1.588194
      5         11           0        1.511500   -0.072081    2.168955
      6         11           0        3.496658   -1.099052   -0.951004
      7         11           0        1.390075    2.234933   -0.710006
 ---------------------------------------------------------------------

 SCF Done:  E(UB3LYP) =  -1136.12914037     A.U. after   23 cycles

 The electronic state is 2-A.
 Alpha  occ. eigenvalues --  -38.44617 -38.44280 -38.44008 -38.43995 -38.43517
 Alpha  occ. eigenvalues --  -38.43410 -38.42924  -2.20433  -2.20164  -2.19807
 Alpha  occ. eigenvalues --   -2.19802  -2.19333  -2.19296  -2.18833  -1.14112
 Alpha  occ. eigenvalues --   -1.14088  -1.14034  -1.13868  -1.13786  -1.13773
 Alpha  occ. eigenvalues --   -1.13494  -1.13480  -1.13460  -1.13458  -1.13436
 Alpha  occ. eigenvalues --   -1.13421  -1.13015  -1.13001  -1.12995  -1.12967
 Alpha  occ. eigenvalues --   -1.12948  -1.12904  -1.12548  -1.12507  -1.12443
 Alpha  occ. eigenvalues --   -0.18205  -0.13445  -0.11609  -0.11257
 Alpha virt. eigenvalues --   -0.05777  -0.05416  -0.04788  -0.03293  -0.02846
 Alpha virt. eigenvalues --   -0.02587  -0.01825  -0.01043  -0.00794  -0.00111
 Alpha virt. eigenvalues --    0.00241   0.00286   0.00394   0.00476   0.00698

  Beta  occ. eigenvalues --  -38.44570 -38.44210 -38.43984 -38.43981 -38.43515
  Beta  occ. eigenvalues --  -38.43378 -38.42915  -2.20346  -2.20037  -2.19784
  Beta  occ. eigenvalues --   -2.19758  -2.19329  -2.19243  -2.18819  -1.14051
  Beta  occ. eigenvalues --   -1.14032  -1.13969  -1.13775  -1.13705  -1.13673
  Beta  occ. eigenvalues --   -1.13465  -1.13456  -1.13441  -1.13424  -1.13420
  Beta  occ. eigenvalues --   -1.13389  -1.13011  -1.12986  -1.12964  -1.12951
  Beta  occ. eigenvalues --   -1.12891  -1.12872  -1.12517  -1.12493  -1.12438
  Beta  occ. eigenvalues --   -0.17481  -0.13254  -0.11030
  Beta virt. eigenvalues --   -0.07727  -0.05596  -0.05142  -0.04322  -0.02998
  Beta virt. eigenvalues --   -0.02262  -0.01920  -0.01742  -0.00907  -0.00373
  Beta virt. eigenvalues --   -0.00024   0.00301   0.00362   0.00502   0.00577

 Mulliken charges and spin densities:
               1          2
     1  Na   0.435596  -0.057385
     2  Na   0.358111   0.292926
     3  Na  -1.266707   0.327735
     4  Na   0.131713   0.188795
     5  Na   0.067195   0.032914
     6  Na   0.703630  -0.060054
     7  Na  -0.429538   0.275069
 Sum of Mulliken charges =  -0.00000   1.00000

 Dipole moment (field-independent basis, Debye):
    X=              0.2188    Y=              0.4714    Z=             -0.0914  Tot=              0.5277
 Quadrupole moment (field-independent basis, Debye-Ang):
   XX=            -53.1409   YY=            -74.3266   ZZ=            -66.5678
   XY=              0.1408   XZ=             -0.0665   YZ=             -4.6385

 Normal termination of Gaussian 16 at Thu Dec  7 10:35:32 2023.
