 Gaussian 16, Revision B.01,
 Gaussian 16:  ES64L-G16RevB.01 20-Dec-2017

 -------------------------
 #P B3LYP/6-311+g(d) force
 -------------------------

 -----
 DPGEN
 -----
 Symbolic Z-matrix:
 Charge =  0 Multiplicity = 2

                         Standard orientation:
 ---------------------------------------------------------------------
 Center     Atomic      Atomic             Coordinates (Angstroms)
 Number     Number       Type             X           Y           Z
 ---------------------------------------------------------------------
      1         11           0        0.420578   -1.535356    1.641423
      2         11           0        3.439602   -1.371171    0.043429
      3         11           0       -2.991942   -1.753207   -0.782400
      4         11           0       -0.375965    2.843699   -0.299113
      5         11           0       -3.221274    1.096167    0.860342
      6         11           0        0.069298   -1.081711   -1.301449
      7         11           0        2.659704    1.801580   -0.162233
 ---------------------------------------------------------------------

 SCF Done:  E(UB3LYP) =  -1136.11899413     A.U. after   23 cycles

 The electronic state is 2-A.
 Alpha  occ. eigenvalues --  -38.44847 -38.44768 -38.44398 -38.44168 -38.43962
 Alpha  occ. eigenvalues --  -38.43785 -38.43188  -2.20682  -2.20615  -2.20244
 Alpha  occ. eigenvalues --   -2.19986  -2.19802  -2.19714  -2.18997  -1.14367
 Alpha  occ. eigenvalues --   -1.14359  -1.14345  -1.14319  -1.14259  -1.14190
 Alpha  occ. eigenvalues --   -1.13929  -1.13908  -1.13880  -1.13645  -1.13630
 Alpha  occ. eigenvalues --   -1.13614  -1.13481  -1.13461  -1.13443  -1.13428
 Alpha  occ. eigenvalues --   -1.13339  -1.13316  -1.12677  -1.12665  -1.12642
 Alpha  occ. eigenvalues --   -0.17920  -0.14108  -0.12260  -0.10076
 Alpha virt. eigenvalues --   -0.07097  -0.05886  -0.04389  -0.03462  -0.02709
 Alpha virt. eigenvalues --   -0.02477  -0.02006  -0.01554  -0.00882  -0.00237
 Alpha virt. eigenvalues --   -0.00121   0.00147   0.00395   0.00565   0.00645

  Beta  occ. eigenvalues --  -38.44842 -38.44727 -38.44369 -38.44120 -38.43953
  Beta  occ. eigenvalues --  -38.43732 -38.43191  -2.20676  -2.20539  -2.20196
  Beta  occ. eigenvalues --   -2.19896  -2.19786  -2.19619  -2.19005  -1.14357
  Beta  occ. eigenvalues --   -1.14334  -1.14320  -1.14292  -1.14206  -1.14136
  Beta  occ. eigenvalues --   -1.13884  -1.13866  -1.13843  -1.13579  -1.13569
  Beta  occ. eigenvalues --   -1.13556  -1.13477  -1.13439  -1.13434  -1.13358
  Beta  occ. eigenvalues --   -1.13277  -1.13237  -1.12686  -1.12671  -1.12627
  Beta  occ. eigenvalues --   -0.17432  -0.13744  -0.11917
  Beta virt. eigenvalues --   -0.06998  -0.06601  -0.05638  -0.04056  -0.03034
  Beta virt. eigenvalues --   -0.02511  -0.01962  -0.01594  -0.01141  -0.00795
  Beta virt. eigenvalues --   -0.00066   0.00030   0.00216   0.00544   0.00689

 Mulliken charges and spin densities:
               1          2
     1  Na  -0.260844   0.271823
     2  Na   0.845606   0.107299
     3  Na   0.449451  -0.058718
     4  Na   0.025680  -0.099733
     5  Na  -0.153723   0.357542
     6  Na  -0.686787   0.399089
     7  Na  -0.219383   0.022699
 Sum of Mulliken charges =  -0.00000   1.00000

 Dipole moment (field-independent basis, Debye):
    X=              0.6201    Y=             -0.9822    Z=              0.1196  Tot=              1.1677
 Quadrupole moment (field-independent basis, Debye-Ang):
   XX=            -49.4873   YY=            -73.2039   ZZ=            -74.1740
   XY=              0.5859   XZ=             -0.6894   YZ=              0.2555

 Normal termination of Gaussian 16 at Wed Nov 29 01:50:22 2023.
