 Gaussian 16, Revision B.01,
 Gaussian 16:  ES64L-G16RevB.01 20-Dec-2017

 -------------------------
 #P B3LYP/6-311+g(d) force
 -------------------------

 -----
 DPGEN
 -----
 Symbolic Z-matrix:
 Charge =  0 Multiplicity = 2

                         Standard orientation:
 ---------------------------------------------------------------------
 Center     Atomic      Atomic             Coordinates (Angstroms)
 Number     Number       Type             X           Y           Z
 ---------------------------------------------------------------------
      1         11           0       -0.902984   -2.182105    0.204058
      2         11           0        2.208675    1.811068    0.153416
      3         11           0        1.886512   -1.231602    1.354770
      4         11           0       -0.976287    0.956309    2.285419
      5         11           0       -0.657961    1.893407   -1.326906
      6         11           0       -3.679893   -0.203143   -0.743727
      7         11           0        2.121937   -1.043933   -1.927030
 ---------------------------------------------------------------------

 SCF Done:  E(UB3LYP) =  -1136.12953516     A.U. after   21 cycles

 The electronic state is 2-A.
 Alpha  occ. eigenvalues --  -38.45037 -38.44591 -38.44410 -38.43398 -38.43263
 Alpha  occ. eigenvalues --  -38.43223 -38.42892  -2.20845  -2.20427  -2.20185
 Alpha  occ. eigenvalues --   -2.19319  -2.19100  -2.19092  -2.18739  -1.14512
 Alpha  occ. eigenvalues --   -1.14474  -1.14464  -1.14090  -1.14078  -1.14040
 Alpha  occ. eigenvalues --   -1.13856  -1.13839  -1.13816  -1.13013  -1.12993
 Alpha  occ. eigenvalues --   -1.12954  -1.12835  -1.12770  -1.12765  -1.12747
 Alpha  occ. eigenvalues --   -1.12728  -1.12684  -1.12439  -1.12416  -1.12352
 Alpha  occ. eigenvalues --   -0.18226  -0.13111  -0.11851  -0.11498
 Alpha virt. eigenvalues --   -0.05914  -0.05149  -0.04446  -0.03347  -0.03161
 Alpha virt. eigenvalues --   -0.03094  -0.01586  -0.00927  -0.00506  -0.00041
 Alpha virt. eigenvalues --    0.00244   0.00285   0.00383   0.00595   0.00843

  Beta  occ. eigenvalues --  -38.44959 -38.44537 -38.44394 -38.43378 -38.43248
  Beta  occ. eigenvalues --  -38.43221 -38.42887  -2.20703  -2.20327  -2.20156
  Beta  occ. eigenvalues --   -2.19285  -2.19098  -2.19066  -2.18735  -1.14414
  Beta  occ. eigenvalues --   -1.14373  -1.14360  -1.14020  -1.14013  -1.13967
  Beta  occ. eigenvalues --   -1.13831  -1.13820  -1.13799  -1.12994  -1.12977
  Beta  occ. eigenvalues --   -1.12895  -1.12828  -1.12763  -1.12743  -1.12727
  Beta  occ. eigenvalues --   -1.12706  -1.12672  -1.12432  -1.12394  -1.12354
  Beta  occ. eigenvalues --   -0.17443  -0.12866  -0.11340
  Beta virt. eigenvalues --   -0.08016  -0.05659  -0.04595  -0.04251  -0.03260
  Beta virt. eigenvalues --   -0.02478  -0.02238  -0.01504  -0.00556  -0.00424
  Beta virt. eigenvalues --    0.00088   0.00291   0.00398   0.00451   0.00709

 Mulliken charges and spin densities:
               1          2
     1  Na  -0.335794   0.169970
     2  Na   0.236439   0.073064
     3  Na   0.513840   0.237145
     4  Na  -0.214854   0.218042
     5  Na  -0.308133   0.230866
     6  Na   0.184860  -0.078924
     7  Na  -0.076358   0.149837
 Sum of Mulliken charges =  -0.00000   1.00000

 Dipole moment (field-independent basis, Debye):
    X=             -0.3497    Y=              0.1007    Z=             -0.0949  Tot=              0.3761
 Quadrupole moment (field-independent basis, Debye-Ang):
   XX=            -57.2748   YY=            -76.5516   ZZ=            -62.0126
   XY=             -0.5534   XZ=             -0.2826   YZ=              3.7680

 Normal termination of Gaussian 16 at Thu Dec  7 18:25:12 2023.
