 Gaussian 16, Revision B.01,
 Gaussian 16:  ES64L-G16RevB.01 20-Dec-2017

 -------------------------
 #P B3LYP/6-311+g(d) force
 -------------------------

 -----
 DPGEN
 -----
 Symbolic Z-matrix:
 Charge =  0 Multiplicity = 2

                         Standard orientation:
 ---------------------------------------------------------------------
 Center     Atomic      Atomic             Coordinates (Angstroms)
 Number     Number       Type             X           Y           Z
 ---------------------------------------------------------------------
      1         11           0        3.111495    0.647925    0.975073
      2         11           0        3.936600   -2.719435   -0.088394
      3         11           0       -2.661836   -1.189754   -0.311308
      4         11           0        1.454161    3.750841   -0.117811
      5         11           0       -5.884769   -0.416579    0.621579
      6         11           0        0.855051   -1.466361   -0.336369
      7         11           0       -0.810702    1.393364   -0.742769
 ---------------------------------------------------------------------

 SCF Done:  E(UB3LYP) =  -1136.12502428     A.U. after   21 cycles

 The electronic state is 2-A.
 Alpha  occ. eigenvalues --  -38.44836 -38.44637 -38.44249 -38.43934 -38.43760
 Alpha  occ. eigenvalues --  -38.43384 -38.43157  -2.20643  -2.20440  -2.20049
 Alpha  occ. eigenvalues --   -2.19813  -2.19666  -2.19187  -2.19012  -1.14356
 Alpha  occ. eigenvalues --   -1.14332  -1.14215  -1.14070  -1.14069  -1.14051
 Alpha  occ. eigenvalues --   -1.13723  -1.13712  -1.13674  -1.13522  -1.13495
 Alpha  occ. eigenvalues --   -1.13435  -1.13365  -1.13352  -1.13246  -1.12853
 Alpha  occ. eigenvalues --   -1.12849  -1.12819  -1.12705  -1.12687  -1.12657
 Alpha  occ. eigenvalues --   -0.17064  -0.13971  -0.12445  -0.11301
 Alpha virt. eigenvalues --   -0.06147  -0.04854  -0.04822  -0.03976  -0.02460
 Alpha virt. eigenvalues --   -0.02248  -0.02014  -0.01877  -0.01032  -0.00899
 Alpha virt. eigenvalues --   -0.00240   0.00056   0.00239   0.00404   0.00654

  Beta  occ. eigenvalues --  -38.44814 -38.44516 -38.44242 -38.43915 -38.43723
  Beta  occ. eigenvalues --  -38.43375 -38.43152  -2.20602  -2.20215  -2.20036
  Beta  occ. eigenvalues --   -2.19782  -2.19602  -2.19170  -2.19014  -1.14328
  Beta  occ. eigenvalues --   -1.14306  -1.14182  -1.13917  -1.13916  -1.13903
  Beta  occ. eigenvalues --   -1.13713  -1.13703  -1.13664  -1.13486  -1.13476
  Beta  occ. eigenvalues --   -1.13413  -1.13327  -1.13314  -1.13173  -1.12841
  Beta  occ. eigenvalues --   -1.12838  -1.12807  -1.12716  -1.12697  -1.12584
  Beta  occ. eigenvalues --   -0.16528  -0.13237  -0.12179
  Beta virt. eigenvalues --   -0.07673  -0.06044  -0.04597  -0.04265  -0.03811
  Beta virt. eigenvalues --   -0.02290  -0.01880  -0.01774  -0.01357  -0.00867
  Beta virt. eigenvalues --   -0.00568   0.00047   0.00169   0.00403   0.00497

 Mulliken charges and spin densities:
               1          2
     1  Na  -0.162672   0.212477
     2  Na   0.942716   0.071861
     3  Na   0.652702   0.015983
     4  Na   0.423065   0.059384
     5  Na   0.404365   0.510574
     6  Na  -1.685572   0.204203
     7  Na  -0.574604  -0.074483
 Sum of Mulliken charges =  -0.00000   1.00000

 Dipole moment (field-independent basis, Debye):
    X=              1.2071    Y=             -0.2435    Z=              0.1174  Tot=              1.2370
 Quadrupole moment (field-independent basis, Debye-Ang):
   XX=            -59.4846   YY=            -63.3968   ZZ=            -71.1770
   XY=             -5.8689   XZ=              0.2479   YZ=              0.6312

 Normal termination of Gaussian 16 at Wed Nov 29 04:11:39 2023.
