 Gaussian 16, Revision B.01,
 Gaussian 16:  ES64L-G16RevB.01 20-Dec-2017

 -------------------------
 #P B3LYP/6-311+g(d) force
 -------------------------

 -----
 DPGEN
 -----
 Symbolic Z-matrix:
 Charge =  0 Multiplicity = 2

                         Standard orientation:
 ---------------------------------------------------------------------
 Center     Atomic      Atomic             Coordinates (Angstroms)
 Number     Number       Type             X           Y           Z
 ---------------------------------------------------------------------
      1         11           0        0.700677   -0.752316    2.066954
      2         11           0       -0.766471   -2.965648   -0.371552
      3         11           0        2.309184   -1.190710   -1.024961
      4         11           0       -3.296987   -0.160206    0.294387
      5         11           0       -1.357596    2.866225   -0.255599
      6         11           0       -0.303532    0.534416   -1.054491
      7         11           0        2.714725    1.668238    0.345262
 ---------------------------------------------------------------------

 SCF Done:  E(UB3LYP) =  -1136.12623378     A.U. after   20 cycles

 The electronic state is 2-A.
 Alpha  occ. eigenvalues --  -38.44597 -38.44072 -38.43974 -38.43595 -38.43547
 Alpha  occ. eigenvalues --  -38.43413 -38.42969  -2.20390  -2.19947  -2.19819
 Alpha  occ. eigenvalues --   -2.19475  -2.19470  -2.19234  -2.19072  -1.14072
 Alpha  occ. eigenvalues --   -1.14058  -1.14013  -1.13853  -1.13565  -1.13517
 Alpha  occ. eigenvalues --   -1.13512  -1.13478  -1.13458  -1.13195  -1.13147
 Alpha  occ. eigenvalues --   -1.13127  -1.13090  -1.13080  -1.13073  -1.12907
 Alpha  occ. eigenvalues --   -1.12893  -1.12875  -1.12730  -1.12717  -1.12649
 Alpha  occ. eigenvalues --   -0.18549  -0.13252  -0.12383  -0.10495
 Alpha virt. eigenvalues --   -0.05953  -0.05020  -0.04833  -0.03147  -0.02776
 Alpha virt. eigenvalues --   -0.02268  -0.01695  -0.01158  -0.00550  -0.00298
 Alpha virt. eigenvalues --    0.00002   0.00328   0.00766   0.00841   0.00875

  Beta  occ. eigenvalues --  -38.44596 -38.44071 -38.43965 -38.43509 -38.43506
  Beta  occ. eigenvalues --  -38.43407 -38.42933  -2.20388  -2.19946  -2.19806
  Beta  occ. eigenvalues --   -2.19409  -2.19306  -2.19226  -2.19010  -1.14067
  Beta  occ. eigenvalues --   -1.14053  -1.14013  -1.13845  -1.13555  -1.13518
  Beta  occ. eigenvalues --   -1.13505  -1.13461  -1.13434  -1.13147  -1.13061
  Beta  occ. eigenvalues --   -1.13039  -1.13027  -1.12986  -1.12956  -1.12895
  Beta  occ. eigenvalues --   -1.12884  -1.12858  -1.12679  -1.12658  -1.12608
  Beta  occ. eigenvalues --   -0.17866  -0.13054  -0.12169
  Beta virt. eigenvalues --   -0.06573  -0.05860  -0.04985  -0.04705  -0.02525
  Beta virt. eigenvalues --   -0.02111  -0.01599  -0.01276  -0.01061  -0.00530
  Beta virt. eigenvalues --   -0.00263   0.00172   0.00384   0.00788   0.00887

 Mulliken charges and spin densities:
               1          2
     1  Na  -0.675494   0.686361
     2  Na   0.072090  -0.051236
     3  Na   0.530192   0.040925
     4  Na  -0.154974  -0.016505
     5  Na   0.079236  -0.029715
     6  Na   0.059279   0.255164
     7  Na   0.089672   0.115005
 Sum of Mulliken charges =  -0.00000   1.00000

 Dipole moment (field-independent basis, Debye):
    X=             -0.3721    Y=              0.1065    Z=              0.3909  Tot=              0.5501
 Quadrupole moment (field-independent basis, Debye-Ang):
   XX=            -55.2819   YY=            -61.4266   ZZ=            -75.2611
   XY=              2.2025   XZ=             -1.8723   YZ=              2.1809

 Normal termination of Gaussian 16 at Thu Dec  7 17:08:27 2023.
