 Gaussian 16, Revision B.01,
 Gaussian 16:  ES64L-G16RevB.01 20-Dec-2017

 -------------------------
 #P B3LYP/6-311+g(d) force
 -------------------------

 -----
 DPGEN
 -----
 Symbolic Z-matrix:
 Charge =  0 Multiplicity = 2

                         Standard orientation:
 ---------------------------------------------------------------------
 Center     Atomic      Atomic             Coordinates (Angstroms)
 Number     Number       Type             X           Y           Z
 ---------------------------------------------------------------------
      1         11           0        1.377802   -0.810711    1.619016
      2         11           0       -4.845515   -0.256002   -0.975425
      3         11           0       -0.983827    2.052677    0.791224
      4         11           0       -2.444080   -1.262745    0.907185
      5         11           0        3.886372   -1.390422   -0.654404
      6         11           0        0.564464   -0.073136   -1.439971
      7         11           0        2.444783    1.740338   -0.247625
 ---------------------------------------------------------------------

 SCF Done:  E(UB3LYP) =  -1136.11619990     A.U. after   25 cycles

 The electronic state is 2-A.
 Alpha  occ. eigenvalues --  -38.45617 -38.44233 -38.44025 -38.43854 -38.43575
 Alpha  occ. eigenvalues --  -38.43304 -38.43279  -2.21563  -2.20192  -2.19956
 Alpha  occ. eigenvalues --   -2.19654  -2.19411  -2.19145  -2.19119  -1.15310
 Alpha  occ. eigenvalues --   -1.15251  -1.15131  -1.13922  -1.13868  -1.13737
 Alpha  occ. eigenvalues --   -1.13652  -1.13608  -1.13532  -1.13317  -1.13301
 Alpha  occ. eigenvalues --   -1.13293  -1.13100  -1.13077  -1.13036  -1.12831
 Alpha  occ. eigenvalues --   -1.12811  -1.12792  -1.12779  -1.12768  -1.12757
 Alpha  occ. eigenvalues --   -0.18593  -0.14096  -0.11212  -0.10920
 Alpha virt. eigenvalues --   -0.07000  -0.05122  -0.04824  -0.02991  -0.02867
 Alpha virt. eigenvalues --   -0.02264  -0.01975  -0.01393  -0.01298  -0.00363
 Alpha virt. eigenvalues --   -0.00188   0.00210   0.00275   0.00548   0.00626

  Beta  occ. eigenvalues --  -38.45589 -38.44204 -38.43947 -38.43803 -38.43567
  Beta  occ. eigenvalues --  -38.43309 -38.43274  -2.21516  -2.20140  -2.19813
  Beta  occ. eigenvalues --   -2.19559  -2.19401  -2.19157  -2.19112  -1.15281
  Beta  occ. eigenvalues --   -1.15180  -1.15104  -1.13881  -1.13822  -1.13703
  Beta  occ. eigenvalues --   -1.13557  -1.13510  -1.13419  -1.13257  -1.13236
  Beta  occ. eigenvalues --   -1.13228  -1.13101  -1.13076  -1.12982  -1.12836
  Beta  occ. eigenvalues --   -1.12804  -1.12789  -1.12783  -1.12760  -1.12753
  Beta  occ. eigenvalues --   -0.17954  -0.13692  -0.10925
  Beta virt. eigenvalues --   -0.07227  -0.06780  -0.05072  -0.04259  -0.02769
  Beta virt. eigenvalues --   -0.02621  -0.01707  -0.01567  -0.01243  -0.00743
  Beta virt. eigenvalues --   -0.00285  -0.00081   0.00321   0.00382   0.00593

 Mulliken charges and spin densities:
               1          2
     1  Na  -0.360266   0.392578
     2  Na   0.082057   0.282577
     3  Na  -0.046911  -0.098280
     4  Na  -0.208761   0.039304
     5  Na   0.343414   0.048128
     6  Na  -0.391381   0.138734
     7  Na   0.581847   0.196960
 Sum of Mulliken charges =  -0.00000   1.00000

 Dipole moment (field-independent basis, Debye):
    X=              0.9016    Y=              0.8219    Z=             -0.0553  Tot=              1.2213
 Quadrupole moment (field-independent basis, Debye-Ang):
   XX=            -63.7627   YY=            -71.7368   ZZ=            -66.7434
   XY=             -1.7871   XZ=              1.6557   YZ=              2.2297

 Normal termination of Gaussian 16 at Tue Dec  5 21:13:31 2023.
