 Gaussian 16, Revision B.01,
 Gaussian 16:  ES64L-G16RevB.01 20-Dec-2017

 -------------------------
 #P B3LYP/6-311+g(d) force
 -------------------------

 -----
 DPGEN
 -----
 Symbolic Z-matrix:
 Charge =  0 Multiplicity = 2

                         Standard orientation:
 ---------------------------------------------------------------------
 Center     Atomic      Atomic             Coordinates (Angstroms)
 Number     Number       Type             X           Y           Z
 ---------------------------------------------------------------------
      1         11           0       -2.179164   -1.785780   -0.558382
      2         11           0        0.007075    0.427617   -1.892328
      3         11           0       -3.098597    1.126679    0.304940
      4         11           0        1.004716    2.713548    0.047919
      5         11           0        3.079570   -0.122761   -0.296216
      6         11           0        1.102145   -2.508051    0.396731
      7         11           0        0.084255    0.148749    1.997336
 ---------------------------------------------------------------------

 SCF Done:  E(UB3LYP) =  -1136.13443978     A.U. after   20 cycles

 The electronic state is 2-A.
 Alpha  occ. eigenvalues --  -38.44405 -38.44293 -38.43800 -38.43717 -38.43506
 Alpha  occ. eigenvalues --  -38.43153 -38.42761  -2.20216  -2.20154  -2.19715
 Alpha  occ. eigenvalues --   -2.19646  -2.19382  -2.19021  -2.18652  -1.13900
 Alpha  occ. eigenvalues --   -1.13880  -1.13850  -1.13839  -1.13817  -1.13788
 Alpha  occ. eigenvalues --   -1.13387  -1.13361  -1.13329  -1.13323  -1.13304
 Alpha  occ. eigenvalues --   -1.13262  -1.13057  -1.13036  -1.13018  -1.12704
 Alpha  occ. eigenvalues --   -1.12693  -1.12639  -1.12338  -1.12312  -1.12290
 Alpha  occ. eigenvalues --   -0.18761  -0.13301  -0.12116  -0.11197
 Alpha virt. eigenvalues --   -0.06013  -0.04867  -0.04199  -0.03531  -0.02994
 Alpha virt. eigenvalues --   -0.02898  -0.01726  -0.00873  -0.00203  -0.00148
 Alpha virt. eigenvalues --    0.00063   0.00377   0.00792   0.00834   0.00870

  Beta  occ. eigenvalues --  -38.44403 -38.44287 -38.43711 -38.43643 -38.43494
  Beta  occ. eigenvalues --  -38.43148 -38.42754  -2.20214  -2.20146  -2.19551
  Beta  occ. eigenvalues --   -2.19510  -2.19363  -2.19017  -2.18643  -1.13902
  Beta  occ. eigenvalues --   -1.13861  -1.13851  -1.13834  -1.13792  -1.13784
  Beta  occ. eigenvalues --   -1.13280  -1.13242  -1.13232  -1.13211  -1.13207
  Beta  occ. eigenvalues --   -1.13165  -1.13035  -1.13019  -1.12999  -1.12701
  Beta  occ. eigenvalues --   -1.12667  -1.12632  -1.12328  -1.12303  -1.12268
  Beta  occ. eigenvalues --   -0.18000  -0.13084  -0.11862
  Beta virt. eigenvalues --   -0.07274  -0.05947  -0.04817  -0.04173  -0.02761
  Beta virt. eigenvalues --   -0.02205  -0.01859  -0.01619  -0.00793  -0.00261
  Beta virt. eigenvalues --   -0.00066   0.00112   0.00399   0.00865   0.00906

 Mulliken charges and spin densities:
               1          2
     1  Na   0.072583   0.049959
     2  Na  -0.148917   0.470497
     3  Na   0.036639  -0.080226
     4  Na   0.074158  -0.111066
     5  Na   0.170660  -0.014875
     6  Na   0.078728   0.011737
     7  Na  -0.283850   0.673975
 Sum of Mulliken charges =  -0.00000   1.00000

 Dipole moment (field-independent basis, Debye):
    X=             -0.1438    Y=              0.3658    Z=             -0.0028  Tot=              0.3931
 Quadrupole moment (field-independent basis, Debye-Ang):
   XX=            -55.7903   YY=            -67.2612   ZZ=            -71.8475
   XY=             -0.6896   XZ=             -0.8662   YZ=              1.2775

 Normal termination of Gaussian 16 at Tue Dec  5 20:31:05 2023.
