 Gaussian 16, Revision B.01,
 Gaussian 16:  ES64L-G16RevB.01 20-Dec-2017

 -------------------------
 #P B3LYP/6-311+g(d) force
 -------------------------

 -----
 DPGEN
 -----
 Symbolic Z-matrix:
 Charge =  0 Multiplicity = 2

                         Standard orientation:
 ---------------------------------------------------------------------
 Center     Atomic      Atomic             Coordinates (Angstroms)
 Number     Number       Type             X           Y           Z
 ---------------------------------------------------------------------
      1         11           0        1.083670   -2.256732    0.838491
      2         11           0       -2.899720    1.453806   -0.516506
      3         11           0       -3.104587   -1.379110   -0.528654
      4         11           0       -0.583713    0.394542    2.236004
      5         11           0        3.937777   -0.156578   -0.721734
      6         11           0        1.444465    2.260432    0.196057
      7         11           0        0.122108   -0.316360   -1.503658
 ---------------------------------------------------------------------

 SCF Done:  E(UB3LYP) =  -1136.11919480     A.U. after   25 cycles

 The electronic state is 2-A.
 Alpha  occ. eigenvalues --  -38.45342 -38.44474 -38.44338 -38.44280 -38.44105
 Alpha  occ. eigenvalues --  -38.42957 -38.42703  -2.21114  -2.20375  -2.20215
 Alpha  occ. eigenvalues --   -2.20152  -2.19984  -2.18809  -2.18542  -1.14788
 Alpha  occ. eigenvalues --   -1.14756  -1.14732  -1.14118  -1.14098  -1.14036
 Alpha  occ. eigenvalues --   -1.13992  -1.13863  -1.13825  -1.13797  -1.13758
 Alpha  occ. eigenvalues --   -1.13692  -1.13651  -1.13612  -1.13589  -1.12507
 Alpha  occ. eigenvalues --   -1.12469  -1.12416  -1.12242  -1.12221  -1.12157
 Alpha  occ. eigenvalues --   -0.18301  -0.13959  -0.11481  -0.10936
 Alpha virt. eigenvalues --   -0.06903  -0.05027  -0.04167  -0.03040  -0.02985
 Alpha virt. eigenvalues --   -0.02720  -0.02640  -0.01026  -0.00622  -0.00236
 Alpha virt. eigenvalues --    0.00103   0.00182   0.00470   0.00750   0.00802

  Beta  occ. eigenvalues --  -38.45308 -38.44460 -38.44327 -38.44266 -38.44001
  Beta  occ. eigenvalues --  -38.42927 -38.42702  -2.21051  -2.20350  -2.20195
  Beta  occ. eigenvalues --   -2.20129  -2.19793  -2.18757  -2.18543  -1.14742
  Beta  occ. eigenvalues --   -1.14712  -1.14692  -1.14101  -1.14069  -1.14025
  Beta  occ. eigenvalues --   -1.13973  -1.13842  -1.13807  -1.13777  -1.13741
  Beta  occ. eigenvalues --   -1.13669  -1.13521  -1.13487  -1.13444  -1.12476
  Beta  occ. eigenvalues --   -1.12416  -1.12377  -1.12247  -1.12209  -1.12146
  Beta  occ. eigenvalues --   -0.17642  -0.13524  -0.10758
  Beta virt. eigenvalues --   -0.07688  -0.06578  -0.05014  -0.03683  -0.02847
  Beta virt. eigenvalues --   -0.02561  -0.02167  -0.01796  -0.01028  -0.00383
  Beta virt. eigenvalues --   -0.00116   0.00148   0.00228   0.00597   0.00794

 Mulliken charges and spin densities:
               1          2
     1  Na  -0.193307  -0.016397
     2  Na   0.090952   0.029859
     3  Na   0.298233   0.064545
     4  Na   0.020135   0.591353
     5  Na   0.269514   0.199021
     6  Na  -0.265163  -0.128029
     7  Na  -0.220364   0.259650
 Sum of Mulliken charges =  -0.00000   1.00000

 Dipole moment (field-independent basis, Debye):
    X=              0.2220    Y=             -0.1122    Z=             -0.0786  Tot=              0.2608
 Quadrupole moment (field-independent basis, Debye-Ang):
   XX=            -49.5203   YY=            -75.7469   ZZ=            -69.0879
   XY=             -0.5020   XZ=             -1.4724   YZ=             -1.9526

 Normal termination of Gaussian 16 at Thu Dec  7 06:22:51 2023.
