 Gaussian 16, Revision B.01,
 Gaussian 16:  ES64L-G16RevB.01 20-Dec-2017

 -------------------------
 #P B3LYP/6-311+g(d) force
 -------------------------

 -----
 DPGEN
 -----
 Symbolic Z-matrix:
 Charge =  0 Multiplicity = 2

                         Standard orientation:
 ---------------------------------------------------------------------
 Center     Atomic      Atomic             Coordinates (Angstroms)
 Number     Number       Type             X           Y           Z
 ---------------------------------------------------------------------
      1         11           0       -0.310000   -0.057776   -1.693086
      2         11           0       -1.602768    1.828145    0.230828
      3         11           0        0.340040    0.074508    1.872339
      4         11           0        2.449549   -0.635719   -0.233054
      5         11           0        1.310314    1.998615   -0.272822
      6         11           0        0.274650   -2.218796    0.136171
      7         11           0       -2.461784   -0.988978   -0.040377
 ---------------------------------------------------------------------

 SCF Done:  E(UB3LYP) =  -1136.09627256     A.U. after   19 cycles

 The electronic state is 2-A.
 Alpha  occ. eigenvalues --  -38.43988 -38.43829 -38.43816 -38.43628 -38.43390
 Alpha  occ. eigenvalues --  -38.43340 -38.43300  -2.20137  -2.20071  -2.19924
 Alpha  occ. eigenvalues --   -2.19663  -2.19537  -2.19418  -2.19388  -1.13989
 Alpha  occ. eigenvalues --   -1.13869  -1.13831  -1.13811  -1.13769  -1.13755
 Alpha  occ. eigenvalues --   -1.13732  -1.13590  -1.13497  -1.13377  -1.13347
 Alpha  occ. eigenvalues --   -1.13280  -1.13192  -1.13144  -1.13135  -1.13054
 Alpha  occ. eigenvalues --   -1.13043  -1.13026  -1.13024  -1.13004  -1.12900
 Alpha  occ. eigenvalues --   -0.21337  -0.13711  -0.13036  -0.12130
 Alpha virt. eigenvalues --   -0.05051  -0.04456  -0.04165  -0.03611  -0.03259
 Alpha virt. eigenvalues --   -0.02881  -0.00975  -0.00574  -0.00083   0.00370
 Alpha virt. eigenvalues --    0.00710   0.00782   0.01026   0.01131   0.01159

  Beta  occ. eigenvalues --  -38.43893 -38.43803 -38.43743 -38.43620 -38.43374
  Beta  occ. eigenvalues --  -38.43328 -38.43285  -2.19965  -2.19920  -2.19903
  Beta  occ. eigenvalues --   -2.19655  -2.19515  -2.19401  -2.19368  -1.13928
  Beta  occ. eigenvalues --   -1.13789  -1.13752  -1.13713  -1.13670  -1.13656
  Beta  occ. eigenvalues --   -1.13644  -1.13542  -1.13429  -1.13372  -1.13326
  Beta  occ. eigenvalues --   -1.13231  -1.13178  -1.13128  -1.13059  -1.13046
  Beta  occ. eigenvalues --   -1.13020  -1.13011  -1.12982  -1.12944  -1.12892
  Beta  occ. eigenvalues --   -0.20506  -0.13368  -0.12682
  Beta virt. eigenvalues --   -0.07945  -0.05061  -0.04444  -0.04160  -0.02691
  Beta virt. eigenvalues --   -0.02339  -0.01756  -0.00903  -0.00529   0.00067
  Beta virt. eigenvalues --    0.00398   0.00677   0.00745   0.01077   0.01133

 Mulliken charges and spin densities:
               1          2
     1  Na  -0.338423   0.346712
     2  Na   0.155974   0.059500
     3  Na  -0.448558   0.472348
     4  Na   0.096482  -0.009897
     5  Na   0.168737   0.026059
     6  Na   0.287675   0.100891
     7  Na   0.078113   0.004387
 Sum of Mulliken charges =  -0.00000   1.00000

 Dipole moment (field-independent basis, Debye):
    X=             -0.1300    Y=              0.1045    Z=              0.1940  Tot=              0.2558
 Quadrupole moment (field-independent basis, Debye-Ang):
   XX=            -61.1166   YY=            -67.7521   ZZ=            -68.7759
   XY=              0.3357   XZ=             -1.2164   YZ=             -0.1254

 Normal termination of Gaussian 16 at Fri Dec  8 17:57:58 2023.
