 Gaussian 16, Revision B.01,
 Gaussian 16:  ES64L-G16RevB.01 20-Dec-2017

 -------------------------
 #P B3LYP/6-311+g(d) force
 -------------------------

 -----
 DPGEN
 -----
 Symbolic Z-matrix:
 Charge =  0 Multiplicity = 2

                         Standard orientation:
 ---------------------------------------------------------------------
 Center     Atomic      Atomic             Coordinates (Angstroms)
 Number     Number       Type             X           Y           Z
 ---------------------------------------------------------------------
      1         11           0       -0.150247   -0.528396    2.149561
      2         11           0        2.405010   -2.126047   -0.283424
      3         11           0       -0.043507    0.164353   -1.705172
      4         11           0       -2.949906    0.624387   -0.373832
      5         11           0        2.905843    1.398668   -0.063941
      6         11           0       -0.386386    2.617718    0.363155
      7         11           0       -1.780806   -2.150683   -0.086348
 ---------------------------------------------------------------------

 SCF Done:  E(UB3LYP) =  -1136.13345058     A.U. after   19 cycles

 The electronic state is 2-A.
 Alpha  occ. eigenvalues --  -38.44175 -38.43929 -38.43887 -38.43879 -38.43507
 Alpha  occ. eigenvalues --  -38.43435 -38.42826  -2.19980  -2.19851  -2.19762
 Alpha  occ. eigenvalues --   -2.19676  -2.19484  -2.19352  -2.18717  -1.13658
 Alpha  occ. eigenvalues --   -1.13640  -1.13621  -1.13573  -1.13516  -1.13490
 Alpha  occ. eigenvalues --   -1.13436  -1.13398  -1.13373  -1.13355  -1.13331
 Alpha  occ. eigenvalues --   -1.13314  -1.13178  -1.13140  -1.13099  -1.13017
 Alpha  occ. eigenvalues --   -1.13001  -1.12972  -1.12405  -1.12375  -1.12346
 Alpha  occ. eigenvalues --   -0.18814  -0.13301  -0.12120  -0.11100
 Alpha virt. eigenvalues --   -0.05679  -0.05457  -0.04106  -0.03383  -0.03069
 Alpha virt. eigenvalues --   -0.02694  -0.01602  -0.01077  -0.00270  -0.00127
 Alpha virt. eigenvalues --   -0.00020   0.00349   0.00735   0.00864   0.00943

  Beta  occ. eigenvalues --  -38.44176 -38.43918 -38.43884 -38.43780 -38.43446
  Beta  occ. eigenvalues --  -38.43425 -38.42816  -2.19983  -2.19834  -2.19674
  Beta  occ. eigenvalues --   -2.19578  -2.19373  -2.19340  -2.18700  -1.13650
  Beta  occ. eigenvalues --   -1.13641  -1.13624  -1.13562  -1.13504  -1.13453
  Beta  occ. eigenvalues --   -1.13342  -1.13335  -1.13319  -1.13312  -1.13266
  Beta  occ. eigenvalues --   -1.13239  -1.13110  -1.13068  -1.13014  -1.13001
  Beta  occ. eigenvalues --   -1.12967  -1.12949  -1.12397  -1.12341  -1.12334
  Beta  occ. eigenvalues --   -0.18057  -0.13068  -0.11888
  Beta virt. eigenvalues --   -0.07129  -0.05623  -0.05444  -0.04059  -0.02618
  Beta virt. eigenvalues --   -0.02236  -0.01694  -0.01487  -0.01032  -0.00314
  Beta virt. eigenvalues --   -0.00121   0.00108   0.00385   0.00825   0.00857

 Mulliken charges and spin densities:
               1          2
     1  Na  -0.574078   0.638069
     2  Na   0.004503  -0.100648
     3  Na  -0.258584   0.361082
     4  Na   0.411938   0.106821
     5  Na  -0.004119  -0.067756
     6  Na   0.072987   0.079517
     7  Na   0.347353  -0.017085
 Sum of Mulliken charges =  -0.00000   1.00000

 Dipole moment (field-independent basis, Debye):
    X=              0.3407    Y=             -0.0977    Z=              0.1007  Tot=              0.3685
 Quadrupole moment (field-independent basis, Debye-Ang):
   XX=            -55.7069   YY=            -66.5894   ZZ=            -72.3383
   XY=             -0.0825   XZ=              0.5007   YZ=              1.2916

 Normal termination of Gaussian 16 at Tue Dec  5 13:41:17 2023.
