 Gaussian 16, Revision B.01,
 Gaussian 16:  ES64L-G16RevB.01 20-Dec-2017

 -------------------------
 #P B3LYP/6-311+g(d) force
 -------------------------

 -----
 DPGEN
 -----
 Symbolic Z-matrix:
 Charge =  0 Multiplicity = 2

                         Standard orientation:
 ---------------------------------------------------------------------
 Center     Atomic      Atomic             Coordinates (Angstroms)
 Number     Number       Type             X           Y           Z
 ---------------------------------------------------------------------
      1         11           0        2.641183   -1.772016   -0.160836
      2         11           0        0.181101    0.108699    1.913821
      3         11           0       -0.731626    2.761689    0.107628
      4         11           0       -0.823305    0.517936   -1.796465
      5         11           0        2.321065    1.552199   -0.155526
      6         11           0       -3.079111   -0.735845    0.355891
      7         11           0       -0.509308   -2.432662   -0.264513
 ---------------------------------------------------------------------

 SCF Done:  E(UB3LYP) =  -1136.13421828     A.U. after   19 cycles

 The electronic state is 2-A.
 Alpha  occ. eigenvalues --  -38.44027 -38.43761 -38.43515 -38.43501 -38.43485
 Alpha  occ. eigenvalues --  -38.43471 -38.43201  -2.19887  -2.19648  -2.19473
 Alpha  occ. eigenvalues --   -2.19461  -2.19390  -2.19333  -2.19135  -1.13577
 Alpha  occ. eigenvalues --   -1.13544  -1.13527  -1.13355  -1.13319  -1.13302
 Alpha  occ. eigenvalues --   -1.13276  -1.13150  -1.13120  -1.13113  -1.13076
 Alpha  occ. eigenvalues --   -1.13073  -1.13025  -1.13016  -1.12995  -1.12986
 Alpha  occ. eigenvalues --   -1.12977  -1.12974  -1.12810  -1.12795  -1.12751
 Alpha  occ. eigenvalues --   -0.19069  -0.13125  -0.12776  -0.10944
 Alpha virt. eigenvalues --   -0.05539  -0.05049  -0.04607  -0.03324  -0.03109
 Alpha virt. eigenvalues --   -0.02543  -0.01448  -0.00999  -0.00131  -0.00061
 Alpha virt. eigenvalues --    0.00034   0.00355   0.00840   0.00911   0.00973

  Beta  occ. eigenvalues --  -38.44021 -38.43755 -38.43484 -38.43462 -38.43430
  Beta  occ. eigenvalues --  -38.43429 -38.43191  -2.19878  -2.19641  -2.19383
  Beta  occ. eigenvalues --   -2.19339  -2.19332  -2.19303  -2.19121  -1.13574
  Beta  occ. eigenvalues --   -1.13529  -1.13507  -1.13344  -1.13299  -1.13285
  Beta  occ. eigenvalues --   -1.13230  -1.13068  -1.13035  -1.13028  -1.13012
  Beta  occ. eigenvalues --   -1.13006  -1.12982  -1.12970  -1.12967  -1.12964
  Beta  occ. eigenvalues --   -1.12944  -1.12922  -1.12801  -1.12751  -1.12747
  Beta  occ. eigenvalues --   -0.18325  -0.12895  -0.12527
  Beta virt. eigenvalues --   -0.07023  -0.05497  -0.04969  -0.04583  -0.02529
  Beta virt. eigenvalues --   -0.02319  -0.01514  -0.01365  -0.00951  -0.00180
  Beta virt. eigenvalues --   -0.00013   0.00132   0.00389   0.00860   0.00926

 Mulliken charges and spin densities:
               1          2
     1  Na  -0.123595  -0.057263
     2  Na  -0.481590   0.613552
     3  Na   0.451137  -0.078823
     4  Na  -0.295837   0.459302
     5  Na   0.104365   0.026972
     6  Na   0.294864  -0.053594
     7  Na   0.050656   0.089854
 Sum of Mulliken charges =  -0.00000   1.00000

 Dipole moment (field-independent basis, Debye):
    X=             -0.1944    Y=              0.1715    Z=              0.1091  Tot=              0.2813
 Quadrupole moment (field-independent basis, Debye-Ang):
   XX=            -57.4938   YY=            -64.6215   ZZ=            -72.7822
   XY=              0.0289   XZ=             -2.0282   YZ=              0.5764

 Normal termination of Gaussian 16 at Tue Dec  5 23:35:20 2023.
