 Gaussian 16, Revision B.01,
 Gaussian 16:  ES64L-G16RevB.01 20-Dec-2017

 -------------------------
 #P B3LYP/6-311+g(d) force
 -------------------------

 -----
 DPGEN
 -----
 Symbolic Z-matrix:
 Charge =  0 Multiplicity = 2

                         Standard orientation:
 ---------------------------------------------------------------------
 Center     Atomic      Atomic             Coordinates (Angstroms)
 Number     Number       Type             X           Y           Z
 ---------------------------------------------------------------------
      1         11           0        2.306542   -2.431376    0.812383
      2         11           0        5.392249   -0.116121   -0.833357
      3         11           0        2.946956    1.763591    0.373188
      4         11           0       -0.139833    2.364702    0.020698
      5         11           0       -0.272388   -1.603586   -0.458083
      6         11           0       -3.632136    0.364171    0.660254
      7         11           0       -6.601389   -0.341381   -0.575084
 ---------------------------------------------------------------------

 SCF Done:  E(UB3LYP) =  -1136.10624635     A.U. after   25 cycles

 The electronic state is 2-A.
 Alpha  occ. eigenvalues --  -38.45772 -38.44822 -38.44603 -38.44383 -38.44257
 Alpha  occ. eigenvalues --  -38.43813 -38.43187  -2.21597  -2.20603  -2.20384
 Alpha  occ. eigenvalues --   -2.20203  -2.20026  -2.19640  -2.19013  -1.15260
 Alpha  occ. eigenvalues --   -1.15240  -1.15188  -1.14250  -1.14250  -1.14238
 Alpha  occ. eigenvalues --   -1.14042  -1.14030  -1.14024  -1.13901  -1.13860
 Alpha  occ. eigenvalues --   -1.13817  -1.13713  -1.13710  -1.13657  -1.13328
 Alpha  occ. eigenvalues --   -1.13305  -1.13284  -1.12692  -1.12675  -1.12649
 Alpha  occ. eigenvalues --   -0.16578  -0.13819  -0.12457  -0.11502
 Alpha virt. eigenvalues --   -0.06887  -0.05280  -0.04670  -0.03474  -0.03070
 Alpha virt. eigenvalues --   -0.02694  -0.02233  -0.01596  -0.01219  -0.01034
 Alpha virt. eigenvalues --   -0.00391  -0.00117   0.00020   0.00215   0.00532

  Beta  occ. eigenvalues --  -38.45664 -38.44771 -38.44569 -38.44352 -38.44267
  Beta  occ. eigenvalues --  -38.43801 -38.43189  -2.21398  -2.20508  -2.20321
  Beta  occ. eigenvalues --   -2.20146  -2.20049  -2.19625  -2.19018  -1.15122
  Beta  occ. eigenvalues --   -1.15106  -1.15049  -1.14186  -1.14185  -1.14175
  Beta  occ. eigenvalues --   -1.14000  -1.13991  -1.13978  -1.13866  -1.13821
  Beta  occ. eigenvalues --   -1.13774  -1.13729  -1.13728  -1.13650  -1.13312
  Beta  occ. eigenvalues --   -1.13295  -1.13244  -1.12698  -1.12679  -1.12644
  Beta  occ. eigenvalues --   -0.15769  -0.13324  -0.11178
  Beta virt. eigenvalues --   -0.09057  -0.06314  -0.04948  -0.04298  -0.03124
  Beta virt. eigenvalues --   -0.02786  -0.02540  -0.01905  -0.01286  -0.00897
  Beta virt. eigenvalues --   -0.00745  -0.00226  -0.00051   0.00149   0.00280

 Mulliken charges and spin densities:
               1          2
     1  Na   0.304013   0.198711
     2  Na   0.458202   0.199412
     3  Na  -0.381672   0.022787
     4  Na   0.134271   0.423928
     5  Na  -0.473963  -0.027620
     6  Na  -0.291737  -0.009202
     7  Na   0.250886   0.191985
 Sum of Mulliken charges =  -0.00000   1.00000

 Dipole moment (field-independent basis, Debye):
    X=             -0.1820    Y=             -0.1102    Z=             -0.3658  Tot=              0.4232
 Quadrupole moment (field-independent basis, Debye-Ang):
   XX=            -54.6090   YY=            -71.8333   ZZ=            -69.3946
   XY=             -5.5796   XZ=              2.4491   YZ=              0.9170

 Normal termination of Gaussian 16 at Tue Nov 28 20:52:16 2023.
