 Gaussian 16, Revision B.01,
 Gaussian 16:  ES64L-G16RevB.01 20-Dec-2017

 -------------------------
 #P B3LYP/6-311+g(d) force
 -------------------------

 -----
 DPGEN
 -----
 Symbolic Z-matrix:
 Charge =  0 Multiplicity = 2

                         Standard orientation:
 ---------------------------------------------------------------------
 Center     Atomic      Atomic             Coordinates (Angstroms)
 Number     Number       Type             X           Y           Z
 ---------------------------------------------------------------------
      1         11           0        3.387470    1.356495   -0.457525
      2         11           0        3.012993   -2.126898    0.080387
      3         11           0        0.757512    1.590305    1.059912
      4         11           0       -0.122987   -0.321980   -1.633914
      5         11           0       -1.201743   -1.469709    1.538538
      6         11           0       -2.351517    1.934375    0.095174
      7         11           0       -3.481727   -0.962588   -0.682572
 ---------------------------------------------------------------------

 SCF Done:  E(UB3LYP) =  -1136.11676508     A.U. after   26 cycles

 The electronic state is 2-A.
 Alpha  occ. eigenvalues --  -38.45122 -38.44948 -38.44473 -38.44418 -38.43999
 Alpha  occ. eigenvalues --  -38.43484 -38.42543  -2.20969  -2.20777  -2.20352
 Alpha  occ. eigenvalues --   -2.20165  -2.19875  -2.19365  -2.18478  -1.14688
 Alpha  occ. eigenvalues --   -1.14618  -1.14581  -1.14482  -1.14428  -1.14391
 Alpha  occ. eigenvalues --   -1.14029  -1.14011  -1.13990  -1.13847  -1.13826
 Alpha  occ. eigenvalues --   -1.13813  -1.13545  -1.13531  -1.13518  -1.13033
 Alpha  occ. eigenvalues --   -1.13010  -1.12978  -1.12168  -1.12149  -1.12098
 Alpha  occ. eigenvalues --   -0.18466  -0.14300  -0.11110  -0.10590
 Alpha virt. eigenvalues --   -0.07038  -0.06256  -0.04067  -0.03173  -0.02777
 Alpha virt. eigenvalues --   -0.02467  -0.02085  -0.01543  -0.00713  -0.00561
 Alpha virt. eigenvalues --    0.00068   0.00159   0.00349   0.00534   0.00620

  Beta  occ. eigenvalues --  -38.45091 -38.44940 -38.44446 -38.44431 -38.43979
  Beta  occ. eigenvalues --  -38.43407 -38.42516  -2.20913  -2.20761  -2.20306
  Beta  occ. eigenvalues --   -2.20191  -2.19844  -2.19224  -2.18431  -1.14639
  Beta  occ. eigenvalues --   -1.14580  -1.14534  -1.14472  -1.14416  -1.14382
  Beta  occ. eigenvalues --   -1.14002  -1.13967  -1.13946  -1.13865  -1.13835
  Beta  occ. eigenvalues --   -1.13831  -1.13528  -1.13504  -1.13470  -1.12938
  Beta  occ. eigenvalues --   -1.12910  -1.12872  -1.12140  -1.12104  -1.12052
  Beta  occ. eigenvalues --   -0.17749  -0.14078  -0.10934
  Beta virt. eigenvalues --   -0.06865  -0.06687  -0.06255  -0.03489  -0.03034
  Beta virt. eigenvalues --   -0.02607  -0.01834  -0.01592  -0.01181  -0.00645
  Beta virt. eigenvalues --   -0.00206   0.00124   0.00170   0.00466   0.00619

 Mulliken charges and spin densities:
               1          2
     1  Na   0.633548   0.098851
     2  Na  -0.104704  -0.053903
     3  Na  -0.178608   0.074096
     4  Na  -0.587760   0.162980
     5  Na  -0.560170   0.339530
     6  Na  -0.098116   0.098720
     7  Na   0.895810   0.279727
 Sum of Mulliken charges =  -0.00000   1.00000

 Dipole moment (field-independent basis, Debye):
    X=              0.1648    Y=             -0.0175    Z=             -0.3085  Tot=              0.3502
 Quadrupole moment (field-independent basis, Debye-Ang):
   XX=            -48.5432   YY=            -73.5406   ZZ=            -72.6595
   XY=              0.7058   XZ=             -0.7238   YZ=             -1.2792

 Normal termination of Gaussian 16 at Fri Dec  8 00:40:03 2023.
