 Gaussian 16, Revision B.01,
 Gaussian 16:  ES64L-G16RevB.01 20-Dec-2017

 -------------------------
 #P B3LYP/6-311+g(d) force
 -------------------------

 -----
 DPGEN
 -----
 Symbolic Z-matrix:
 Charge =  0 Multiplicity = 2

                         Standard orientation:
 ---------------------------------------------------------------------
 Center     Atomic      Atomic             Coordinates (Angstroms)
 Number     Number       Type             X           Y           Z
 ---------------------------------------------------------------------
      1         11           0       -0.835641   -2.603517   -0.416121
      2         11           0       -3.535845    0.028252    0.579429
      3         11           0       -0.794335    0.424361   -1.763795
      4         11           0       -0.048159    2.890785   -0.547650
      5         11           0        2.550931   -1.813167   -0.284447
      6         11           0        3.073499    0.994959    0.573396
      7         11           0       -0.410449    0.078326    1.859189
 ---------------------------------------------------------------------

 SCF Done:  E(UB3LYP) =  -1136.12615706     A.U. after   20 cycles

 The electronic state is 2-A.
 Alpha  occ. eigenvalues --  -38.45038 -38.44260 -38.44136 -38.43693 -38.43559
 Alpha  occ. eigenvalues --  -38.43302 -38.43256  -2.20839  -2.20136  -2.19972
 Alpha  occ. eigenvalues --   -2.19537  -2.19523  -2.19159  -2.19126  -1.14514
 Alpha  occ. eigenvalues --   -1.14482  -1.14469  -1.13817  -1.13779  -1.13755
 Alpha  occ. eigenvalues --   -1.13716  -1.13627  -1.13586  -1.13322  -1.13204
 Alpha  occ. eigenvalues --   -1.13187  -1.13177  -1.13167  -1.13125  -1.12849
 Alpha  occ. eigenvalues --   -1.12828  -1.12786  -1.12766  -1.12750  -1.12725
 Alpha  occ. eigenvalues --   -0.18343  -0.13351  -0.12181  -0.11011
 Alpha virt. eigenvalues --   -0.06431  -0.04867  -0.04452  -0.03384  -0.02900
 Alpha virt. eigenvalues --   -0.02621  -0.02209  -0.00863  -0.00473  -0.00195
 Alpha virt. eigenvalues --   -0.00076   0.00258   0.00612   0.00802   0.00851

  Beta  occ. eigenvalues --  -38.45012 -38.44197 -38.44127 -38.43695 -38.43485
  Beta  occ. eigenvalues --  -38.43284 -38.43240  -2.20794  -2.20021  -2.19955
  Beta  occ. eigenvalues --   -2.19543  -2.19388  -2.19129  -2.19100  -1.14464
  Beta  occ. eigenvalues --   -1.14451  -1.14443  -1.13738  -1.13710  -1.13704
  Beta  occ. eigenvalues --   -1.13662  -1.13604  -1.13576  -1.13231  -1.13210
  Beta  occ. eigenvalues --   -1.13186  -1.13168  -1.13075  -1.13035  -1.12825
  Beta  occ. eigenvalues --   -1.12796  -1.12746  -1.12744  -1.12724  -1.12706
  Beta  occ. eigenvalues --   -0.17693  -0.13085  -0.11861
  Beta virt. eigenvalues --   -0.07247  -0.06254  -0.04761  -0.04333  -0.02830
  Beta virt. eigenvalues --   -0.02216  -0.02007  -0.01664  -0.00792  -0.00403
  Beta virt. eigenvalues --   -0.00200   0.00062   0.00331   0.00744   0.00840

 Mulliken charges and spin densities:
               1          2
     1  Na   0.066167   0.103414
     2  Na   0.186214   0.033538
     3  Na   0.172113   0.392303
     4  Na  -0.073422  -0.083152
     5  Na  -0.262949  -0.050008
     6  Na   0.114905   0.058693
     7  Na  -0.203029   0.545213
 Sum of Mulliken charges =  -0.00000   1.00000

 Dipole moment (field-independent basis, Debye):
    X=             -0.7382    Y=              0.0499    Z=              0.3158  Tot=              0.8045
 Quadrupole moment (field-independent basis, Debye-Ang):
   XX=            -54.0483   YY=            -68.1225   ZZ=            -73.0239
   XY=              0.9021   XZ=             -0.1680   YZ=              1.5504

 Normal termination of Gaussian 16 at Mon Dec  4 01:25:46 2023.
