 Gaussian 16, Revision B.01,
 Gaussian 16:  ES64L-G16RevB.01 20-Dec-2017

 -------------------------
 #P B3LYP/6-311+g(d) force
 -------------------------

 -----
 DPGEN
 -----
 Symbolic Z-matrix:
 Charge =  0 Multiplicity = 2

                         Standard orientation:
 ---------------------------------------------------------------------
 Center     Atomic      Atomic             Coordinates (Angstroms)
 Number     Number       Type             X           Y           Z
 ---------------------------------------------------------------------
      1         11           0       -1.852697   -1.358867    1.118880
      2         11           0       -5.463963   -1.111143   -0.561277
      3         11           0       -4.990467    1.874083    0.323334
      4         11           0       -0.784416    1.296254   -0.823836
      5         11           0        1.146195   -1.357238   -0.525663
      6         11           0        4.820138    0.583249    1.198482
      7         11           0        7.125210    0.073662   -0.729920
 ---------------------------------------------------------------------

 SCF Done:  E(UB3LYP) =  -1136.10941870     A.U. after   18 cycles

 The electronic state is 2-A.
 Alpha  occ. eigenvalues --  -38.44519 -38.44501 -38.44497 -38.44423 -38.44116
 Alpha  occ. eigenvalues --  -38.44080 -38.43984  -2.20311  -2.20309  -2.20287
 Alpha  occ. eigenvalues --   -2.20244  -2.19913  -2.19874  -2.19819  -1.14074
 Alpha  occ. eigenvalues --   -1.13991  -1.13975  -1.13969  -1.13966  -1.13960
 Alpha  occ. eigenvalues --   -1.13937  -1.13930  -1.13927  -1.13913  -1.13849
 Alpha  occ. eigenvalues --   -1.13828  -1.13640  -1.13577  -1.13558  -1.13535
 Alpha  occ. eigenvalues --   -1.13513  -1.13491  -1.13475  -1.13467  -1.13418
 Alpha  occ. eigenvalues --   -0.16168  -0.13752  -0.12471  -0.10022
 Alpha virt. eigenvalues --   -0.06481  -0.05686  -0.05324  -0.03375  -0.02772
 Alpha virt. eigenvalues --   -0.02591  -0.02341  -0.01950  -0.01066  -0.00939
 Alpha virt. eigenvalues --   -0.00488  -0.00218   0.00196   0.00261   0.00435

  Beta  occ. eigenvalues --  -38.44520 -38.44499 -38.44497 -38.44370 -38.44100
  Beta  occ. eigenvalues --  -38.44059 -38.43919  -2.20310  -2.20309  -2.20286
  Beta  occ. eigenvalues --   -2.20147  -2.19883  -2.19833  -2.19697  -1.14075
  Beta  occ. eigenvalues --   -1.13984  -1.13969  -1.13967  -1.13966  -1.13949
  Beta  occ. eigenvalues --   -1.13937  -1.13930  -1.13854  -1.13850  -1.13841
  Beta  occ. eigenvalues --   -1.13763  -1.13618  -1.13557  -1.13530  -1.13506
  Beta  occ. eigenvalues --   -1.13479  -1.13439  -1.13408  -1.13391  -1.13328
  Beta  occ. eigenvalues --   -0.15562  -0.13674  -0.12383
  Beta virt. eigenvalues --   -0.06399  -0.06313  -0.05423  -0.04805  -0.03109
  Beta virt. eigenvalues --   -0.02637  -0.02476  -0.01856  -0.01635  -0.00972
  Beta virt. eigenvalues --   -0.00523  -0.00273  -0.00010   0.00305   0.00425

 Mulliken charges and spin densities:
               1          2
     1  Na  -0.074061   0.459694
     2  Na   0.121016   0.053514
     3  Na   0.061195   0.076998
     4  Na  -0.053051   0.373994
     5  Na  -0.098157   0.047013
     6  Na  -0.139966  -0.015384
     7  Na   0.183025   0.004172
 Sum of Mulliken charges =  -0.00000   1.00000

 Dipole moment (field-independent basis, Debye):
    X=              1.1245    Y=             -0.3611    Z=             -0.3132  Tot=              1.2219
 Quadrupole moment (field-independent basis, Debye-Ang):
   XX=            -58.6711   YY=            -72.6121   ZZ=            -66.5501
   XY=             -2.3866   XZ=             -4.8717   YZ=              5.5381

 Normal termination of Gaussian 16 at Tue Nov 28 21:08:36 2023.
