 Gaussian 16, Revision B.01,
 Gaussian 16:  ES64L-G16RevB.01 20-Dec-2017

 -------------------------
 #P B3LYP/6-311+g(d) force
 -------------------------

 -----
 DPGEN
 -----
 Symbolic Z-matrix:
 Charge =  0 Multiplicity = 2

                         Standard orientation:
 ---------------------------------------------------------------------
 Center     Atomic      Atomic             Coordinates (Angstroms)
 Number     Number       Type             X           Y           Z
 ---------------------------------------------------------------------
      1         11           0       -4.049428    0.250465    0.273668
      2         11           0       -1.914861   -1.234160   -1.539226
      3         11           0       -0.908372    1.784561   -1.053533
      4         11           0       -1.453855   -1.102882    1.997764
      5         11           0        4.174961   -1.931846   -0.388190
      6         11           0        1.391049   -0.414329    0.167725
      7         11           0        2.760505    2.648191    0.541791
 ---------------------------------------------------------------------

 SCF Done:  E(UB3LYP) =  -1136.10504518     A.U. after   34 cycles

 The electronic state is 2-A.
 Alpha  occ. eigenvalues --  -38.46205 -38.44802 -38.44438 -38.44325 -38.44263
 Alpha  occ. eigenvalues --  -38.43410 -38.42838  -2.22036  -2.20715  -2.20293
 Alpha  occ. eigenvalues --   -2.20092  -2.20034  -2.19258  -2.18756  -1.15723
 Alpha  occ. eigenvalues --   -1.15687  -1.15674  -1.14393  -1.14355  -1.14334
 Alpha  occ. eigenvalues --   -1.13958  -1.13928  -1.13907  -1.13758  -1.13748
 Alpha  occ. eigenvalues --   -1.13740  -1.13701  -1.13695  -1.13646  -1.12988
 Alpha  occ. eigenvalues --   -1.12935  -1.12854  -1.12466  -1.12450  -1.12358
 Alpha  occ. eigenvalues --   -0.18294  -0.13863  -0.11293  -0.10505
 Alpha virt. eigenvalues --   -0.07925  -0.06090  -0.03771  -0.03495  -0.03040
 Alpha virt. eigenvalues --   -0.02373  -0.01910  -0.01703  -0.00769  -0.00670
 Alpha virt. eigenvalues --   -0.00362   0.00068   0.00115   0.00385   0.00510

  Beta  occ. eigenvalues --  -38.46197 -38.44745 -38.44360 -38.44318 -38.44231
  Beta  occ. eigenvalues --  -38.43405 -38.42832  -2.22027  -2.20610  -2.20148
  Beta  occ. eigenvalues --   -2.20077  -2.19974  -2.19254  -2.18747  -1.15715
  Beta  occ. eigenvalues --   -1.15686  -1.15636  -1.14324  -1.14286  -1.14244
  Beta  occ. eigenvalues --   -1.13858  -1.13826  -1.13809  -1.13749  -1.13737
  Beta  occ. eigenvalues --   -1.13729  -1.13659  -1.13653  -1.13609  -1.12985
  Beta  occ. eigenvalues --   -1.12928  -1.12834  -1.12462  -1.12424  -1.12351
  Beta  occ. eigenvalues --   -0.17664  -0.13633  -0.10612
  Beta virt. eigenvalues --   -0.07703  -0.07189  -0.05774  -0.03569  -0.03055
  Beta virt. eigenvalues --   -0.02782  -0.01891  -0.01578  -0.01263  -0.00587
  Beta virt. eigenvalues --   -0.00478  -0.00248   0.00110   0.00290   0.00465

 Mulliken charges and spin densities:
               1          2
     1  Na   0.082307   0.004795
     2  Na   0.353546   0.323647
     3  Na   0.734450   0.025487
     4  Na   0.870330   0.236943
     5  Na  -0.331098   0.058662
     6  Na  -2.124848   0.264246
     7  Na   0.415313   0.086221
 Sum of Mulliken charges =  -0.00000   1.00000

 Dipole moment (field-independent basis, Debye):
    X=             -1.7436    Y=              0.3625    Z=             -0.0329  Tot=              1.7812
 Quadrupole moment (field-independent basis, Debye-Ang):
   XX=            -44.2397   YY=            -74.0714   ZZ=            -74.1456
   XY=              0.8580   XZ=              1.1969   YZ=              3.8399

 Normal termination of Gaussian 16 at Wed Dec  6 00:23:08 2023.
