 Gaussian 16, Revision B.01,
 Gaussian 16:  ES64L-G16RevB.01 20-Dec-2017

 -------------------------
 #P B3LYP/6-311+g(d) force
 -------------------------

 -----
 DPGEN
 -----
 Symbolic Z-matrix:
 Charge =  0 Multiplicity = 2

                         Standard orientation:
 ---------------------------------------------------------------------
 Center     Atomic      Atomic             Coordinates (Angstroms)
 Number     Number       Type             X           Y           Z
 ---------------------------------------------------------------------
      1         11           0        1.913809   -2.300412   -0.047103
      2         11           0       -2.225193   -2.239908   -0.013033
      3         11           0        0.507251    2.863040   -0.711840
      4         11           0       -0.190793    0.361448    2.107143
      5         11           0       -2.721375    1.406540   -0.014145
      6         11           0       -0.168719   -0.695678   -1.505347
      7         11           0        2.885020    0.604970    0.184325
 ---------------------------------------------------------------------

 SCF Done:  E(UB3LYP) =  -1136.13317415     A.U. after   19 cycles

 The electronic state is 2-A.
 Alpha  occ. eigenvalues --  -38.44076 -38.44007 -38.43801 -38.43691 -38.43680
 Alpha  occ. eigenvalues --  -38.43379 -38.43176  -2.19903  -2.19851  -2.19690
 Alpha  occ. eigenvalues --   -2.19564  -2.19560  -2.19213  -2.19186  -1.13603
 Alpha  occ. eigenvalues --   -1.13585  -1.13571  -1.13535  -1.13498  -1.13462
 Alpha  occ. eigenvalues --   -1.13450  -1.13386  -1.13320  -1.13235  -1.13217
 Alpha  occ. eigenvalues --   -1.13213  -1.13187  -1.13177  -1.13176  -1.12885
 Alpha  occ. eigenvalues --   -1.12865  -1.12854  -1.12851  -1.12816  -1.12799
 Alpha  occ. eigenvalues --   -0.18659  -0.13165  -0.12518  -0.10738
 Alpha virt. eigenvalues --   -0.05664  -0.05307  -0.04626  -0.03274  -0.03032
 Alpha virt. eigenvalues --   -0.02463  -0.01421  -0.01205  -0.00353  -0.00303
 Alpha virt. eigenvalues --   -0.00001   0.00362   0.00799   0.00842   0.00920

  Beta  occ. eigenvalues --  -38.44072 -38.44005 -38.43797 -38.43675 -38.43595
  Beta  occ. eigenvalues --  -38.43359 -38.43126  -2.19899  -2.19849  -2.19687
  Beta  occ. eigenvalues --   -2.19556  -2.19387  -2.19177  -2.19094  -1.13595
  Beta  occ. eigenvalues --   -1.13573  -1.13553  -1.13535  -1.13485  -1.13461
  Beta  occ. eigenvalues --   -1.13448  -1.13375  -1.13305  -1.13219  -1.13184
  Beta  occ. eigenvalues --   -1.13177  -1.13107  -1.13064  -1.13056  -1.12855
  Beta  occ. eigenvalues --   -1.12836  -1.12825  -1.12786  -1.12754  -1.12733
  Beta  occ. eigenvalues --   -0.17956  -0.12944  -0.12270
  Beta virt. eigenvalues --   -0.06858  -0.05648  -0.05238  -0.04531  -0.02472
  Beta virt. eigenvalues --   -0.02304  -0.01459  -0.01334  -0.01142  -0.00388
  Beta virt. eigenvalues --   -0.00307   0.00147   0.00399   0.00827   0.00886

 Mulliken charges and spin densities:
               1          2
     1  Na   0.232640  -0.027218
     2  Na   0.105055  -0.074074
     3  Na  -0.014871   0.096993
     4  Na  -0.475761   0.643223
     5  Na   0.138262   0.011651
     6  Na  -0.119150   0.267311
     7  Na   0.133826   0.082115
 Sum of Mulliken charges =  -0.00000   1.00000

 Dipole moment (field-independent basis, Debye):
    X=             -0.3591    Y=             -0.1203    Z=              0.2408  Tot=              0.4488
 Quadrupole moment (field-independent basis, Debye-Ang):
   XX=            -57.4664   YY=            -62.4328   ZZ=            -74.3004
   XY=             -0.0211   XZ=              0.0599   YZ=             -2.1192

 Normal termination of Gaussian 16 at Thu Dec  7 16:20:21 2023.
