 Gaussian 16, Revision B.01,
 Gaussian 16:  ES64L-G16RevB.01 20-Dec-2017

 -------------------------
 #P B3LYP/6-311+g(d) force
 -------------------------

 -----
 DPGEN
 -----
 Symbolic Z-matrix:
 Charge =  0 Multiplicity = 2

                         Standard orientation:
 ---------------------------------------------------------------------
 Center     Atomic      Atomic             Coordinates (Angstroms)
 Number     Number       Type             X           Y           Z
 ---------------------------------------------------------------------
      1         11           0        2.399109    1.925110   -0.271103
      2         11           0       -1.272178    2.473457    0.074911
      3         11           0        0.192340    0.055414   -1.763209
      4         11           0        0.649585   -0.250307    1.937038
      5         11           0        2.456366   -1.833182    0.104234
      6         11           0       -1.424373   -2.493190   -0.428267
      7         11           0       -3.000849    0.122698    0.346396
 ---------------------------------------------------------------------

 SCF Done:  E(UB3LYP) =  -1136.13262291     A.U. after   19 cycles

 The electronic state is 2-A.
 Alpha  occ. eigenvalues --  -38.44040 -38.43929 -38.43830 -38.43747 -38.43436
 Alpha  occ. eigenvalues --  -38.43342 -38.43316  -2.19903  -2.19773  -2.19732
 Alpha  occ. eigenvalues --   -2.19669  -2.19299  -2.19294  -2.19234  -1.13667
 Alpha  occ. eigenvalues --   -1.13560  -1.13515  -1.13490  -1.13468  -1.13437
 Alpha  occ. eigenvalues --   -1.13396  -1.13394  -1.13366  -1.13316  -1.13289
 Alpha  occ. eigenvalues --   -1.13276  -1.13018  -1.12976  -1.12957  -1.12938
 Alpha  occ. eigenvalues --   -1.12919  -1.12895  -1.12892  -1.12874  -1.12849
 Alpha  occ. eigenvalues --   -0.18900  -0.13403  -0.12366  -0.10969
 Alpha virt. eigenvalues --   -0.05616  -0.05396  -0.04283  -0.03480  -0.02926
 Alpha virt. eigenvalues --   -0.02626  -0.01443  -0.01177  -0.00230  -0.00096
 Alpha virt. eigenvalues --   -0.00006   0.00356   0.00826   0.00865   0.00946

  Beta  occ. eigenvalues --  -38.44032 -38.43920 -38.43825 -38.43666 -38.43426
  Beta  occ. eigenvalues --  -38.43337 -38.43239  -2.19893  -2.19759  -2.19725
  Beta  occ. eigenvalues --   -2.19521  -2.19283  -2.19229  -2.19153  -1.13638
  Beta  occ. eigenvalues --   -1.13534  -1.13512  -1.13488  -1.13448  -1.13415
  Beta  occ. eigenvalues --   -1.13392  -1.13388  -1.13342  -1.13223  -1.13184
  Beta  occ. eigenvalues --   -1.13175  -1.12982  -1.12940  -1.12922  -1.12910
  Beta  occ. eigenvalues --   -1.12870  -1.12858  -1.12850  -1.12812  -1.12793
  Beta  occ. eigenvalues --   -0.18187  -0.13138  -0.12093
  Beta virt. eigenvalues --   -0.07090  -0.05588  -0.05296  -0.04274  -0.02675
  Beta virt. eigenvalues --   -0.02160  -0.01599  -0.01352  -0.01105  -0.00245
  Beta virt. eigenvalues --   -0.00139   0.00119   0.00390   0.00858   0.00897

 Mulliken charges and spin densities:
               1          2
     1  Na   0.194304  -0.089290
     2  Na   0.111812   0.004906
     3  Na  -0.253106   0.530975
     4  Na  -0.431714   0.659546
     5  Na   0.262766  -0.109628
     6  Na   0.227961   0.001436
     7  Na  -0.112024   0.002055
 Sum of Mulliken charges =  -0.00000   1.00000

 Dipole moment (field-independent basis, Debye):
    X=              0.5183    Y=             -0.0886    Z=              0.0845  Tot=              0.5326
 Quadrupole moment (field-independent basis, Debye-Ang):
   XX=            -57.5132   YY=            -64.2694   ZZ=            -73.2306
   XY=              0.5975   XZ=             -1.2858   YZ=              0.7636

 Normal termination of Gaussian 16 at Thu Dec  7 01:46:35 2023.
