 Gaussian 16, Revision B.01,
 Gaussian 16:  ES64L-G16RevB.01 20-Dec-2017

 -------------------------
 #P B3LYP/6-311+g(d) force
 -------------------------

 -----
 DPGEN
 -----
 Symbolic Z-matrix:
 Charge =  0 Multiplicity = 2

                         Standard orientation:
 ---------------------------------------------------------------------
 Center     Atomic      Atomic             Coordinates (Angstroms)
 Number     Number       Type             X           Y           Z
 ---------------------------------------------------------------------
      1         11           0        2.899393    0.652647    1.048490
      2         11           0        1.707222    3.598701   -0.308485
      3         11           0       -3.996678    0.917066   -0.786499
      4         11           0        4.283607   -2.205294   -0.167815
      5         11           0       -5.828344   -1.363800    0.732951
      6         11           0       -0.107498    1.048851    0.109057
      7         11           0        1.042297   -2.648170   -0.627700
 ---------------------------------------------------------------------

 SCF Done:  E(UB3LYP) =  -1136.11453787     A.U. after   19 cycles

 The electronic state is 2-A.
 Alpha  occ. eigenvalues --  -38.44423 -38.44347 -38.44321 -38.44183 -38.43970
 Alpha  occ. eigenvalues --  -38.43957 -38.43764  -2.20247  -2.20223  -2.20120
 Alpha  occ. eigenvalues --   -2.19962  -2.19779  -2.19730  -2.19652  -1.13947
 Alpha  occ. eigenvalues --   -1.13925  -1.13916  -1.13900  -1.13885  -1.13799
 Alpha  occ. eigenvalues --   -1.13791  -1.13769  -1.13753  -1.13614  -1.13612
 Alpha  occ. eigenvalues --   -1.13601  -1.13439  -1.13437  -1.13409  -1.13407
 Alpha  occ. eigenvalues --   -1.13395  -1.13370  -1.13344  -1.13309  -1.13250
 Alpha  occ. eigenvalues --   -0.16791  -0.13322  -0.12689  -0.10412
 Alpha virt. eigenvalues --   -0.06365  -0.06145  -0.04067  -0.03888  -0.02869
 Alpha virt. eigenvalues --   -0.02404  -0.02067  -0.01421  -0.01079  -0.00817
 Alpha virt. eigenvalues --   -0.00218  -0.00107  -0.00059   0.00379   0.00575

  Beta  occ. eigenvalues --  -38.44417 -38.44310 -38.44278 -38.44133 -38.43986
  Beta  occ. eigenvalues --  -38.43936 -38.43723  -2.20236  -2.20156  -2.20040
  Beta  occ. eigenvalues --   -2.19870  -2.19762  -2.19740  -2.19577  -1.13918
  Beta  occ. eigenvalues --   -1.13897  -1.13887  -1.13875  -1.13853  -1.13755
  Beta  occ. eigenvalues --   -1.13738  -1.13711  -1.13696  -1.13551  -1.13548
  Beta  occ. eigenvalues --   -1.13548  -1.13434  -1.13416  -1.13413  -1.13400
  Beta  occ. eigenvalues --   -1.13381  -1.13366  -1.13295  -1.13262  -1.13183
  Beta  occ. eigenvalues --   -0.16191  -0.13042  -0.12395
  Beta virt. eigenvalues --   -0.07083  -0.06028  -0.05638  -0.03748  -0.03547
  Beta virt. eigenvalues --   -0.02461  -0.02286  -0.01967  -0.01113  -0.01002
  Beta virt. eigenvalues --   -0.00443  -0.00002   0.00084   0.00162   0.00517

 Mulliken charges and spin densities:
               1          2
     1  Na   0.600691   0.464144
     2  Na   1.015053   0.195729
     3  Na  -0.459778  -0.105274
     4  Na   0.586726   0.238379
     5  Na   0.070614   0.185848
     6  Na  -1.709329  -0.062261
     7  Na  -0.103977   0.083436
 Sum of Mulliken charges =  -0.00000   1.00000

 Dipole moment (field-independent basis, Debye):
    X=              0.9693    Y=              0.2222    Z=             -0.3102  Tot=              1.0417
 Quadrupole moment (field-independent basis, Debye-Ang):
   XX=            -70.0327   YY=            -57.0890   ZZ=            -69.9386
   XY=              3.0459   XZ=             -3.1028   YZ=             -3.9020

 Normal termination of Gaussian 16 at Wed Nov 29 03:40:05 2023.
