 Gaussian 16, Revision B.01,
 Gaussian 16:  ES64L-G16RevB.01 20-Dec-2017

 -------------------------
 #P B3LYP/6-311+g(d) force
 -------------------------

 -----
 DPGEN
 -----
 Symbolic Z-matrix:
 Charge =  0 Multiplicity = 2

                         Standard orientation:
 ---------------------------------------------------------------------
 Center     Atomic      Atomic             Coordinates (Angstroms)
 Number     Number       Type             X           Y           Z
 ---------------------------------------------------------------------
      1         11           0       -3.799443    1.827716    0.080924
      2         11           0       -0.261074    1.519871   -0.200982
      3         11           0       -2.067728   -0.979496    1.714632
      4         11           0        2.477484   -0.928621    1.841354
      5         11           0        3.961329    1.549417   -0.572247
      6         11           0       -2.024437   -1.765833   -1.715563
      7         11           0        1.713870   -1.223053   -1.148118
 ---------------------------------------------------------------------

 SCF Done:  E(UB3LYP) =  -1136.11397050     A.U. after   27 cycles

 The electronic state is 2-A.
 Alpha  occ. eigenvalues --  -38.45004 -38.44859 -38.44726 -38.44613 -38.43858
 Alpha  occ. eigenvalues --  -38.43815 -38.43617  -2.20800  -2.20656  -2.20506
 Alpha  occ. eigenvalues --   -2.20453  -2.19735  -2.19590  -2.19410  -1.14493
 Alpha  occ. eigenvalues --   -1.14456  -1.14409  -1.14373  -1.14336  -1.14255
 Alpha  occ. eigenvalues --   -1.14179  -1.14164  -1.14155  -1.14125  -1.14100
 Alpha  occ. eigenvalues --   -1.14042  -1.13438  -1.13433  -1.13309  -1.13267
 Alpha  occ. eigenvalues --   -1.13257  -1.13227  -1.13080  -1.13061  -1.13046
 Alpha  occ. eigenvalues --   -0.17635  -0.14210  -0.10794  -0.10752
 Alpha virt. eigenvalues --   -0.06762  -0.06241  -0.05148  -0.03119  -0.02721
 Alpha virt. eigenvalues --   -0.02328  -0.02199  -0.01702  -0.01061  -0.00608
 Alpha virt. eigenvalues --   -0.00028   0.00038   0.00173   0.00209   0.00421

  Beta  occ. eigenvalues --  -38.44976 -38.44853 -38.44696 -38.44542 -38.43833
  Beta  occ. eigenvalues --  -38.43828 -38.43595  -2.20749  -2.20647  -2.20451
  Beta  occ. eigenvalues --   -2.20320  -2.19694  -2.19615  -2.19370  -1.14457
  Beta  occ. eigenvalues --   -1.14420  -1.14370  -1.14349  -1.14328  -1.14251
  Beta  occ. eigenvalues --   -1.14138  -1.14120  -1.14093  -1.14066  -1.14009
  Beta  occ. eigenvalues --   -1.13944  -1.13411  -1.13374  -1.13280  -1.13279
  Beta  occ. eigenvalues --   -1.13278  -1.13243  -1.13050  -1.13034  -1.13015
  Beta  occ. eigenvalues --   -0.17031  -0.14020  -0.10556
  Beta virt. eigenvalues --   -0.07168  -0.06598  -0.05951  -0.04527  -0.02817
  Beta virt. eigenvalues --   -0.02641  -0.01904  -0.01754  -0.01427  -0.00573
  Beta virt. eigenvalues --   -0.00394   0.00071   0.00108   0.00189   0.00385

 Mulliken charges and spin densities:
               1          2
     1  Na   0.703598  -0.044675
     2  Na  -1.320758   0.032835
     3  Na   0.064994   0.224255
     4  Na  -0.021076   0.327446
     5  Na   0.516151   0.087322
     6  Na  -0.034484   0.074938
     7  Na   0.091574   0.297880
 Sum of Mulliken charges =  -0.00000   1.00000

 Dipole moment (field-independent basis, Debye):
    X=              0.3100    Y=             -0.0834    Z=              0.2033  Tot=              0.3800
 Quadrupole moment (field-independent basis, Debye-Ang):
   XX=            -50.2844   YY=            -76.5971   ZZ=            -69.8742
   XY=              3.5389   XZ=              0.6756   YZ=             -2.4688

 Normal termination of Gaussian 16 at Fri Dec  8 04:03:04 2023.
