 Gaussian 16, Revision B.01,
 Gaussian 16:  ES64L-G16RevB.01 20-Dec-2017

 -------------------------
 #P B3LYP/6-311+g(d) force
 -------------------------

 -----
 DPGEN
 -----
 Symbolic Z-matrix:
 Charge =  0 Multiplicity = 2

                         Standard orientation:
 ---------------------------------------------------------------------
 Center     Atomic      Atomic             Coordinates (Angstroms)
 Number     Number       Type             X           Y           Z
 ---------------------------------------------------------------------
      1         11           0       -0.526951    2.448756   -1.860423
      2         11           0       -0.673624   -2.400409    1.961680
      3         11           0        4.772256   -0.017237   -0.058541
      4         11           0        1.222671   -0.136150    0.091342
      5         11           0       -0.848644    2.145497    2.150545
      6         11           0       -3.004384    0.086203   -0.088835
      7         11           0       -0.941324   -2.126660   -2.195769
 ---------------------------------------------------------------------

 SCF Done:  E(UB3LYP) =  -1136.11171880     A.U. after   23 cycles

 The electronic state is 2-A.
 Alpha  occ. eigenvalues --  -38.44824 -38.44811 -38.44778 -38.44688 -38.44663
 Alpha  occ. eigenvalues --  -38.43910 -38.42560  -2.20595  -2.20588  -2.20552
 Alpha  occ. eigenvalues --   -2.20465  -2.20439  -2.19635  -2.18421  -1.14287
 Alpha  occ. eigenvalues --   -1.14268  -1.14260  -1.14239  -1.14228  -1.14217
 Alpha  occ. eigenvalues --   -1.14202  -1.14199  -1.14163  -1.14134  -1.14117
 Alpha  occ. eigenvalues --   -1.14107  -1.14089  -1.14076  -1.14051  -1.13309
 Alpha  occ. eigenvalues --   -1.13306  -1.13277  -1.12148  -1.12080  -1.12037
 Alpha  occ. eigenvalues --   -0.17394  -0.11879  -0.11798  -0.11383
 Alpha virt. eigenvalues --   -0.06679  -0.05878  -0.04575  -0.03111  -0.02843
 Alpha virt. eigenvalues --   -0.02806  -0.02093  -0.01303  -0.01187  -0.00260
 Alpha virt. eigenvalues --   -0.00218   0.00052   0.00238   0.00396   0.00528

  Beta  occ. eigenvalues --  -38.44799 -38.44788 -38.44732 -38.44643 -38.44616
  Beta  occ. eigenvalues --  -38.43930 -38.42544  -2.20576  -2.20522  -2.20467
  Beta  occ. eigenvalues --   -2.20383  -2.20353  -2.19672  -2.18395  -1.14258
  Beta  occ. eigenvalues --   -1.14239  -1.14213  -1.14209  -1.14186  -1.14167
  Beta  occ. eigenvalues --   -1.14161  -1.14135  -1.14108  -1.14075  -1.14055
  Beta  occ. eigenvalues --   -1.14045  -1.14024  -1.14021  -1.13996  -1.13334
  Beta  occ. eigenvalues --   -1.13331  -1.13301  -1.12093  -1.12067  -1.12029
  Beta  occ. eigenvalues --   -0.16516  -0.11565  -0.11433
  Beta virt. eigenvalues --   -0.08126  -0.06512  -0.05120  -0.04314  -0.02712
  Beta virt. eigenvalues --   -0.02370  -0.02240  -0.02027  -0.01133  -0.00726
  Beta virt. eigenvalues --   -0.00225  -0.00193   0.00086   0.00257   0.00516

 Mulliken charges and spin densities:
               1          2
     1  Na  -0.011483   0.214073
     2  Na   0.239118   0.298772
     3  Na   0.289379  -0.361078
     4  Na  -1.184525   0.126031
     5  Na   0.089427   0.274775
     6  Na   0.573709   0.166101
     7  Na   0.004375   0.281327
 Sum of Mulliken charges =  -0.00000   1.00000

 Dipole moment (field-independent basis, Debye):
    X=             -1.3845    Y=              0.0887    Z=             -0.0429  Tot=              1.3880
 Quadrupole moment (field-independent basis, Debye-Ang):
   XX=            -66.0446   YY=            -68.2230   ZZ=            -59.4542
   XY=              0.5506   XZ=             -0.7891   YZ=             -0.8461

 Normal termination of Gaussian 16 at Sat Dec  9 06:57:40 2023.
