 Gaussian 16, Revision B.01,
 Gaussian 16:  ES64L-G16RevB.01 20-Dec-2017

 -------------------------
 #P B3LYP/6-311+g(d) force
 -------------------------

 -----
 DPGEN
 -----
 Symbolic Z-matrix:
 Charge =  0 Multiplicity = 2

                         Standard orientation:
 ---------------------------------------------------------------------
 Center     Atomic      Atomic             Coordinates (Angstroms)
 Number     Number       Type             X           Y           Z
 ---------------------------------------------------------------------
      1         11           0       -2.425219    1.835098   -0.187815
      2         11           0        1.294605    1.917401   -1.139289
      3         11           0        3.812962    0.193143    1.270354
      4         11           0        2.232660   -1.687100   -0.961980
      5         11           0       -0.084252   -0.086534    1.353703
      6         11           0       -1.560924   -1.235224   -1.555291
      7         11           0       -3.269833   -0.936785    1.220319
 ---------------------------------------------------------------------

 SCF Done:  E(UB3LYP) =  -1136.12142934     A.U. after   29 cycles

 The electronic state is 2-A.
 Alpha  occ. eigenvalues --  -38.44942 -38.44652 -38.44171 -38.44046 -38.43873
 Alpha  occ. eigenvalues --  -38.43527 -38.42782  -2.20750  -2.20565  -2.20055
 Alpha  occ. eigenvalues --   -2.19879  -2.19774  -2.19407  -2.18602  -1.14417
 Alpha  occ. eigenvalues --   -1.14395  -1.14373  -1.14287  -1.14209  -1.14202
 Alpha  occ. eigenvalues --   -1.13736  -1.13704  -1.13682  -1.13553  -1.13544
 Alpha  occ. eigenvalues --   -1.13514  -1.13440  -1.13438  -1.13400  -1.13091
 Alpha  occ. eigenvalues --   -1.13073  -1.13016  -1.12290  -1.12279  -1.12215
 Alpha  occ. eigenvalues --   -0.18498  -0.14607  -0.11218  -0.10509
 Alpha virt. eigenvalues --   -0.06760  -0.05468  -0.05137  -0.03074  -0.02737
 Alpha virt. eigenvalues --   -0.02379  -0.02035  -0.01198  -0.00827  -0.00374
 Alpha virt. eigenvalues --    0.00102   0.00259   0.00286   0.00442   0.00616

  Beta  occ. eigenvalues --  -38.44902 -38.44630 -38.44114 -38.44024 -38.43851
  Beta  occ. eigenvalues --  -38.43519 -38.42773  -2.20674  -2.20528  -2.19951
  Beta  occ. eigenvalues --   -2.19844  -2.19735  -2.19394  -2.18587  -1.14364
  Beta  occ. eigenvalues --   -1.14344  -1.14323  -1.14237  -1.14183  -1.14178
  Beta  occ. eigenvalues --   -1.13670  -1.13623  -1.13605  -1.13532  -1.13518
  Beta  occ. eigenvalues --   -1.13463  -1.13412  -1.13404  -1.13369  -1.13072
  Beta  occ. eigenvalues --   -1.13069  -1.13000  -1.12283  -1.12253  -1.12206
  Beta  occ. eigenvalues --   -0.17842  -0.14309  -0.10356
  Beta virt. eigenvalues --   -0.07465  -0.06490  -0.05159  -0.04704  -0.02781
  Beta virt. eigenvalues --   -0.02520  -0.01831  -0.01437  -0.00811  -0.00683
  Beta virt. eigenvalues --   -0.00246   0.00170   0.00358   0.00394   0.00527

 Mulliken charges and spin densities:
               1          2
     1  Na  -0.055385   0.050237
     2  Na  -0.329703   0.097003
     3  Na   0.734691   0.207897
     4  Na  -0.008109   0.130662
     5  Na  -1.375615   0.154141
     6  Na  -0.340628   0.303627
     7  Na   1.374749   0.056435
 Sum of Mulliken charges =  -0.00000   1.00000

 Dipole moment (field-independent basis, Debye):
    X=              0.3065    Y=              0.0350    Z=              0.2159  Tot=              0.3766
 Quadrupole moment (field-independent basis, Debye-Ang):
   XX=            -49.1411   YY=            -79.3344   ZZ=            -66.6960
   XY=              0.4735   XZ=              1.0963   YZ=              2.6152

 Normal termination of Gaussian 16 at Tue Dec  5 23:44:09 2023.
