 Gaussian 16, Revision B.01,
 Gaussian 16:  ES64L-G16RevB.01 20-Dec-2017

 -------------------------
 #P B3LYP/6-311+g(d) force
 -------------------------

 -----
 DPGEN
 -----
 Symbolic Z-matrix:
 Charge =  0 Multiplicity = 2

                         Standard orientation:
 ---------------------------------------------------------------------
 Center     Atomic      Atomic             Coordinates (Angstroms)
 Number     Number       Type             X           Y           Z
 ---------------------------------------------------------------------
      1         11           0        1.202802    3.268610    0.069440
      2         11           0       -0.012090   -3.128254    0.150887
      3         11           0        3.461553   -0.285538   -1.392929
      4         11           0        0.319837    0.263806   -0.232991
      5         11           0        0.286602   -1.013898    3.090092
      6         11           0       -2.795852    1.711030    0.659997
      7         11           0       -2.462853   -0.815756   -2.344494
 ---------------------------------------------------------------------

 SCF Done:  E(UB3LYP) =  -1136.11338424     A.U. after   23 cycles

 The electronic state is 2-A.
 Alpha  occ. eigenvalues --  -38.44922 -38.44616 -38.44424 -38.44245 -38.44214
 Alpha  occ. eigenvalues --  -38.43918 -38.42271  -2.20716  -2.20378  -2.20194
 Alpha  occ. eigenvalues --   -2.19991  -2.19981  -2.19689  -2.18262  -1.14364
 Alpha  occ. eigenvalues --   -1.14353  -1.14318  -1.14045  -1.14022  -1.13993
 Alpha  occ. eigenvalues --   -1.13867  -1.13829  -1.13809  -1.13682  -1.13675
 Alpha  occ. eigenvalues --   -1.13652  -1.13648  -1.13628  -1.13593  -1.13374
 Alpha  occ. eigenvalues --   -1.13353  -1.13333  -1.11997  -1.11927  -1.11891
 Alpha  occ. eigenvalues --   -0.16933  -0.11965  -0.11943  -0.11506
 Alpha virt. eigenvalues --   -0.06114  -0.05449  -0.04712  -0.03098  -0.02947
 Alpha virt. eigenvalues --   -0.02792  -0.01601  -0.01297  -0.00978  -0.00218
 Alpha virt. eigenvalues --   -0.00043   0.00140   0.00351   0.00432   0.00647

  Beta  occ. eigenvalues --  -38.44827 -38.44568 -38.44367 -38.44250 -38.44221
  Beta  occ. eigenvalues --  -38.43929 -38.42260  -2.20540  -2.20288  -2.20088
  Beta  occ. eigenvalues --   -2.20003  -2.19995  -2.19713  -2.18246  -1.14242
  Beta  occ. eigenvalues --   -1.14233  -1.14202  -1.13979  -1.13963  -1.13934
  Beta  occ. eigenvalues --   -1.13792  -1.13757  -1.13740  -1.13691  -1.13681
  Beta  occ. eigenvalues --   -1.13660  -1.13656  -1.13631  -1.13599  -1.13393
  Beta  occ. eigenvalues --   -1.13365  -1.13332  -1.11937  -1.11929  -1.11886
  Beta  occ. eigenvalues --   -0.16290  -0.11758  -0.11539
  Beta virt. eigenvalues --   -0.07989  -0.05848  -0.04812  -0.04468  -0.02799
  Beta virt. eigenvalues --   -0.02528  -0.02292  -0.01428  -0.01260  -0.00634
  Beta virt. eigenvalues --   -0.00048   0.00055   0.00387   0.00395   0.00547

 Mulliken charges and spin densities:
               1          2
     1  Na  -0.113533   0.144898
     2  Na   0.923083  -0.055142
     3  Na   0.428769   0.020218
     4  Na  -2.483144   0.088542
     5  Na  -0.225702   0.543794
     6  Na   1.233797   0.015109
     7  Na   0.236731   0.242581
 Sum of Mulliken charges =  -0.00000   1.00000

 Dipole moment (field-independent basis, Debye):
    X=              0.0788    Y=             -0.0703    Z=              0.3248  Tot=              0.3415
 Quadrupole moment (field-independent basis, Debye-Ang):
   XX=            -64.4523   YY=            -64.1722   ZZ=            -62.6867
   XY=             -0.8849   XZ=             -1.3892   YZ=              4.3486

 Normal termination of Gaussian 16 at Wed Dec  6 00:28:18 2023.
