 Gaussian 16, Revision B.01,
 Gaussian 16:  ES64L-G16RevB.01 20-Dec-2017

 -------------------------
 #P B3LYP/6-311+g(d) force
 -------------------------

 -----
 DPGEN
 -----
 Symbolic Z-matrix:
 Charge =  0 Multiplicity = 2

                         Standard orientation:
 ---------------------------------------------------------------------
 Center     Atomic      Atomic             Coordinates (Angstroms)
 Number     Number       Type             X           Y           Z
 ---------------------------------------------------------------------
      1         11           0       -0.338629    0.629059   -1.747842
      2         11           0        0.024772   -1.863819   -0.729752
      3         11           0        2.451269   -0.919991    0.177770
      4         11           0        1.579983    1.761264   -0.145240
      5         11           0       -0.049403   -0.570959    1.824418
      6         11           0       -1.228838    1.698561    0.680739
      7         11           0       -2.439153   -0.734114   -0.060092
 ---------------------------------------------------------------------

 SCF Done:  E(UB3LYP) =  -1136.07603751     A.U. after   21 cycles

 The electronic state is 2-A.
 Alpha  occ. eigenvalues --  -38.44581 -38.44338 -38.43917 -38.43814 -38.43746
 Alpha  occ. eigenvalues --  -38.43681 -38.43441  -2.20837  -2.20535  -2.20007
 Alpha  occ. eigenvalues --   -2.19964  -2.19929  -2.19860  -2.19542  -1.14652
 Alpha  occ. eigenvalues --   -1.14610  -1.14479  -1.14334  -1.14291  -1.14150
 Alpha  occ. eigenvalues --   -1.13954  -1.13776  -1.13759  -1.13718  -1.13601
 Alpha  occ. eigenvalues --   -1.13560  -1.13544  -1.13531  -1.13469  -1.13464
 Alpha  occ. eigenvalues --   -1.13362  -1.13322  -1.13205  -1.13128  -1.13088
 Alpha  occ. eigenvalues --   -0.21768  -0.13890  -0.12886  -0.12602
 Alpha virt. eigenvalues --   -0.05144  -0.04160  -0.03965  -0.03901  -0.03345
 Alpha virt. eigenvalues --   -0.03178  -0.00990  -0.00363  -0.00175   0.00334
 Alpha virt. eigenvalues --    0.00853   0.00911   0.01087   0.01156   0.01262

  Beta  occ. eigenvalues --  -38.44493 -38.44248 -38.43910 -38.43801 -38.43711
  Beta  occ. eigenvalues --  -38.43651 -38.43431  -2.20680  -2.20373  -2.19983
  Beta  occ. eigenvalues --   -2.19942  -2.19894  -2.19815  -2.19530  -1.14559
  Beta  occ. eigenvalues --   -1.14490  -1.14369  -1.14240  -1.14176  -1.14046
  Beta  occ. eigenvalues --   -1.13923  -1.13758  -1.13734  -1.13714  -1.13552
  Beta  occ. eigenvalues --   -1.13523  -1.13487  -1.13469  -1.13427  -1.13374
  Beta  occ. eigenvalues --   -1.13344  -1.13302  -1.13181  -1.13093  -1.13082
  Beta  occ. eigenvalues --   -0.20915  -0.13521  -0.12448
  Beta virt. eigenvalues --   -0.08434  -0.05146  -0.04151  -0.03843  -0.02947
  Beta virt. eigenvalues --   -0.02496  -0.02071  -0.00923  -0.00334  -0.00003
  Beta virt. eigenvalues --    0.00358   0.00861   0.00911   0.01110   0.01168

 Mulliken charges and spin densities:
               1          2
     1  Na  -0.078852   0.379681
     2  Na   0.062448   0.137922
     3  Na   0.224506  -0.015196
     4  Na  -0.178601   0.062003
     5  Na  -0.294447   0.461587
     6  Na   0.244587   0.123381
     7  Na   0.020359  -0.149378
 Sum of Mulliken charges =  -0.00000   1.00000

 Dipole moment (field-independent basis, Debye):
    X=              0.0889    Y=             -0.0134    Z=              0.1990  Tot=              0.2184
 Quadrupole moment (field-independent basis, Debye-Ang):
   XX=            -60.9895   YY=            -71.7194   ZZ=            -66.1699
   XY=              0.3547   XZ=              0.0022   YZ=              1.0637

 Normal termination of Gaussian 16 at Fri Dec  8 18:07:56 2023.
