 Gaussian 16, Revision B.01,
 Gaussian 16:  ES64L-G16RevB.01 20-Dec-2017

 -------------------------
 #P B3LYP/6-311+g(d) force
 -------------------------

 -----
 DPGEN
 -----
 Symbolic Z-matrix:
 Charge =  0 Multiplicity = 2

                         Standard orientation:
 ---------------------------------------------------------------------
 Center     Atomic      Atomic             Coordinates (Angstroms)
 Number     Number       Type             X           Y           Z
 ---------------------------------------------------------------------
      1         11           0        2.461448    1.983955   -1.498125
      2         11           0       -0.444032    1.551709    0.981191
      3         11           0       -5.608492    0.515995   -0.783400
      4         11           0       -3.024240   -0.945125    0.852033
      5         11           0       -0.143660   -1.919928   -0.395475
      6         11           0        3.610189   -1.513164   -0.882944
      7         11           0        3.148788    0.326558    1.726720
 ---------------------------------------------------------------------

 SCF Done:  E(UB3LYP) =  -1136.10694495     A.U. after   31 cycles

 The electronic state is 2-A.
 Alpha  occ. eigenvalues --  -38.46325 -38.45329 -38.45094 -38.43772 -38.43667
 Alpha  occ. eigenvalues --  -38.43124 -38.42774  -2.22116  -2.21094  -2.20899
 Alpha  occ. eigenvalues --   -2.19591  -2.19505  -2.18932  -2.18610  -1.15804
 Alpha  occ. eigenvalues --   -1.15777  -1.15728  -1.14785  -1.14738  -1.14716
 Alpha  occ. eigenvalues --   -1.14526  -1.14524  -1.14513  -1.13278  -1.13257
 Alpha  occ. eigenvalues --   -1.13243  -1.13177  -1.13168  -1.13132  -1.12626
 Alpha  occ. eigenvalues --   -1.12619  -1.12526  -1.12297  -1.12274  -1.12241
 Alpha  occ. eigenvalues --   -0.17020  -0.14481  -0.11553  -0.10497
 Alpha virt. eigenvalues --   -0.07470  -0.05403  -0.04813  -0.03156  -0.02867
 Alpha virt. eigenvalues --   -0.02392  -0.02048  -0.01653  -0.01606  -0.00792
 Alpha virt. eigenvalues --   -0.00448  -0.00025   0.00155   0.00374   0.00512

  Beta  occ. eigenvalues --  -38.46320 -38.45318 -38.44965 -38.43724 -38.43665
  Beta  occ. eigenvalues --  -38.43104 -38.42769  -2.22109  -2.21074  -2.20660
  Beta  occ. eigenvalues --   -2.19511  -2.19503  -2.18895  -2.18603  -1.15790
  Beta  occ. eigenvalues --   -1.15772  -1.15724  -1.14771  -1.14720  -1.14703
  Beta  occ. eigenvalues --   -1.14362  -1.14361  -1.14355  -1.13220  -1.13212
  Beta  occ. eigenvalues --   -1.13193  -1.13179  -1.13156  -1.13073  -1.12601
  Beta  occ. eigenvalues --   -1.12590  -1.12503  -1.12292  -1.12270  -1.12229
  Beta  occ. eigenvalues --   -0.16562  -0.13585  -0.10427
  Beta virt. eigenvalues --   -0.07812  -0.07362  -0.04926  -0.04522  -0.02838
  Beta virt. eigenvalues --   -0.02750  -0.02096  -0.01688  -0.01385  -0.01140
  Beta virt. eigenvalues --   -0.00417  -0.00194   0.00095   0.00206   0.00424

 Mulliken charges and spin densities:
               1          2
     1  Na   0.203410   0.069917
     2  Na  -0.538207   0.020354
     3  Na   0.116467   0.619985
     4  Na   0.424876  -0.031235
     5  Na  -0.444446   0.152564
     6  Na  -0.145721   0.047931
     7  Na   0.383621   0.120485
 Sum of Mulliken charges =  -0.00000   1.00000

 Dipole moment (field-independent basis, Debye):
    X=              0.6760    Y=              0.9913    Z=              0.0485  Tot=              1.2009
 Quadrupole moment (field-independent basis, Debye-Ang):
   XX=            -61.3864   YY=            -81.6494   ZZ=            -57.9748
   XY=              2.5136   XZ=              3.5067   YZ=             -4.7630

 Normal termination of Gaussian 16 at Fri Dec  8 17:44:05 2023.
