 Gaussian 16, Revision B.01,
 Gaussian 16:  ES64L-G16RevB.01 20-Dec-2017

 -------------------------
 #P B3LYP/6-311+g(d) force
 -------------------------

 -----
 DPGEN
 -----
 Symbolic Z-matrix:
 Charge =  0 Multiplicity = 2

                         Standard orientation:
 ---------------------------------------------------------------------
 Center     Atomic      Atomic             Coordinates (Angstroms)
 Number     Number       Type             X           Y           Z
 ---------------------------------------------------------------------
      1         11           0       -0.010290   -0.085915   -1.415478
      2         11           0        0.922737    2.381775   -0.475047
      3         11           0        0.991001   -2.364892    0.447553
      4         11           0       -2.816159   -1.611809   -0.735284
      5         11           0       -2.372849    1.621233    0.236290
      6         11           0       -0.212819    0.203634    2.242799
      7         11           0        3.498378   -0.144027   -0.300834
 ---------------------------------------------------------------------

 SCF Done:  E(UB3LYP) =  -1136.12788213     A.U. after   21 cycles

 The electronic state is 2-A.
 Alpha  occ. eigenvalues --  -38.44632 -38.44089 -38.43794 -38.43592 -38.43418
 Alpha  occ. eigenvalues --  -38.43137 -38.42978  -2.20432  -2.19992  -2.19626
 Alpha  occ. eigenvalues --   -2.19504  -2.19495  -2.19021  -2.18903  -1.14105
 Alpha  occ. eigenvalues --   -1.14085  -1.14073  -1.13651  -1.13633  -1.13601
 Alpha  occ. eigenvalues --   -1.13348  -1.13301  -1.13283  -1.13253  -1.13191
 Alpha  occ. eigenvalues --   -1.13174  -1.13168  -1.13109  -1.13072  -1.12719
 Alpha  occ. eigenvalues --   -1.12693  -1.12617  -1.12598  -1.12534  -1.12477
 Alpha  occ. eigenvalues --   -0.18950  -0.13328  -0.11976  -0.11316
 Alpha virt. eigenvalues --   -0.06116  -0.04868  -0.03895  -0.03367  -0.02867
 Alpha virt. eigenvalues --   -0.02818  -0.02026  -0.00950  -0.00202   0.00004
 Alpha virt. eigenvalues --    0.00117   0.00290   0.00778   0.00859   0.00928

  Beta  occ. eigenvalues --  -38.44632 -38.43979 -38.43773 -38.43583 -38.43371
  Beta  occ. eigenvalues --  -38.43125 -38.42967  -2.20433  -2.19789  -2.19590
  Beta  occ. eigenvalues --   -2.19483  -2.19420  -2.19002  -2.18887  -1.14101
  Beta  occ. eigenvalues --   -1.14083  -1.14073  -1.13520  -1.13487  -1.13459
  Beta  occ. eigenvalues --   -1.13304  -1.13271  -1.13247  -1.13227  -1.13161
  Beta  occ. eigenvalues --   -1.13133  -1.13125  -1.13098  -1.13018  -1.12707
  Beta  occ. eigenvalues --   -1.12649  -1.12610  -1.12577  -1.12511  -1.12463
  Beta  occ. eigenvalues --   -0.18230  -0.13066  -0.11697
  Beta virt. eigenvalues --   -0.07346  -0.06027  -0.04780  -0.03847  -0.02671
  Beta virt. eigenvalues --   -0.02087  -0.01924  -0.01777  -0.00896  -0.00043
  Beta virt. eigenvalues --    0.00009   0.00127   0.00326   0.00862   0.00903

 Mulliken charges and spin densities:
               1          2
     1  Na  -0.822364   0.125749
     2  Na   0.368976   0.069791
     3  Na   0.342089   0.160051
     4  Na   0.076077   0.046535
     5  Na   0.508845   0.165948
     6  Na  -0.457620   0.484789
     7  Na  -0.016002  -0.052863
 Sum of Mulliken charges =  -0.00000   1.00000

 Dipole moment (field-independent basis, Debye):
    X=              0.3135    Y=             -0.0321    Z=              0.3543  Tot=              0.4742
 Quadrupole moment (field-independent basis, Debye-Ang):
   XX=            -51.7856   YY=            -69.3958   ZZ=            -71.7958
   XY=              0.0145   XZ=              0.0386   YZ=              0.3793

 Normal termination of Gaussian 16 at Tue Dec  5 19:44:00 2023.
