 Gaussian 16, Revision B.01,
 Gaussian 16:  ES64L-G16RevB.01 20-Dec-2017

 -------------------------
 #P B3LYP/6-311+g(d) force
 -------------------------

 -----
 DPGEN
 -----
 Symbolic Z-matrix:
 Charge =  0 Multiplicity = 2

                         Standard orientation:
 ---------------------------------------------------------------------
 Center     Atomic      Atomic             Coordinates (Angstroms)
 Number     Number       Type             X           Y           Z
 ---------------------------------------------------------------------
      1         11           0       -1.756473   -1.562555   -0.225008
      2         11           0       -5.089415   -1.922746   -0.217863
      3         11           0       -4.555493    2.024419   -1.174401
      4         11           0       -1.382869    1.978409    1.136904
      5         11           0        1.100248   -0.377460    1.499003
      6         11           0        4.360970   -0.293334   -0.178399
      7         11           0        7.323034    0.153268   -0.840237
 ---------------------------------------------------------------------

 SCF Done:  E(UB3LYP) =  -1136.11229023     A.U. after   21 cycles

 The electronic state is 2-A.
 Alpha  occ. eigenvalues --  -38.45364 -38.45240 -38.44930 -38.44355 -38.43958
 Alpha  occ. eigenvalues --  -38.43689 -38.43570  -2.21151  -2.20994  -2.20750
 Alpha  occ. eigenvalues --   -2.20139  -2.19749  -2.19510  -2.19376  -1.14833
 Alpha  occ. eigenvalues --   -1.14813  -1.14756  -1.14664  -1.14639  -1.14605
 Alpha  occ. eigenvalues --   -1.14441  -1.14413  -1.14355  -1.13805  -1.13798
 Alpha  occ. eigenvalues --   -1.13756  -1.13441  -1.13399  -1.13399  -1.13185
 Alpha  occ. eigenvalues --   -1.13178  -1.13146  -1.13041  -1.13039  -1.13001
 Alpha  occ. eigenvalues --   -0.16410  -0.13661  -0.12008  -0.11791
 Alpha virt. eigenvalues --   -0.06869  -0.05839  -0.04346  -0.03576  -0.03169
 Alpha virt. eigenvalues --   -0.02577  -0.02154  -0.01809  -0.01386  -0.01116
 Alpha virt. eigenvalues --   -0.00650  -0.00183   0.00106   0.00284   0.00436

  Beta  occ. eigenvalues --  -38.45318 -38.45175 -38.44881 -38.44319 -38.43955
  Beta  occ. eigenvalues --  -38.43686 -38.43571  -2.21066  -2.20873  -2.20661
  Beta  occ. eigenvalues --   -2.20074  -2.19745  -2.19504  -2.19377  -1.14777
  Beta  occ. eigenvalues --   -1.14760  -1.14680  -1.14584  -1.14549  -1.14523
  Beta  occ. eigenvalues --   -1.14380  -1.14353  -1.14280  -1.13759  -1.13742
  Beta  occ. eigenvalues --   -1.13716  -1.13438  -1.13396  -1.13396  -1.13175
  Beta  occ. eigenvalues --   -1.13173  -1.13144  -1.13042  -1.13040  -1.13001
  Beta  occ. eigenvalues --   -0.15741  -0.13413  -0.11801
  Beta virt. eigenvalues --   -0.07986  -0.06638  -0.05370  -0.04037  -0.03234
  Beta virt. eigenvalues --   -0.02596  -0.02477  -0.02023  -0.01608  -0.01059
  Beta virt. eigenvalues --   -0.00899  -0.00336  -0.00029   0.00270   0.00374

 Mulliken charges and spin densities:
               1          2
     1  Na  -0.479777   0.510705
     2  Na   0.545043  -0.085258
     3  Na   0.114437   0.246344
     4  Na   0.125545   0.264385
     5  Na  -0.689708   0.106966
     6  Na  -0.134261  -0.051614
     7  Na   0.518720   0.008471
 Sum of Mulliken charges =  -0.00000   1.00000

 Dipole moment (field-independent basis, Debye):
    X=             -1.5397    Y=              0.4880    Z=              0.0759  Tot=              1.6169
 Quadrupole moment (field-independent basis, Debye-Ang):
   XX=            -58.5114   YY=            -68.6211   ZZ=            -70.2403
   XY=              0.3493   XZ=             -0.3129   YZ=             -0.5734

 Normal termination of Gaussian 16 at Tue Nov 28 20:19:47 2023.
