 Gaussian 16, Revision B.01,
 Gaussian 16:  ES64L-G16RevB.01 20-Dec-2017

 -------------------------
 #P B3LYP/6-311+g(d) force
 -------------------------

 -----
 DPGEN
 -----
 Symbolic Z-matrix:
 Charge =  0 Multiplicity = 2

                         Standard orientation:
 ---------------------------------------------------------------------
 Center     Atomic      Atomic             Coordinates (Angstroms)
 Number     Number       Type             X           Y           Z
 ---------------------------------------------------------------------
      1         11           0        0.107003   -0.331242    2.207612
      2         11           0       -1.988664    2.200540   -0.407615
      3         11           0       -3.956469   -0.410949    0.210348
      4         11           0       -1.034876   -2.079253   -0.880696
      5         11           0        2.214696   -1.692558   -0.522397
      6         11           0        3.890355    0.834540    0.159265
      7         11           0        0.767955    1.478922   -0.766517
 ---------------------------------------------------------------------

 SCF Done:  E(UB3LYP) =  -1136.11396973     A.U. after   35 cycles

 The electronic state is 2-A.
 Alpha  occ. eigenvalues --  -38.45097 -38.44799 -38.44400 -38.43752 -38.43684
 Alpha  occ. eigenvalues --  -38.43509 -38.43421  -2.20901  -2.20641  -2.20245
 Alpha  occ. eigenvalues --   -2.19697  -2.19588  -2.19384  -2.19244  -1.14560
 Alpha  occ. eigenvalues --   -1.14550  -1.14533  -1.14325  -1.14292  -1.14278
 Alpha  occ. eigenvalues --   -1.13892  -1.13879  -1.13851  -1.13492  -1.13356
 Alpha  occ. eigenvalues --   -1.13346  -1.13286  -1.13244  -1.13218  -1.13039
 Alpha  occ. eigenvalues --   -1.13002  -1.12996  -1.12947  -1.12908  -1.12875
 Alpha  occ. eigenvalues --   -0.18325  -0.14263  -0.11617  -0.10587
 Alpha virt. eigenvalues --   -0.07736  -0.05345  -0.03867  -0.03392  -0.03255
 Alpha virt. eigenvalues --   -0.02430  -0.02171  -0.01664  -0.00678  -0.00323
 Alpha virt. eigenvalues --   -0.00220   0.00069   0.00432   0.00604   0.00754

  Beta  occ. eigenvalues --  -38.45054 -38.44782 -38.44284 -38.43729 -38.43681
  Beta  occ. eigenvalues --  -38.43494 -38.43438  -2.20821  -2.20611  -2.20031
  Beta  occ. eigenvalues --   -2.19659  -2.19583  -2.19362  -2.19276  -1.14498
  Beta  occ. eigenvalues --   -1.14496  -1.14479  -1.14302  -1.14272  -1.14251
  Beta  occ. eigenvalues --   -1.13746  -1.13735  -1.13700  -1.13456  -1.13341
  Beta  occ. eigenvalues --   -1.13303  -1.13290  -1.13242  -1.13192  -1.13021
  Beta  occ. eigenvalues --   -1.12989  -1.12970  -1.12960  -1.12921  -1.12895
  Beta  occ. eigenvalues --   -0.17789  -0.13741  -0.11500
  Beta virt. eigenvalues --   -0.07454  -0.06844  -0.05195  -0.03715  -0.03110
  Beta virt. eigenvalues --   -0.02764  -0.01966  -0.01535  -0.01269  -0.00508
  Beta virt. eigenvalues --   -0.00236  -0.00007   0.00144   0.00524   0.00688

 Mulliken charges and spin densities:
               1          2
     1  Na  -0.313423   0.396734
     2  Na  -0.261444  -0.020975
     3  Na   0.255115   0.283559
     4  Na  -0.320164  -0.059666
     5  Na   0.204819   0.173032
     6  Na   1.232180   0.165823
     7  Na  -0.797083   0.061493
 Sum of Mulliken charges =  -0.00000   1.00000

 Dipole moment (field-independent basis, Debye):
    X=              0.1697    Y=             -0.0886    Z=              1.1593  Tot=              1.1750
 Quadrupole moment (field-independent basis, Debye-Ang):
   XX=            -54.0205   YY=            -76.2589   ZZ=            -68.5515
   XY=              0.5254   XZ=              0.0207   YZ=              0.8469

 Normal termination of Gaussian 16 at Thu Dec  7 07:58:22 2023.
