 Gaussian 16, Revision B.01,
 Gaussian 16:  ES64L-G16RevB.01 20-Dec-2017

 -------------------------
 #P B3LYP/6-311+g(d) force
 -------------------------

 -----
 DPGEN
 -----
 Symbolic Z-matrix:
 Charge =  0 Multiplicity = 2

                         Standard orientation:
 ---------------------------------------------------------------------
 Center     Atomic      Atomic             Coordinates (Angstroms)
 Number     Number       Type             X           Y           Z
 ---------------------------------------------------------------------
      1         11           0        3.059560    0.434176   -0.304421
      2         11           0        0.468210    2.875866    0.063824
      3         11           0        0.035705   -0.169612   -1.722410
      4         11           0       -2.387775   -1.887199   -0.430351
      5         11           0       -2.371383    1.532640    0.155157
      6         11           0       -0.152245   -0.143041    1.808837
      7         11           0        1.347929   -2.642829    0.429364
 ---------------------------------------------------------------------

 SCF Done:  E(UB3LYP) =  -1136.13938495     A.U. after   19 cycles

 The electronic state is 2-A.
 Alpha  occ. eigenvalues --  -38.43744 -38.43686 -38.43605 -38.43397 -38.43309
 Alpha  occ. eigenvalues --  -38.43308 -38.43195  -2.19576  -2.19539  -2.19463
 Alpha  occ. eigenvalues --   -2.19317  -2.19280  -2.19188  -2.19176  -1.13263
 Alpha  occ. eigenvalues --   -1.13253  -1.13233  -1.13219  -1.13195  -1.13165
 Alpha  occ. eigenvalues --   -1.13152  -1.13123  -1.13094  -1.13064  -1.13004
 Alpha  occ. eigenvalues --   -1.12960  -1.12941  -1.12895  -1.12885  -1.12859
 Alpha  occ. eigenvalues --   -1.12844  -1.12837  -1.12806  -1.12795  -1.12789
 Alpha  occ. eigenvalues --   -0.18993  -0.12966  -0.12713  -0.10843
 Alpha virt. eigenvalues --   -0.05339  -0.05019  -0.04841  -0.03139  -0.02988
 Alpha virt. eigenvalues --   -0.02459  -0.01361  -0.01191  -0.00301  -0.00129
 Alpha virt. eigenvalues --    0.00030   0.00359   0.00873   0.00883   0.00934

  Beta  occ. eigenvalues --  -38.43738 -38.43673 -38.43593 -38.43389 -38.43306
  Beta  occ. eigenvalues --  -38.43227 -38.43123  -2.19568  -2.19517  -2.19443
  Beta  occ. eigenvalues --   -2.19307  -2.19185  -2.19131  -2.19045  -1.13249
  Beta  occ. eigenvalues --   -1.13227  -1.13224  -1.13204  -1.13167  -1.13145
  Beta  occ. eigenvalues --   -1.13139  -1.13102  -1.13076  -1.13047  -1.12983
  Beta  occ. eigenvalues --   -1.12929  -1.12863  -1.12841  -1.12835  -1.12798
  Beta  occ. eigenvalues --   -1.12789  -1.12777  -1.12759  -1.12708  -1.12692
  Beta  occ. eigenvalues --   -0.18277  -0.12687  -0.12429
  Beta virt. eigenvalues --   -0.06943  -0.05302  -0.04979  -0.04825  -0.02347
  Beta virt. eigenvalues --   -0.02234  -0.01426  -0.01251  -0.01099  -0.00326
  Beta virt. eigenvalues --   -0.00178   0.00137   0.00386   0.00885   0.00908

 Mulliken charges and spin densities:
               1          2
     1  Na   0.038107  -0.063542
     2  Na  -0.041601  -0.076881
     3  Na  -0.317813   0.627582
     4  Na   0.200704  -0.022826
     5  Na   0.279796  -0.004818
     6  Na  -0.210788   0.591322
     7  Na   0.051594  -0.050836
 Sum of Mulliken charges =  -0.00000   1.00000

 Dipole moment (field-independent basis, Debye):
    X=              0.1250    Y=             -0.2224    Z=              0.0081  Tot=              0.2553
 Quadrupole moment (field-independent basis, Debye-Ang):
   XX=            -58.5548   YY=            -60.6990   ZZ=            -74.1031
   XY=              0.5172   XZ=              0.2677   YZ=             -0.0121

 Normal termination of Gaussian 16 at Mon Dec  4 02:57:32 2023.
