 Gaussian 16, Revision B.01,
 Gaussian 16:  ES64L-G16RevB.01 20-Dec-2017

 -------------------------
 #P B3LYP/6-311+g(d) force
 -------------------------

 -----
 DPGEN
 -----
 Symbolic Z-matrix:
 Charge =  0 Multiplicity = 2

                         Standard orientation:
 ---------------------------------------------------------------------
 Center     Atomic      Atomic             Coordinates (Angstroms)
 Number     Number       Type             X           Y           Z
 ---------------------------------------------------------------------
      1         11           0       -0.917451    2.650265    0.106334
      2         11           0       -3.149622   -0.304819   -0.258809
      3         11           0       -0.214635   -0.005096    2.007387
      4         11           0       -0.223060   -0.074982   -1.664531
      5         11           0       -0.410943   -2.680203    0.074890
      6         11           0        2.651794   -1.513245   -0.068840
      7         11           0        2.263916    1.928079   -0.196431
 ---------------------------------------------------------------------

 SCF Done:  E(UB3LYP) =  -1136.13926986     A.U. after   19 cycles

 The electronic state is 2-A.
 Alpha  occ. eigenvalues --  -38.43896 -38.43579 -38.43524 -38.43484 -38.43349
 Alpha  occ. eigenvalues --  -38.43301 -38.43178  -2.19738  -2.19452  -2.19430
 Alpha  occ. eigenvalues --   -2.19340  -2.19241  -2.19220  -2.19189  -1.13429
 Alpha  occ. eigenvalues --   -1.13389  -1.13375  -1.13138  -1.13114  -1.13104
 Alpha  occ. eigenvalues --   -1.13098  -1.13090  -1.13058  -1.13035  -1.13003
 Alpha  occ. eigenvalues --   -1.12984  -1.12974  -1.12932  -1.12905  -1.12881
 Alpha  occ. eigenvalues --   -1.12849  -1.12838  -1.12822  -1.12794  -1.12785
 Alpha  occ. eigenvalues --   -0.19033  -0.12890  -0.12785  -0.10899
 Alpha virt. eigenvalues --   -0.05447  -0.04990  -0.04728  -0.03071  -0.03038
 Alpha virt. eigenvalues --   -0.02611  -0.01487  -0.01016  -0.00190  -0.00145
 Alpha virt. eigenvalues --   -0.00004   0.00357   0.00848   0.00924   0.00928

  Beta  occ. eigenvalues --  -38.43889 -38.43578 -38.43480 -38.43428 -38.43342
  Beta  occ. eigenvalues --  -38.43291 -38.43111  -2.19728  -2.19430  -2.19337
  Beta  occ. eigenvalues --   -2.19275  -2.19231  -2.19207  -2.19067  -1.13412
  Beta  occ. eigenvalues --   -1.13374  -1.13368  -1.13116  -1.13101  -1.13071
  Beta  occ. eigenvalues --   -1.13043  -1.13018  -1.12991  -1.12985  -1.12977
  Beta  occ. eigenvalues --   -1.12938  -1.12935  -1.12911  -1.12864  -1.12847
  Beta  occ. eigenvalues --   -1.12836  -1.12818  -1.12766  -1.12714  -1.12704
  Beta  occ. eigenvalues --   -0.18289  -0.12645  -0.12523
  Beta virt. eigenvalues --   -0.06946  -0.05421  -0.04993  -0.04695  -0.02280
  Beta virt. eigenvalues --   -0.02222  -0.01526  -0.01405  -0.00953  -0.00239
  Beta virt. eigenvalues --   -0.00195   0.00125   0.00379   0.00896   0.00909

 Mulliken charges and spin densities:
               1          2
     1  Na   0.230429  -0.045443
     2  Na   0.298859  -0.072474
     3  Na  -0.483641   0.705249
     4  Na  -0.446551   0.576429
     5  Na   0.339609  -0.033720
     6  Na   0.016189  -0.067246
     7  Na   0.045106  -0.062795
 Sum of Mulliken charges =  -0.00000   1.00000

 Dipole moment (field-independent basis, Debye):
    X=             -0.1726    Y=              0.0046    Z=              0.1198  Tot=              0.2101
 Quadrupole moment (field-independent basis, Debye-Ang):
   XX=            -56.7826   YY=            -63.2103   ZZ=            -73.7050
   XY=             -0.0953   XZ=             -0.0129   YZ=             -0.1620

 Normal termination of Gaussian 16 at Fri Dec  8 05:08:06 2023.
