 Gaussian 16, Revision B.01,
 Gaussian 16:  ES64L-G16RevB.01 20-Dec-2017

 -------------------------
 #P B3LYP/6-311+g(d) force
 -------------------------

 -----
 DPGEN
 -----
 Symbolic Z-matrix:
 Charge =  0 Multiplicity = 2

                         Standard orientation:
 ---------------------------------------------------------------------
 Center     Atomic      Atomic             Coordinates (Angstroms)
 Number     Number       Type             X           Y           Z
 ---------------------------------------------------------------------
      1         11           0        0.768246   -1.760810   -0.910915
      2         11           0        3.736734   -0.727785   -0.294322
      3         11           0       -0.904702    1.271589   -0.344216
      4         11           0        3.009274    2.525605   -0.047774
      5         11           0       -4.563973    1.286136    0.093110
      6         11           0       -2.646307   -1.555593   -0.355200
      7         11           0        0.600728   -1.039141    1.859316
 ---------------------------------------------------------------------

 SCF Done:  E(UB3LYP) =  -1136.11363504     A.U. after   25 cycles

 The electronic state is 2-A.
 Alpha  occ. eigenvalues --  -38.45356 -38.44538 -38.44039 -38.43777 -38.43726
 Alpha  occ. eigenvalues --  -38.43722 -38.43452  -2.21239  -2.20396  -2.19911
 Alpha  occ. eigenvalues --   -2.19697  -2.19579  -2.19496  -2.19328  -1.14980
 Alpha  occ. eigenvalues --   -1.14883  -1.14842  -1.14111  -1.14075  -1.13991
 Alpha  occ. eigenvalues --   -1.13625  -1.13580  -1.13498  -1.13404  -1.13346
 Alpha  occ. eigenvalues --   -1.13321  -1.13241  -1.13234  -1.13198  -1.13174
 Alpha  occ. eigenvalues --   -1.13170  -1.13138  -1.12995  -1.12968  -1.12928
 Alpha  occ. eigenvalues --   -0.18255  -0.14203  -0.11536  -0.10314
 Alpha virt. eigenvalues --   -0.07158  -0.06128  -0.04028  -0.03224  -0.03039
 Alpha virt. eigenvalues --   -0.02330  -0.01878  -0.01578  -0.01078  -0.00504
 Alpha virt. eigenvalues --   -0.00386   0.00034   0.00368   0.00431   0.00613

  Beta  occ. eigenvalues --  -38.45332 -38.44529 -38.44001 -38.43740 -38.43725
  Beta  occ. eigenvalues --  -38.43701 -38.43388  -2.21198  -2.20380  -2.19844
  Beta  occ. eigenvalues --   -2.19664  -2.19510  -2.19496  -2.19210  -1.14956
  Beta  occ. eigenvalues --   -1.14826  -1.14817  -1.14102  -1.14062  -1.13966
  Beta  occ. eigenvalues --   -1.13582  -1.13526  -1.13443  -1.13388  -1.13319
  Beta  occ. eigenvalues --   -1.13262  -1.13193  -1.13181  -1.13176  -1.13165
  Beta  occ. eigenvalues --   -1.13157  -1.13127  -1.12913  -1.12893  -1.12846
  Beta  occ. eigenvalues --   -0.17660  -0.13701  -0.11315
  Beta virt. eigenvalues --   -0.06948  -0.06764  -0.05920  -0.03625  -0.02891
  Beta virt. eigenvalues --   -0.02822  -0.01898  -0.01666  -0.01285  -0.00834
  Beta virt. eigenvalues --   -0.00245  -0.00131   0.00157   0.00495   0.00544

 Mulliken charges and spin densities:
               1          2
     1  Na   0.491423   0.152719
     2  Na  -0.193560   0.305036
     3  Na  -1.629544   0.032716
     4  Na   0.275374  -0.042865
     5  Na   0.604224   0.267807
     6  Na   0.345159   0.134193
     7  Na   0.106923   0.150395
 Sum of Mulliken charges =  -0.00000   1.00000

 Dipole moment (field-independent basis, Debye):
    X=             -0.6852    Y=             -0.5649    Z=              1.1483  Tot=              1.4516
 Quadrupole moment (field-independent basis, Debye-Ang):
   XX=            -70.1547   YY=            -70.6778   ZZ=            -64.1276
   XY=              2.5887   XZ=              1.0413   YZ=             -0.7716

 Normal termination of Gaussian 16 at Thu Dec  7 04:40:03 2023.
