 Gaussian 16, Revision B.01,
 Gaussian 16:  ES64L-G16RevB.01 20-Dec-2017

 -------------------------
 #P B3LYP/6-311+g(d) force
 -------------------------

 -----
 DPGEN
 -----
 Symbolic Z-matrix:
 Charge =  0 Multiplicity = 2

                         Standard orientation:
 ---------------------------------------------------------------------
 Center     Atomic      Atomic             Coordinates (Angstroms)
 Number     Number       Type             X           Y           Z
 ---------------------------------------------------------------------
      1         11           0       -0.972212   -0.857487    1.521063
      2         11           0       -4.346713    0.161339    0.292351
      3         11           0        4.809120    0.123388    0.259373
      4         11           0       -1.503850   -1.691860   -1.139843
      5         11           0       -1.622362    2.034759   -0.436788
      6         11           0        1.696336    1.704553   -0.171819
      7         11           0        1.939681   -1.474692   -0.324338
 ---------------------------------------------------------------------

 SCF Done:  E(UB3LYP) =  -1136.12090737     A.U. after   23 cycles

 The electronic state is 2-A.
 Alpha  occ. eigenvalues --  -38.45075 -38.44121 -38.43993 -38.43990 -38.43372
 Alpha  occ. eigenvalues --  -38.43242 -38.42985  -2.20998  -2.20027  -2.19835
 Alpha  occ. eigenvalues --   -2.19830  -2.19251  -2.19150  -2.18862  -1.14778
 Alpha  occ. eigenvalues --   -1.14650  -1.14584  -1.13732  -1.13687  -1.13610
 Alpha  occ. eigenvalues --   -1.13496  -1.13485  -1.13473  -1.13466  -1.13457
 Alpha  occ. eigenvalues --   -1.13445  -1.12983  -1.12934  -1.12887  -1.12851
 Alpha  occ. eigenvalues --   -1.12822  -1.12726  -1.12545  -1.12536  -1.12484
 Alpha  occ. eigenvalues --   -0.18328  -0.14621  -0.11399  -0.10991
 Alpha virt. eigenvalues --   -0.06761  -0.05018  -0.04652  -0.03244  -0.03126
 Alpha virt. eigenvalues --   -0.01943  -0.01669  -0.01559  -0.00994  -0.00688
 Alpha virt. eigenvalues --   -0.00170   0.00179   0.00401   0.00648   0.00719

  Beta  occ. eigenvalues --  -38.45064 -38.44120 -38.43926 -38.43921 -38.43342
  Beta  occ. eigenvalues --  -38.43236 -38.42956  -2.20982  -2.20029  -2.19715
  Beta  occ. eigenvalues --   -2.19696  -2.19204  -2.19142  -2.18817  -1.14772
  Beta  occ. eigenvalues --   -1.14614  -1.14576  -1.13735  -1.13680  -1.13599
  Beta  occ. eigenvalues --   -1.13414  -1.13389  -1.13389  -1.13381  -1.13377
  Beta  occ. eigenvalues --   -1.13363  -1.12963  -1.12909  -1.12848  -1.12823
  Beta  occ. eigenvalues --   -1.12785  -1.12702  -1.12520  -1.12503  -1.12417
  Beta  occ. eigenvalues --   -0.17714  -0.13965  -0.10985
  Beta virt. eigenvalues --   -0.07496  -0.06638  -0.04842  -0.03929  -0.03067
  Beta virt. eigenvalues --   -0.02874  -0.01651  -0.01289  -0.01021  -0.00887
  Beta virt. eigenvalues --   -0.00257  -0.00074   0.00233   0.00500   0.00734

 Mulliken charges and spin densities:
               1          2
     1  Na  -0.088039  -0.020955
     2  Na   0.554016   0.417358
     3  Na   0.900784   0.425201
     4  Na   0.054325   0.178647
     5  Na  -0.595379  -0.246450
     6  Na  -0.541000   0.235934
     7  Na  -0.284706   0.010264
 Sum of Mulliken charges =  -0.00000   1.00000

 Dipole moment (field-independent basis, Debye):
    X=             -0.3260    Y=             -0.6817    Z=              0.3621  Tot=              0.8379
 Quadrupole moment (field-independent basis, Debye-Ang):
   XX=            -60.8147   YY=            -78.3907   ZZ=            -61.9241
   XY=              1.9288   XZ=              1.0584   YZ=              1.0292

 Normal termination of Gaussian 16 at Thu Dec  7 16:16:28 2023.
