 Gaussian 16, Revision B.01,
 Gaussian 16:  ES64L-G16RevB.01 20-Dec-2017

 -------------------------
 #P B3LYP/6-311+g(d) force
 -------------------------

 -----
 DPGEN
 -----
 Symbolic Z-matrix:
 Charge =  0 Multiplicity = 2

                         Standard orientation:
 ---------------------------------------------------------------------
 Center     Atomic      Atomic             Coordinates (Angstroms)
 Number     Number       Type             X           Y           Z
 ---------------------------------------------------------------------
      1         11           0       -0.225359   -3.129165   -0.351598
      2         11           0       -0.471917    0.101769   -1.397784
      3         11           0        2.858320   -1.312937   -0.029284
      4         11           0        2.337370    2.195318   -0.073558
      5         11           0       -3.226651   -0.524150    0.232574
      6         11           0        0.040812   -0.165071    1.768237
      7         11           0       -1.312574    2.834235   -0.148587
 ---------------------------------------------------------------------

 SCF Done:  E(UB3LYP) =  -1136.13570485     A.U. after   20 cycles

 The electronic state is 2-A.
 Alpha  occ. eigenvalues --  -38.44278 -38.43940 -38.43887 -38.43880 -38.43781
 Alpha  occ. eigenvalues --  -38.42972 -38.42837  -2.20094  -2.19778  -2.19706
 Alpha  occ. eigenvalues --   -2.19683  -2.19605  -2.18905  -2.18850  -1.13777
 Alpha  occ. eigenvalues --   -1.13753  -1.13725  -1.13492  -1.13433  -1.13396
 Alpha  occ. eigenvalues --   -1.13383  -1.13382  -1.13360  -1.13356  -1.13333
 Alpha  occ. eigenvalues --   -1.13313  -1.13284  -1.13263  -1.13233  -1.12660
 Alpha  occ. eigenvalues --   -1.12524  -1.12518  -1.12505  -1.12479  -1.12465
 Alpha  occ. eigenvalues --   -0.18480  -0.12909  -0.12686  -0.09944
 Alpha virt. eigenvalues --   -0.05809  -0.05346  -0.05201  -0.02833  -0.02675
 Alpha virt. eigenvalues --   -0.01836  -0.01682  -0.01474  -0.00718  -0.00690
 Alpha virt. eigenvalues --    0.00036   0.00331   0.00771   0.00812   0.00831

  Beta  occ. eigenvalues --  -38.44270 -38.43933 -38.43884 -38.43879 -38.43768
  Beta  occ. eigenvalues --  -38.42887 -38.42785  -2.20083  -2.19767  -2.19704
  Beta  occ. eigenvalues --   -2.19684  -2.19584  -2.18758  -2.18749  -1.13766
  Beta  occ. eigenvalues --   -1.13726  -1.13721  -1.13479  -1.13412  -1.13389
  Beta  occ. eigenvalues --   -1.13385  -1.13370  -1.13351  -1.13342  -1.13334
  Beta  occ. eigenvalues --   -1.13311  -1.13263  -1.13236  -1.13221  -1.12566
  Beta  occ. eigenvalues --   -1.12430  -1.12419  -1.12410  -1.12400  -1.12387
  Beta  occ. eigenvalues --   -0.17806  -0.12680  -0.12421
  Beta virt. eigenvalues --   -0.06164  -0.05759  -0.05344  -0.05110  -0.02105
  Beta virt. eigenvalues --   -0.01978  -0.01586  -0.01369  -0.00882  -0.00759
  Beta virt. eigenvalues --   -0.00737   0.00183   0.00384   0.00786   0.00830

 Mulliken charges and spin densities:
               1          2
     1  Na   0.125771  -0.001379
     2  Na  -0.411500   0.450262
     3  Na   0.067069  -0.039132
     4  Na  -0.001942  -0.073621
     5  Na   0.177148  -0.035634
     6  Na  -0.228483   0.740587
     7  Na   0.271937  -0.041083
 Sum of Mulliken charges =  -0.00000   1.00000

 Dipole moment (field-independent basis, Debye):
    X=             -0.2075    Y=              0.0206    Z=              0.1227  Tot=              0.2419
 Quadrupole moment (field-independent basis, Debye-Ang):
   XX=            -54.3624   YY=            -57.5211   ZZ=            -78.4513
   XY=              0.3517   XZ=             -1.1122   YZ=              0.5812

 Normal termination of Gaussian 16 at Thu Dec  7 12:38:03 2023.
