 Gaussian 16, Revision B.01,
 Gaussian 16:  ES64L-G16RevB.01 20-Dec-2017

 -------------------------
 #P B3LYP/6-311+g(d) force
 -------------------------

 -----
 DPGEN
 -----
 Symbolic Z-matrix:
 Charge =  0 Multiplicity = 2

                         Standard orientation:
 ---------------------------------------------------------------------
 Center     Atomic      Atomic             Coordinates (Angstroms)
 Number     Number       Type             X           Y           Z
 ---------------------------------------------------------------------
      1         11           0        2.294986    1.043498   -0.126376
      2         11           0       -0.626806    0.362681   -1.468518
      3         11           0        0.075020    3.243031   -0.349514
      4         11           0        1.596425   -1.231803    1.984538
      5         11           0       -0.899501   -0.112465    1.805094
      6         11           0        1.465505   -2.504746   -1.741804
      7         11           0       -3.905628   -0.800194   -0.103419
 ---------------------------------------------------------------------

 SCF Done:  E(UB3LYP) =  -1136.11748114     A.U. after   23 cycles

 The electronic state is 2-A.
 Alpha  occ. eigenvalues --  -38.45102 -38.44175 -38.43913 -38.43808 -38.43663
 Alpha  occ. eigenvalues --  -38.43562 -38.43140  -2.20900  -2.20124  -2.19846
 Alpha  occ. eigenvalues --   -2.19596  -2.19567  -2.19516  -2.19008  -1.14561
 Alpha  occ. eigenvalues --   -1.14539  -1.14496  -1.14039  -1.13775  -1.13719
 Alpha  occ. eigenvalues --   -1.13497  -1.13426  -1.13408  -1.13319  -1.13269
 Alpha  occ. eigenvalues --   -1.13241  -1.13233  -1.13215  -1.13211  -1.13196
 Alpha  occ. eigenvalues --   -1.13183  -1.13107  -1.12669  -1.12660  -1.12645
 Alpha  occ. eigenvalues --   -0.18563  -0.12494  -0.12353  -0.12060
 Alpha virt. eigenvalues --   -0.05802  -0.05149  -0.04079  -0.03436  -0.03188
 Alpha virt. eigenvalues --   -0.02969  -0.01594  -0.01248  -0.00502   0.00111
 Alpha virt. eigenvalues --    0.00200   0.00254   0.00457   0.00740   0.00778

  Beta  occ. eigenvalues --  -38.45012 -38.44120 -38.43864 -38.43811 -38.43657
  Beta  occ. eigenvalues --  -38.43525 -38.43145  -2.20732  -2.20025  -2.19762
  Beta  occ. eigenvalues --   -2.19586  -2.19574  -2.19450  -2.19017  -1.14435
  Beta  occ. eigenvalues --   -1.14423  -1.14390  -1.13954  -1.13705  -1.13649
  Beta  occ. eigenvalues --   -1.13448  -1.13369  -1.13328  -1.13306  -1.13242
  Beta  occ. eigenvalues --   -1.13238  -1.13230  -1.13214  -1.13201  -1.13172
  Beta  occ. eigenvalues --   -1.13122  -1.13063  -1.12670  -1.12663  -1.12650
  Beta  occ. eigenvalues --   -0.17808  -0.12249  -0.11901
  Beta virt. eigenvalues --   -0.08181  -0.05643  -0.04788  -0.03702  -0.02999
  Beta virt. eigenvalues --   -0.02540  -0.02439  -0.01500  -0.01017  -0.00232
  Beta virt. eigenvalues --    0.00159   0.00290   0.00363   0.00564   0.00774

 Mulliken charges and spin densities:
               1          2
     1  Na  -0.090927   0.425424
     2  Na   0.017529   0.110894
     3  Na   0.177912  -0.115434
     4  Na   0.559748  -0.138624
     5  Na  -0.592861   0.376110
     6  Na  -0.176855   0.318812
     7  Na   0.105452   0.022820
 Sum of Mulliken charges =  -0.00000   1.00000

 Dipole moment (field-independent basis, Debye):
    X=              0.2310    Y=             -0.4540    Z=             -0.3197  Tot=              0.6014
 Quadrupole moment (field-independent basis, Debye-Ang):
   XX=            -62.3319   YY=            -64.6700   ZZ=            -67.8933
   XY=             -1.5776   XZ=              0.5360   YZ=              4.6173

 Normal termination of Gaussian 16 at Tue Dec  5 10:12:36 2023.
