 Gaussian 16, Revision B.01,
 Gaussian 16:  ES64L-G16RevB.01 20-Dec-2017

 -------------------------
 #P B3LYP/6-311+g(d) force
 -------------------------

 -----
 DPGEN
 -----
 Symbolic Z-matrix:
 Charge =  0 Multiplicity = 2

                         Standard orientation:
 ---------------------------------------------------------------------
 Center     Atomic      Atomic             Coordinates (Angstroms)
 Number     Number       Type             X           Y           Z
 ---------------------------------------------------------------------
      1         11           0        0.412512    3.479564   -0.100281
      2         11           0        2.481632   -2.214539    0.331144
      3         11           0       -3.003657   -2.146953   -0.637365
      4         11           0        3.023415    0.438911   -0.562672
      5         11           0        0.109160   -1.034707    1.534656
      6         11           0       -0.673921   -0.078247   -1.486110
      7         11           0       -2.349141    1.555971    0.920629
 ---------------------------------------------------------------------

 SCF Done:  E(UB3LYP) =  -1136.12188002     A.U. after   20 cycles

 The electronic state is 2-A.
 Alpha  occ. eigenvalues --  -38.44262 -38.44179 -38.44124 -38.44064 -38.43770
 Alpha  occ. eigenvalues --  -38.43761 -38.43603  -2.20139  -2.20100  -2.19964
 Alpha  occ. eigenvalues --   -2.19873  -2.19707  -2.19684  -2.19370  -1.14018
 Alpha  occ. eigenvalues --   -1.13874  -1.13784  -1.13751  -1.13701  -1.13650
 Alpha  occ. eigenvalues --   -1.13639  -1.13614  -1.13568  -1.13559  -1.13525
 Alpha  occ. eigenvalues --   -1.13502  -1.13444  -1.13341  -1.13336  -1.13326
 Alpha  occ. eigenvalues --   -1.13290  -1.13268  -1.13050  -1.13028  -1.13018
 Alpha  occ. eigenvalues --   -0.18181  -0.13733  -0.12235  -0.10389
 Alpha virt. eigenvalues --   -0.05899  -0.05488  -0.05190  -0.03323  -0.02712
 Alpha virt. eigenvalues --   -0.02048  -0.01924  -0.01417  -0.00612  -0.00499
 Alpha virt. eigenvalues --   -0.00079   0.00243   0.00647   0.00700   0.00763

  Beta  occ. eigenvalues --  -38.44242 -38.44168 -38.44091 -38.44037 -38.43718
  Beta  occ. eigenvalues --  -38.43707 -38.43612  -2.20111  -2.20076  -2.19906
  Beta  occ. eigenvalues --   -2.19825  -2.19605  -2.19593  -2.19389  -1.14003
  Beta  occ. eigenvalues --   -1.13840  -1.13752  -1.13727  -1.13681  -1.13612
  Beta  occ. eigenvalues --   -1.13595  -1.13582  -1.13533  -1.13515  -1.13494
  Beta  occ. eigenvalues --   -1.13468  -1.13379  -1.13275  -1.13265  -1.13254
  Beta  occ. eigenvalues --   -1.13218  -1.13205  -1.13064  -1.13032  -1.13028
  Beta  occ. eigenvalues --   -0.17594  -0.13442  -0.11946
  Beta virt. eigenvalues --   -0.06817  -0.05708  -0.05305  -0.04879  -0.02800
  Beta virt. eigenvalues --   -0.02262  -0.01700  -0.01340  -0.01263  -0.00595
  Beta virt. eigenvalues --   -0.00274   0.00090   0.00318   0.00750   0.00772

 Mulliken charges and spin densities:
               1          2
     1  Na  -0.123075  -0.087536
     2  Na   0.489462   0.009398
     3  Na  -0.157173   0.043900
     4  Na  -0.408861   0.114640
     5  Na   0.187769   0.337130
     6  Na  -0.057786   0.437342
     7  Na   0.069665   0.145126
 Sum of Mulliken charges =  -0.00000   1.00000

 Dipole moment (field-independent basis, Debye):
    X=             -0.1770    Y=             -0.3540    Z=              0.1250  Tot=              0.4150
 Quadrupole moment (field-independent basis, Debye-Ang):
   XX=            -56.6074   YY=            -62.6546   ZZ=            -75.4094
   XY=              0.7480   XZ=             -2.2711   YZ=              0.6048

 Normal termination of Gaussian 16 at Tue Dec  5 11:10:43 2023.
