 Gaussian 16, Revision B.01,
 Gaussian 16:  ES64L-G16RevB.01 20-Dec-2017

 -------------------------
 #P B3LYP/6-311+g(d) force
 -------------------------

 -----
 DPGEN
 -----
 Symbolic Z-matrix:
 Charge =  0 Multiplicity = 2

                         Standard orientation:
 ---------------------------------------------------------------------
 Center     Atomic      Atomic             Coordinates (Angstroms)
 Number     Number       Type             X           Y           Z
 ---------------------------------------------------------------------
      1         11           0        0.087721   -2.900698   -0.160680
      2         11           0        1.679940    2.508686    0.132939
      3         11           0       -1.947836    2.147358   -0.152269
      4         11           0       -3.074569   -0.795164   -0.266217
      5         11           0       -0.078992   -0.322133    2.193462
      6         11           0        3.062760   -0.743117   -0.242715
      7         11           0        0.270977    0.105067   -1.504521
 ---------------------------------------------------------------------

 SCF Done:  E(UB3LYP) =  -1136.13733771     A.U. after   19 cycles

 The electronic state is 2-A.
 Alpha  occ. eigenvalues --  -38.44169 -38.44003 -38.43693 -38.43463 -38.43429
 Alpha  occ. eigenvalues --  -38.43323 -38.43072  -2.20010  -2.19838  -2.19557
 Alpha  occ. eigenvalues --   -2.19308  -2.19301  -2.19170  -2.19091  -1.13712
 Alpha  occ. eigenvalues --   -1.13664  -1.13632  -1.13530  -1.13500  -1.13472
 Alpha  occ. eigenvalues --   -1.13215  -1.13182  -1.13175  -1.13021  -1.12993
 Alpha  occ. eigenvalues --   -1.12967  -1.12955  -1.12951  -1.12920  -1.12881
 Alpha  occ. eigenvalues --   -1.12837  -1.12792  -1.12764  -1.12721  -1.12704
 Alpha  occ. eigenvalues --   -0.18643  -0.13129  -0.12387  -0.10755
 Alpha virt. eigenvalues --   -0.05736  -0.05096  -0.04665  -0.03143  -0.02897
 Alpha virt. eigenvalues --   -0.02599  -0.01601  -0.01089  -0.00418  -0.00305
 Alpha virt. eigenvalues --   -0.00025   0.00345   0.00790   0.00873   0.00906

  Beta  occ. eigenvalues --  -38.44162 -38.43998 -38.43587 -38.43459 -38.43424
  Beta  occ. eigenvalues --  -38.43318 -38.43021  -2.20001  -2.19832  -2.19360
  Beta  occ. eigenvalues --   -2.19304  -2.19296  -2.19164  -2.18999  -1.13699
  Beta  occ. eigenvalues --   -1.13645  -1.13630  -1.13529  -1.13481  -1.13466
  Beta  occ. eigenvalues --   -1.13086  -1.13044  -1.13037  -1.13013  -1.12985
  Beta  occ. eigenvalues --   -1.12953  -1.12945  -1.12937  -1.12914  -1.12868
  Beta  occ. eigenvalues --   -1.12809  -1.12791  -1.12699  -1.12653  -1.12643
  Beta  occ. eigenvalues --   -0.17932  -0.12895  -0.12167
  Beta virt. eigenvalues --   -0.06801  -0.05698  -0.05099  -0.04611  -0.02387
  Beta virt. eigenvalues --   -0.02097  -0.01519  -0.01509  -0.01022  -0.00470
  Beta virt. eigenvalues --   -0.00349   0.00139   0.00383   0.00845   0.00878

 Mulliken charges and spin densities:
               1          2
     1  Na   0.218859  -0.045721
     2  Na   0.164978   0.036020
     3  Na   0.208604   0.021998
     4  Na   0.156443  -0.011029
     5  Na  -0.666785   0.780932
     6  Na   0.322086  -0.014605
     7  Na  -0.404185   0.232406
 Sum of Mulliken charges =  -0.00000   1.00000

 Dipole moment (field-independent basis, Debye):
    X=              0.1655    Y=             -0.1406    Z=              0.1854  Tot=              0.2855
 Quadrupole moment (field-independent basis, Debye-Ang):
   XX=            -55.9628   YY=            -63.0073   ZZ=            -74.5050
   XY=              0.5315   XZ=              0.7074   YZ=              1.1073

 Normal termination of Gaussian 16 at Thu Dec  7 06:06:13 2023.
