 Gaussian 16, Revision B.01,
 Gaussian 16:  ES64L-G16RevB.01 20-Dec-2017

 -------------------------
 #P B3LYP/6-311+g(d) force
 -------------------------

 -----
 DPGEN
 -----
 Symbolic Z-matrix:
 Charge =  0 Multiplicity = 2

                         Standard orientation:
 ---------------------------------------------------------------------
 Center     Atomic      Atomic             Coordinates (Angstroms)
 Number     Number       Type             X           Y           Z
 ---------------------------------------------------------------------
      1         11           0        2.074642    2.225819    0.297952
      2         11           0       -0.278947   -0.279199    2.050671
      3         11           0       -1.986627   -2.446321    0.279700
      4         11           0        1.450450   -2.167237    0.180762
      5         11           0        3.550676   -0.444485   -1.381391
      6         11           0       -3.342178    0.142079   -1.630782
      7         11           0       -1.468016    2.969345    0.203088
 ---------------------------------------------------------------------

 SCF Done:  E(UB3LYP) =  -1136.12411978     A.U. after   20 cycles

 The electronic state is 2-A.
 Alpha  occ. eigenvalues --  -38.44511 -38.44430 -38.44276 -38.43907 -38.43902
 Alpha  occ. eigenvalues --  -38.43851 -38.43809  -2.20314  -2.20302  -2.20058
 Alpha  occ. eigenvalues --   -2.19741  -2.19695  -2.19689  -2.19666  -1.14011
 Alpha  occ. eigenvalues --   -1.13969  -1.13955  -1.13940  -1.13921  -1.13909
 Alpha  occ. eigenvalues --   -1.13752  -1.13731  -1.13685  -1.13444  -1.13425
 Alpha  occ. eigenvalues --   -1.13413  -1.13385  -1.13381  -1.13352  -1.13348
 Alpha  occ. eigenvalues --   -1.13331  -1.13328  -1.13314  -1.13307  -1.13247
 Alpha  occ. eigenvalues --   -0.17339  -0.13591  -0.12494  -0.11145
 Alpha virt. eigenvalues --   -0.06122  -0.05365  -0.04717  -0.03857  -0.03339
 Alpha virt. eigenvalues --   -0.02329  -0.01367  -0.00919  -0.00876  -0.00626
 Alpha virt. eigenvalues --   -0.00356   0.00257   0.00350   0.00465   0.00625

  Beta  occ. eigenvalues --  -38.44428 -38.44357 -38.44273 -38.43913 -38.43900
  Beta  occ. eigenvalues --  -38.43802 -38.43800  -2.20180  -2.20147  -2.20056
  Beta  occ. eigenvalues --   -2.19743  -2.19681  -2.19680  -2.19601  -1.13923
  Beta  occ. eigenvalues --   -1.13885  -1.13850  -1.13836  -1.13818  -1.13806
  Beta  occ. eigenvalues --   -1.13748  -1.13730  -1.13672  -1.13431  -1.13418
  Beta  occ. eigenvalues --   -1.13395  -1.13363  -1.13362  -1.13359  -1.13343
  Beta  occ. eigenvalues --   -1.13329  -1.13302  -1.13269  -1.13254  -1.13207
  Beta  occ. eigenvalues --   -0.16750  -0.12875  -0.12290
  Beta virt. eigenvalues --   -0.07746  -0.06031  -0.05023  -0.04191  -0.03626
  Beta virt. eigenvalues --   -0.02684  -0.01824  -0.01276  -0.00924  -0.00713
  Beta virt. eigenvalues --   -0.00517  -0.00042   0.00462   0.00471   0.00687

 Mulliken charges and spin densities:
               1          2
     1  Na  -0.321412  -0.049732
     2  Na   0.895191   0.081381
     3  Na  -0.132236   0.193115
     4  Na  -0.723919  -0.006327
     5  Na   0.632260   0.331485
     6  Na  -0.094947   0.381954
     7  Na  -0.254937   0.068124
 Sum of Mulliken charges =  -0.00000   1.00000

 Dipole moment (field-independent basis, Debye):
    X=             -0.0205    Y=             -0.0007    Z=             -0.0361  Tot=              0.0415
 Quadrupole moment (field-independent basis, Debye-Ang):
   XX=            -65.3341   YY=            -65.9631   ZZ=            -68.4198
   XY=              1.7021   XZ=             -0.6574   YZ=              0.3622

 Normal termination of Gaussian 16 at Wed Nov 29 03:29:19 2023.
