 Gaussian 16, Revision B.01,
 Gaussian 16:  ES64L-G16RevB.01 20-Dec-2017

 -------------------------
 #P B3LYP/6-311+g(d) force
 -------------------------

 -----
 DPGEN
 -----
 Symbolic Z-matrix:
 Charge =  0 Multiplicity = 2

                         Standard orientation:
 ---------------------------------------------------------------------
 Center     Atomic      Atomic             Coordinates (Angstroms)
 Number     Number       Type             X           Y           Z
 ---------------------------------------------------------------------
      1         11           0       -1.583338    3.271272    0.187361
      2         11           0        3.765967   -0.353845    0.350053
      3         11           0       -1.632832   -3.305577    0.052465
      4         11           0        0.813983   -1.329631   -1.235640
      5         11           0       -2.748690   -0.031473   -0.271339
      6         11           0        1.153807    1.849104   -0.962327
      7         11           0        0.231102   -0.099849    1.879427
 ---------------------------------------------------------------------

 SCF Done:  E(UB3LYP) =  -1136.13198698     A.U. after   19 cycles

 The electronic state is 2-A.
 Alpha  occ. eigenvalues --  -38.44531 -38.44346 -38.43875 -38.43612 -38.43596
 Alpha  occ. eigenvalues --  -38.43511 -38.43284  -2.20319  -2.20160  -2.19681
 Alpha  occ. eigenvalues --   -2.19480  -2.19407  -2.19405  -2.19210  -1.13999
 Alpha  occ. eigenvalues --   -1.13977  -1.13948  -1.13850  -1.13845  -1.13774
 Alpha  occ. eigenvalues --   -1.13358  -1.13339  -1.13318  -1.13187  -1.13139
 Alpha  occ. eigenvalues --   -1.13121  -1.13105  -1.13083  -1.13066  -1.13062
 Alpha  occ. eigenvalues --   -1.13044  -1.12977  -1.12909  -1.12876  -1.12787
 Alpha  occ. eigenvalues --   -0.18118  -0.13035  -0.12616  -0.10102
 Alpha virt. eigenvalues --   -0.06088  -0.05602  -0.04844  -0.03063  -0.02667
 Alpha virt. eigenvalues --   -0.02138  -0.02008  -0.01605  -0.00620  -0.00400
 Alpha virt. eigenvalues --    0.00001   0.00239   0.00660   0.00752   0.00806

  Beta  occ. eigenvalues --  -38.44528 -38.44342 -38.43875 -38.43598 -38.43522
  Beta  occ. eigenvalues --  -38.43477 -38.43242  -2.20316  -2.20155  -2.19683
  Beta  occ. eigenvalues --   -2.19411  -2.19347  -2.19315  -2.19137  -1.13999
  Beta  occ. eigenvalues --   -1.13955  -1.13948  -1.13844  -1.13825  -1.13775
  Beta  occ. eigenvalues --   -1.13359  -1.13330  -1.13319  -1.13111  -1.13109
  Beta  occ. eigenvalues --   -1.13066  -1.13059  -1.13046  -1.13010  -1.12986
  Beta  occ. eigenvalues --   -1.12961  -1.12945  -1.12862  -1.12801  -1.12737
  Beta  occ. eigenvalues --   -0.17427  -0.12842  -0.12456
  Beta virt. eigenvalues --   -0.06289  -0.05952  -0.05508  -0.04774  -0.02423
  Beta virt. eigenvalues --   -0.02105  -0.01860  -0.01582  -0.01177  -0.00669
  Beta virt. eigenvalues --   -0.00208   0.00151   0.00299   0.00698   0.00777

 Mulliken charges and spin densities:
               1          2
     1  Na   0.249931  -0.034044
     2  Na   0.195137  -0.070396
     3  Na   0.308716  -0.030064
     4  Na   0.028981   0.297083
     5  Na  -0.151081   0.008225
     6  Na  -0.193455   0.113880
     7  Na  -0.438229   0.715317
 Sum of Mulliken charges =  -0.00000   1.00000

 Dipole moment (field-independent basis, Debye):
    X=              0.2413    Y=             -0.3228    Z=              0.2433  Tot=              0.4707
 Quadrupole moment (field-independent basis, Debye-Ang):
   XX=            -53.9931   YY=            -59.7738   ZZ=            -77.2087
   XY=             -0.3841   XZ=              0.6728   YZ=             -0.2703

 Normal termination of Gaussian 16 at Tue Dec  5 10:26:02 2023.
