 Gaussian 16, Revision B.01,
 Gaussian 16:  ES64L-G16RevB.01 20-Dec-2017

 -------------------------
 #P B3LYP/6-311+g(d) force
 -------------------------

 -----
 DPGEN
 -----
 Symbolic Z-matrix:
 Charge =  0 Multiplicity = 2

                         Standard orientation:
 ---------------------------------------------------------------------
 Center     Atomic      Atomic             Coordinates (Angstroms)
 Number     Number       Type             X           Y           Z
 ---------------------------------------------------------------------
      1         11           0       -0.624662    2.685117   -0.665303
      2         11           0       -0.766021    0.495492    2.013621
      3         11           0        0.050008   -0.392656   -1.581076
      4         11           0        2.619181    1.410672    0.529257
      5         11           0        2.654311   -1.664562   -0.367963
      6         11           0       -1.002483   -2.399414    0.521740
      7         11           0       -2.930334   -0.134650   -0.450275
 ---------------------------------------------------------------------

 SCF Done:  E(UB3LYP) =  -1136.13324148     A.U. after   20 cycles

 The electronic state is 2-A.
 Alpha  occ. eigenvalues --  -38.44036 -38.43937 -38.43739 -38.43563 -38.43234
 Alpha  occ. eigenvalues --  -38.43205 -38.43105  -2.19962  -2.19769  -2.19662
 Alpha  occ. eigenvalues --   -2.19424  -2.19251  -2.19172  -2.18971  -1.13671
 Alpha  occ. eigenvalues --   -1.13631  -1.13589  -1.13454  -1.13436  -1.13408
 Alpha  occ. eigenvalues --   -1.13337  -1.13295  -1.13274  -1.13146  -1.13074
 Alpha  occ. eigenvalues --   -1.13053  -1.12995  -1.12904  -1.12865  -1.12835
 Alpha  occ. eigenvalues --   -1.12803  -1.12770  -1.12652  -1.12625  -1.12593
 Alpha  occ. eigenvalues --   -0.19082  -0.13355  -0.12276  -0.11218
 Alpha virt. eigenvalues --   -0.05609  -0.04989  -0.04309  -0.03425  -0.03065
 Alpha virt. eigenvalues --   -0.02695  -0.01445  -0.00850  -0.00252   0.00007
 Alpha virt. eigenvalues --    0.00104   0.00380   0.00851   0.00915   0.00917

  Beta  occ. eigenvalues --  -38.44022 -38.43930 -38.43654 -38.43562 -38.43219
  Beta  occ. eigenvalues --  -38.43141 -38.43091  -2.19943  -2.19758  -2.19507
  Beta  occ. eigenvalues --   -2.19422  -2.19151  -2.19134  -2.18948  -1.13661
  Beta  occ. eigenvalues --   -1.13590  -1.13568  -1.13448  -1.13414  -1.13403
  Beta  occ. eigenvalues --   -1.13235  -1.13189  -1.13158  -1.13130  -1.13066
  Beta  occ. eigenvalues --   -1.13052  -1.12947  -1.12831  -1.12796  -1.12787
  Beta  occ. eigenvalues --   -1.12772  -1.12728  -1.12627  -1.12604  -1.12568
  Beta  occ. eigenvalues --   -0.18332  -0.13130  -0.12027
  Beta virt. eigenvalues --   -0.07224  -0.05522  -0.04931  -0.04258  -0.02712
  Beta virt. eigenvalues --   -0.02338  -0.01637  -0.01351  -0.00790  -0.00146
  Beta virt. eigenvalues --    0.00009   0.00153   0.00417   0.00892   0.00926

 Mulliken charges and spin densities:
               1          2
     1  Na  -0.071031   0.033871
     2  Na  -0.362002   0.525185
     3  Na  -0.041873   0.327372
     4  Na  -0.178771   0.020261
     5  Na   0.179284  -0.024147
     6  Na   0.067675   0.141575
     7  Na   0.406718  -0.024117
 Sum of Mulliken charges =  -0.00000   1.00000

 Dipole moment (field-independent basis, Debye):
    X=             -0.0694    Y=              0.1166    Z=              0.2401  Tot=              0.2758
 Quadrupole moment (field-independent basis, Debye-Ang):
   XX=            -57.1780   YY=            -65.9688   ZZ=            -71.4592
   XY=             -0.0554   XZ=              1.7332   YZ=             -1.0404

 Normal termination of Gaussian 16 at Tue Dec  5 11:55:39 2023.
