 Gaussian 16, Revision B.01,
 Gaussian 16:  ES64L-G16RevB.01 20-Dec-2017

 -------------------------
 #P B3LYP/6-311+g(d) force
 -------------------------

 -----
 DPGEN
 -----
 Symbolic Z-matrix:
 Charge =  0 Multiplicity = 2

                         Standard orientation:
 ---------------------------------------------------------------------
 Center     Atomic      Atomic             Coordinates (Angstroms)
 Number     Number       Type             X           Y           Z
 ---------------------------------------------------------------------
      1         11           0       -1.166850   -0.240851    1.756784
      2         11           0        3.702773   -0.049964   -1.158691
      3         11           0       -2.160189    2.165053   -0.569961
      4         11           0       -0.321638   -1.151514   -1.728189
      5         11           0       -3.899145   -1.226006   -0.157693
      6         11           0        2.440300   -1.233006    1.283043
      7         11           0        1.404749    1.736289    0.574707
 ---------------------------------------------------------------------

 SCF Done:  E(UB3LYP) =  -1136.11666209     A.U. after   29 cycles

 The electronic state is 2-A.
 Alpha  occ. eigenvalues --  -38.45377 -38.44588 -38.44505 -38.44448 -38.43902
 Alpha  occ. eigenvalues --  -38.43506 -38.42767  -2.21128  -2.20453  -2.20410
 Alpha  occ. eigenvalues --   -2.20228  -2.19720  -2.19405  -2.18663  -1.14835
 Alpha  occ. eigenvalues --   -1.14811  -1.14722  -1.14249  -1.14107  -1.14083
 Alpha  occ. eigenvalues --   -1.14057  -1.14048  -1.13970  -1.13913  -1.13893
 Alpha  occ. eigenvalues --   -1.13855  -1.13399  -1.13370  -1.13332  -1.13110
 Alpha  occ. eigenvalues --   -1.13043  -1.13017  -1.12363  -1.12342  -1.12281
 Alpha  occ. eigenvalues --   -0.18245  -0.14457  -0.11018  -0.10633
 Alpha virt. eigenvalues --   -0.07295  -0.05594  -0.04864  -0.03025  -0.02938
 Alpha virt. eigenvalues --   -0.02310  -0.02218  -0.01235  -0.01209  -0.00373
 Alpha virt. eigenvalues --    0.00045   0.00136   0.00242   0.00479   0.00615

  Beta  occ. eigenvalues --  -38.45360 -38.44566 -38.44467 -38.44450 -38.43864
  Beta  occ. eigenvalues --  -38.43455 -38.42760  -2.21097  -2.20411  -2.20343
  Beta  occ. eigenvalues --   -2.20232  -2.19649  -2.19313  -2.18655  -1.14808
  Beta  occ. eigenvalues --   -1.14779  -1.14700  -1.14213  -1.14073  -1.14049
  Beta  occ. eigenvalues --   -1.14011  -1.14006  -1.13915  -1.13910  -1.13894
  Beta  occ. eigenvalues --   -1.13858  -1.13344  -1.13325  -1.13285  -1.13049
  Beta  occ. eigenvalues --   -1.12962  -1.12952  -1.12358  -1.12301  -1.12282
  Beta  occ. eigenvalues --   -0.17570  -0.14289  -0.10458
  Beta virt. eigenvalues --   -0.07278  -0.07058  -0.05170  -0.04464  -0.02841
  Beta virt. eigenvalues --   -0.02776  -0.01816  -0.01544  -0.01104  -0.00717
  Beta virt. eigenvalues --   -0.00243   0.00077   0.00249   0.00305   0.00562

 Mulliken charges and spin densities:
               1          2
     1  Na  -0.256156   0.284258
     2  Na   0.514440   0.113155
     3  Na   0.068764   0.113697
     4  Na  -0.570063   0.219938
     5  Na   0.468959  -0.065561
     6  Na   0.250694  -0.005550
     7  Na  -0.476638   0.340064
 Sum of Mulliken charges =  -0.00000   1.00000

 Dipole moment (field-independent basis, Debye):
    X=              0.0013    Y=             -0.0217    Z=             -0.2619  Tot=              0.2628
 Quadrupole moment (field-independent basis, Debye-Ang):
   XX=            -49.7314   YY=            -76.1892   ZZ=            -70.7442
   XY=             -1.3260   XZ=             -0.7380   YZ=             -4.9994

 Normal termination of Gaussian 16 at Thu Dec  7 19:52:15 2023.
