 Gaussian 16, Revision B.01,
 Gaussian 16:  ES64L-G16RevB.01 20-Dec-2017

 -------------------------
 #P B3LYP/6-311+g(d) force
 -------------------------

 -----
 DPGEN
 -----
 Symbolic Z-matrix:
 Charge =  0 Multiplicity = 2

                         Standard orientation:
 ---------------------------------------------------------------------
 Center     Atomic      Atomic             Coordinates (Angstroms)
 Number     Number       Type             X           Y           Z
 ---------------------------------------------------------------------
      1         11           0       -0.031697   -0.117372    1.911692
      2         11           0        0.062588    0.549866   -1.608298
      3         11           0        3.151545   -0.718553    0.255666
      4         11           0        1.184730    2.874005    0.008110
      5         11           0       -2.450974    1.628292   -0.093685
      6         11           0        0.433867   -2.548923   -0.717129
      7         11           0       -2.350059   -1.667316    0.243644
 ---------------------------------------------------------------------

 SCF Done:  E(UB3LYP) =  -1136.13400327     A.U. after   21 cycles

 The electronic state is 2-A.
 Alpha  occ. eigenvalues --  -38.44060 -38.43924 -38.43849 -38.43456 -38.43354
 Alpha  occ. eigenvalues --  -38.43202 -38.43103  -2.19862  -2.19758  -2.19725
 Alpha  occ. eigenvalues --   -2.19392  -2.19276  -2.19129  -2.19124  -1.13536
 Alpha  occ. eigenvalues --   -1.13525  -1.13504  -1.13491  -1.13444  -1.13413
 Alpha  occ. eigenvalues --   -1.13385  -1.13372  -1.13345  -1.13099  -1.13038
 Alpha  occ. eigenvalues --   -1.13011  -1.12999  -1.12915  -1.12911  -1.12852
 Alpha  occ. eigenvalues --   -1.12788  -1.12757  -1.12747  -1.12734  -1.12719
 Alpha  occ. eigenvalues --   -0.19018  -0.12847  -0.12770  -0.10863
 Alpha virt. eigenvalues --   -0.05712  -0.05075  -0.04440  -0.03120  -0.03090
 Alpha virt. eigenvalues --   -0.02501  -0.01472  -0.01207  -0.00198  -0.00133
 Alpha virt. eigenvalues --    0.00081   0.00361   0.00829   0.00882   0.00956

  Beta  occ. eigenvalues --  -38.44057 -38.43922 -38.43843 -38.43370 -38.43346
  Beta  occ. eigenvalues --  -38.43180 -38.43038  -2.19860  -2.19757  -2.19717
  Beta  occ. eigenvalues --   -2.19266  -2.19234  -2.19090  -2.19006  -1.13527
  Beta  occ. eigenvalues --   -1.13513  -1.13504  -1.13482  -1.13434  -1.13401
  Beta  occ. eigenvalues --   -1.13372  -1.13357  -1.13344  -1.13034  -1.12969
  Beta  occ. eigenvalues --   -1.12933  -1.12904  -1.12893  -1.12853  -1.12804
  Beta  occ. eigenvalues --   -1.12722  -1.12711  -1.12705  -1.12662  -1.12644
  Beta  occ. eigenvalues --   -0.18278  -0.12599  -0.12513
  Beta virt. eigenvalues --   -0.06928  -0.05708  -0.05009  -0.04413  -0.02337
  Beta virt. eigenvalues --   -0.02328  -0.01471  -0.01367  -0.01141  -0.00243
  Beta virt. eigenvalues --   -0.00084   0.00152   0.00385   0.00827   0.00917

 Mulliken charges and spin densities:
               1          2
     1  Na  -0.429133   0.693080
     2  Na  -0.061551   0.356785
     3  Na  -0.064422  -0.030681
     4  Na  -0.073213  -0.116107
     5  Na   0.161787  -0.066881
     6  Na   0.213992   0.080730
     7  Na   0.252540   0.083074
 Sum of Mulliken charges =   0.00000   1.00000

 Dipole moment (field-independent basis, Debye):
    X=              0.2639    Y=              0.4083    Z=              0.2389  Tot=              0.5417
 Quadrupole moment (field-independent basis, Debye-Ang):
   XX=            -57.3132   YY=            -62.0476   ZZ=            -73.9162
   XY=              0.2028   XZ=              0.4869   YZ=              1.3488

 Normal termination of Gaussian 16 at Fri Dec  8 19:43:40 2023.
