 Gaussian 16, Revision B.01,
 Gaussian 16:  ES64L-G16RevB.01 20-Dec-2017

 -------------------------
 #P B3LYP/6-311+g(d) force
 -------------------------

 -----
 DPGEN
 -----
 Symbolic Z-matrix:
 Charge =  0 Multiplicity = 2

                         Standard orientation:
 ---------------------------------------------------------------------
 Center     Atomic      Atomic             Coordinates (Angstroms)
 Number     Number       Type             X           Y           Z
 ---------------------------------------------------------------------
      1         11           0        0.022529    0.216829    1.812464
      2         11           0       -0.441054   -2.085166    0.117062
      3         11           0        2.432201   -1.076038    0.118791
      4         11           0        0.225537   -0.146264   -1.804933
      5         11           0       -2.610337   -0.538936   -0.066141
      6         11           0       -1.242965    1.938952   -0.084839
      7         11           0        1.614089    1.690623   -0.092404
 ---------------------------------------------------------------------

 SCF Done:  E(UB3LYP) =  -1136.08902550     A.U. after   19 cycles

 The electronic state is 2-A.
 Alpha  occ. eigenvalues --  -38.44098 -38.44090 -38.44084 -38.43613 -38.43475
 Alpha  occ. eigenvalues --  -38.43395 -38.43292  -2.20296  -2.20288  -2.20168
 Alpha  occ. eigenvalues --   -2.19665  -2.19618  -2.19558  -2.19422  -1.14154
 Alpha  occ. eigenvalues --   -1.14080  -1.14021  -1.14015  -1.13981  -1.13951
 Alpha  occ. eigenvalues --   -1.13907  -1.13845  -1.13739  -1.13481  -1.13379
 Alpha  occ. eigenvalues --   -1.13346  -1.13289  -1.13234  -1.13170  -1.13161
 Alpha  occ. eigenvalues --   -1.13144  -1.13070  -1.13059  -1.13032  -1.12956
 Alpha  occ. eigenvalues --   -0.21516  -0.13917  -0.12856  -0.12240
 Alpha virt. eigenvalues --   -0.05243  -0.04364  -0.04007  -0.03737  -0.03175
 Alpha virt. eigenvalues --   -0.02889  -0.01132  -0.00481  -0.00096   0.00349
 Alpha virt. eigenvalues --    0.00740   0.00765   0.01028   0.01138   0.01185

  Beta  occ. eigenvalues --  -38.44091 -38.43996 -38.43990 -38.43604 -38.43459
  Beta  occ. eigenvalues --  -38.43377 -38.43278  -2.20160  -2.20125  -2.20119
  Beta  occ. eigenvalues --   -2.19652  -2.19598  -2.19535  -2.19404  -1.14107
  Beta  occ. eigenvalues --   -1.14016  -1.13930  -1.13918  -1.13889  -1.13860
  Beta  occ. eigenvalues --   -1.13792  -1.13765  -1.13685  -1.13473  -1.13364
  Beta  occ. eigenvalues --   -1.13334  -1.13235  -1.13162  -1.13155  -1.13138
  Beta  occ. eigenvalues --   -1.13078  -1.13064  -1.13049  -1.12964  -1.12950
  Beta  occ. eigenvalues --   -0.20674  -0.13553  -0.12491
  Beta virt. eigenvalues --   -0.08051  -0.05266  -0.04356  -0.03975  -0.02769
  Beta virt. eigenvalues --   -0.02261  -0.01798  -0.01056  -0.00439   0.00052
  Beta virt. eigenvalues --    0.00375   0.00716   0.00744   0.01055   0.01148

 Mulliken charges and spin densities:
               1          2
     1  Na  -0.272689   0.464170
     2  Na   0.205693   0.093248
     3  Na   0.068389  -0.039886
     4  Na  -0.262477   0.461751
     5  Na  -0.134662  -0.060782
     6  Na   0.186100   0.047479
     7  Na   0.209647   0.034019
 Sum of Mulliken charges =  -0.00000   1.00000

 Dipole moment (field-independent basis, Debye):
    X=              0.0765    Y=             -0.0723    Z=              0.0035  Tot=              0.1053
 Quadrupole moment (field-independent basis, Debye-Ang):
   XX=            -59.3827   YY=            -70.0318   ZZ=            -68.3868
   XY=             -0.6355   XZ=              0.5058   YZ=             -0.6593

 Normal termination of Gaussian 16 at Fri Dec  8 18:54:11 2023.
