 Gaussian 16, Revision B.01,
 Gaussian 16:  ES64L-G16RevB.01 20-Dec-2017

 -------------------------
 #P B3LYP/6-311+g(d) force
 -------------------------

 -----
 DPGEN
 -----
 Symbolic Z-matrix:
 Charge =  0 Multiplicity = 2

                         Standard orientation:
 ---------------------------------------------------------------------
 Center     Atomic      Atomic             Coordinates (Angstroms)
 Number     Number       Type             X           Y           Z
 ---------------------------------------------------------------------
      1         11           0       -3.626516   -0.033842   -1.369433
      2         11           0       -2.330510   -2.403919    1.076258
      3         11           0        1.801233    0.472645    1.179415
      4         11           0        3.981427   -1.899487   -0.567537
      5         11           0        0.512398   -0.780285   -0.967755
      6         11           0       -1.341048    1.396225    1.057124
      7         11           0        1.003017    3.248663   -0.408072
 ---------------------------------------------------------------------

 SCF Done:  E(UB3LYP) =  -1136.11833359     A.U. after   21 cycles

 The electronic state is 2-A.
 Alpha  occ. eigenvalues --  -38.44641 -38.44345 -38.44080 -38.43944 -38.43776
 Alpha  occ. eigenvalues --  -38.43724 -38.43649  -2.20533  -2.20128  -2.19918
 Alpha  occ. eigenvalues --   -2.19908  -2.19685  -2.19536  -2.19427  -1.14406
 Alpha  occ. eigenvalues --   -1.14181  -1.14104  -1.13800  -1.13778  -1.13750
 Alpha  occ. eigenvalues --   -1.13649  -1.13606  -1.13569  -1.13565  -1.13544
 Alpha  occ. eigenvalues --   -1.13461  -1.13384  -1.13368  -1.13266  -1.13196
 Alpha  occ. eigenvalues --   -1.13185  -1.13142  -1.13097  -1.13091  -1.13040
 Alpha  occ. eigenvalues --   -0.18001  -0.13494  -0.12068  -0.09968
 Alpha virt. eigenvalues --   -0.06183  -0.06019  -0.04939  -0.03109  -0.02507
 Alpha virt. eigenvalues --   -0.02262  -0.01842  -0.01572  -0.01042  -0.00221
 Alpha virt. eigenvalues --   -0.00206   0.00100   0.00312   0.00594   0.00608

  Beta  occ. eigenvalues --  -38.44635 -38.44310 -38.44079 -38.43925 -38.43757
  Beta  occ. eigenvalues --  -38.43655 -38.43633  -2.20525  -2.20064  -2.19908
  Beta  occ. eigenvalues --   -2.19886  -2.19655  -2.19407  -2.19395  -1.14390
  Beta  occ. eigenvalues --   -1.14159  -1.14101  -1.13758  -1.13720  -1.13710
  Beta  occ. eigenvalues --   -1.13630  -1.13594  -1.13566  -1.13560  -1.13505
  Beta  occ. eigenvalues --   -1.13443  -1.13368  -1.13301  -1.13253  -1.13108
  Beta  occ. eigenvalues --   -1.13093  -1.13076  -1.13068  -1.13057  -1.13022
  Beta  occ. eigenvalues --   -0.17469  -0.13133  -0.11902
  Beta virt. eigenvalues --   -0.06519  -0.05967  -0.05659  -0.04507  -0.02875
  Beta virt. eigenvalues --   -0.02164  -0.02091  -0.01686  -0.01061  -0.00689
  Beta virt. eigenvalues --   -0.00067   0.00097   0.00211   0.00411   0.00663

 Mulliken charges and spin densities:
               1          2
     1  Na   0.413414   0.360146
     2  Na  -0.096227   0.052210
     3  Na   0.161250  -0.007265
     4  Na   0.385041   0.025334
     5  Na  -0.956971   0.118380
     6  Na   0.044525   0.490825
     7  Na   0.048968  -0.039630
 Sum of Mulliken charges =  -0.00000   1.00000

 Dipole moment (field-independent basis, Debye):
    X=              0.4232    Y=              0.2246    Z=              0.4003  Tot=              0.6243
 Quadrupole moment (field-independent basis, Debye-Ang):
   XX=            -61.7542   YY=            -63.3198   ZZ=            -70.5196
   XY=              3.7405   XZ=             -1.8462   YZ=             -1.1342

 Normal termination of Gaussian 16 at Tue Dec  5 15:03:12 2023.
