 Gaussian 16, Revision B.01,
 Gaussian 16:  ES64L-G16RevB.01 20-Dec-2017

 -------------------------
 #P B3LYP/6-311+g(d) force
 -------------------------

 -----
 DPGEN
 -----
 Symbolic Z-matrix:
 Charge =  0 Multiplicity = 2

                         Standard orientation:
 ---------------------------------------------------------------------
 Center     Atomic      Atomic             Coordinates (Angstroms)
 Number     Number       Type             X           Y           Z
 ---------------------------------------------------------------------
      1         11           0        0.703591   -0.277234   -1.246438
      2         11           0       -0.815617    2.112344   -0.666423
      3         11           0        3.413461   -0.089461   -0.457389
      4         11           0        1.166043    0.763184    1.525476
      5         11           0       -0.154572   -2.105844    0.779978
      6         11           0       -2.025041    0.326828    1.463899
      7         11           0       -2.287865   -0.729818   -1.399104
 ---------------------------------------------------------------------

 SCF Done:  E(UB3LYP) =  -1136.10597534     A.U. after   24 cycles

 The electronic state is 2-A.
 Alpha  occ. eigenvalues --  -38.44830 -38.44077 -38.44007 -38.43610 -38.43555
 Alpha  occ. eigenvalues --  -38.42604 -38.42466  -2.20725  -2.20120  -2.20002
 Alpha  occ. eigenvalues --   -2.19874  -2.19623  -2.18613  -2.18490  -1.14508
 Alpha  occ. eigenvalues --   -1.14384  -1.14310  -1.13861  -1.13832  -1.13771
 Alpha  occ. eigenvalues --   -1.13735  -1.13638  -1.13600  -1.13580  -1.13532
 Alpha  occ. eigenvalues --   -1.13465  -1.13306  -1.13244  -1.13210  -1.12336
 Alpha  occ. eigenvalues --   -1.12267  -1.12208  -1.12183  -1.12133  -1.12081
 Alpha  occ. eigenvalues --   -0.20480  -0.13908  -0.12487  -0.11430
 Alpha virt. eigenvalues --   -0.06093  -0.04428  -0.03495  -0.03452  -0.02933
 Alpha virt. eigenvalues --   -0.02613  -0.01822  -0.00702  -0.00235   0.00271
 Alpha virt. eigenvalues --    0.00470   0.00539   0.00859   0.00965   0.01004

  Beta  occ. eigenvalues --  -38.44822 -38.44029 -38.43965 -38.43556 -38.43504
  Beta  occ. eigenvalues --  -38.42580 -38.42448  -2.20713  -2.20037  -2.19927
  Beta  occ. eigenvalues --   -2.19781  -2.19533  -2.18574  -2.18462  -1.14491
  Beta  occ. eigenvalues --   -1.14372  -1.14302  -1.13815  -1.13743  -1.13699
  Beta  occ. eigenvalues --   -1.13676  -1.13571  -1.13547  -1.13522  -1.13463
  Beta  occ. eigenvalues --   -1.13399  -1.13238  -1.13155  -1.13150  -1.12315
  Beta  occ. eigenvalues --   -1.12202  -1.12187  -1.12161  -1.12099  -1.12044
  Beta  occ. eigenvalues --   -0.19611  -0.13725  -0.11201
  Beta virt. eigenvalues --   -0.08107  -0.05966  -0.03903  -0.03375  -0.03120
  Beta virt. eigenvalues --   -0.02183  -0.01808  -0.01671  -0.00357  -0.00180
  Beta virt. eigenvalues --    0.00304   0.00544   0.00667   0.00869   0.00984

 Mulliken charges and spin densities:
               1          2
     1  Na   0.532017   0.202881
     2  Na  -0.995998   0.324012
     3  Na  -0.015182   0.147374
     4  Na   0.113352   0.156629
     5  Na  -1.146950   0.204734
     6  Na   0.821045   0.231920
     7  Na   0.691717  -0.267550
 Sum of Mulliken charges =  -0.00000   1.00000

 Dipole moment (field-independent basis, Debye):
    X=              0.3544    Y=             -0.0337    Z=              0.1063  Tot=              0.3715
 Quadrupole moment (field-independent basis, Debye-Ang):
   XX=            -51.9885   YY=            -77.0221   ZZ=            -64.2258
   XY=              0.1382   XZ=              0.0525   YZ=             -0.3193

 Normal termination of Gaussian 16 at Sat Dec  9 06:21:08 2023.
