 Gaussian 16, Revision B.01,
 Gaussian 16:  ES64L-G16RevB.01 20-Dec-2017

 -------------------------
 #P B3LYP/6-311+g(d) force
 -------------------------

 -----
 DPGEN
 -----
 Symbolic Z-matrix:
 Charge =  0 Multiplicity = 2

                         Standard orientation:
 ---------------------------------------------------------------------
 Center     Atomic      Atomic             Coordinates (Angstroms)
 Number     Number       Type             X           Y           Z
 ---------------------------------------------------------------------
      1         11           0        0.047113    1.874323   -0.697190
      2         11           0       -2.245318    3.613980    0.421053
      3         11           0       -3.351948   -0.093865   -0.296862
      4         11           0       -2.714548   -3.565334    0.153309
      5         11           0        0.221899   -1.447222   -0.257203
      6         11           0        2.591269   -0.152544    1.130554
      7         11           0        5.451532   -0.229340   -0.453662
 ---------------------------------------------------------------------

 SCF Done:  E(UB3LYP) =  -1136.12095515     A.U. after   19 cycles

 The electronic state is 2-A.
 Alpha  occ. eigenvalues --  -38.44708 -38.44270 -38.44000 -38.43972 -38.43927
 Alpha  occ. eigenvalues --  -38.43769 -38.43628  -2.20488  -2.20087  -2.19876
 Alpha  occ. eigenvalues --   -2.19753  -2.19741  -2.19675  -2.19503  -1.14194
 Alpha  occ. eigenvalues --   -1.14175  -1.14069  -1.13722  -1.13715  -1.13707
 Alpha  occ. eigenvalues --   -1.13607  -1.13558  -1.13526  -1.13422  -1.13420
 Alpha  occ. eigenvalues --   -1.13409  -1.13394  -1.13385  -1.13379  -1.13354
 Alpha  occ. eigenvalues --   -1.13335  -1.13305  -1.13161  -1.13153  -1.13115
 Alpha  occ. eigenvalues --   -0.17059  -0.13846  -0.12584  -0.10759
 Alpha virt. eigenvalues --   -0.06054  -0.05548  -0.04876  -0.03588  -0.02812
 Alpha virt. eigenvalues --   -0.02286  -0.01697  -0.01598  -0.01073  -0.00799
 Alpha virt. eigenvalues --   -0.00465   0.00047   0.00345   0.00408   0.00587

  Beta  occ. eigenvalues --  -38.44686 -38.44154 -38.43981 -38.43965 -38.43915
  Beta  occ. eigenvalues --  -38.43726 -38.43625  -2.20447  -2.19872  -2.19845
  Beta  occ. eigenvalues --   -2.19740  -2.19718  -2.19599  -2.19506  -1.14166
  Beta  occ. eigenvalues --   -1.14145  -1.14036  -1.13581  -1.13579  -1.13569
  Beta  occ. eigenvalues --   -1.13563  -1.13538  -1.13498  -1.13413  -1.13405
  Beta  occ. eigenvalues --   -1.13377  -1.13374  -1.13362  -1.13360  -1.13328
  Beta  occ. eigenvalues --   -1.13284  -1.13260  -1.13167  -1.13147  -1.13058
  Beta  occ. eigenvalues --   -0.16501  -0.13026  -0.12509
  Beta virt. eigenvalues --   -0.07206  -0.05904  -0.05197  -0.04568  -0.03157
  Beta virt. eigenvalues --   -0.02538  -0.02205  -0.01572  -0.01256  -0.00668
  Beta virt. eigenvalues --   -0.00462  -0.00210   0.00234   0.00499   0.00568

 Mulliken charges and spin densities:
               1          2
     1  Na  -0.828918  -0.019622
     2  Na   0.601081   0.112590
     3  Na   0.113287   0.277695
     4  Na   0.660826   0.131237
     5  Na  -1.269911  -0.085533
     6  Na   0.777485   0.014267
     7  Na  -0.053851   0.569366
 Sum of Mulliken charges =  -0.00000   1.00000

 Dipole moment (field-independent basis, Debye):
    X=             -0.9515    Y=              0.0196    Z=              0.0801  Tot=              0.9550
 Quadrupole moment (field-independent basis, Debye-Ang):
   XX=            -70.9348   YY=            -61.3997   ZZ=            -68.4573
   XY=              0.5507   XZ=             -3.2925   YZ=              0.7709

 Normal termination of Gaussian 16 at Tue Nov 28 19:24:49 2023.
