 Gaussian 16, Revision B.01,
 Gaussian 16:  ES64L-G16RevB.01 20-Dec-2017

 -------------------------
 #P B3LYP/6-311+g(d) force
 -------------------------

 -----
 DPGEN
 -----
 Symbolic Z-matrix:
 Charge =  0 Multiplicity = 2

                         Standard orientation:
 ---------------------------------------------------------------------
 Center     Atomic      Atomic             Coordinates (Angstroms)
 Number     Number       Type             X           Y           Z
 ---------------------------------------------------------------------
      1         11           0        2.192806    1.684110    0.301816
      2         11           0       -2.987436   -0.113569    0.092332
      3         11           0       -0.993811    2.751450   -0.285814
      4         11           0        0.427538    0.184556   -1.782739
      5         11           0        2.459760   -1.442574    0.100240
      6         11           0       -0.315654   -0.487685    2.306671
      7         11           0       -0.783203   -2.576288   -0.732506
 ---------------------------------------------------------------------

 SCF Done:  E(UB3LYP) =  -1136.13651750     A.U. after   19 cycles

 The electronic state is 2-A.
 Alpha  occ. eigenvalues --  -38.44382 -38.43656 -38.43550 -38.43416 -38.43395
 Alpha  occ. eigenvalues --  -38.43328 -38.43182  -2.20233  -2.19562  -2.19495
 Alpha  occ. eigenvalues --   -2.19331  -2.19300  -2.19212  -2.19033  -1.13883
 Alpha  occ. eigenvalues --   -1.13862  -1.13858  -1.13287  -1.13243  -1.13203
 Alpha  occ. eigenvalues --   -1.13170  -1.13158  -1.13139  -1.13057  -1.12984
 Alpha  occ. eigenvalues --   -1.12981  -1.12958  -1.12944  -1.12899  -1.12891
 Alpha  occ. eigenvalues --   -1.12850  -1.12827  -1.12716  -1.12690  -1.12662
 Alpha  occ. eigenvalues --   -0.18920  -0.12945  -0.12477  -0.11551
 Alpha virt. eigenvalues --   -0.05207  -0.04819  -0.04565  -0.03615  -0.03205
 Alpha virt. eigenvalues --   -0.03107  -0.01096  -0.00879  -0.00180   0.00004
 Alpha virt. eigenvalues --    0.00102   0.00394   0.00855   0.00946   0.00968

  Beta  occ. eigenvalues --  -38.44285 -38.43654 -38.43484 -38.43410 -38.43389
  Beta  occ. eigenvalues --  -38.43309 -38.43179  -2.20053  -2.19495  -2.19443
  Beta  occ. eigenvalues --   -2.19322  -2.19293  -2.19179  -2.19031  -1.13764
  Beta  occ. eigenvalues --   -1.13737  -1.13726  -1.13223  -1.13172  -1.13156
  Beta  occ. eigenvalues --   -1.13149  -1.13140  -1.13118  -1.13042  -1.12973
  Beta  occ. eigenvalues --   -1.12953  -1.12941  -1.12919  -1.12885  -1.12863
  Beta  occ. eigenvalues --   -1.12819  -1.12806  -1.12706  -1.12682  -1.12661
  Beta  occ. eigenvalues --   -0.18158  -0.12731  -0.12235
  Beta virt. eigenvalues --   -0.07549  -0.05124  -0.04835  -0.04456  -0.02799
  Beta virt. eigenvalues --   -0.02418  -0.02084  -0.01015  -0.00816  -0.00107
  Beta virt. eigenvalues --    0.00052   0.00087   0.00422   0.00924   0.00957

 Mulliken charges and spin densities:
               1          2
     1  Na   0.131678   0.117256
     2  Na   0.046597   0.013569
     3  Na   0.124016  -0.042168
     4  Na  -0.220056   0.256304
     5  Na   0.286068   0.060064
     6  Na  -0.658638   0.570409
     7  Na   0.290336   0.024567
 Sum of Mulliken charges =  -0.00000   1.00000

 Dipole moment (field-independent basis, Debye):
    X=             -0.1067    Y=             -0.1246    Z=              0.3714  Tot=              0.4060
 Quadrupole moment (field-independent basis, Debye-Ang):
   XX=            -61.6581   YY=            -65.1635   ZZ=            -69.3527
   XY=             -0.3498   XZ=              1.2459   YZ=              1.0536

 Normal termination of Gaussian 16 at Fri Dec  8 02:17:15 2023.
