 Gaussian 16, Revision B.01,
 Gaussian 16:  ES64L-G16RevB.01 20-Dec-2017

 -------------------------
 #P B3LYP/6-311+g(d) force
 -------------------------

 -----
 DPGEN
 -----
 Symbolic Z-matrix:
 Charge =  0 Multiplicity = 2

                         Standard orientation:
 ---------------------------------------------------------------------
 Center     Atomic      Atomic             Coordinates (Angstroms)
 Number     Number       Type             X           Y           Z
 ---------------------------------------------------------------------
      1         11           0       -2.910335   -1.148271   -0.216437
      2         11           0        3.209056   -0.209775   -0.352792
      3         11           0        0.433893   -3.039566   -0.267940
      4         11           0        0.208703   -0.512553    2.167214
      5         11           0        0.116519   -0.076419   -1.254454
      6         11           0       -2.224793    2.079480   -0.118097
      7         11           0        1.166956    2.907104    0.042507
 ---------------------------------------------------------------------

 SCF Done:  E(UB3LYP) =  -1136.13553462     A.U. after   19 cycles

 The electronic state is 2-A.
 Alpha  occ. eigenvalues --  -38.44218 -38.43908 -38.43858 -38.43749 -38.43540
 Alpha  occ. eigenvalues --  -38.43427 -38.42742  -2.20032  -2.19751  -2.19695
 Alpha  occ. eigenvalues --   -2.19564  -2.19389  -2.19295  -2.18795  -1.13727
 Alpha  occ. eigenvalues --   -1.13686  -1.13656  -1.13460  -1.13412  -1.13382
 Alpha  occ. eigenvalues --   -1.13369  -1.13359  -1.13327  -1.13247  -1.13229
 Alpha  occ. eigenvalues --   -1.13202  -1.13070  -1.13045  -1.13021  -1.12961
 Alpha  occ. eigenvalues --   -1.12913  -1.12908  -1.12489  -1.12441  -1.12426
 Alpha  occ. eigenvalues --   -0.18469  -0.12889  -0.12649  -0.10381
 Alpha virt. eigenvalues --   -0.05819  -0.05118  -0.05049  -0.02845  -0.02776
 Alpha virt. eigenvalues --   -0.02346  -0.01596  -0.01353  -0.00615  -0.00541
 Alpha virt. eigenvalues --   -0.00005   0.00323   0.00777   0.00826   0.00857

  Beta  occ. eigenvalues --  -38.44208 -38.43900 -38.43853 -38.43749 -38.43538
  Beta  occ. eigenvalues --  -38.43318 -38.42700  -2.20017  -2.19740  -2.19688
  Beta  occ. eigenvalues --   -2.19565  -2.19388  -2.19094  -2.18722  -1.13709
  Beta  occ. eigenvalues --   -1.13664  -1.13648  -1.13451  -1.13380  -1.13377
  Beta  occ. eigenvalues --   -1.13366  -1.13341  -1.13321  -1.13246  -1.13215
  Beta  occ. eigenvalues --   -1.13206  -1.13066  -1.13036  -1.13020  -1.12826
  Beta  occ. eigenvalues --   -1.12773  -1.12766  -1.12424  -1.12386  -1.12372
  Beta  occ. eigenvalues --   -0.17789  -0.12652  -0.12451
  Beta virt. eigenvalues --   -0.06442  -0.05783  -0.05117  -0.04964  -0.02132
  Beta virt. eigenvalues --   -0.02058  -0.01511  -0.01298  -0.01233  -0.00664
  Beta virt. eigenvalues --   -0.00567   0.00176   0.00381   0.00791   0.00856

 Mulliken charges and spin densities:
               1          2
     1  Na   0.355179   0.045963
     2  Na   0.314187   0.031269
     3  Na   0.393070   0.018853
     4  Na  -0.564091   0.763824
     5  Na  -0.812890   0.085570
     6  Na   0.132559   0.020566
     7  Na   0.181986   0.033956
 Sum of Mulliken charges =  -0.00000   1.00000

 Dipole moment (field-independent basis, Debye):
    X=              0.2333    Y=             -0.1750    Z=              0.1450  Tot=              0.3257
 Quadrupole moment (field-independent basis, Debye-Ang):
   XX=            -56.6400   YY=            -58.6120   ZZ=            -76.7282
   XY=              0.4512   XZ=             -0.2315   YZ=              1.1858

 Normal termination of Gaussian 16 at Thu Dec  7 22:42:17 2023.
