 Gaussian 16, Revision B.01,
 Gaussian 16:  ES64L-G16RevB.01 20-Dec-2017

 -------------------------
 #P B3LYP/6-311+g(d) force
 -------------------------

 -----
 DPGEN
 -----
 Symbolic Z-matrix:
 Charge =  0 Multiplicity = 2

                         Standard orientation:
 ---------------------------------------------------------------------
 Center     Atomic      Atomic             Coordinates (Angstroms)
 Number     Number       Type             X           Y           Z
 ---------------------------------------------------------------------
      1         11           0       -1.181846   -0.779720    2.049560
      2         11           0       -1.337555    2.239100   -0.316399
      3         11           0       -3.127418   -0.061536   -0.000467
      4         11           0       -0.942617   -1.398504   -1.880578
      5         11           0        3.044994    2.066026   -0.046187
      6         11           0        0.872670    0.116805    0.085007
      7         11           0        2.671772   -2.182170    0.109064
 ---------------------------------------------------------------------

 SCF Done:  E(UB3LYP) =  -1136.10407510     A.U. after   25 cycles

 The electronic state is 2-A.
 Alpha  occ. eigenvalues --  -38.44608 -38.44565 -38.44455 -38.44281 -38.44041
 Alpha  occ. eigenvalues --  -38.43797 -38.42624  -2.20602  -2.20403  -2.20370
 Alpha  occ. eigenvalues --   -2.20081  -2.19940  -2.19699  -2.18829  -1.14384
 Alpha  occ. eigenvalues --   -1.14305  -1.14244  -1.14108  -1.14105  -1.14019
 Alpha  occ. eigenvalues --   -1.13982  -1.13981  -1.13952  -1.13818  -1.13735
 Alpha  occ. eigenvalues --   -1.13692  -1.13651  -1.13573  -1.13521  -1.13410
 Alpha  occ. eigenvalues --   -1.13333  -1.13327  -1.12530  -1.12506  -1.12426
 Alpha  occ. eigenvalues --   -0.19207  -0.13745  -0.11438  -0.11330
 Alpha virt. eigenvalues --   -0.06259  -0.05947  -0.03608  -0.03433  -0.02565
 Alpha virt. eigenvalues --   -0.02322  -0.01996  -0.01364  -0.00250  -0.00145
 Alpha virt. eigenvalues --    0.00145   0.00222   0.00663   0.00717   0.00771

  Beta  occ. eigenvalues --  -38.44589 -38.44573 -38.44356 -38.44294 -38.43962
  Beta  occ. eigenvalues --  -38.43781 -38.42604  -2.20576  -2.20387  -2.20222
  Beta  occ. eigenvalues --   -2.20104  -2.19796  -2.19674  -2.18799  -1.14332
  Beta  occ. eigenvalues --   -1.14285  -1.14191  -1.14117  -1.14023  -1.13995
  Beta  occ. eigenvalues --   -1.13982  -1.13875  -1.13833  -1.13822  -1.13748
  Beta  occ. eigenvalues --   -1.13709  -1.13553  -1.13478  -1.13410  -1.13395
  Beta  occ. eigenvalues --   -1.13319  -1.13282  -1.12507  -1.12439  -1.12416
  Beta  occ. eigenvalues --   -0.18387  -0.13586  -0.11271
  Beta virt. eigenvalues --   -0.07194  -0.06059  -0.05879  -0.03293  -0.02779
  Beta virt. eigenvalues --   -0.02106  -0.01770  -0.01508  -0.01324  -0.00103
  Beta virt. eigenvalues --    0.00017   0.00163   0.00279   0.00736   0.00761

 Mulliken charges and spin densities:
               1          2
     1  Na   0.490165   0.291913
     2  Na   0.247018  -0.056443
     3  Na   0.869415   0.369234
     4  Na   0.262267   0.372093
     5  Na   0.583769  -0.331481
     6  Na  -3.399943   0.258087
     7  Na   0.947310   0.096597
 Sum of Mulliken charges =  -0.00000   1.00000

 Dipole moment (field-independent basis, Debye):
    X=              0.1505    Y=             -0.4557    Z=             -0.0767  Tot=              0.4860
 Quadrupole moment (field-independent basis, Debye-Ang):
   XX=            -51.2767   YY=            -69.2426   ZZ=            -71.1304
   XY=             -1.7544   XZ=              0.7341   YZ=             -0.5362

 Normal termination of Gaussian 16 at Thu Dec  7 17:28:19 2023.
