 Gaussian 16, Revision B.01,
 Gaussian 16:  ES64L-G16RevB.01 20-Dec-2017

 -------------------------
 #P B3LYP/6-311+g(d) force
 -------------------------

 -----
 DPGEN
 -----
 Symbolic Z-matrix:
 Charge =  0 Multiplicity = 2

                         Standard orientation:
 ---------------------------------------------------------------------
 Center     Atomic      Atomic             Coordinates (Angstroms)
 Number     Number       Type             X           Y           Z
 ---------------------------------------------------------------------
      1         11           0       -3.002463    1.398984   -0.667484
      2         11           0        0.470860   -0.269563   -1.580778
      3         11           0        3.255420   -1.923294   -0.039964
      4         11           0       -0.377426   -0.954451    1.530330
      5         11           0       -3.512174   -1.763359   -0.024634
      6         11           0        3.319867    1.317258   -0.149118
      7         11           0       -0.154084    2.194424    0.931648
 ---------------------------------------------------------------------

 SCF Done:  E(UB3LYP) =  -1136.11722724     A.U. after   27 cycles

 The electronic state is 2-A.
 Alpha  occ. eigenvalues --  -38.45803 -38.45032 -38.44229 -38.44197 -38.44082
 Alpha  occ. eigenvalues --  -38.43300 -38.42167  -2.21640  -2.20853  -2.20048
 Alpha  occ. eigenvalues --   -2.20040  -2.19882  -2.19217  -2.18065  -1.15370
 Alpha  occ. eigenvalues --   -1.15285  -1.15253  -1.14535  -1.14508  -1.14482
 Alpha  occ. eigenvalues --   -1.13722  -1.13720  -1.13711  -1.13692  -1.13687
 Alpha  occ. eigenvalues --   -1.13682  -1.13550  -1.13536  -1.13517  -1.12909
 Alpha  occ. eigenvalues --   -1.12850  -1.12812  -1.11755  -1.11716  -1.11702
 Alpha  occ. eigenvalues --   -0.18229  -0.14288  -0.11143  -0.10469
 Alpha virt. eigenvalues --   -0.07165  -0.06209  -0.03678  -0.03366  -0.02974
 Alpha virt. eigenvalues --   -0.02619  -0.01995  -0.01627  -0.00857  -0.00365
 Alpha virt. eigenvalues --   -0.00051   0.00105   0.00415   0.00519   0.00567

  Beta  occ. eigenvalues --  -38.45794 -38.45015 -38.44229 -38.44155 -38.44072
  Beta  occ. eigenvalues --  -38.43201 -38.42146  -2.21626  -2.20823  -2.20042
  Beta  occ. eigenvalues --   -2.19970  -2.19868  -2.19037  -2.18031  -1.15337
  Beta  occ. eigenvalues --   -1.15278  -1.15245  -1.14513  -1.14489  -1.14454
  Beta  occ. eigenvalues --   -1.13725  -1.13690  -1.13670  -1.13669  -1.13661
  Beta  occ. eigenvalues --   -1.13627  -1.13541  -1.13509  -1.13500  -1.12789
  Beta  occ. eigenvalues --   -1.12715  -1.12692  -1.11722  -1.11690  -1.11668
  Beta  occ. eigenvalues --   -0.17605  -0.13838  -0.10993
  Beta virt. eigenvalues --   -0.06987  -0.06762  -0.06081  -0.03337  -0.03073
  Beta virt. eigenvalues --   -0.02708  -0.01952  -0.01709  -0.01181  -0.00760
  Beta virt. eigenvalues --   -0.00155   0.00056   0.00156   0.00522   0.00608

 Mulliken charges and spin densities:
               1          2
     1  Na   0.173736   0.370125
     2  Na  -0.368507   0.120569
     3  Na   0.357007  -0.016993
     4  Na  -0.329158   0.423546
     5  Na   0.118532   0.023258
     6  Na   0.151510   0.104449
     7  Na  -0.103120  -0.024954
 Sum of Mulliken charges =  -0.00000   1.00000

 Dipole moment (field-independent basis, Debye):
    X=              0.9452    Y=             -0.1028    Z=             -0.1478  Tot=              0.9622
 Quadrupole moment (field-independent basis, Debye-Ang):
   XX=            -56.2539   YY=            -70.9071   ZZ=            -70.7719
   XY=              0.7667   XZ=              1.4057   YZ=              0.4075

 Normal termination of Gaussian 16 at Thu Dec  7 12:54:22 2023.
