 Gaussian 16, Revision B.01,
 Gaussian 16:  ES64L-G16RevB.01 20-Dec-2017

 -------------------------
 #P B3LYP/6-311+g(d) force
 -------------------------

 -----
 DPGEN
 -----
 Symbolic Z-matrix:
 Charge =  0 Multiplicity = 2

                         Standard orientation:
 ---------------------------------------------------------------------
 Center     Atomic      Atomic             Coordinates (Angstroms)
 Number     Number       Type             X           Y           Z
 ---------------------------------------------------------------------
      1         11           0        0.238659    0.460095   -1.585133
      2         11           0        0.365834    2.854297   -0.063865
      3         11           0        1.222321   -2.634789   -0.599473
      4         11           0       -2.750126    1.231625    0.155029
      5         11           0       -2.278675   -1.802752   -0.045866
      6         11           0        2.947087    0.510158    0.338366
      7         11           0        0.254900   -0.618635    1.800943
 ---------------------------------------------------------------------

 SCF Done:  E(UB3LYP) =  -1136.13464791     A.U. after   19 cycles

 The electronic state is 2-A.
 Alpha  occ. eigenvalues --  -38.43916 -38.43677 -38.43612 -38.43554 -38.43536
 Alpha  occ. eigenvalues --  -38.43245 -38.43087  -2.19794  -2.19545  -2.19496
 Alpha  occ. eigenvalues --   -2.19459  -2.19406  -2.19205  -2.19126  -1.13488
 Alpha  occ. eigenvalues --   -1.13465  -1.13418  -1.13314  -1.13307  -1.13206
 Alpha  occ. eigenvalues --   -1.13195  -1.13164  -1.13145  -1.13097  -1.13093
 Alpha  occ. eigenvalues --   -1.13083  -1.13078  -1.13053  -1.13028  -1.12879
 Alpha  occ. eigenvalues --   -1.12830  -1.12820  -1.12776  -1.12731  -1.12722
 Alpha  occ. eigenvalues --   -0.19100  -0.13186  -0.12795  -0.10654
 Alpha virt. eigenvalues --   -0.05496  -0.05077  -0.04818  -0.03142  -0.03024
 Alpha virt. eigenvalues --   -0.02229  -0.01391  -0.01117  -0.00249  -0.00221
 Alpha virt. eigenvalues --    0.00036   0.00365   0.00874   0.00901   0.00931

  Beta  occ. eigenvalues --  -38.43902 -38.43675 -38.43608 -38.43548 -38.43516
  Beta  occ. eigenvalues --  -38.43172 -38.43021  -2.19774  -2.19544  -2.19491
  Beta  occ. eigenvalues --   -2.19452  -2.19373  -2.19070  -2.19007  -1.13473
  Beta  occ. eigenvalues --   -1.13421  -1.13409  -1.13316  -1.13283  -1.13200
  Beta  occ. eigenvalues --   -1.13178  -1.13157  -1.13122  -1.13091  -1.13073
  Beta  occ. eigenvalues --   -1.13067  -1.13051  -1.13028  -1.13007  -1.12792
  Beta  occ. eigenvalues --   -1.12730  -1.12724  -1.12695  -1.12650  -1.12638
  Beta  occ. eigenvalues --   -0.18395  -0.12930  -0.12541
  Beta virt. eigenvalues --   -0.06744  -0.05458  -0.05063  -0.04746  -0.02367
  Beta virt. eigenvalues --   -0.02270  -0.01327  -0.01203  -0.01011  -0.00276
  Beta virt. eigenvalues --   -0.00261   0.00163   0.00402   0.00891   0.00909

 Mulliken charges and spin densities:
               1          2
     1  Na  -0.343352   0.475756
     2  Na   0.315188  -0.022394
     3  Na   0.075507  -0.001960
     4  Na  -0.060775  -0.060486
     5  Na   0.147525   0.003242
     6  Na   0.232393  -0.000942
     7  Na  -0.366486   0.606784
 Sum of Mulliken charges =  -0.00000   1.00000

 Dipole moment (field-independent basis, Debye):
    X=              0.1699    Y=             -0.0610    Z=              0.1361  Tot=              0.2260
 Quadrupole moment (field-independent basis, Debye-Ang):
   XX=            -57.7063   YY=            -61.1779   ZZ=            -74.6822
   XY=             -0.2039   XZ=             -0.0479   YZ=              2.3472

 Normal termination of Gaussian 16 at Tue Dec  5 10:37:38 2023.
