 Gaussian 16, Revision B.01,
 Gaussian 16:  ES64L-G16RevB.01 20-Dec-2017

 -------------------------
 #P B3LYP/6-311+g(d) force
 -------------------------

 -----
 DPGEN
 -----
 Symbolic Z-matrix:
 Charge =  0 Multiplicity = 2

                         Standard orientation:
 ---------------------------------------------------------------------
 Center     Atomic      Atomic             Coordinates (Angstroms)
 Number     Number       Type             X           Y           Z
 ---------------------------------------------------------------------
      1         11           0        0.882367    3.582956   -0.016972
      2         11           0        2.940317    0.820980   -0.818611
      3         11           0        3.185747   -2.637092   -0.168298
      4         11           0       -2.096479   -2.835087    0.161623
      5         11           0        0.958805   -0.653954    0.991467
      6         11           0       -1.668350    1.873034    0.678470
      7         11           0       -4.202408   -0.150836   -0.827680
 ---------------------------------------------------------------------

 SCF Done:  E(UB3LYP) =  -1136.11725929     A.U. after   24 cycles

 The electronic state is 2-A.
 Alpha  occ. eigenvalues --  -38.44884 -38.44692 -38.44552 -38.44342 -38.44119
 Alpha  occ. eigenvalues --  -38.43585 -38.43106  -2.20630  -2.20497  -2.20379
 Alpha  occ. eigenvalues --   -2.20204  -2.19939  -2.19507  -2.18926  -1.14318
 Alpha  occ. eigenvalues --   -1.14284  -1.14269  -1.14177  -1.14159  -1.14131
 Alpha  occ. eigenvalues --   -1.14067  -1.14057  -1.14022  -1.13932  -1.13871
 Alpha  occ. eigenvalues --   -1.13787  -1.13609  -1.13597  -1.13569  -1.13200
 Alpha  occ. eigenvalues --   -1.13147  -1.13135  -1.12579  -1.12574  -1.12541
 Alpha  occ. eigenvalues --   -0.17132  -0.13737  -0.12886  -0.09722
 Alpha virt. eigenvalues --   -0.07001  -0.05897  -0.04254  -0.03693  -0.02868
 Alpha virt. eigenvalues --   -0.02162  -0.01706  -0.01656  -0.01316  -0.00939
 Alpha virt. eigenvalues --    0.00092   0.00252   0.00329   0.00479   0.00602

  Beta  occ. eigenvalues --  -38.44877 -38.44688 -38.44537 -38.44305 -38.44120
  Beta  occ. eigenvalues --  -38.43545 -38.43029  -2.20620  -2.20493  -2.20356
  Beta  occ. eigenvalues --   -2.20136  -2.19942  -2.19436  -2.18783  -1.14314
  Beta  occ. eigenvalues --   -1.14276  -1.14238  -1.14174  -1.14158  -1.14110
  Beta  occ. eigenvalues --   -1.14056  -1.14032  -1.13988  -1.13885  -1.13825
  Beta  occ. eigenvalues --   -1.13736  -1.13609  -1.13594  -1.13570  -1.13151
  Beta  occ. eigenvalues --   -1.13086  -1.13079  -1.12479  -1.12476  -1.12450
  Beta  occ. eigenvalues --   -0.16651  -0.13184  -0.12636
  Beta virt. eigenvalues --   -0.06852  -0.06283  -0.05786  -0.04051  -0.03067
  Beta virt. eigenvalues --   -0.02404  -0.02057  -0.01646  -0.01430  -0.01122
  Beta virt. eigenvalues --   -0.00500   0.00317   0.00379   0.00481   0.00582

 Mulliken charges and spin densities:
               1          2
     1  Na   0.014325  -0.003156
     2  Na   0.178381   0.265146
     3  Na   0.795752   0.115563
     4  Na   0.138472   0.015294
     5  Na  -1.219053   0.116667
     6  Na   0.025906   0.054995
     7  Na   0.066216   0.435492
 Sum of Mulliken charges =  -0.00000   1.00000

 Dipole moment (field-independent basis, Debye):
    X=              1.4490    Y=             -0.5430    Z=             -0.0647  Tot=              1.5488
 Quadrupole moment (field-independent basis, Debye-Ang):
   XX=            -72.1563   YY=            -52.7952   ZZ=            -72.9756
   XY=             -0.6728   XZ=             -1.8372   YZ=              1.1590

 Normal termination of Gaussian 16 at Sun Dec  3 16:06:46 2023.
