 Gaussian 16, Revision B.01,
 Gaussian 16:  ES64L-G16RevB.01 20-Dec-2017

 -------------------------
 #P B3LYP/6-311+g(d) force
 -------------------------

 -----
 DPGEN
 -----
 Symbolic Z-matrix:
 Charge =  0 Multiplicity = 2

                         Standard orientation:
 ---------------------------------------------------------------------
 Center     Atomic      Atomic             Coordinates (Angstroms)
 Number     Number       Type             X           Y           Z
 ---------------------------------------------------------------------
      1         11           0        4.700562   -0.556448   -0.437170
      2         11           0        1.887862   -0.826395    0.954491
      3         11           0       -1.566754    1.843755   -1.014797
      4         11           0        1.538660    1.745992   -0.467397
      5         11           0       -1.116672   -2.022034   -1.041128
      6         11           0       -4.227080   -0.629497   -0.219263
      7         11           0       -1.216579    0.444627    2.225265
 ---------------------------------------------------------------------

 SCF Done:  E(UB3LYP) =  -1136.11295270     A.U. after   33 cycles

 The electronic state is 2-A.
 Alpha  occ. eigenvalues --  -38.45314 -38.44490 -38.44459 -38.44379 -38.43673
 Alpha  occ. eigenvalues --  -38.43438 -38.43280  -2.21090  -2.20327  -2.20238
 Alpha  occ. eigenvalues --   -2.20174  -2.19614  -2.19338  -2.19161  -1.14767
 Alpha  occ. eigenvalues --   -1.14751  -1.14704  -1.13995  -1.13966  -1.13936
 Alpha  occ. eigenvalues --   -1.13914  -1.13905  -1.13873  -1.13858  -1.13831
 Alpha  occ. eigenvalues --   -1.13818  -1.13395  -1.13284  -1.13209  -1.13039
 Alpha  occ. eigenvalues --   -1.13002  -1.12942  -1.12840  -1.12802  -1.12751
 Alpha  occ. eigenvalues --   -0.18010  -0.14019  -0.11173  -0.11015
 Alpha virt. eigenvalues --   -0.07738  -0.04937  -0.04413  -0.03357  -0.03109
 Alpha virt. eigenvalues --   -0.02389  -0.02315  -0.01598  -0.01150  -0.00473
 Alpha virt. eigenvalues --   -0.00121   0.00135   0.00281   0.00636   0.00715

  Beta  occ. eigenvalues --  -38.45283 -38.44467 -38.44410 -38.44383 -38.43641
  Beta  occ. eigenvalues --  -38.43427 -38.43240  -2.21033  -2.20255  -2.20183
  Beta  occ. eigenvalues --   -2.20180  -2.19559  -2.19318  -2.19086  -1.14729
  Beta  occ. eigenvalues --   -1.14698  -1.14664  -1.13924  -1.13911  -1.13885
  Beta  occ. eigenvalues --   -1.13876  -1.13866  -1.13865  -1.13840  -1.13835
  Beta  occ. eigenvalues --   -1.13819  -1.13367  -1.13246  -1.13138  -1.13027
  Beta  occ. eigenvalues --   -1.12974  -1.12923  -1.12790  -1.12751  -1.12703
  Beta  occ. eigenvalues --   -0.17302  -0.13923  -0.10863
  Beta virt. eigenvalues --   -0.07529  -0.07138  -0.04859  -0.03932  -0.03135
  Beta virt. eigenvalues --   -0.02835  -0.01897  -0.01555  -0.01419  -0.00762
  Beta virt. eigenvalues --   -0.00441  -0.00066   0.00171   0.00401   0.00735

 Mulliken charges and spin densities:
               1          2
     1  Na   0.449268  -0.047591
     2  Na  -0.275424   0.401033
     3  Na  -0.206354   0.441022
     4  Na  -0.239351  -0.006582
     5  Na  -0.132149   0.054095
     6  Na   0.407360  -0.044516
     7  Na  -0.003350   0.202539
 Sum of Mulliken charges =  -0.00000   1.00000

 Dipole moment (field-independent basis, Debye):
    X=             -0.3359    Y=             -0.0103    Z=              0.2009  Tot=              0.3915
 Quadrupole moment (field-independent basis, Debye-Ang):
   XX=            -52.7331   YY=            -76.1485   ZZ=            -68.7868
   XY=             -2.7304   XZ=             -5.6917   YZ=              1.4483

 Normal termination of Gaussian 16 at Mon Dec  4 03:00:03 2023.
