 Gaussian 16, Revision B.01,
 Gaussian 16:  ES64L-G16RevB.01 20-Dec-2017

 -------------------------
 #P B3LYP/6-311+g(d) force
 -------------------------

 -----
 DPGEN
 -----
 Symbolic Z-matrix:
 Charge =  0 Multiplicity = 2

                         Standard orientation:
 ---------------------------------------------------------------------
 Center     Atomic      Atomic             Coordinates (Angstroms)
 Number     Number       Type             X           Y           Z
 ---------------------------------------------------------------------
      1         11           0        2.918684   -1.784689   -0.793230
      2         11           0       -0.296077   -0.564118   -1.902376
      3         11           0        1.407633   -0.153405    2.067365
      4         11           0       -1.031469    2.305145    0.335774
      5         11           0        2.505506    1.859405   -0.479787
      6         11           0       -1.558830   -1.500817    1.440191
      7         11           0       -3.945447   -0.161522   -0.667937
 ---------------------------------------------------------------------

 SCF Done:  E(UB3LYP) =  -1136.12622116     A.U. after   24 cycles

 The electronic state is 2-A.
 Alpha  occ. eigenvalues --  -38.45076 -38.44808 -38.44243 -38.44176 -38.43770
 Alpha  occ. eigenvalues --  -38.43445 -38.42769  -2.20854  -2.20623  -2.20119
 Alpha  occ. eigenvalues --   -2.20026  -2.19592  -2.19246  -2.18574  -1.14530
 Alpha  occ. eigenvalues --   -1.14508  -1.14483  -1.14312  -1.14279  -1.14228
 Alpha  occ. eigenvalues --   -1.13837  -1.13756  -1.13725  -1.13696  -1.13669
 Alpha  occ. eigenvalues --   -1.13638  -1.13280  -1.13252  -1.13207  -1.12916
 Alpha  occ. eigenvalues --   -1.12904  -1.12894  -1.12272  -1.12260  -1.12183
 Alpha  occ. eigenvalues --   -0.18039  -0.13611  -0.11798  -0.10837
 Alpha virt. eigenvalues --   -0.06662  -0.05085  -0.04759  -0.03329  -0.02804
 Alpha virt. eigenvalues --   -0.02662  -0.02327  -0.00954  -0.00915  -0.00217
 Alpha virt. eigenvalues --    0.00184   0.00208   0.00226   0.00597   0.00730

  Beta  occ. eigenvalues --  -38.45071 -38.44756 -38.44167 -38.44120 -38.43760
  Beta  occ. eigenvalues --  -38.43442 -38.42768  -2.20845  -2.20528  -2.19984
  Beta  occ. eigenvalues --   -2.19926  -2.19574  -2.19242  -2.18575  -1.14519
  Beta  occ. eigenvalues --   -1.14502  -1.14477  -1.14249  -1.14212  -1.14154
  Beta  occ. eigenvalues --   -1.13731  -1.13660  -1.13637  -1.13623  -1.13596
  Beta  occ. eigenvalues --   -1.13550  -1.13260  -1.13239  -1.13195  -1.12906
  Beta  occ. eigenvalues --   -1.12896  -1.12894  -1.12273  -1.12246  -1.12186
  Beta  occ. eigenvalues --   -0.17263  -0.13496  -0.10660
  Beta virt. eigenvalues --   -0.07742  -0.06443  -0.05027  -0.04204  -0.02917
  Beta virt. eigenvalues --   -0.02257  -0.02097  -0.02033  -0.00848  -0.00540
  Beta virt. eigenvalues --   -0.00151   0.00209   0.00244   0.00374   0.00692

 Mulliken charges and spin densities:
               1          2
     1  Na   0.016995  -0.019429
     2  Na  -0.319738   0.447522
     3  Na   0.246798   0.352161
     4  Na  -0.452938   0.005490
     5  Na   0.153203   0.061191
     6  Na  -0.151342   0.103066
     7  Na   0.507021   0.049999
 Sum of Mulliken charges =  -0.00000   1.00000

 Dipole moment (field-independent basis, Debye):
    X=             -0.8979    Y=             -0.0904    Z=             -0.3373  Tot=              0.9634
 Quadrupole moment (field-independent basis, Debye-Ang):
   XX=            -49.1232   YY=            -77.9653   ZZ=            -67.7357
   XY=              0.6387   XZ=              1.5163   YZ=             -2.1848

 Normal termination of Gaussian 16 at Fri Dec  8 01:45:37 2023.
