 Gaussian 16, Revision B.01,
 Gaussian 16:  ES64L-G16RevB.01 20-Dec-2017

 -------------------------
 #P B3LYP/6-311+g(d) force
 -------------------------

 -----
 DPGEN
 -----
 Symbolic Z-matrix:
 Charge =  0 Multiplicity = 2

                         Standard orientation:
 ---------------------------------------------------------------------
 Center     Atomic      Atomic             Coordinates (Angstroms)
 Number     Number       Type             X           Y           Z
 ---------------------------------------------------------------------
      1         11           0        2.071051   -1.392556    1.883753
      2         11           0        1.289127   -0.990809   -1.760916
      3         11           0        0.876478    2.041352    0.320421
      4         11           0       -4.914106   -0.077648   -0.540513
      5         11           0       -2.395102    1.842155    0.578926
      6         11           0       -1.387369   -2.179971    0.176745
      7         11           0        4.459921    0.757477   -0.658417
 ---------------------------------------------------------------------

 SCF Done:  E(UB3LYP) =  -1136.11172387     A.U. after   34 cycles

 The electronic state is 2-A.
 Alpha  occ. eigenvalues --  -38.46477 -38.46103 -38.43974 -38.43836 -38.43507
 Alpha  occ. eigenvalues --  -38.43282 -38.43207  -2.22207  -2.21899  -2.19774
 Alpha  occ. eigenvalues --   -2.19633  -2.19285  -2.19125  -2.19032  -1.15907
 Alpha  occ. eigenvalues --   -1.15857  -1.15835  -1.15596  -1.15546  -1.15506
 Alpha  occ. eigenvalues --   -1.13422  -1.13419  -1.13394  -1.13298  -1.13282
 Alpha  occ. eigenvalues --   -1.13245  -1.12994  -1.12965  -1.12884  -1.12822
 Alpha  occ. eigenvalues --   -1.12797  -1.12763  -1.12708  -1.12686  -1.12652
 Alpha  occ. eigenvalues --   -0.17185  -0.13772  -0.11462  -0.10674
 Alpha virt. eigenvalues --   -0.07788  -0.05221  -0.04738  -0.03222  -0.02953
 Alpha virt. eigenvalues --   -0.02424  -0.02169  -0.01777  -0.01569  -0.00684
 Alpha virt. eigenvalues --   -0.00244   0.00043   0.00181   0.00401   0.00645

  Beta  occ. eigenvalues --  -38.46496 -38.46082 -38.43902 -38.43778 -38.43505
  Beta  occ. eigenvalues --  -38.43231 -38.43188  -2.22243  -2.21861  -2.19639
  Beta  occ. eigenvalues --   -2.19523  -2.19282  -2.19035  -2.19005  -1.15923
  Beta  occ. eigenvalues --   -1.15886  -1.15857  -1.15565  -1.15523  -1.15473
  Beta  occ. eigenvalues --   -1.13330  -1.13329  -1.13306  -1.13223  -1.13203
  Beta  occ. eigenvalues --   -1.13177  -1.12991  -1.12961  -1.12879  -1.12765
  Beta  occ. eigenvalues --   -1.12730  -1.12705  -1.12692  -1.12662  -1.12580
  Beta  occ. eigenvalues --   -0.16720  -0.13084  -0.11044
  Beta virt. eigenvalues --   -0.07757  -0.07245  -0.05070  -0.04092  -0.03008
  Beta virt. eigenvalues --   -0.02733  -0.02327  -0.01966  -0.01350  -0.00986
  Beta virt. eigenvalues --   -0.00391  -0.00156   0.00125   0.00302   0.00521

 Mulliken charges and spin densities:
               1          2
     1  Na   0.215479  -0.065942
     2  Na   0.220005   0.093896
     3  Na  -0.545100   0.134489
     4  Na   0.207646   0.409241
     5  Na  -0.211511  -0.035657
     6  Na  -0.225831   0.002988
     7  Na   0.339312   0.460985
 Sum of Mulliken charges =  -0.00000   1.00000

 Dipole moment (field-independent basis, Debye):
    X=              1.3930    Y=             -1.2518    Z=              0.3386  Tot=              1.9031
 Quadrupole moment (field-independent basis, Debye-Ang):
   XX=            -64.8153   YY=            -78.5538   ZZ=            -60.2656
   XY=             -0.6056   XZ=              5.4649   YZ=             -0.6690

 Normal termination of Gaussian 16 at Thu Dec  7 12:26:04 2023.
