 Gaussian 16, Revision B.01,
 Gaussian 16:  ES64L-G16RevB.01 20-Dec-2017

 -------------------------
 #P B3LYP/6-311+g(d) force
 -------------------------

 -----
 DPGEN
 -----
 Symbolic Z-matrix:
 Charge =  0 Multiplicity = 2

                         Standard orientation:
 ---------------------------------------------------------------------
 Center     Atomic      Atomic             Coordinates (Angstroms)
 Number     Number       Type             X           Y           Z
 ---------------------------------------------------------------------
      1         11           0        1.472227   -2.496888   -0.147502
      2         11           0       -2.076914   -2.835527    0.412086
      3         11           0       -3.668647    0.440619    0.048510
      4         11           0        3.967350   -0.385091   -0.272687
      5         11           0       -0.565052    3.489683   -0.264380
      6         11           0       -0.824240    0.050345   -0.715911
      7         11           0        1.695277    1.736858    0.939884
 ---------------------------------------------------------------------

 SCF Done:  E(UB3LYP) =  -1136.12475869     A.U. after   21 cycles

 The electronic state is 2-A.
 Alpha  occ. eigenvalues --  -38.44256 -38.44233 -38.43914 -38.43824 -38.43742
 Alpha  occ. eigenvalues --  -38.43443 -38.43179  -2.20134  -2.20058  -2.19883
 Alpha  occ. eigenvalues --   -2.19670  -2.19592  -2.19320  -2.19040  -1.13828
 Alpha  occ. eigenvalues --   -1.13813  -1.13780  -1.13738  -1.13731  -1.13690
 Alpha  occ. eigenvalues --   -1.13633  -1.13584  -1.13474  -1.13329  -1.13321
 Alpha  occ. eigenvalues --   -1.13294  -1.13284  -1.13266  -1.13217  -1.12978
 Alpha  occ. eigenvalues --   -1.12948  -1.12911  -1.12697  -1.12677  -1.12660
 Alpha  occ. eigenvalues --   -0.17604  -0.13879  -0.13320  -0.09771
 Alpha virt. eigenvalues --   -0.06294  -0.05599  -0.04661  -0.03031  -0.02615
 Alpha virt. eigenvalues --   -0.02340  -0.01833  -0.01628  -0.01004  -0.00300
 Alpha virt. eigenvalues --    0.00017   0.00194   0.00456   0.00535   0.00753

  Beta  occ. eigenvalues --  -38.44243 -38.44218 -38.43912 -38.43808 -38.43721
  Beta  occ. eigenvalues --  -38.43360 -38.43117  -2.20116  -2.20034  -2.19883
  Beta  occ. eigenvalues --   -2.19642  -2.19560  -2.19164  -2.18923  -1.13813
  Beta  occ. eigenvalues --   -1.13803  -1.13743  -1.13727  -1.13722  -1.13635
  Beta  occ. eigenvalues --   -1.13611  -1.13577  -1.13481  -1.13309  -1.13293
  Beta  occ. eigenvalues --   -1.13277  -1.13269  -1.13249  -1.13153  -1.12879
  Beta  occ. eigenvalues --   -1.12842  -1.12809  -1.12617  -1.12597  -1.12588
  Beta  occ. eigenvalues --   -0.17267  -0.13171  -0.12725
  Beta virt. eigenvalues --   -0.06455  -0.06249  -0.05366  -0.04479  -0.02526
  Beta virt. eigenvalues --   -0.02215  -0.02066  -0.01683  -0.01081  -0.00913
  Beta virt. eigenvalues --   -0.00221   0.00291   0.00396   0.00582   0.00721

 Mulliken charges and spin densities:
               1          2
     1  Na   0.156555   0.074072
     2  Na   0.489161   0.030655
     3  Na   0.534933   0.402591
     4  Na   0.179333   0.444245
     5  Na   0.200245   0.045265
     6  Na  -1.838993  -0.016115
     7  Na   0.278766   0.019287
 Sum of Mulliken charges =  -0.00000   1.00000

 Dipole moment (field-independent basis, Debye):
    X=             -0.4141    Y=              0.1700    Z=              0.3606  Tot=              0.5749
 Quadrupole moment (field-independent basis, Debye-Ang):
   XX=            -71.4230   YY=            -59.8906   ZZ=            -68.6050
   XY=              1.6414   XZ=             -1.6405   YZ=             -1.3679

 Normal termination of Gaussian 16 at Tue Nov 28 23:00:14 2023.
