 Gaussian 16, Revision B.01,
 Gaussian 16:  ES64L-G16RevB.01 20-Dec-2017

 -------------------------
 #P B3LYP/6-311+g(d) force
 -------------------------

 -----
 DPGEN
 -----
 Symbolic Z-matrix:
 Charge =  0 Multiplicity = 2

                         Standard orientation:
 ---------------------------------------------------------------------
 Center     Atomic      Atomic             Coordinates (Angstroms)
 Number     Number       Type             X           Y           Z
 ---------------------------------------------------------------------
      1         11           0        0.397416    0.755933    1.007113
      2         11           0       -1.745066   -1.859785    1.666781
      3         11           0       -0.464799   -1.750355   -1.238120
      4         11           0        2.862296   -1.421644   -0.935672
      5         11           0        3.668639    1.176469    0.588192
      6         11           0       -3.329612    0.155431   -0.485240
      7         11           0       -1.388874    2.943952   -0.603055
 ---------------------------------------------------------------------

 SCF Done:  E(UB3LYP) =  -1136.12152547     A.U. after   22 cycles

 The electronic state is 2-A.
 Alpha  occ. eigenvalues --  -38.45051 -38.44798 -38.44088 -38.43672 -38.43545
 Alpha  occ. eigenvalues --  -38.43460 -38.43069  -2.20897  -2.20630  -2.19946
 Alpha  occ. eigenvalues --   -2.19594  -2.19448  -2.19367  -2.18886  -1.14589
 Alpha  occ. eigenvalues --   -1.14549  -1.14518  -1.14306  -1.14285  -1.14270
 Alpha  occ. eigenvalues --   -1.13615  -1.13597  -1.13581  -1.13305  -1.13275
 Alpha  occ. eigenvalues --   -1.13219  -1.13136  -1.13089  -1.13086  -1.13046
 Alpha  occ. eigenvalues --   -1.13009  -1.12957  -1.12563  -1.12542  -1.12528
 Alpha  occ. eigenvalues --   -0.18164  -0.14172  -0.11925  -0.10557
 Alpha virt. eigenvalues --   -0.07011  -0.05385  -0.04172  -0.03488  -0.02841
 Alpha virt. eigenvalues --   -0.02501  -0.01880  -0.01271  -0.00545  -0.00385
 Alpha virt. eigenvalues --   -0.00125   0.00136   0.00354   0.00731   0.00804

  Beta  occ. eigenvalues --  -38.45034 -38.44782 -38.44057 -38.43644 -38.43488
  Beta  occ. eigenvalues --  -38.43421 -38.43071  -2.20867  -2.20601  -2.19891
  Beta  occ. eigenvalues --   -2.19545  -2.19340  -2.19298  -2.18891  -1.14555
  Beta  occ. eigenvalues --   -1.14529  -1.14496  -1.14290  -1.14258  -1.14252
  Beta  occ. eigenvalues --   -1.13568  -1.13562  -1.13534  -1.13257  -1.13233
  Beta  occ. eigenvalues --   -1.13190  -1.13072  -1.13017  -1.13008  -1.12999
  Beta  occ. eigenvalues --   -1.12956  -1.12889  -1.12571  -1.12545  -1.12521
  Beta  occ. eigenvalues --   -0.17601  -0.13915  -0.11616
  Beta virt. eigenvalues --   -0.06945  -0.06855  -0.04851  -0.04045  -0.03091
  Beta virt. eigenvalues --   -0.02495  -0.02201  -0.01249  -0.01074  -0.00317
  Beta virt. eigenvalues --   -0.00187  -0.00022   0.00236   0.00497   0.00804

 Mulliken charges and spin densities:
               1          2
     1  Na  -0.468465   0.329471
     2  Na   0.385841   0.090486
     3  Na  -0.068330   0.329176
     4  Na  -0.304932   0.049588
     5  Na   0.261713   0.068052
     6  Na   0.369368   0.148007
     7  Na  -0.175195  -0.014780
 Sum of Mulliken charges =  -0.00000   1.00000

 Dipole moment (field-independent basis, Debye):
    X=              0.2770    Y=             -0.1240    Z=              0.0265  Tot=              0.3046
 Quadrupole moment (field-independent basis, Debye-Ang):
   XX=            -49.0974   YY=            -71.7533   ZZ=            -73.0010
   XY=              4.1394   XZ=              0.6707   YZ=             -0.8411

 Normal termination of Gaussian 16 at Wed Nov 29 01:04:47 2023.
