 Gaussian 16, Revision B.01,
 Gaussian 16:  ES64L-G16RevB.01 20-Dec-2017

 -------------------------
 #P B3LYP/6-311+g(d) force
 -------------------------

 -----
 DPGEN
 -----
 Symbolic Z-matrix:
 Charge =  0 Multiplicity = 2

                         Standard orientation:
 ---------------------------------------------------------------------
 Center     Atomic      Atomic             Coordinates (Angstroms)
 Number     Number       Type             X           Y           Z
 ---------------------------------------------------------------------
      1         11           0       -2.138306    2.325635   -0.810028
      2         11           0        0.269266   -2.489258    0.639334
      3         11           0       -1.915995   -1.601695   -1.523158
      4         11           0        1.523833    0.247458   -1.727837
      5         11           0       -2.056909   -0.569896    1.955817
      6         11           0        3.646761   -0.126562    0.285392
      7         11           0        0.671350    2.214318    1.180481
 ---------------------------------------------------------------------

 SCF Done:  E(UB3LYP) =  -1136.12942203     A.U. after   18 cycles

 The electronic state is 2-A.
 Alpha  occ. eigenvalues --  -38.44245 -38.44158 -38.44091 -38.43875 -38.43774
 Alpha  occ. eigenvalues --  -38.43569 -38.43435  -2.20079  -2.19994  -2.19965
 Alpha  occ. eigenvalues --   -2.19720  -2.19581  -2.19355  -2.19292  -1.13828
 Alpha  occ. eigenvalues --   -1.13765  -1.13719  -1.13688  -1.13650  -1.13627
 Alpha  occ. eigenvalues --   -1.13610  -1.13584  -1.13522  -1.13403  -1.13361
 Alpha  occ. eigenvalues --   -1.13358  -1.13263  -1.13256  -1.13197  -1.13020
 Alpha  occ. eigenvalues --   -1.13009  -1.12998  -1.12974  -1.12964  -1.12903
 Alpha  occ. eigenvalues --   -0.17789  -0.13156  -0.11959  -0.11219
 Alpha virt. eigenvalues --   -0.05648  -0.04921  -0.04897  -0.03705  -0.03347
 Alpha virt. eigenvalues --   -0.02834  -0.01496  -0.00744  -0.00581  -0.00134
 Alpha virt. eigenvalues --    0.00098   0.00289   0.00457   0.00725   0.00760

  Beta  occ. eigenvalues --  -38.44187 -38.44158 -38.44059 -38.43836 -38.43756
  Beta  occ. eigenvalues --  -38.43558 -38.43421  -2.19991  -2.19972  -2.19909
  Beta  occ. eigenvalues --   -2.19648  -2.19548  -2.19336  -2.19270  -1.13808
  Beta  occ. eigenvalues --   -1.13685  -1.13647  -1.13635  -1.13622  -1.13613
  Beta  occ. eigenvalues --   -1.13583  -1.13549  -1.13488  -1.13357  -1.13313
  Beta  occ. eigenvalues --   -1.13292  -1.13244  -1.13221  -1.13176  -1.13006
  Beta  occ. eigenvalues --   -1.12994  -1.12979  -1.12960  -1.12925  -1.12888
  Beta  occ. eigenvalues --   -0.17093  -0.12976  -0.11820
  Beta virt. eigenvalues --   -0.07428  -0.05505  -0.04775  -0.04358  -0.03427
  Beta virt. eigenvalues --   -0.02776  -0.01986  -0.01391  -0.00702  -0.00184
  Beta virt. eigenvalues --   -0.00024   0.00113   0.00382   0.00575   0.00820

 Mulliken charges and spin densities:
               1          2
     1  Na   0.034265   0.029805
     2  Na  -0.020991   0.308696
     3  Na   0.136218   0.268030
     4  Na  -0.310156   0.080494
     5  Na  -0.045798   0.107175
     6  Na   0.366221  -0.026775
     7  Na  -0.159758   0.232575
 Sum of Mulliken charges =  -0.00000   1.00000

 Dipole moment (field-independent basis, Debye):
    X=              0.2529    Y=             -0.0997    Z=              0.1964  Tot=              0.3353
 Quadrupole moment (field-independent basis, Debye-Ang):
   XX=            -58.0478   YY=            -72.1253   ZZ=            -66.5136
   XY=             -0.7156   XZ=              3.4025   YZ=             -0.3867

 Normal termination of Gaussian 16 at Sun Dec  3 16:04:19 2023.
