 Gaussian 16, Revision B.01,
 Gaussian 16:  ES64L-G16RevB.01 20-Dec-2017

 -------------------------
 #P B3LYP/6-311+g(d) force
 -------------------------

 -----
 DPGEN
 -----
 Symbolic Z-matrix:
 Charge =  0 Multiplicity = 2

                         Standard orientation:
 ---------------------------------------------------------------------
 Center     Atomic      Atomic             Coordinates (Angstroms)
 Number     Number       Type             X           Y           Z
 ---------------------------------------------------------------------
      1         11           0       -1.146351   -2.768547   -0.408622
      2         11           0       -0.197439   -0.633907    2.028461
      3         11           0       -0.873267    2.819791    0.006273
      4         11           0       -3.295139    0.318531   -0.124179
      5         11           0        2.434253    1.852311    0.109307
      6         11           0        0.427511    0.038903   -1.589246
      7         11           0        2.650432   -1.627084   -0.021995
 ---------------------------------------------------------------------

 SCF Done:  E(UB3LYP) =  -1136.13680331     A.U. after   19 cycles

 The electronic state is 2-A.
 Alpha  occ. eigenvalues --  -38.44290 -38.44046 -38.43739 -38.43736 -38.43442
 Alpha  occ. eigenvalues --  -38.43346 -38.43101  -2.20076  -2.19893  -2.19597
 Alpha  occ. eigenvalues --   -2.19568  -2.19316  -2.19181  -2.19086  -1.13750
 Alpha  occ. eigenvalues --   -1.13736  -1.13718  -1.13594  -1.13555  -1.13520
 Alpha  occ. eigenvalues --   -1.13299  -1.13254  -1.13250  -1.13247  -1.13230
 Alpha  occ. eigenvalues --   -1.13190  -1.12980  -1.12945  -1.12931  -1.12869
 Alpha  occ. eigenvalues --   -1.12846  -1.12817  -1.12764  -1.12713  -1.12711
 Alpha  occ. eigenvalues --   -0.18457  -0.12976  -0.12553  -0.10463
 Alpha virt. eigenvalues --   -0.05864  -0.05300  -0.04769  -0.03137  -0.02860
 Alpha virt. eigenvalues --   -0.02355  -0.01593  -0.01215  -0.00600  -0.00421
 Alpha virt. eigenvalues --   -0.00007   0.00349   0.00789   0.00813   0.00883

  Beta  occ. eigenvalues --  -38.44290 -38.44040 -38.43735 -38.43725 -38.43351
  Beta  occ. eigenvalues --  -38.43344 -38.43041  -2.20078  -2.19886  -2.19594
  Beta  occ. eigenvalues --   -2.19552  -2.19180  -2.19149  -2.18976  -1.13740
  Beta  occ. eigenvalues --   -1.13735  -1.13722  -1.13585  -1.13527  -1.13518
  Beta  occ. eigenvalues --   -1.13293  -1.13242  -1.13236  -1.13228  -1.13207
  Beta  occ. eigenvalues --   -1.13183  -1.12872  -1.12862  -1.12832  -1.12826
  Beta  occ. eigenvalues --   -1.12819  -1.12811  -1.12687  -1.12635  -1.12630
  Beta  occ. eigenvalues --   -0.17752  -0.12779  -0.12326
  Beta virt. eigenvalues --   -0.06570  -0.05848  -0.05271  -0.04694  -0.02371
  Beta virt. eigenvalues --   -0.02128  -0.01517  -0.01313  -0.01141  -0.00659
  Beta virt. eigenvalues --   -0.00455   0.00152   0.00389   0.00816   0.00841

 Mulliken charges and spin densities:
               1          2
     1  Na   0.162389  -0.098093
     2  Na  -0.518776   0.772419
     3  Na  -0.010000  -0.072942
     4  Na   0.011518  -0.052636
     5  Na   0.132628   0.009727
     6  Na  -0.145176   0.477086
     7  Na   0.367417  -0.035561
 Sum of Mulliken charges =  -0.00000   1.00000

 Dipole moment (field-independent basis, Debye):
    X=             -0.0190    Y=             -0.2227    Z=              0.0967  Tot=              0.2435
 Quadrupole moment (field-independent basis, Debye-Ang):
   XX=            -55.2778   YY=            -61.9775   ZZ=            -75.7247
   XY=              0.0063   XZ=              1.2913   YZ=              1.4598

 Normal termination of Gaussian 16 at Fri Dec  8 06:27:12 2023.
