 Gaussian 16, Revision B.01,
 Gaussian 16:  ES64L-G16RevB.01 20-Dec-2017

 -------------------------
 #P B3LYP/6-311+g(d) force
 -------------------------

 -----
 DPGEN
 -----
 Symbolic Z-matrix:
 Charge =  0 Multiplicity = 2

                         Standard orientation:
 ---------------------------------------------------------------------
 Center     Atomic      Atomic             Coordinates (Angstroms)
 Number     Number       Type             X           Y           Z
 ---------------------------------------------------------------------
      1         11           0       -1.324194    1.581524    1.474494
      2         11           0        0.547191    2.334118   -1.083622
      3         11           0        3.634712   -1.582978   -0.493940
      4         11           0        2.605444    0.572802    1.471431
      5         11           0        0.149176   -1.052893   -1.111554
      6         11           0       -2.788574    0.117999   -1.486080
      7         11           0       -2.823755   -1.970573    1.229272
 ---------------------------------------------------------------------

 SCF Done:  E(UB3LYP) =  -1136.12682605     A.U. after   22 cycles

 The electronic state is 2-A.
 Alpha  occ. eigenvalues --  -38.44486 -38.44398 -38.43863 -38.43837 -38.43697
 Alpha  occ. eigenvalues --  -38.43616 -38.43113  -2.20351  -2.20236  -2.19732
 Alpha  occ. eigenvalues --   -2.19669  -2.19521  -2.19471  -2.18973  -1.14062
 Alpha  occ. eigenvalues --   -1.14006  -1.13957  -1.13916  -1.13905  -1.13861
 Alpha  occ. eigenvalues --   -1.13415  -1.13405  -1.13352  -1.13333  -1.13320
 Alpha  occ. eigenvalues --   -1.13294  -1.13193  -1.13170  -1.13160  -1.13150
 Alpha  occ. eigenvalues --   -1.13140  -1.13086  -1.12655  -1.12621  -1.12605
 Alpha  occ. eigenvalues --   -0.18016  -0.13847  -0.11378  -0.11078
 Alpha virt. eigenvalues --   -0.05956  -0.05387  -0.05010  -0.03134  -0.02809
 Alpha virt. eigenvalues --   -0.02527  -0.02000  -0.01010  -0.00811  -0.00220
 Alpha virt. eigenvalues --    0.00082   0.00258   0.00268   0.00487   0.00732

  Beta  occ. eigenvalues --  -38.44461 -38.44375 -38.43827 -38.43791 -38.43699
  Beta  occ. eigenvalues --  -38.43576 -38.43101  -2.20310  -2.20191  -2.19651
  Beta  occ. eigenvalues --   -2.19602  -2.19525  -2.19397  -2.18953  -1.14022
  Beta  occ. eigenvalues --   -1.13976  -1.13916  -1.13882  -1.13875  -1.13832
  Beta  occ. eigenvalues --   -1.13357  -1.13327  -1.13300  -1.13288  -1.13265
  Beta  occ. eigenvalues --   -1.13253  -1.13191  -1.13173  -1.13159  -1.13101
  Beta  occ. eigenvalues --   -1.13082  -1.13030  -1.12640  -1.12611  -1.12570
  Beta  occ. eigenvalues --   -0.17311  -0.13621  -0.11227
  Beta virt. eigenvalues --   -0.07324  -0.05793  -0.05071  -0.04524  -0.02872
  Beta virt. eigenvalues --   -0.02431  -0.02005  -0.01617  -0.00871  -0.00456
  Beta virt. eigenvalues --   -0.00086   0.00202   0.00312   0.00381   0.00582

 Mulliken charges and spin densities:
               1          2
     1  Na  -0.276663   0.431735
     2  Na   0.278618  -0.013880
     3  Na   0.175044  -0.036337
     4  Na  -0.122622   0.054819
     5  Na  -1.049968   0.437005
     6  Na   1.152141  -0.014921
     7  Na  -0.156549   0.141579
 Sum of Mulliken charges =  -0.00000   1.00000

 Dipole moment (field-independent basis, Debye):
    X=             -0.0911    Y=              0.1878    Z=             -0.0571  Tot=              0.2164
 Quadrupole moment (field-independent basis, Debye-Ang):
   XX=            -57.6926   YY=            -71.6939   ZZ=            -66.5675
   XY=             -0.6635   XZ=              0.9765   YZ=             -2.2383

 Normal termination of Gaussian 16 at Tue Dec  5 15:45:42 2023.
