 Gaussian 16, Revision B.01,
 Gaussian 16:  ES64L-G16RevB.01 20-Dec-2017

 -------------------------
 #P B3LYP/6-311+g(d) force
 -------------------------

 -----
 DPGEN
 -----
 Symbolic Z-matrix:
 Charge =  0 Multiplicity = 2

                         Standard orientation:
 ---------------------------------------------------------------------
 Center     Atomic      Atomic             Coordinates (Angstroms)
 Number     Number       Type             X           Y           Z
 ---------------------------------------------------------------------
      1         11           0       -2.724909    2.276524   -0.462173
      2         11           0       -3.639765   -0.529736    0.692798
      3         11           0        4.003015    0.696996    0.133807
      4         11           0        1.420146   -0.685047    1.867962
      5         11           0        0.592093    2.862642   -0.339395
      6         11           0       -0.997383   -2.980619   -0.351629
      7         11           0        1.346803   -1.640760   -1.541370
 ---------------------------------------------------------------------

 SCF Done:  E(UB3LYP) =  -1136.11554451     A.U. after   20 cycles

 The electronic state is 2-A.
 Alpha  occ. eigenvalues --  -38.45566 -38.44887 -38.44153 -38.44071 -38.43946
 Alpha  occ. eigenvalues --  -38.43598 -38.43587  -2.21364  -2.20672  -2.20031
 Alpha  occ. eigenvalues --   -2.19855  -2.19758  -2.19431  -2.19410  -1.15038
 Alpha  occ. eigenvalues --   -1.15025  -1.14977  -1.14343  -1.14329  -1.14305
 Alpha  occ. eigenvalues --   -1.13756  -1.13668  -1.13650  -1.13529  -1.13523
 Alpha  occ. eigenvalues --   -1.13469  -1.13437  -1.13411  -1.13385  -1.13113
 Alpha  occ. eigenvalues --   -1.13076  -1.13075  -1.13071  -1.13062  -1.13060
 Alpha  occ. eigenvalues --   -0.17008  -0.13609  -0.12757  -0.10257
 Alpha virt. eigenvalues --   -0.06993  -0.05847  -0.04562  -0.03276  -0.02990
 Alpha virt. eigenvalues --   -0.02526  -0.02100  -0.01543  -0.00962  -0.00581
 Alpha virt. eigenvalues --   -0.00303   0.00097   0.00221   0.00548   0.00623

  Beta  occ. eigenvalues --  -38.45530 -38.44875 -38.44099 -38.44024 -38.43896
  Beta  occ. eigenvalues --  -38.43599 -38.43579  -2.21296  -2.20653  -2.19932
  Beta  occ. eigenvalues --   -2.19769  -2.19664  -2.19422  -2.19416  -1.14991
  Beta  occ. eigenvalues --   -1.14978  -1.14925  -1.14328  -1.14304  -1.14295
  Beta  occ. eigenvalues --   -1.13692  -1.13599  -1.13575  -1.13472  -1.13462
  Beta  occ. eigenvalues --   -1.13405  -1.13381  -1.13345  -1.13322  -1.13092
  Beta  occ. eigenvalues --   -1.13085  -1.13078  -1.13076  -1.13036  -1.13029
  Beta  occ. eigenvalues --   -0.16579  -0.13166  -0.12206
  Beta virt. eigenvalues --   -0.07034  -0.06638  -0.05793  -0.04194  -0.02886
  Beta virt. eigenvalues --   -0.02521  -0.02228  -0.01674  -0.01398  -0.00861
  Beta virt. eigenvalues --   -0.00488  -0.00007   0.00202   0.00426   0.00686

 Mulliken charges and spin densities:
               1          2
     1  Na   0.356380  -0.111907
     2  Na  -0.259101   0.300358
     3  Na   0.390166   0.140753
     4  Na  -0.030364   0.178473
     5  Na  -0.483686   0.243775
     6  Na   0.249365  -0.080866
     7  Na  -0.222759   0.329414
 Sum of Mulliken charges =  -0.00000   1.00000

 Dipole moment (field-independent basis, Debye):
    X=              1.6028    Y=             -0.2570    Z=              0.2053  Tot=              1.6362
 Quadrupole moment (field-independent basis, Debye-Ang):
   XX=            -59.4926   YY=            -72.3066   ZZ=            -69.8490
   XY=              3.5276   XZ=             -2.8909   YZ=             -1.8007

 Normal termination of Gaussian 16 at Mon Dec  4 05:05:57 2023.
