 Gaussian 16, Revision B.01,
 Gaussian 16:  ES64L-G16RevB.01 20-Dec-2017

 -------------------------
 #P B3LYP/6-311+g(d) force
 -------------------------

 -----
 DPGEN
 -----
 Symbolic Z-matrix:
 Charge =  0 Multiplicity = 2

                         Standard orientation:
 ---------------------------------------------------------------------
 Center     Atomic      Atomic             Coordinates (Angstroms)
 Number     Number       Type             X           Y           Z
 ---------------------------------------------------------------------
      1         11           0        2.809645    1.440142   -0.421348
      2         11           0       -1.882228   -2.369181    0.101813
      3         11           0        0.455798    0.021542    1.849745
      4         11           0       -0.303122    3.032179    0.121199
      5         11           0       -0.202291   -0.125999   -1.299415
      6         11           0       -3.374737    0.448122   -0.201842
      7         11           0        2.496937   -2.446806   -0.150153
 ---------------------------------------------------------------------

 SCF Done:  E(UB3LYP) =  -1136.13187266     A.U. after   20 cycles

 The electronic state is 2-A.
 Alpha  occ. eigenvalues --  -38.44324 -38.44252 -38.44110 -38.43985 -38.43391
 Alpha  occ. eigenvalues --  -38.43136 -38.42898  -2.20152  -2.20078  -2.19876
 Alpha  occ. eigenvalues --   -2.19847  -2.19221  -2.19138  -2.18820  -1.13834
 Alpha  occ. eigenvalues --   -1.13819  -1.13791  -1.13757  -1.13742  -1.13699
 Alpha  occ. eigenvalues --   -1.13558  -1.13553  -1.13529  -1.13519  -1.13500
 Alpha  occ. eigenvalues --   -1.13460  -1.12911  -1.12889  -1.12869  -1.12857
 Alpha  occ. eigenvalues --   -1.12779  -1.12742  -1.12510  -1.12440  -1.12413
 Alpha  occ. eigenvalues --   -0.18389  -0.13342  -0.12204  -0.09923
 Alpha virt. eigenvalues --   -0.05857  -0.05770  -0.04848  -0.03022  -0.02479
 Alpha virt. eigenvalues --   -0.01914  -0.01867  -0.01506  -0.00787  -0.00566
 Alpha virt. eigenvalues --    0.00003   0.00288   0.00695   0.00754   0.00805

  Beta  occ. eigenvalues --  -38.44320 -38.44236 -38.44108 -38.43980 -38.43386
  Beta  occ. eigenvalues --  -38.43097 -38.42804  -2.20146  -2.20050  -2.19876
  Beta  occ. eigenvalues --   -2.19841  -2.19214  -2.19069  -2.18647  -1.13833
  Beta  occ. eigenvalues --   -1.13806  -1.13781  -1.13731  -1.13714  -1.13681
  Beta  occ. eigenvalues --   -1.13553  -1.13544  -1.13524  -1.13520  -1.13484
  Beta  occ. eigenvalues --   -1.13448  -1.12902  -1.12858  -1.12857  -1.12804
  Beta  occ. eigenvalues --   -1.12732  -1.12691  -1.12395  -1.12319  -1.12287
  Beta  occ. eigenvalues --   -0.17711  -0.13084  -0.12002
  Beta virt. eigenvalues --   -0.06149  -0.05768  -0.05698  -0.04822  -0.02308
  Beta virt. eigenvalues --   -0.01833  -0.01779  -0.01475  -0.00914  -0.00798
  Beta virt. eigenvalues --   -0.00559   0.00166   0.00355   0.00760   0.00770

 Mulliken charges and spin densities:
               1          2
     1  Na   0.076695   0.079915
     2  Na   0.280890  -0.026678
     3  Na  -0.239064   0.671194
     4  Na   0.126831  -0.003940
     5  Na  -0.485171   0.294605
     6  Na   0.236749   0.019396
     7  Na   0.003069  -0.034493
 Sum of Mulliken charges =  -0.00000   1.00000

 Dipole moment (field-independent basis, Debye):
    X=             -0.1016    Y=             -0.0742    Z=              0.1210  Tot=              0.1745
 Quadrupole moment (field-independent basis, Debye-Ang):
   XX=            -52.8192   YY=            -59.4877   ZZ=            -78.2890
   XY=             -0.9012   XZ=             -1.1021   YZ=             -0.3120

 Normal termination of Gaussian 16 at Fri Dec  8 05:17:43 2023.
