 Gaussian 16, Revision B.01,
 Gaussian 16:  ES64L-G16RevB.01 20-Dec-2017

 -------------------------
 #P B3LYP/6-311+g(d) force
 -------------------------

 -----
 DPGEN
 -----
 Symbolic Z-matrix:
 Charge =  0 Multiplicity = 2

                         Standard orientation:
 ---------------------------------------------------------------------
 Center     Atomic      Atomic             Coordinates (Angstroms)
 Number     Number       Type             X           Y           Z
 ---------------------------------------------------------------------
      1         11           0       -1.729632    1.201258   -0.786161
      2         11           0        1.902515    1.168364    0.539175
      3         11           0        1.166277   -2.268563   -0.638500
      4         11           0       -1.380785   -1.364120    1.361516
      5         11           0       -4.166190   -1.251718   -0.279017
      6         11           0        4.115618   -1.200379   -0.224983
      7         11           0        0.092197    3.715158    0.027969
 ---------------------------------------------------------------------

 SCF Done:  E(UB3LYP) =  -1136.12586376     A.U. after   20 cycles

 The electronic state is 2-A.
 Alpha  occ. eigenvalues --  -38.44328 -38.44138 -38.44138 -38.43681 -38.43629
 Alpha  occ. eigenvalues --  -38.43481 -38.43247  -2.20198  -2.20009  -2.19999
 Alpha  occ. eigenvalues --   -2.19581  -2.19482  -2.19330  -2.19116  -1.13903
 Alpha  occ. eigenvalues --   -1.13894  -1.13809  -1.13709  -1.13694  -1.13675
 Alpha  occ. eigenvalues --   -1.13664  -1.13658  -1.13633  -1.13253  -1.13239
 Alpha  occ. eigenvalues --   -1.13224  -1.13150  -1.13125  -1.13122  -1.12982
 Alpha  occ. eigenvalues --   -1.12969  -1.12944  -1.12770  -1.12750  -1.12745
 Alpha  occ. eigenvalues --   -0.17641  -0.13969  -0.13045  -0.09959
 Alpha virt. eigenvalues --   -0.06432  -0.05379  -0.04836  -0.03308  -0.02799
 Alpha virt. eigenvalues --   -0.02405  -0.01699  -0.01184  -0.00859  -0.00701
 Alpha virt. eigenvalues --   -0.00204  -0.00016   0.00446   0.00601   0.00635

  Beta  occ. eigenvalues --  -38.44318 -38.44130 -38.44115 -38.43641 -38.43632
  Beta  occ. eigenvalues --  -38.43420 -38.43191  -2.20183  -2.19996  -2.19964
  Beta  occ. eigenvalues --   -2.19513  -2.19488  -2.19216  -2.19011  -1.13897
  Beta  occ. eigenvalues --   -1.13875  -1.13784  -1.13704  -1.13674  -1.13657
  Beta  occ. eigenvalues --   -1.13632  -1.13622  -1.13593  -1.13208  -1.13199
  Beta  occ. eigenvalues --   -1.13155  -1.13142  -1.13129  -1.13124  -1.12902
  Beta  occ. eigenvalues --   -1.12885  -1.12874  -1.12696  -1.12683  -1.12675
  Beta  occ. eigenvalues --   -0.17104  -0.13394  -0.12835
  Beta virt. eigenvalues --   -0.06375  -0.06289  -0.05207  -0.04531  -0.02813
  Beta virt. eigenvalues --   -0.02465  -0.02257  -0.01521  -0.00951  -0.00687
  Beta virt. eigenvalues --   -0.00304   0.00175   0.00222   0.00578   0.00679

 Mulliken charges and spin densities:
               1          2
     1  Na  -0.806646   0.166215
     2  Na  -0.988638   0.126282
     3  Na  -0.376786  -0.016550
     4  Na   0.341347   0.157290
     5  Na   0.298887   0.293072
     6  Na   0.649752   0.326867
     7  Na   0.882084  -0.053176
 Sum of Mulliken charges =  -0.00000   1.00000

 Dipole moment (field-independent basis, Debye):
    X=             -0.0682    Y=              0.0100    Z=              0.1922  Tot=              0.2042
 Quadrupole moment (field-independent basis, Debye-Ang):
   XX=            -73.8509   YY=            -61.9565   ZZ=            -66.7704
   XY=              1.3583   XZ=              0.5957   YZ=              1.9442

 Normal termination of Gaussian 16 at Tue Nov 28 22:20:15 2023.
