 Gaussian 16, Revision B.01,
 Gaussian 16:  ES64L-G16RevB.01 20-Dec-2017

 -------------------------
 #P B3LYP/6-311+g(d) force
 -------------------------

 -----
 DPGEN
 -----
 Symbolic Z-matrix:
 Charge =  0 Multiplicity = 2

                         Standard orientation:
 ---------------------------------------------------------------------
 Center     Atomic      Atomic             Coordinates (Angstroms)
 Number     Number       Type             X           Y           Z
 ---------------------------------------------------------------------
      1         11           0       -1.598416    0.554215    2.078374
      2         11           0       -4.245092   -1.888925   -0.450782
      3         11           0        5.235573   -0.865711   -0.250994
      4         11           0       -3.616079    1.578402   -0.449383
      5         11           0       -0.556652    0.094336   -1.326447
      6         11           0        3.005737    1.806322   -0.283873
      7         11           0        1.774931   -1.278638    0.683105
 ---------------------------------------------------------------------

 SCF Done:  E(UB3LYP) =  -1136.10326685     A.U. after   28 cycles

 The electronic state is 2-A.
 Alpha  occ. eigenvalues --  -38.45920 -38.44364 -38.44348 -38.44046 -38.43752
 Alpha  occ. eigenvalues --  -38.43717 -38.43130  -2.21704  -2.20203  -2.20185
 Alpha  occ. eigenvalues --   -2.19911  -2.19588  -2.19502  -2.18921  -1.15397
 Alpha  occ. eigenvalues --   -1.15356  -1.15305  -1.13899  -1.13878  -1.13864
 Alpha  occ. eigenvalues --   -1.13845  -1.13805  -1.13790  -1.13601  -1.13565
 Alpha  occ. eigenvalues --   -1.13512  -1.13279  -1.13249  -1.13216  -1.13168
 Alpha  occ. eigenvalues --   -1.13149  -1.13105  -1.12602  -1.12591  -1.12558
 Alpha  occ. eigenvalues --   -0.17074  -0.14506  -0.10520  -0.10057
 Alpha virt. eigenvalues --   -0.07540  -0.06364  -0.04421  -0.03485  -0.02737
 Alpha virt. eigenvalues --   -0.02362  -0.01923  -0.01489  -0.01255  -0.00875
 Alpha virt. eigenvalues --   -0.00809   0.00063   0.00144   0.00316   0.00423

  Beta  occ. eigenvalues --  -38.45902 -38.44336 -38.44312 -38.44005 -38.43745
  Beta  occ. eigenvalues --  -38.43653 -38.43144  -2.21671  -2.20182  -2.20090
  Beta  occ. eigenvalues --   -2.19838  -2.19578  -2.19383  -2.18947  -1.15373
  Beta  occ. eigenvalues --   -1.15332  -1.15283  -1.13871  -1.13865  -1.13798
  Beta  occ. eigenvalues --   -1.13789  -1.13782  -1.13723  -1.13536  -1.13509
  Beta  occ. eigenvalues --   -1.13469  -1.13275  -1.13240  -1.13182  -1.13086
  Beta  occ. eigenvalues --   -1.13061  -1.13032  -1.12620  -1.12609  -1.12572
  Beta  occ. eigenvalues --   -0.16606  -0.14193  -0.10271
  Beta virt. eigenvalues --   -0.07489  -0.06449  -0.05944  -0.04380  -0.03117
  Beta virt. eigenvalues --   -0.02358  -0.02160  -0.01594  -0.01235  -0.00853
  Beta virt. eigenvalues --   -0.00743  -0.00536   0.00153   0.00306   0.00369

 Mulliken charges and spin densities:
               1          2
     1  Na  -0.095893   0.308424
     2  Na  -0.159876   0.264568
     3  Na   0.216839  -0.058362
     4  Na   0.440444   0.053261
     5  Na  -0.456000   0.468629
     6  Na   0.134122   0.133030
     7  Na  -0.079636  -0.169550
 Sum of Mulliken charges =  -0.00000   1.00000

 Dipole moment (field-independent basis, Debye):
    X=              0.7931    Y=              0.6416    Z=              0.2518  Tot=              1.0508
 Quadrupole moment (field-independent basis, Debye-Ang):
   XX=            -85.1899   YY=            -61.2995   ZZ=            -67.6372
   XY=             -0.8969   XZ=             -1.7396   YZ=             -9.8628

 Normal termination of Gaussian 16 at Sun Dec  3 12:31:13 2023.
