 Gaussian 16, Revision B.01,
 Gaussian 16:  ES64L-G16RevB.01 20-Dec-2017

 -------------------------
 #P B3LYP/6-311+g(d) force
 -------------------------

 -----
 DPGEN
 -----
 Symbolic Z-matrix:
 Charge =  0 Multiplicity = 2

                         Standard orientation:
 ---------------------------------------------------------------------
 Center     Atomic      Atomic             Coordinates (Angstroms)
 Number     Number       Type             X           Y           Z
 ---------------------------------------------------------------------
      1         11           0       -3.119761    0.471074    1.714258
      2         11           0       -3.335138   -1.364476   -1.186354
      3         11           0        3.039974    0.522788   -1.487158
      4         11           0        3.096618   -1.500485    1.401148
      5         11           0        0.385703   -1.540553   -0.014285
      6         11           0       -0.713213    1.201607   -1.365084
      7         11           0        0.645817    2.210046    0.937474
 ---------------------------------------------------------------------

 SCF Done:  E(UB3LYP) =  -1136.11746352     A.U. after   24 cycles

 The electronic state is 2-A.
 Alpha  occ. eigenvalues --  -38.45498 -38.44956 -38.44036 -38.44006 -38.43251
 Alpha  occ. eigenvalues --  -38.43244 -38.43121  -2.21296  -2.20740  -2.19928
 Alpha  occ. eigenvalues --   -2.19814  -2.19125  -2.19103  -2.19070  -1.14991
 Alpha  occ. eigenvalues --   -1.14942  -1.14906  -1.14413  -1.14371  -1.14370
 Alpha  occ. eigenvalues --   -1.13649  -1.13616  -1.13546  -1.13480  -1.13471
 Alpha  occ. eigenvalues --   -1.13448  -1.13026  -1.12792  -1.12782  -1.12749
 Alpha  occ. eigenvalues --   -1.12740  -1.12728  -1.12722  -1.12666  -1.12604
 Alpha  occ. eigenvalues --   -0.18044  -0.13970  -0.11224  -0.10746
 Alpha virt. eigenvalues --   -0.06864  -0.05511  -0.04556  -0.03051  -0.02770
 Alpha virt. eigenvalues --   -0.02500  -0.02186  -0.01304  -0.00823  -0.00195
 Alpha virt. eigenvalues --    0.00096   0.00174   0.00296   0.00417   0.00608

  Beta  occ. eigenvalues --  -38.45481 -38.44907 -38.44016 -38.43986 -38.43231
  Beta  occ. eigenvalues --  -38.43228 -38.43097  -2.21265  -2.20648  -2.19897
  Beta  occ. eigenvalues --   -2.19778  -2.19100  -2.19061  -2.19032  -1.14960
  Beta  occ. eigenvalues --   -1.14923  -1.14886  -1.14349  -1.14312  -1.14302
  Beta  occ. eigenvalues --   -1.13608  -1.13574  -1.13532  -1.13456  -1.13435
  Beta  occ. eigenvalues --   -1.13425  -1.13006  -1.12767  -1.12750  -1.12724
  Beta  occ. eigenvalues --   -1.12710  -1.12702  -1.12693  -1.12623  -1.12576
  Beta  occ. eigenvalues --   -0.17432  -0.13721  -0.11000
  Beta virt. eigenvalues --   -0.07223  -0.06611  -0.04847  -0.04362  -0.02876
  Beta virt. eigenvalues --   -0.02469  -0.02209  -0.01546  -0.00847  -0.00684
  Beta virt. eigenvalues --   -0.00053   0.00125   0.00309   0.00375   0.00570

 Mulliken charges and spin densities:
               1          2
     1  Na   0.033701   0.193926
     2  Na   0.460401  -0.052082
     3  Na   0.332191  -0.049642
     4  Na   0.810654  -0.041742
     5  Na  -1.479450   0.303943
     6  Na   0.180870   0.273610
     7  Na  -0.338365   0.371988
 Sum of Mulliken charges =  -0.00000   1.00000

 Dipole moment (field-independent basis, Debye):
    X=              0.2688    Y=              0.4075    Z=             -0.3310  Tot=              0.5898
 Quadrupole moment (field-independent basis, Debye-Ang):
   XX=            -50.8696   YY=            -77.9855   ZZ=            -65.5404
   XY=              4.4091   XZ=             -3.0932   YZ=              1.6990

 Normal termination of Gaussian 16 at Tue Dec  5 22:35:26 2023.
