 Gaussian 16, Revision B.01,
 Gaussian 16:  ES64L-G16RevB.01 20-Dec-2017

 -------------------------
 #P B3LYP/6-311+g(d) force
 -------------------------

 -----
 DPGEN
 -----
 Symbolic Z-matrix:
 Charge =  0 Multiplicity = 2

                         Standard orientation:
 ---------------------------------------------------------------------
 Center     Atomic      Atomic             Coordinates (Angstroms)
 Number     Number       Type             X           Y           Z
 ---------------------------------------------------------------------
      1         11           0       -0.678492    0.964183    0.153144
      2         11           0        0.846190    4.074429    0.077586
      3         11           0        5.311977   -1.993583    0.256409
      4         11           0        3.289508    0.388459   -0.442943
      5         11           0       -1.140723   -2.454506   -0.187776
      6         11           0       -3.959613   -0.436178   -1.533388
      7         11           0       -3.668848   -0.542805    1.676968
 ---------------------------------------------------------------------

 SCF Done:  E(UB3LYP) =  -1136.10720441     A.U. after   25 cycles

 The electronic state is 2-A.
 Alpha  occ. eigenvalues --  -38.46777 -38.46469 -38.44708 -38.43586 -38.43533
 Alpha  occ. eigenvalues --  -38.42923 -38.42442  -2.22595  -2.22287  -2.20559
 Alpha  occ. eigenvalues --   -2.19431  -2.19290  -2.18704  -2.18231  -1.16266
 Alpha  occ. eigenvalues --   -1.16260  -1.16222  -1.15945  -1.15937  -1.15898
 Alpha  occ. eigenvalues --   -1.14217  -1.14204  -1.14150  -1.13150  -1.13114
 Alpha  occ. eigenvalues --   -1.13036  -1.12962  -1.12954  -1.12913  -1.12396
 Alpha  occ. eigenvalues --   -1.12389  -1.12329  -1.11885  -1.11883  -1.11868
 Alpha  occ. eigenvalues --   -0.17835  -0.13238  -0.11250  -0.10776
 Alpha virt. eigenvalues --   -0.07805  -0.06093  -0.04685  -0.03268  -0.02839
 Alpha virt. eigenvalues --   -0.02106  -0.01944  -0.01817  -0.01464  -0.01011
 Alpha virt. eigenvalues --   -0.00660  -0.00460  -0.00049   0.00182   0.00475

  Beta  occ. eigenvalues --  -38.46749 -38.46423 -38.44606 -38.43572 -38.43537
  Beta  occ. eigenvalues --  -38.42924 -38.42423  -2.22549  -2.22205  -2.20372
  Beta  occ. eigenvalues --   -2.19407  -2.19296  -2.18707  -2.18196  -1.16233
  Beta  occ. eigenvalues --   -1.16218  -1.16170  -1.15890  -1.15859  -1.15841
  Beta  occ. eigenvalues --   -1.14088  -1.14068  -1.14030  -1.13137  -1.13084
  Beta  occ. eigenvalues --   -1.13018  -1.12966  -1.12958  -1.12915  -1.12398
  Beta  occ. eigenvalues --   -1.12390  -1.12325  -1.11861  -1.11859  -1.11846
  Beta  occ. eigenvalues --   -0.17081  -0.13006  -0.10829
  Beta virt. eigenvalues --   -0.07576  -0.07179  -0.05819  -0.04529  -0.02837
  Beta virt. eigenvalues --   -0.02554  -0.01776  -0.01670  -0.01444  -0.01037
  Beta virt. eigenvalues --   -0.00809  -0.00563  -0.00214   0.00008   0.00256

 Mulliken charges and spin densities:
               1          2
     1  Na  -2.167743   0.000769
     2  Na  -0.258012   0.040719
     3  Na   0.058067   0.023150
     4  Na  -0.420426   0.113406
     5  Na   0.910396   0.180795
     6  Na   0.884825   0.361922
     7  Na   0.992892   0.279240
 Sum of Mulliken charges =  -0.00000   1.00000

 Dipole moment (field-independent basis, Debye):
    X=             -4.8940    Y=             -0.9419    Z=              0.1811  Tot=              4.9871
 Quadrupole moment (field-independent basis, Debye-Ang):
   XX=            -74.6909   YY=            -66.8217   ZZ=            -60.8068
   XY=              6.8416   XZ=              0.6235   YZ=             -1.5600

 Normal termination of Gaussian 16 at Fri Dec  8 17:52:43 2023.
