 Gaussian 16, Revision B.01,
 Gaussian 16:  ES64L-G16RevB.01 20-Dec-2017

 -------------------------
 #P B3LYP/6-311+g(d) force
 -------------------------

 -----
 DPGEN
 -----
 Symbolic Z-matrix:
 Charge =  0 Multiplicity = 2

                         Standard orientation:
 ---------------------------------------------------------------------
 Center     Atomic      Atomic             Coordinates (Angstroms)
 Number     Number       Type             X           Y           Z
 ---------------------------------------------------------------------
      1         11           0       -1.058839   -2.280976    0.940006
      2         11           0       -2.817128   -0.622840   -1.102438
      3         11           0        3.427398   -0.263782    0.352137
      4         11           0        0.138132    0.071497    1.885597
      5         11           0       -1.936473    2.362499    0.440237
      6         11           0        1.259296    2.115721   -0.886625
      7         11           0        0.987615   -1.382119   -1.628914
 ---------------------------------------------------------------------

 SCF Done:  E(UB3LYP) =  -1136.12824441     A.U. after   21 cycles

 The electronic state is 2-A.
 Alpha  occ. eigenvalues --  -38.44547 -38.44372 -38.43850 -38.43847 -38.43666
 Alpha  occ. eigenvalues --  -38.43389 -38.42983  -2.20370  -2.20211  -2.19825
 Alpha  occ. eigenvalues --   -2.19723  -2.19512  -2.19335  -2.18820  -1.14042
 Alpha  occ. eigenvalues --   -1.14025  -1.14018  -1.13886  -1.13863  -1.13843
 Alpha  occ. eigenvalues --   -1.13649  -1.13447  -1.13419  -1.13405  -1.13385
 Alpha  occ. eigenvalues --   -1.13333  -1.13201  -1.13184  -1.13124  -1.12994
 Alpha  occ. eigenvalues --   -1.12948  -1.12934  -1.12494  -1.12479  -1.12462
 Alpha  occ. eigenvalues --   -0.18578  -0.13366  -0.12010  -0.11336
 Alpha virt. eigenvalues --   -0.06038  -0.04954  -0.04204  -0.03633  -0.03099
 Alpha virt. eigenvalues --   -0.02927  -0.01781  -0.00708  -0.00393   0.00079
 Alpha virt. eigenvalues --    0.00151   0.00348   0.00550   0.00804   0.00857

  Beta  occ. eigenvalues --  -38.44549 -38.44343 -38.43807 -38.43752 -38.43655
  Beta  occ. eigenvalues --  -38.43363 -38.42981  -2.20375  -2.20158  -2.19654
  Beta  occ. eigenvalues --   -2.19643  -2.19492  -2.19293  -2.18818  -1.14038
  Beta  occ. eigenvalues --   -1.14028  -1.14015  -1.13852  -1.13822  -1.13804
  Beta  occ. eigenvalues --   -1.13535  -1.13356  -1.13328  -1.13318  -1.13297
  Beta  occ. eigenvalues --   -1.13276  -1.13185  -1.13159  -1.13111  -1.12950
  Beta  occ. eigenvalues --   -1.12914  -1.12884  -1.12485  -1.12471  -1.12464
  Beta  occ. eigenvalues --   -0.17849  -0.13136  -0.11812
  Beta virt. eigenvalues --   -0.07437  -0.05853  -0.04910  -0.03950  -0.03108
  Beta virt. eigenvalues --   -0.02439  -0.01959  -0.01612  -0.00682  -0.00179
  Beta virt. eigenvalues --    0.00106   0.00217   0.00394   0.00689   0.00833

 Mulliken charges and spin densities:
               1          2
     1  Na   0.181600   0.087330
     2  Na  -0.273891   0.107434
     3  Na   0.307316  -0.044116
     4  Na  -0.000605   0.336800
     5  Na   0.256703   0.104324
     6  Na  -0.402303   0.050971
     7  Na  -0.068821   0.357258
 Sum of Mulliken charges =  -0.00000   1.00000

 Dipole moment (field-independent basis, Debye):
    X=              0.6423    Y=             -0.1133    Z=             -0.4020  Tot=              0.7662
 Quadrupole moment (field-independent basis, Debye-Ang):
   XX=            -55.1345   YY=            -71.0810   ZZ=            -69.2844
   XY=             -0.0452   XZ=              2.3854   YZ=             -0.5016

 Normal termination of Gaussian 16 at Tue Dec  5 12:47:04 2023.
