 Gaussian 16, Revision B.01,
 Gaussian 16:  ES64L-G16RevB.01 20-Dec-2017

 -------------------------
 #P B3LYP/6-311+g(d) force
 -------------------------

 -----
 DPGEN
 -----
 Symbolic Z-matrix:
 Charge =  0 Multiplicity = 2

                         Standard orientation:
 ---------------------------------------------------------------------
 Center     Atomic      Atomic             Coordinates (Angstroms)
 Number     Number       Type             X           Y           Z
 ---------------------------------------------------------------------
      1         11           0        1.720999    0.238796    2.101178
      2         11           0       -1.648095    2.577068    0.072734
      3         11           0       -3.154395   -0.763050   -0.137980
      4         11           0       -0.610541   -2.076051    1.511040
      5         11           0        2.984074   -0.714444   -1.010657
      6         11           0        0.953769    2.063303   -0.513950
      7         11           0       -0.245810   -1.325623   -2.022365
 ---------------------------------------------------------------------

 SCF Done:  E(UB3LYP) =  -1136.12437477     A.U. after   20 cycles

 The electronic state is 2-A.
 Alpha  occ. eigenvalues --  -38.44532 -38.44524 -38.44207 -38.44013 -38.44004
 Alpha  occ. eigenvalues --  -38.43188 -38.43159  -2.20396  -2.20375  -2.20044
 Alpha  occ. eigenvalues --   -2.19855  -2.19835  -2.19126  -2.19044  -1.14069
 Alpha  occ. eigenvalues --   -1.14041  -1.14038  -1.14029  -1.14013  -1.13995
 Alpha  occ. eigenvalues --   -1.13717  -1.13692  -1.13678  -1.13556  -1.13527
 Alpha  occ. eigenvalues --   -1.13505  -1.13494  -1.13473  -1.13434  -1.13136
 Alpha  occ. eigenvalues --   -1.12777  -1.12751  -1.12664  -1.12643  -1.12535
 Alpha  occ. eigenvalues --   -0.18283  -0.13102  -0.12125  -0.12063
 Alpha virt. eigenvalues --   -0.05701  -0.04904  -0.04603  -0.03797  -0.03290
 Alpha virt. eigenvalues --   -0.03179  -0.01460  -0.00590  -0.00427  -0.00078
 Alpha virt. eigenvalues --    0.00262   0.00340   0.00435   0.00727   0.00874

  Beta  occ. eigenvalues --  -38.44467 -38.44453 -38.44184 -38.44013 -38.43959
  Beta  occ. eigenvalues --  -38.43193 -38.43151  -2.20265  -2.20257  -2.20005
  Beta  occ. eigenvalues --   -2.19836  -2.19773  -2.19118  -2.19050  -1.13977
  Beta  occ. eigenvalues --   -1.13965  -1.13948  -1.13937  -1.13931  -1.13901
  Beta  occ. eigenvalues --   -1.13680  -1.13665  -1.13643  -1.13536  -1.13497
  Beta  occ. eigenvalues --   -1.13474  -1.13466  -1.13440  -1.13391  -1.13139
  Beta  occ. eigenvalues --   -1.12763  -1.12737  -1.12662  -1.12646  -1.12537
  Beta  occ. eigenvalues --   -0.17532  -0.12995  -0.11874
  Beta virt. eigenvalues --   -0.08026  -0.05554  -0.04642  -0.04121  -0.03554
  Beta virt. eigenvalues --   -0.02573  -0.02364  -0.01376  -0.00528  -0.00136
  Beta virt. eigenvalues --    0.00005   0.00307   0.00425   0.00567   0.00866

 Mulliken charges and spin densities:
               1          2
     1  Na   0.053578   0.344957
     2  Na  -0.193024  -0.261368
     3  Na   0.337638   0.166315
     4  Na  -0.198106   0.097493
     5  Na   0.493989  -0.052752
     6  Na  -0.156615   0.368395
     7  Na  -0.337460   0.336960
 Sum of Mulliken charges =  -0.00000   1.00000

 Dipole moment (field-independent basis, Debye):
    X=              0.2231    Y=             -0.8704    Z=              0.0146  Tot=              0.8987
 Quadrupole moment (field-independent basis, Debye-Ang):
   XX=            -58.1132   YY=            -74.6511   ZZ=            -65.5805
   XY=             -0.0632   XZ=             -0.4602   YZ=              1.0839

 Normal termination of Gaussian 16 at Tue Dec  5 17:53:17 2023.
