 Gaussian 16, Revision B.01,
 Gaussian 16:  ES64L-G16RevB.01 20-Dec-2017

 -------------------------
 #P B3LYP/6-311+g(d) force
 -------------------------

 -----
 DPGEN
 -----
 Symbolic Z-matrix:
 Charge =  0 Multiplicity = 2

                         Standard orientation:
 ---------------------------------------------------------------------
 Center     Atomic      Atomic             Coordinates (Angstroms)
 Number     Number       Type             X           Y           Z
 ---------------------------------------------------------------------
      1         11           0       -3.264921   -0.889526   -0.212717
      2         11           0        3.115959   -1.212802    0.109576
      3         11           0        0.088769    0.002396    1.964830
      4         11           0       -0.142342   -0.143714   -1.708978
      5         11           0       -0.158421   -2.678104    0.013794
      6         11           0       -1.344683    2.611153    0.382725
      7         11           0        1.705640    2.310598   -0.549229
 ---------------------------------------------------------------------

 SCF Done:  E(UB3LYP) =  -1136.13638043     A.U. after   19 cycles

 The electronic state is 2-A.
 Alpha  occ. eigenvalues --  -38.44031 -38.43929 -38.43587 -38.43476 -38.43468
 Alpha  occ. eigenvalues --  -38.43467 -38.43379  -2.19823  -2.19722  -2.19498
 Alpha  occ. eigenvalues --   -2.19378  -2.19346  -2.19339  -2.19326  -1.13499
 Alpha  occ. eigenvalues --   -1.13474  -1.13469  -1.13396  -1.13378  -1.13369
 Alpha  occ. eigenvalues --   -1.13204  -1.13168  -1.13157  -1.13110  -1.13085
 Alpha  occ. eigenvalues --   -1.13041  -1.13038  -1.12995  -1.12992  -1.12977
 Alpha  occ. eigenvalues --   -1.12968  -1.12959  -1.12944  -1.12923  -1.12912
 Alpha  occ. eigenvalues --   -0.18624  -0.12796  -0.12535  -0.10832
 Alpha virt. eigenvalues --   -0.05667  -0.04999  -0.04734  -0.03151  -0.02943
 Alpha virt. eigenvalues --   -0.02587  -0.01717  -0.01136  -0.00304  -0.00174
 Alpha virt. eigenvalues --   -0.00007   0.00332   0.00791   0.00869   0.00884

  Beta  occ. eigenvalues --  -38.44030 -38.43930 -38.43497 -38.43467 -38.43458
  Beta  occ. eigenvalues --  -38.43453 -38.43309  -2.19823  -2.19725  -2.19365
  Beta  occ. eigenvalues --   -2.19334  -2.19317  -2.19312  -2.19221  -1.13490
  Beta  occ. eigenvalues --   -1.13472  -1.13468  -1.13392  -1.13373  -1.13371
  Beta  occ. eigenvalues --   -1.13155  -1.13091  -1.13071  -1.13041  -1.13006
  Beta  occ. eigenvalues --   -1.12998  -1.12990  -1.12959  -1.12956  -1.12952
  Beta  occ. eigenvalues --   -1.12938  -1.12917  -1.12902  -1.12871  -1.12841
  Beta  occ. eigenvalues --   -0.17885  -0.12528  -0.12323
  Beta virt. eigenvalues --   -0.06918  -0.05643  -0.04949  -0.04688  -0.02336
  Beta virt. eigenvalues --   -0.02248  -0.01647  -0.01542  -0.01048  -0.00305
  Beta virt. eigenvalues --   -0.00211   0.00106   0.00353   0.00849   0.00864

 Mulliken charges and spin densities:
               1          2
     1  Na   0.033383  -0.087550
     2  Na   0.007126  -0.077000
     3  Na  -0.275065   0.699258
     4  Na  -0.124747   0.561418
     5  Na   0.190975  -0.087919
     6  Na   0.074945  -0.007243
     7  Na   0.093382  -0.000965
 Sum of Mulliken charges =  -0.00000   1.00000

 Dipole moment (field-independent basis, Debye):
    X=             -0.0700    Y=             -0.0809    Z=              0.1036  Tot=              0.1489
 Quadrupole moment (field-independent basis, Debye-Ang):
   XX=            -55.3142   YY=            -63.6437   ZZ=            -74.0942
   XY=             -0.4888   XZ=             -0.5564   YZ=             -0.3294

 Normal termination of Gaussian 16 at Thu Dec  7 13:01:06 2023.
