 Gaussian 16, Revision B.01,
 Gaussian 16:  ES64L-G16RevB.01 20-Dec-2017

 -------------------------
 #P B3LYP/6-311+g(d) force
 -------------------------

 -----
 DPGEN
 -----
 Symbolic Z-matrix:
 Charge =  0 Multiplicity = 2

                         Standard orientation:
 ---------------------------------------------------------------------
 Center     Atomic      Atomic             Coordinates (Angstroms)
 Number     Number       Type             X           Y           Z
 ---------------------------------------------------------------------
      1         11           0        3.481930   -1.410665    0.487376
      2         11           0       -1.180443    1.764047   -1.069034
      3         11           0       -3.876949    0.421481    0.998744
      4         11           0        2.610514    2.226601    0.135064
      5         11           0        1.177925   -0.892126   -1.408286
      6         11           0        0.166167   -0.452550    1.672204
      7         11           0       -2.379144   -1.656789   -0.816068
 ---------------------------------------------------------------------

 SCF Done:  E(UB3LYP) =  -1136.11795282     A.U. after   29 cycles

 The electronic state is 2-A.
 Alpha  occ. eigenvalues --  -38.45665 -38.44720 -38.44230 -38.44118 -38.43597
 Alpha  occ. eigenvalues --  -38.43462 -38.43092  -2.21488  -2.20558  -2.20073
 Alpha  occ. eigenvalues --   -2.19980  -2.19423  -2.19380  -2.18932  -1.15213
 Alpha  occ. eigenvalues --   -1.15126  -1.15098  -1.14236  -1.14199  -1.14183
 Alpha  occ. eigenvalues --   -1.13802  -1.13716  -1.13702  -1.13643  -1.13640
 Alpha  occ. eigenvalues --   -1.13631  -1.13126  -1.13072  -1.13066  -1.13037
 Alpha  occ. eigenvalues --   -1.13018  -1.13006  -1.12625  -1.12608  -1.12536
 Alpha  occ. eigenvalues --   -0.18385  -0.14473  -0.10904  -0.10669
 Alpha virt. eigenvalues --   -0.07147  -0.05738  -0.04660  -0.03006  -0.02905
 Alpha virt. eigenvalues --   -0.02285  -0.02148  -0.01323  -0.01027  -0.00428
 Alpha virt. eigenvalues --    0.00023   0.00172   0.00285   0.00522   0.00581

  Beta  occ. eigenvalues --  -38.45638 -38.44670 -38.44234 -38.44097 -38.43592
  Beta  occ. eigenvalues --  -38.43409 -38.43066  -2.21439  -2.20464  -2.20081
  Beta  occ. eigenvalues --   -2.19949  -2.19370  -2.19329  -2.18887  -1.15164
  Beta  occ. eigenvalues --   -1.15094  -1.15061  -1.14178  -1.14128  -1.14120
  Beta  occ. eigenvalues --   -1.13810  -1.13716  -1.13701  -1.13625  -1.13615
  Beta  occ. eigenvalues --   -1.13571  -1.13067  -1.13060  -1.13028  -1.13003
  Beta  occ. eigenvalues --   -1.12983  -1.12947  -1.12596  -1.12549  -1.12514
  Beta  occ. eigenvalues --   -0.17670  -0.14177  -0.10541
  Beta virt. eigenvalues --   -0.07147  -0.06896  -0.05610  -0.04049  -0.02878
  Beta virt. eigenvalues --   -0.02664  -0.01717  -0.01462  -0.01280  -0.00638
  Beta virt. eigenvalues --   -0.00305   0.00067   0.00222   0.00409   0.00604

 Mulliken charges and spin densities:
               1          2
     1  Na   0.664791   0.098953
     2  Na  -0.444093   0.014609
     3  Na   0.398841   0.342440
     4  Na  -0.218226   0.033164
     5  Na  -0.029109   0.236135
     6  Na  -0.502805   0.187128
     7  Na   0.130600   0.087571
 Sum of Mulliken charges =  -0.00000   1.00000

 Dipole moment (field-independent basis, Debye):
    X=             -0.1945    Y=             -0.2377    Z=              0.4532  Tot=              0.5475
 Quadrupole moment (field-independent basis, Debye-Ang):
   XX=            -50.2471   YY=            -77.5868   ZZ=            -68.4149
   XY=             -0.3439   XZ=              0.6276   YZ=              2.1033

 Normal termination of Gaussian 16 at Thu Dec  7 02:29:29 2023.
