 Gaussian 16, Revision B.01,
 Gaussian 16:  ES64L-G16RevB.01 20-Dec-2017

 -------------------------
 #P B3LYP/6-311+g(d) force
 -------------------------

 -----
 DPGEN
 -----
 Symbolic Z-matrix:
 Charge =  0 Multiplicity = 2

                         Standard orientation:
 ---------------------------------------------------------------------
 Center     Atomic      Atomic             Coordinates (Angstroms)
 Number     Number       Type             X           Y           Z
 ---------------------------------------------------------------------
      1         11           0       -0.132836   -2.325311   -0.404554
      2         11           0       -0.090637    0.237865    2.248647
      3         11           0       -3.000543   -0.993934    0.264295
      4         11           0        2.219983    2.107884    0.189723
      5         11           0        0.266522    0.279492   -1.916746
      6         11           0       -1.898764    2.172684   -0.449425
      7         11           0        2.636275   -1.478681    0.068059
 ---------------------------------------------------------------------

 SCF Done:  E(UB3LYP) =  -1136.13131926     A.U. after   19 cycles

 The electronic state is 2-A.
 Alpha  occ. eigenvalues --  -38.44403 -38.43897 -38.43835 -38.43806 -38.43709
 Alpha  occ. eigenvalues --  -38.43670 -38.42737  -2.20255  -2.19803  -2.19738
 Alpha  occ. eigenvalues --   -2.19690  -2.19548  -2.19488  -2.18715  -1.13914
 Alpha  occ. eigenvalues --   -1.13887  -1.13874  -1.13508  -1.13464  -1.13438
 Alpha  occ. eigenvalues --   -1.13418  -1.13411  -1.13396  -1.13387  -1.13335
 Alpha  occ. eigenvalues --   -1.13313  -1.13229  -1.13198  -1.13165  -1.13164
 Alpha  occ. eigenvalues --   -1.13149  -1.13121  -1.12409  -1.12365  -1.12333
 Alpha  occ. eigenvalues --   -0.18834  -0.13094  -0.12138  -0.11533
 Alpha virt. eigenvalues --   -0.05514  -0.05340  -0.03924  -0.03531  -0.03259
 Alpha virt. eigenvalues --   -0.03108  -0.01453  -0.01028  -0.00170  -0.00045
 Alpha virt. eigenvalues --    0.00163   0.00376   0.00746   0.00847   0.00889

  Beta  occ. eigenvalues --  -38.44309 -38.43895 -38.43804 -38.43757 -38.43698
  Beta  occ. eigenvalues --  -38.43668 -38.42725  -2.20080  -2.19737  -2.19690
  Beta  occ. eigenvalues --   -2.19660  -2.19531  -2.19486  -2.18697  -1.13800
  Beta  occ. eigenvalues --   -1.13765  -1.13745  -1.13442  -1.13421  -1.13402
  Beta  occ. eigenvalues --   -1.13389  -1.13375  -1.13363  -1.13341  -1.13309
  Beta  occ. eigenvalues --   -1.13304  -1.13195  -1.13177  -1.13158  -1.13150
  Beta  occ. eigenvalues --   -1.13140  -1.13120  -1.12391  -1.12352  -1.12299
  Beta  occ. eigenvalues --   -0.18051  -0.12889  -0.11879
  Beta virt. eigenvalues --   -0.07565  -0.05457  -0.05266  -0.03897  -0.02762
  Beta virt. eigenvalues --   -0.02330  -0.02179  -0.01350  -0.00957  -0.00151
  Beta virt. eigenvalues --    0.00034   0.00144   0.00393   0.00829   0.00888

 Mulliken charges and spin densities:
               1          2
     1  Na   0.277573   0.132243
     2  Na  -0.586989   0.630178
     3  Na   0.053702   0.014614
     4  Na   0.089801  -0.052945
     5  Na  -0.118959   0.355068
     6  Na   0.169197  -0.062574
     7  Na   0.115677  -0.016584
 Sum of Mulliken charges =  -0.00000   1.00000

 Dipole moment (field-independent basis, Debye):
    X=             -0.0089    Y=              0.3913    Z=              0.3880  Tot=              0.5511
 Quadrupole moment (field-independent basis, Debye-Ang):
   XX=            -57.0816   YY=            -68.8175   ZZ=            -69.7623
   XY=              0.1216   XZ=              0.3963   YZ=             -0.4175

 Normal termination of Gaussian 16 at Thu Dec  7 17:54:33 2023.
