 Gaussian 16, Revision B.01,
 Gaussian 16:  ES64L-G16RevB.01 20-Dec-2017

 -------------------------
 #P B3LYP/6-311+g(d) force
 -------------------------

 -----
 DPGEN
 -----
 Symbolic Z-matrix:
 Charge =  0 Multiplicity = 2

                         Standard orientation:
 ---------------------------------------------------------------------
 Center     Atomic      Atomic             Coordinates (Angstroms)
 Number     Number       Type             X           Y           Z
 ---------------------------------------------------------------------
      1         11           0        1.451400   -1.018761    2.066088
      2         11           0        2.075839    2.142253   -0.602892
      3         11           0       -0.342751   -0.331247   -0.887006
      4         11           0       -1.493277    2.696472   -0.706831
      5         11           0       -2.591299   -2.403943   -1.200304
      6         11           0        2.847074   -1.542883   -0.756300
      7         11           0       -1.946986    0.458109    2.087244
 ---------------------------------------------------------------------

 SCF Done:  E(UB3LYP) =  -1136.12480633     A.U. after   21 cycles

 The electronic state is 2-A.
 Alpha  occ. eigenvalues --  -38.44394 -38.44239 -38.44097 -38.44057 -38.43796
 Alpha  occ. eigenvalues --  -38.43404 -38.42617  -2.20212  -2.20092  -2.19906
 Alpha  occ. eigenvalues --   -2.19895  -2.19595  -2.19231  -2.18652  -1.13887
 Alpha  occ. eigenvalues --   -1.13845  -1.13836  -1.13766  -1.13753  -1.13723
 Alpha  occ. eigenvalues --   -1.13600  -1.13570  -1.13537  -1.13532  -1.13517
 Alpha  occ. eigenvalues --   -1.13515  -1.13285  -1.13272  -1.13205  -1.12931
 Alpha  occ. eigenvalues --   -1.12889  -1.12850  -1.12359  -1.12304  -1.12290
 Alpha  occ. eigenvalues --   -0.17926  -0.12931  -0.11803  -0.11573
 Alpha virt. eigenvalues --   -0.05667  -0.05062  -0.04911  -0.03331  -0.02817
 Alpha virt. eigenvalues --   -0.02630  -0.01490  -0.01259  -0.00712  -0.00044
 Alpha virt. eigenvalues --    0.00089   0.00273   0.00531   0.00623   0.00775

  Beta  occ. eigenvalues --  -38.44333 -38.44184 -38.44054 -38.44039 -38.43798
  Beta  occ. eigenvalues --  -38.43402 -38.42587  -2.20101  -2.19991  -2.19892
  Beta  occ. eigenvalues --   -2.19800  -2.19599  -2.19229  -2.18603  -1.13808
  Beta  occ. eigenvalues --   -1.13766  -1.13756  -1.13707  -1.13678  -1.13656
  Beta  occ. eigenvalues --   -1.13561  -1.13523  -1.13520  -1.13511  -1.13461
  Beta  occ. eigenvalues --   -1.13446  -1.13280  -1.13276  -1.13211  -1.12926
  Beta  occ. eigenvalues --   -1.12880  -1.12852  -1.12291  -1.12275  -1.12256
  Beta  occ. eigenvalues --   -0.17309  -0.12754  -0.11421
  Beta virt. eigenvalues --   -0.07721  -0.05487  -0.04821  -0.04451  -0.03030
  Beta virt. eigenvalues --   -0.02363  -0.01942  -0.01394  -0.01070  -0.00354
  Beta virt. eigenvalues --    0.00058   0.00194   0.00324   0.00639   0.00704

 Mulliken charges and spin densities:
               1          2
     1  Na  -0.388514   0.337146
     2  Na   1.223124  -0.077895
     3  Na  -1.813824  -0.222004
     4  Na  -0.062618   0.109722
     5  Na   0.137379   0.453951
     6  Na   0.695148   0.096362
     7  Na   0.209306   0.302718
 Sum of Mulliken charges =  -0.00000   1.00000

 Dipole moment (field-independent basis, Debye):
    X=              0.3377    Y=             -0.0708    Z=              0.4184  Tot=              0.5424
 Quadrupole moment (field-independent basis, Debye-Ang):
   XX=            -58.2685   YY=            -67.1142   ZZ=            -67.6287
   XY=             -1.8972   XZ=             -1.5963   YZ=              2.3136

 Normal termination of Gaussian 16 at Tue Nov 28 20:25:29 2023.
