 Gaussian 16, Revision B.01,
 Gaussian 16:  ES64L-G16RevB.01 20-Dec-2017

 -------------------------
 #P B3LYP/6-311+g(d) force
 -------------------------

 -----
 DPGEN
 -----
 Symbolic Z-matrix:
 Charge =  0 Multiplicity = 2

                         Standard orientation:
 ---------------------------------------------------------------------
 Center     Atomic      Atomic             Coordinates (Angstroms)
 Number     Number       Type             X           Y           Z
 ---------------------------------------------------------------------
      1         11           0        0.028717   -2.443078   -0.963898
      2         11           0       -3.346682   -2.272464   -0.742742
      3         11           0       -1.455703    3.291523    0.110085
      4         11           0        4.286063    0.042889   -0.354352
      5         11           0       -4.126288    0.776214    0.918156
      6         11           0        2.052288    2.501537   -0.714807
      7         11           0        2.561604   -1.896621    1.747557
 ---------------------------------------------------------------------

 SCF Done:  E(UB3LYP) =  -1136.10763253     A.U. after   25 cycles

 The electronic state is 2-A.
 Alpha  occ. eigenvalues --  -38.45452 -38.45040 -38.44601 -38.44562 -38.44387
 Alpha  occ. eigenvalues --  -38.44181 -38.43663  -2.21249  -2.20811  -2.20375
 Alpha  occ. eigenvalues --   -2.20287  -2.20198  -2.19968  -2.19461  -1.14926
 Alpha  occ. eigenvalues --   -1.14917  -1.14892  -1.14488  -1.14482  -1.14424
 Alpha  occ. eigenvalues --   -1.14042  -1.14020  -1.14004  -1.13984  -1.13973
 Alpha  occ. eigenvalues --   -1.13920  -1.13845  -1.13843  -1.13823  -1.13638
 Alpha  occ. eigenvalues --   -1.13627  -1.13614  -1.13125  -1.13115  -1.13088
 Alpha  occ. eigenvalues --   -0.15962  -0.14030  -0.12726  -0.10497
 Alpha virt. eigenvalues --   -0.07725  -0.05346  -0.04622  -0.03396  -0.03305
 Alpha virt. eigenvalues --   -0.02412  -0.02320  -0.01596  -0.01335  -0.00765
 Alpha virt. eigenvalues --   -0.00570  -0.00214   0.00115   0.00268   0.00558

  Beta  occ. eigenvalues --  -38.45441 -38.44997 -38.44587 -38.44548 -38.44320
  Beta  occ. eigenvalues --  -38.44168 -38.43612  -2.21236  -2.20737  -2.20338
  Beta  occ. eigenvalues --   -2.20277  -2.20074  -2.19949  -2.19367  -1.14921
  Beta  occ. eigenvalues --   -1.14904  -1.14848  -1.14439  -1.14435  -1.14350
  Beta  occ. eigenvalues --   -1.14021  -1.14012  -1.13975  -1.13957  -1.13946
  Beta  occ. eigenvalues --   -1.13922  -1.13758  -1.13754  -1.13744  -1.13627
  Beta  occ. eigenvalues --   -1.13615  -1.13580  -1.13059  -1.13052  -1.13032
  Beta  occ. eigenvalues --   -0.15401  -0.13426  -0.12201
  Beta virt. eigenvalues --   -0.07804  -0.07275  -0.04892  -0.04250  -0.03100
  Beta virt. eigenvalues --   -0.03025  -0.02179  -0.02097  -0.01300  -0.01037
  Beta virt. eigenvalues --   -0.00567  -0.00524  -0.00037   0.00309   0.00387

 Mulliken charges and spin densities:
               1          2
     1  Na  -0.529862   0.276266
     2  Na   0.313896  -0.048519
     3  Na   0.117250  -0.081125
     4  Na   0.343404   0.067540
     5  Na  -0.156595   0.259199
     6  Na  -0.212221   0.185176
     7  Na   0.124129   0.341464
 Sum of Mulliken charges =  -0.00000   1.00000

 Dipole moment (field-independent basis, Debye):
    X=              0.5968    Y=             -0.7080    Z=              0.1343  Tot=              0.9357
 Quadrupole moment (field-independent basis, Debye-Ang):
   XX=            -55.6914   YY=            -74.6443   ZZ=            -70.5469
   XY=              1.3322   XZ=             -3.1038   YZ=              0.3709

 Normal termination of Gaussian 16 at Mon Dec  4 05:33:42 2023.
