 Gaussian 16, Revision B.01,
 Gaussian 16:  ES64L-G16RevB.01 20-Dec-2017

 -------------------------
 #P B3LYP/6-311+g(d) force
 -------------------------

 -----
 DPGEN
 -----
 Symbolic Z-matrix:
 Charge =  0 Multiplicity = 2

                         Standard orientation:
 ---------------------------------------------------------------------
 Center     Atomic      Atomic             Coordinates (Angstroms)
 Number     Number       Type             X           Y           Z
 ---------------------------------------------------------------------
      1         11           0        2.770067   -1.976481    0.211026
      2         11           0       -0.171725   -0.116460    2.043551
      3         11           0       -0.169390    2.674135    0.432492
      4         11           0       -1.838966   -2.332111    0.130885
      5         11           0       -3.450644    0.675532   -0.520180
      6         11           0        0.262731   -0.495264   -1.822039
      7         11           0        2.597927    1.570648   -0.475736
 ---------------------------------------------------------------------

 SCF Done:  E(UB3LYP) =  -1136.13020582     A.U. after   20 cycles

 The electronic state is 2-A.
 Alpha  occ. eigenvalues --  -38.44819 -38.44157 -38.43919 -38.43824 -38.43821
 Alpha  occ. eigenvalues --  -38.43749 -38.42718  -2.20589  -2.19937  -2.19799
 Alpha  occ. eigenvalues --   -2.19690  -2.19659  -2.19643  -2.18596  -1.14261
 Alpha  occ. eigenvalues --   -1.14240  -1.14226  -1.13612  -1.13596  -1.13586
 Alpha  occ. eigenvalues --   -1.13487  -1.13474  -1.13412  -1.13372  -1.13367
 Alpha  occ. eigenvalues --   -1.13351  -1.13327  -1.13314  -1.13308  -1.13278
 Alpha  occ. eigenvalues --   -1.13262  -1.13250  -1.12287  -1.12255  -1.12226
 Alpha  occ. eigenvalues --   -0.18224  -0.13227  -0.11924  -0.10910
 Alpha virt. eigenvalues --   -0.06266  -0.05382  -0.04128  -0.03440  -0.02900
 Alpha virt. eigenvalues --   -0.02728  -0.01977  -0.01186  -0.00432  -0.00216
 Alpha virt. eigenvalues --   -0.00017   0.00301   0.00693   0.00709   0.00787

  Beta  occ. eigenvalues --  -38.44806 -38.44159 -38.43863 -38.43815 -38.43814
  Beta  occ. eigenvalues --  -38.43651 -38.42711  -2.20565  -2.19943  -2.19696
  Beta  occ. eigenvalues --   -2.19677  -2.19650  -2.19463  -2.18585  -1.14238
  Beta  occ. eigenvalues --   -1.14221  -1.14212  -1.13612  -1.13597  -1.13584
  Beta  occ. eigenvalues --   -1.13423  -1.13412  -1.13360  -1.13341  -1.13336
  Beta  occ. eigenvalues --   -1.13322  -1.13311  -1.13293  -1.13267  -1.13188
  Beta  occ. eigenvalues --   -1.13143  -1.13128  -1.12276  -1.12237  -1.12212
  Beta  occ. eigenvalues --   -0.17498  -0.12987  -0.11718
  Beta virt. eigenvalues --   -0.07083  -0.06137  -0.05313  -0.04064  -0.02749
  Beta virt. eigenvalues --   -0.02154  -0.01930  -0.01670  -0.01096  -0.00480
  Beta virt. eigenvalues --   -0.00161   0.00072   0.00341   0.00762   0.00790

 Mulliken charges and spin densities:
               1          2
     1  Na   0.003234  -0.069217
     2  Na  -0.068286   0.609447
     3  Na   0.000035   0.019866
     4  Na   0.165169  -0.007063
     5  Na  -0.113028   0.058450
     6  Na  -0.051498   0.396712
     7  Na   0.064372  -0.008196
 Sum of Mulliken charges =  -0.00000   1.00000

 Dipole moment (field-independent basis, Debye):
    X=             -0.2380    Y=             -0.3703    Z=             -0.1569  Tot=              0.4674
 Quadrupole moment (field-independent basis, Debye-Ang):
   XX=            -53.6781   YY=            -67.4119   ZZ=            -73.1040
   XY=             -1.4318   XZ=              1.3162   YZ=             -1.8242

 Normal termination of Gaussian 16 at Tue Dec  5 18:46:38 2023.
