 Gaussian 16, Revision B.01,
 Gaussian 16:  ES64L-G16RevB.01 20-Dec-2017

 -------------------------
 #P B3LYP/6-311+g(d) force
 -------------------------

 -----
 DPGEN
 -----
 Symbolic Z-matrix:
 Charge =  0 Multiplicity = 2

                         Standard orientation:
 ---------------------------------------------------------------------
 Center     Atomic      Atomic             Coordinates (Angstroms)
 Number     Number       Type             X           Y           Z
 ---------------------------------------------------------------------
      1         11           0        0.044345    3.928712   -0.357238
      2         11           0       -2.712153    1.599284    0.176161
      3         11           0       -4.969234   -0.937814    0.045277
      4         11           0       -1.524622   -2.605551   -0.274157
      5         11           0        2.004868   -3.170442    0.346140
      6         11           0        4.275008   -1.098428   -0.414326
      7         11           0        2.881788    2.284239    0.478143
 ---------------------------------------------------------------------

 SCF Done:  E(UB3LYP) =  -1136.11454887     A.U. after   22 cycles

 The electronic state is 2-A.
 Alpha  occ. eigenvalues --  -38.45399 -38.45190 -38.45153 -38.44179 -38.44013
 Alpha  occ. eigenvalues --  -38.43982 -38.43470  -2.21164  -2.20941  -2.20917
 Alpha  occ. eigenvalues --   -2.19985  -2.19816  -2.19792  -2.19273  -1.14862
 Alpha  occ. eigenvalues --   -1.14849  -1.14774  -1.14633  -1.14618  -1.14603
 Alpha  occ. eigenvalues --   -1.14598  -1.14565  -1.14506  -1.13642  -1.13638
 Alpha  occ. eigenvalues --   -1.13601  -1.13548  -1.13489  -1.13476  -1.13447
 Alpha  occ. eigenvalues --   -1.13429  -1.13382  -1.12932  -1.12923  -1.12919
 Alpha  occ. eigenvalues --   -0.15692  -0.13968  -0.13306  -0.10722
 Alpha virt. eigenvalues --   -0.07402  -0.05230  -0.04456  -0.03361  -0.03019
 Alpha virt. eigenvalues --   -0.02565  -0.02343  -0.02137  -0.01531  -0.00573
 Alpha virt. eigenvalues --   -0.00231   0.00025   0.00095   0.00488   0.00575

  Beta  occ. eigenvalues --  -38.45381 -38.45187 -38.45099 -38.44130 -38.44003
  Beta  occ. eigenvalues --  -38.43950 -38.43444  -2.21136  -2.20936  -2.20821
  Beta  occ. eigenvalues --   -2.19893  -2.19802  -2.19731  -2.19224  -1.14847
  Beta  occ. eigenvalues --   -1.14832  -1.14722  -1.14633  -1.14618  -1.14541
  Beta  occ. eigenvalues --   -1.14540  -1.14535  -1.14413  -1.13576  -1.13574
  Beta  occ. eigenvalues --   -1.13545  -1.13530  -1.13482  -1.13452  -1.13405
  Beta  occ. eigenvalues --   -1.13382  -1.13347  -1.12898  -1.12894  -1.12884
  Beta  occ. eigenvalues --   -0.15166  -0.13503  -0.12799
  Beta virt. eigenvalues --   -0.07366  -0.07280  -0.04836  -0.04114  -0.03038
  Beta virt. eigenvalues --   -0.02550  -0.02397  -0.02140  -0.01999  -0.01370
  Beta virt. eigenvalues --   -0.00244   0.00099   0.00243   0.00261   0.00494

 Mulliken charges and spin densities:
               1          2
     1  Na   0.182788   0.063861
     2  Na  -0.623597   0.229766
     3  Na   0.944717   0.248638
     4  Na  -0.112251   0.342602
     5  Na  -0.209202  -0.101186
     6  Na   0.016012   0.152797
     7  Na  -0.198467   0.063522
 Sum of Mulliken charges =  -0.00000   1.00000

 Dipole moment (field-independent basis, Debye):
    X=             -0.8325    Y=             -0.0728    Z=              0.0106  Tot=              0.8358
 Quadrupole moment (field-independent basis, Debye-Ang):
   XX=            -59.7900   YY=            -66.2393   ZZ=            -72.7408
   XY=              2.1372   XZ=              0.3435   YZ=              0.1348

 Normal termination of Gaussian 16 at Mon Dec  4 03:20:07 2023.
