 Gaussian 16, Revision B.01,
 Gaussian 16:  ES64L-G16RevB.01 20-Dec-2017

 -------------------------
 #P B3LYP/6-311+g(d) force
 -------------------------

 -----
 DPGEN
 -----
 Symbolic Z-matrix:
 Charge =  0 Multiplicity = 2

                         Standard orientation:
 ---------------------------------------------------------------------
 Center     Atomic      Atomic             Coordinates (Angstroms)
 Number     Number       Type             X           Y           Z
 ---------------------------------------------------------------------
      1         11           0       -3.785339   -0.964001   -1.448108
      2         11           0        3.485658   -1.112849   -1.003410
      3         11           0       -0.855697   -1.771274    0.560643
      4         11           0        2.795397    1.784817   -1.063476
      5         11           0       -3.707948    1.217742    1.209055
      6         11           0        2.760755   -0.339895    2.073454
      7         11           0       -0.692826    1.185458   -0.328159
 ---------------------------------------------------------------------

 SCF Done:  E(UB3LYP) =  -1136.09880865     A.U. after   30 cycles

 The electronic state is 2-A.
 Alpha  occ. eigenvalues --  -38.45926 -38.45321 -38.44888 -38.44561 -38.43667
 Alpha  occ. eigenvalues --  -38.43365 -38.43078  -2.21710  -2.21103  -2.20764
 Alpha  occ. eigenvalues --   -2.20392  -2.19559  -2.19191  -2.18938  -1.15384
 Alpha  occ. eigenvalues --   -1.15376  -1.15346  -1.14801  -1.14757  -1.14730
 Alpha  occ. eigenvalues --   -1.14448  -1.14417  -1.14368  -1.14057  -1.14025
 Alpha  occ. eigenvalues --   -1.14005  -1.13274  -1.13234  -1.13159  -1.12910
 Alpha  occ. eigenvalues --   -1.12861  -1.12774  -1.12639  -1.12586  -1.12583
 Alpha  occ. eigenvalues --   -0.17567  -0.15193  -0.10464  -0.10250
 Alpha virt. eigenvalues --   -0.07694  -0.06250  -0.04781  -0.03558  -0.02750
 Alpha virt. eigenvalues --   -0.02234  -0.02001  -0.01619  -0.01234  -0.00537
 Alpha virt. eigenvalues --   -0.00234  -0.00040   0.00121   0.00231   0.00363

  Beta  occ. eigenvalues --  -38.45922 -38.45313 -38.44842 -38.44482 -38.43613
  Beta  occ. eigenvalues --  -38.43355 -38.43079  -2.21707  -2.21089  -2.20679
  Beta  occ. eigenvalues --   -2.20245  -2.19462  -2.19177  -2.18944  -1.15380
  Beta  occ. eigenvalues --   -1.15354  -1.15341  -1.14782  -1.14752  -1.14710
  Beta  occ. eigenvalues --   -1.14394  -1.14358  -1.14303  -1.13952  -1.13923
  Beta  occ. eigenvalues --   -1.13909  -1.13210  -1.13154  -1.13100  -1.12897
  Beta  occ. eigenvalues --   -1.12839  -1.12759  -1.12639  -1.12595  -1.12563
  Beta  occ. eigenvalues --   -0.16970  -0.14683  -0.10074
  Beta virt. eigenvalues --   -0.07600  -0.06941  -0.05640  -0.04687  -0.03197
  Beta virt. eigenvalues --   -0.02627  -0.01781  -0.01529  -0.01306  -0.00889
  Beta virt. eigenvalues --   -0.00359  -0.00066   0.00027   0.00207   0.00304

 Mulliken charges and spin densities:
               1          2
     1  Na   0.280956   0.479426
     2  Na   0.292467   0.302105
     3  Na  -0.073775   0.003425
     4  Na  -0.338327  -0.047139
     5  Na   1.233691   0.065226
     6  Na   0.056703   0.089499
     7  Na  -1.451715   0.107457
 Sum of Mulliken charges =  -0.00000   1.00000

 Dipole moment (field-independent basis, Debye):
    X=             -0.5686    Y=             -0.0476    Z=              1.1509  Tot=              1.2846
 Quadrupole moment (field-independent basis, Debye-Ang):
   XX=            -59.5749   YY=            -78.5238   ZZ=            -63.2814
   XY=             -4.3992   XZ=             -0.6079   YZ=              8.9657

 Normal termination of Gaussian 16 at Tue Dec  5 22:06:00 2023.
