 Gaussian 16, Revision B.01,
 Gaussian 16:  ES64L-G16RevB.01 20-Dec-2017

 -------------------------
 #P B3LYP/6-311+g(d) force
 -------------------------

 -----
 DPGEN
 -----
 Symbolic Z-matrix:
 Charge =  0 Multiplicity = 2

                         Standard orientation:
 ---------------------------------------------------------------------
 Center     Atomic      Atomic             Coordinates (Angstroms)
 Number     Number       Type             X           Y           Z
 ---------------------------------------------------------------------
      1         11           0       -2.416962    1.603816    0.509861
      2         11           0       -2.683684   -1.969749   -0.103966
      3         11           0        1.183918   -2.604073   -0.524866
      4         11           0        0.143851    0.145326   -1.911665
      5         11           0        0.448800    2.977428   -0.554370
      6         11           0        3.203820    0.108439    0.579729
      7         11           0        0.120257   -0.261188    2.005278
 ---------------------------------------------------------------------

 SCF Done:  E(UB3LYP) =  -1136.13593729     A.U. after   19 cycles

 The electronic state is 2-A.
 Alpha  occ. eigenvalues --  -38.44024 -38.44010 -38.43762 -38.43761 -38.43685
 Alpha  occ. eigenvalues --  -38.43624 -38.43261  -2.19901  -2.19821  -2.19682
 Alpha  occ. eigenvalues --   -2.19538  -2.19532  -2.19468  -2.19111  -1.13577
 Alpha  occ. eigenvalues --   -1.13550  -1.13538  -1.13481  -1.13461  -1.13460
 Alpha  occ. eigenvalues --   -1.13373  -1.13353  -1.13299  -1.13218  -1.13209
 Alpha  occ. eigenvalues --   -1.13196  -1.13192  -1.13182  -1.13155  -1.13138
 Alpha  occ. eigenvalues --   -1.13129  -1.13093  -1.12800  -1.12753  -1.12738
 Alpha  occ. eigenvalues --   -0.18288  -0.12829  -0.12247  -0.11243
 Alpha virt. eigenvalues --   -0.05495  -0.05057  -0.04722  -0.03377  -0.03090
 Alpha virt. eigenvalues --   -0.02916  -0.01489  -0.01108  -0.00368  -0.00212
 Alpha virt. eigenvalues --   -0.00014   0.00360   0.00811   0.00857   0.00880

  Beta  occ. eigenvalues --  -38.43995 -38.43945 -38.43766 -38.43683 -38.43670
  Beta  occ. eigenvalues --  -38.43615 -38.43251  -2.19796  -2.19757  -2.19549
  Beta  occ. eigenvalues --   -2.19537  -2.19508  -2.19453  -2.19096  -1.13499
  Beta  occ. eigenvalues --   -1.13466  -1.13454  -1.13442  -1.13439  -1.13395
  Beta  occ. eigenvalues --   -1.13284  -1.13255  -1.13224  -1.13205  -1.13196
  Beta  occ. eigenvalues --   -1.13187  -1.13168  -1.13157  -1.13137  -1.13120
  Beta  occ. eigenvalues --   -1.13111  -1.13085  -1.12776  -1.12740  -1.12727
  Beta  occ. eigenvalues --   -0.17547  -0.12578  -0.12010
  Beta virt. eigenvalues --   -0.07358  -0.05415  -0.04966  -0.04641  -0.02648
  Beta virt. eigenvalues --   -0.02395  -0.01925  -0.01374  -0.01014  -0.00361
  Beta virt. eigenvalues --   -0.00209   0.00085   0.00392   0.00860   0.00884

 Mulliken charges and spin densities:
               1          2
     1  Na   0.020442  -0.005585
     2  Na  -0.134885  -0.101581
     3  Na   0.105939  -0.045577
     4  Na  -0.010455   0.553141
     5  Na   0.099446  -0.022828
     6  Na   0.056617   0.027021
     7  Na  -0.137104   0.595410
 Sum of Mulliken charges =  -0.00000   1.00000

 Dipole moment (field-independent basis, Debye):
    X=              0.1952    Y=             -0.1586    Z=              0.1475  Tot=              0.2916
 Quadrupole moment (field-independent basis, Debye-Ang):
   XX=            -59.3349   YY=            -63.5421   ZZ=            -71.9612
   XY=              0.7770   XZ=              0.1803   YZ=              1.2837

 Normal termination of Gaussian 16 at Tue Dec  5 19:18:56 2023.
