 Gaussian 16, Revision B.01,
 Gaussian 16:  ES64L-G16RevB.01 20-Dec-2017

 -------------------------
 #P B3LYP/6-311+g(d) force
 -------------------------

 -----
 DPGEN
 -----
 Symbolic Z-matrix:
 Charge =  0 Multiplicity = 2

                         Standard orientation:
 ---------------------------------------------------------------------
 Center     Atomic      Atomic             Coordinates (Angstroms)
 Number     Number       Type             X           Y           Z
 ---------------------------------------------------------------------
      1         11           0        1.705620    3.827331    0.500904
      2         11           0        3.573226   -2.489770    1.029264
      3         11           0       -2.224576   -1.196466   -0.682396
      4         11           0       -1.556359    2.337745   -0.469167
      5         11           0        0.636837   -3.276567   -0.626790
      6         11           0       -5.024923   -0.394986    0.896832
      7         11           0        2.890176    1.192711   -0.648646
 ---------------------------------------------------------------------

 SCF Done:  E(UB3LYP) =  -1136.11233707     A.U. after   21 cycles

 The electronic state is 2-A.
 Alpha  occ. eigenvalues --  -38.45751 -38.45093 -38.44520 -38.44339 -38.43964
 Alpha  occ. eigenvalues --  -38.43798 -38.43577  -2.21490  -2.20871  -2.20324
 Alpha  occ. eigenvalues --   -2.20098  -2.19777  -2.19594  -2.19406  -1.15190
 Alpha  occ. eigenvalues --   -1.15177  -1.15078  -1.14571  -1.14537  -1.14500
 Alpha  occ. eigenvalues --   -1.13999  -1.13985  -1.13956  -1.13771  -1.13749
 Alpha  occ. eigenvalues --   -1.13742  -1.13433  -1.13416  -1.13385  -1.13267
 Alpha  occ. eigenvalues --   -1.13256  -1.13220  -1.13095  -1.13086  -1.13029
 Alpha  occ. eigenvalues --   -0.15965  -0.13699  -0.13075  -0.10189
 Alpha virt. eigenvalues --   -0.07173  -0.06136  -0.04245  -0.03636  -0.02748
 Alpha virt. eigenvalues --   -0.02314  -0.02022  -0.01759  -0.01560  -0.01303
 Alpha virt. eigenvalues --   -0.00239   0.00012   0.00054   0.00366   0.00590

  Beta  occ. eigenvalues --  -38.45739 -38.45076 -38.44529 -38.44326 -38.43866
  Beta  occ. eigenvalues --  -38.43762 -38.43558  -2.21466  -2.20840  -2.20343
  Beta  occ. eigenvalues --   -2.20074  -2.19593  -2.19528  -2.19379  -1.15171
  Beta  occ. eigenvalues --   -1.15160  -1.15064  -1.14553  -1.14512  -1.14474
  Beta  occ. eigenvalues --   -1.14009  -1.13999  -1.13960  -1.13754  -1.13732
  Beta  occ. eigenvalues --   -1.13723  -1.13309  -1.13290  -1.13265  -1.13224
  Beta  occ. eigenvalues --   -1.13208  -1.13166  -1.13075  -1.13072  -1.12967
  Beta  occ. eigenvalues --   -0.15594  -0.13158  -0.12811
  Beta virt. eigenvalues --   -0.06956  -0.06630  -0.05807  -0.03868  -0.03490
  Beta virt. eigenvalues --   -0.02553  -0.02101  -0.01723  -0.01514  -0.01479
  Beta virt. eigenvalues --   -0.00775   0.00013   0.00145   0.00363   0.00531

 Mulliken charges and spin densities:
               1          2
     1  Na   0.421000  -0.042986
     2  Na   0.213683   0.114630
     3  Na  -0.655667   0.124125
     4  Na   0.055721   0.040757
     5  Na  -0.177492   0.097446
     6  Na   0.654050   0.513751
     7  Na  -0.511295   0.152277
 Sum of Mulliken charges =  -0.00000   1.00000

 Dipole moment (field-independent basis, Debye):
    X=              0.6903    Y=              1.5575    Z=              0.2706  Tot=              1.7250
 Quadrupole moment (field-independent basis, Debye-Ang):
   XX=            -70.9945   YY=            -59.4611   ZZ=            -70.1565
   XY=             -1.5652   XZ=              1.4355   YZ=              0.5799

 Normal termination of Gaussian 16 at Sun Dec  3 14:31:40 2023.
