 Gaussian 16, Revision B.01,
 Gaussian 16:  ES64L-G16RevB.01 20-Dec-2017

 -------------------------
 #P B3LYP/6-311+g(d) force
 -------------------------

 -----
 DPGEN
 -----
 Symbolic Z-matrix:
 Charge =  0 Multiplicity = 2

                         Standard orientation:
 ---------------------------------------------------------------------
 Center     Atomic      Atomic             Coordinates (Angstroms)
 Number     Number       Type             X           Y           Z
 ---------------------------------------------------------------------
      1         11           0       -1.504027    2.280306    0.158224
      2         11           0        1.747543   -0.166800    1.804376
      3         11           0       -1.626043   -1.344117    1.651268
      4         11           0       -3.526126   -0.716825   -0.868789
      5         11           0        1.536969    2.072483   -0.404084
      6         11           0        3.517050   -1.224964   -0.822658
      7         11           0       -0.145366   -0.900083   -1.518337
 ---------------------------------------------------------------------

 SCF Done:  E(UB3LYP) =  -1136.12737708     A.U. after   22 cycles

 The electronic state is 2-A.
 Alpha  occ. eigenvalues --  -38.44520 -38.44477 -38.44168 -38.44153 -38.44055
 Alpha  occ. eigenvalues --  -38.42895 -38.42808  -2.20361  -2.20338  -2.20063
 Alpha  occ. eigenvalues --   -2.19960  -2.19926  -2.18808  -2.18658  -1.14045
 Alpha  occ. eigenvalues --   -1.14040  -1.14023  -1.14003  -1.13994  -1.13931
 Alpha  occ. eigenvalues --   -1.13741  -1.13735  -1.13698  -1.13620  -1.13615
 Alpha  occ. eigenvalues --   -1.13597  -1.13580  -1.13567  -1.13542  -1.12524
 Alpha  occ. eigenvalues --   -1.12494  -1.12442  -1.12321  -1.12309  -1.12270
 Alpha  occ. eigenvalues --   -0.18449  -0.14014  -0.11423  -0.11194
 Alpha virt. eigenvalues --   -0.06481  -0.05239  -0.04762  -0.03326  -0.02679
 Alpha virt. eigenvalues --   -0.02420  -0.02276  -0.01131  -0.00631  -0.00118
 Alpha virt. eigenvalues --    0.00191   0.00253   0.00421   0.00564   0.00760

  Beta  occ. eigenvalues --  -38.44510 -38.44434 -38.44142 -38.44113 -38.43997
  Beta  occ. eigenvalues --  -38.42888 -38.42807  -2.20344  -2.20260  -2.19963
  Beta  occ. eigenvalues --   -2.19941  -2.19820  -2.18798  -2.18658  -1.14023
  Beta  occ. eigenvalues --   -1.14010  -1.13989  -1.13977  -1.13940  -1.13877
  Beta  occ. eigenvalues --   -1.13678  -1.13653  -1.13648  -1.13602  -1.13590
  Beta  occ. eigenvalues --   -1.13552  -1.13526  -1.13497  -1.13452  -1.12521
  Beta  occ. eigenvalues --   -1.12477  -1.12432  -1.12311  -1.12305  -1.12271
  Beta  occ. eigenvalues --   -0.17735  -0.13888  -0.11066
  Beta virt. eigenvalues --   -0.07412  -0.06274  -0.05005  -0.04259  -0.03094
  Beta virt. eigenvalues --   -0.02213  -0.01898  -0.01769  -0.00929  -0.00320
  Beta virt. eigenvalues --   -0.00061   0.00216   0.00360   0.00513   0.00711

 Mulliken charges and spin densities:
               1          2
     1  Na  -0.428858   0.055339
     2  Na  -0.010408   0.169555
     3  Na  -0.207342   0.162051
     4  Na   1.129431   0.126164
     5  Na   0.036535   0.085371
     6  Na   0.417381   0.020281
     7  Na  -0.936739   0.381240
 Sum of Mulliken charges =  -0.00000   1.00000

 Dipole moment (field-independent basis, Debye):
    X=             -0.3553    Y=             -0.4327    Z=             -0.2657  Tot=              0.6197
 Quadrupole moment (field-independent basis, Debye-Ang):
   XX=            -49.7357   YY=            -77.4245   ZZ=            -68.2177
   XY=             -0.3262   XZ=              0.3402   YZ=              0.4484

 Normal termination of Gaussian 16 at Wed Nov 29 15:42:24 2023.
