 Gaussian 16, Revision B.01,
 Gaussian 16:  ES64L-G16RevB.01 20-Dec-2017

 -------------------------
 #P B3LYP/6-311+g(d) force
 -------------------------

 -----
 DPGEN
 -----
 Symbolic Z-matrix:
 Charge =  0 Multiplicity = 2

                         Standard orientation:
 ---------------------------------------------------------------------
 Center     Atomic      Atomic             Coordinates (Angstroms)
 Number     Number       Type             X           Y           Z
 ---------------------------------------------------------------------
      1         11           0        0.542432    0.008616   -1.410443
      2         11           0       -0.535119    2.222941   -0.108443
      3         11           0        3.233512    0.015256   -0.321843
      4         11           0        1.030234    0.135206    1.564357
      5         11           0       -1.764569   -0.023932    1.490457
      6         11           0       -0.292418   -2.220465    0.040657
      7         11           0       -2.214072   -0.137622   -1.254743
 ---------------------------------------------------------------------

 SCF Done:  E(UB3LYP) =  -1136.08427701     A.U. after   26 cycles

 The electronic state is 2-A.
 Alpha  occ. eigenvalues --  -38.44615 -38.44351 -38.44348 -38.44074 -38.43977
 Alpha  occ. eigenvalues --  -38.42492 -38.42470  -2.20538  -2.20534  -2.20479
 Alpha  occ. eigenvalues --   -2.20404  -2.20174  -2.18571  -2.18551  -1.14528
 Alpha  occ. eigenvalues --   -1.14466  -1.14394  -1.14318  -1.14230  -1.14128
 Alpha  occ. eigenvalues --   -1.14098  -1.14094  -1.14069  -1.13977  -1.13948
 Alpha  occ. eigenvalues --   -1.13863  -1.13801  -1.13743  -1.13723  -1.12310
 Alpha  occ. eigenvalues --   -1.12288  -1.12224  -1.12207  -1.12141  -1.12113
 Alpha  occ. eigenvalues --   -0.21237  -0.13852  -0.12776  -0.11955
 Alpha virt. eigenvalues --   -0.05828  -0.04134  -0.03737  -0.03391  -0.02966
 Alpha virt. eigenvalues --   -0.02863  -0.01557  -0.00449  -0.00265   0.00303
 Alpha virt. eigenvalues --    0.00596   0.00732   0.01014   0.01044   0.01055

  Beta  occ. eigenvalues --  -38.44609 -38.44306 -38.44285 -38.44002 -38.43909
  Beta  occ. eigenvalues --  -38.42481 -38.42458  -2.20524  -2.20437  -2.20387
  Beta  occ. eigenvalues --   -2.20285  -2.20054  -2.18556  -2.18535  -1.14456
  Beta  occ. eigenvalues --   -1.14386  -1.14309  -1.14277  -1.14192  -1.14105
  Beta  occ. eigenvalues --   -1.14036  -1.14025  -1.13990  -1.13919  -1.13880
  Beta  occ. eigenvalues --   -1.13782  -1.13722  -1.13642  -1.13636  -1.12303
  Beta  occ. eigenvalues --   -1.12283  -1.12170  -1.12147  -1.12133  -1.12107
  Beta  occ. eigenvalues --   -0.20402  -0.13695  -0.11605
  Beta virt. eigenvalues --   -0.08327  -0.05761  -0.03495  -0.03386  -0.03322
  Beta virt. eigenvalues --   -0.02078  -0.01999  -0.01478  -0.00244  -0.00147
  Beta virt. eigenvalues --    0.00327   0.00659   0.00896   0.01005   0.01034

 Mulliken charges and spin densities:
               1          2
     1  Na   0.184650   0.216964
     2  Na  -0.935021   0.297073
     3  Na  -0.180376   0.103832
     4  Na   0.087619   0.136896
     5  Na   0.860457   0.178210
     6  Na  -1.020401   0.175328
     7  Na   1.003072  -0.108303
 Sum of Mulliken charges =  -0.00000   1.00000

 Dipole moment (field-independent basis, Debye):
    X=              0.4172    Y=             -0.0084    Z=              0.0373  Tot=              0.4189
 Quadrupole moment (field-independent basis, Debye-Ang):
   XX=            -55.1122   YY=            -74.6271   ZZ=            -65.2219
   XY=             -0.0341   XZ=             -0.1971   YZ=             -0.1751

 Normal termination of Gaussian 16 at Fri Dec  8 20:02:21 2023.
