 Gaussian 16, Revision B.01,
 Gaussian 16:  ES64L-G16RevB.01 20-Dec-2017

 -------------------------
 #P B3LYP/6-311+g(d) force
 -------------------------

 -----
 DPGEN
 -----
 Symbolic Z-matrix:
 Charge =  0 Multiplicity = 2

                         Standard orientation:
 ---------------------------------------------------------------------
 Center     Atomic      Atomic             Coordinates (Angstroms)
 Number     Number       Type             X           Y           Z
 ---------------------------------------------------------------------
      1         11           0        3.127932    0.394842    0.081267
      2         11           0        0.847723   -2.676512    0.644891
      3         11           0       -0.174477    0.264027    1.958870
      4         11           0        0.945556   -0.756960   -1.799270
      5         11           0       -2.664437   -1.702242   -0.497790
      6         11           0        0.649033    2.806782   -0.338365
      7         11           0       -2.731330    1.670063   -0.049603
 ---------------------------------------------------------------------

 SCF Done:  E(UB3LYP) =  -1136.13503125     A.U. after   18 cycles

 The electronic state is 2-A.
 Alpha  occ. eigenvalues --  -38.44196 -38.44004 -38.43746 -38.43702 -38.43564
 Alpha  occ. eigenvalues --  -38.43537 -38.43495  -2.20050  -2.19798  -2.19621
 Alpha  occ. eigenvalues --   -2.19562  -2.19460  -2.19409  -2.19323  -1.13770
 Alpha  occ. eigenvalues --   -1.13703  -1.13679  -1.13475  -1.13461  -1.13436
 Alpha  occ. eigenvalues --   -1.13328  -1.13261  -1.13242  -1.13239  -1.13226
 Alpha  occ. eigenvalues --   -1.13203  -1.13147  -1.13112  -1.13083  -1.13060
 Alpha  occ. eigenvalues --   -1.13048  -1.13018  -1.12999  -1.12990  -1.12950
 Alpha  occ. eigenvalues --   -0.18339  -0.13075  -0.12449  -0.10800
 Alpha virt. eigenvalues --   -0.05749  -0.05304  -0.04690  -0.03341  -0.03099
 Alpha virt. eigenvalues --   -0.02540  -0.01481  -0.00993  -0.00535  -0.00376
 Alpha virt. eigenvalues --   -0.00035   0.00376   0.00820   0.00842   0.00851

  Beta  occ. eigenvalues --  -38.44191 -38.43993 -38.43745 -38.43646 -38.43518
  Beta  occ. eigenvalues --  -38.43491 -38.43477  -2.20045  -2.19779  -2.19561
  Beta  occ. eigenvalues --   -2.19517  -2.19378  -2.19318  -2.19301  -1.13757
  Beta  occ. eigenvalues --   -1.13689  -1.13669  -1.13458  -1.13443  -1.13425
  Beta  occ. eigenvalues --   -1.13267  -1.13229  -1.13224  -1.13200  -1.13190
  Beta  occ. eigenvalues --   -1.13166  -1.13072  -1.13026  -1.13019  -1.13001
  Beta  occ. eigenvalues --   -1.12990  -1.12986  -1.12968  -1.12952  -1.12938
  Beta  occ. eigenvalues --   -0.17631  -0.12848  -0.12238
  Beta virt. eigenvalues --   -0.06950  -0.05660  -0.05280  -0.04529  -0.02662
  Beta virt. eigenvalues --   -0.02375  -0.01551  -0.01399  -0.00933  -0.00532
  Beta virt. eigenvalues --   -0.00392   0.00125   0.00432   0.00856   0.00866

 Mulliken charges and spin densities:
               1          2
     1  Na   0.440650   0.024060
     2  Na   0.135434   0.000188
     3  Na  -0.073945   0.587236
     4  Na  -0.103470   0.520847
     5  Na  -0.166876  -0.009722
     6  Na  -0.255438  -0.100738
     7  Na   0.023645  -0.021871
 Sum of Mulliken charges =  -0.00000   1.00000

 Dipole moment (field-independent basis, Debye):
    X=              0.1581    Y=             -0.0087    Z=             -0.0328  Tot=              0.1617
 Quadrupole moment (field-independent basis, Debye-Ang):
   XX=            -58.2045   YY=            -64.1349   ZZ=            -72.8780
   XY=              0.3015   XZ=              1.9990   YZ=             -1.3382

 Normal termination of Gaussian 16 at Mon Dec  4 03:39:12 2023.
