 Gaussian 16, Revision B.01,
 Gaussian 16:  ES64L-G16RevB.01 20-Dec-2017

 -------------------------
 #P B3LYP/6-311+g(d) force
 -------------------------

 -----
 DPGEN
 -----
 Symbolic Z-matrix:
 Charge =  0 Multiplicity = 2

                         Standard orientation:
 ---------------------------------------------------------------------
 Center     Atomic      Atomic             Coordinates (Angstroms)
 Number     Number       Type             X           Y           Z
 ---------------------------------------------------------------------
      1         11           0        3.385377   -0.837215   -0.550475
      2         11           0       -0.198523   -0.303698   -1.452045
      3         11           0        1.521166    2.413274   -0.446421
      4         11           0        0.511864   -2.733777    0.702320
      5         11           0       -2.060303    2.103764   -0.027685
      6         11           0       -3.384295   -1.380176   -0.398763
      7         11           0        0.224713    0.737829    2.173069
 ---------------------------------------------------------------------

 SCF Done:  E(UB3LYP) =  -1136.13370245     A.U. after   20 cycles

 The electronic state is 2-A.
 Alpha  occ. eigenvalues --  -38.44340 -38.44152 -38.43773 -38.43710 -38.43607
 Alpha  occ. eigenvalues --  -38.43373 -38.43360  -2.20121  -2.19921  -2.19619
 Alpha  occ. eigenvalues --   -2.19586  -2.19421  -2.19319  -2.19221  -1.13796
 Alpha  occ. eigenvalues --   -1.13772  -1.13760  -1.13598  -1.13571  -1.13564
 Alpha  occ. eigenvalues --   -1.13320  -1.13312  -1.13241  -1.13230  -1.13227
 Alpha  occ. eigenvalues --   -1.13187  -1.13128  -1.13086  -1.13035  -1.13018
 Alpha  occ. eigenvalues --   -1.12983  -1.12934  -1.12895  -1.12881  -1.12831
 Alpha  occ. eigenvalues --   -0.18166  -0.12841  -0.12213  -0.10791
 Alpha virt. eigenvalues --   -0.05980  -0.05358  -0.04458  -0.03112  -0.02936
 Alpha virt. eigenvalues --   -0.02554  -0.01912  -0.01277  -0.00415  -0.00318
 Alpha virt. eigenvalues --   -0.00086   0.00272   0.00710   0.00791   0.00841

  Beta  occ. eigenvalues --  -38.44330 -38.44150 -38.43768 -38.43613 -38.43587
  Beta  occ. eigenvalues --  -38.43348 -38.43335  -2.20104  -2.19919  -2.19613
  Beta  occ. eigenvalues --   -2.19406  -2.19385  -2.19251  -2.19203  -1.13778
  Beta  occ. eigenvalues --   -1.13755  -1.13748  -1.13591  -1.13568  -1.13564
  Beta  occ. eigenvalues --   -1.13314  -1.13283  -1.13223  -1.13125  -1.13109
  Beta  occ. eigenvalues --   -1.13102  -1.13062  -1.13039  -1.13016  -1.12975
  Beta  occ. eigenvalues --   -1.12932  -1.12892  -1.12868  -1.12852  -1.12810
  Beta  occ. eigenvalues --   -0.17478  -0.12584  -0.12012
  Beta virt. eigenvalues --   -0.06961  -0.05803  -0.05336  -0.04297  -0.02451
  Beta virt. eigenvalues --   -0.02333  -0.01818  -0.01537  -0.01238  -0.00362
  Beta virt. eigenvalues --   -0.00285   0.00069   0.00325   0.00794   0.00801

 Mulliken charges and spin densities:
               1          2
     1  Na   0.067947   0.000539
     2  Na  -0.075007   0.262835
     3  Na   0.094978   0.036086
     4  Na  -0.055635   0.143469
     5  Na   0.188001   0.005522
     6  Na   0.079383  -0.012665
     7  Na  -0.299667   0.564214
 Sum of Mulliken charges =  -0.00000   1.00000

 Dipole moment (field-independent basis, Debye):
    X=              0.0118    Y=             -0.0032    Z=              0.1460  Tot=              0.1466
 Quadrupole moment (field-independent basis, Debye-Ang):
   XX=            -54.2553   YY=            -65.0369   ZZ=            -73.5649
   XY=             -0.0030   XZ=             -1.1767   YZ=             -1.5477

 Normal termination of Gaussian 16 at Thu Dec  7 23:24:58 2023.
