 Gaussian 16, Revision B.01,
 Gaussian 16:  ES64L-G16RevB.01 20-Dec-2017

 -------------------------
 #P B3LYP/6-311+g(d) force
 -------------------------

 -----
 DPGEN
 -----
 Symbolic Z-matrix:
 Charge =  0 Multiplicity = 2

                         Standard orientation:
 ---------------------------------------------------------------------
 Center     Atomic      Atomic             Coordinates (Angstroms)
 Number     Number       Type             X           Y           Z
 ---------------------------------------------------------------------
      1         11           0        3.149179   -0.522777   -0.041452
      2         11           0       -0.212914   -0.304664   -1.472396
      3         11           0        0.552969   -3.054853   -0.279867
      4         11           0        1.508766    2.852953   -0.270164
      5         11           0       -3.038431   -1.232062    0.191988
      6         11           0       -2.192812    2.186569   -0.216876
      7         11           0        0.233242    0.074835    2.088768
 ---------------------------------------------------------------------

 SCF Done:  E(UB3LYP) =  -1136.13630624     A.U. after   19 cycles

 The electronic state is 2-A.
 Alpha  occ. eigenvalues --  -38.44186 -38.44140 -38.43848 -38.43742 -38.43711
 Alpha  occ. eigenvalues --  -38.43503 -38.43046  -2.19990  -2.19944  -2.19665
 Alpha  occ. eigenvalues --   -2.19548  -2.19529  -2.19360  -2.19020  -1.13668
 Alpha  occ. eigenvalues --   -1.13654  -1.13626  -1.13620  -1.13604  -1.13586
 Alpha  occ. eigenvalues --   -1.13352  -1.13328  -1.13292  -1.13275  -1.13205
 Alpha  occ. eigenvalues --   -1.13198  -1.13185  -1.13171  -1.13166  -1.13030
 Alpha  occ. eigenvalues --   -1.12984  -1.12974  -1.12710  -1.12661  -1.12637
 Alpha  occ. eigenvalues --   -0.18199  -0.12879  -0.12427  -0.10343
 Alpha virt. eigenvalues --   -0.05715  -0.05431  -0.05039  -0.03023  -0.02764
 Alpha virt. eigenvalues --   -0.02320  -0.01615  -0.01339  -0.00714  -0.00671
 Alpha virt. eigenvalues --   -0.00006   0.00334   0.00771   0.00806   0.00829

  Beta  occ. eigenvalues --  -38.44184 -38.44137 -38.43843 -38.43738 -38.43702
  Beta  occ. eigenvalues --  -38.43403 -38.42995  -2.19988  -2.19941  -2.19658
  Beta  occ. eigenvalues --   -2.19536  -2.19524  -2.19175  -2.18929  -1.13655
  Beta  occ. eigenvalues --   -1.13645  -1.13626  -1.13612  -1.13589  -1.13587
  Beta  occ. eigenvalues --   -1.13341  -1.13313  -1.13289  -1.13259  -1.13189
  Beta  occ. eigenvalues --   -1.13182  -1.13174  -1.13167  -1.13161  -1.12906
  Beta  occ. eigenvalues --   -1.12855  -1.12841  -1.12640  -1.12592  -1.12574
  Beta  occ. eigenvalues --   -0.17508  -0.12682  -0.12195
  Beta virt. eigenvalues --   -0.06475  -0.05663  -0.05445  -0.04945  -0.02284
  Beta virt. eigenvalues --   -0.02050  -0.01516  -0.01281  -0.01250  -0.00762
  Beta virt. eigenvalues --   -0.00718   0.00151   0.00376   0.00801   0.00819

 Mulliken charges and spin densities:
               1          2
     1  Na   0.157554  -0.035711
     2  Na  -0.173872   0.361832
     3  Na   0.256362  -0.033808
     4  Na  -0.029785  -0.049637
     5  Na   0.128446  -0.003947
     6  Na   0.098182  -0.037807
     7  Na  -0.436887   0.799078
 Sum of Mulliken charges =  -0.00000   1.00000

 Dipole moment (field-independent basis, Debye):
    X=             -0.0333    Y=             -0.1190    Z=              0.1196  Tot=              0.1719
 Quadrupole moment (field-independent basis, Debye-Ang):
   XX=            -55.4458   YY=            -59.8811   ZZ=            -76.8086
   XY=              0.3640   XZ=             -1.0663   YZ=             -0.9458

 Normal termination of Gaussian 16 at Fri Dec  8 07:46:33 2023.
