 Gaussian 16, Revision B.01,
 Gaussian 16:  ES64L-G16RevB.01 20-Dec-2017

 -------------------------
 #P B3LYP/6-311+g(d) force
 -------------------------

 -----
 DPGEN
 -----
 Symbolic Z-matrix:
 Charge =  0 Multiplicity = 2

                         Standard orientation:
 ---------------------------------------------------------------------
 Center     Atomic      Atomic             Coordinates (Angstroms)
 Number     Number       Type             X           Y           Z
 ---------------------------------------------------------------------
      1         11           0       -0.851699   -1.895632    0.550668
      2         11           0       -4.343297   -2.776630   -0.234883
      3         11           0       -2.849173    0.415512   -0.415649
      4         11           0       -2.087511    3.576850    0.146998
      5         11           0        0.641372    1.656128   -0.323063
      6         11           0        3.133773   -0.037103    0.923219
      7         11           0        6.356535   -0.939125   -0.647289
 ---------------------------------------------------------------------

 SCF Done:  E(UB3LYP) =  -1136.12116593     A.U. after   20 cycles

 The electronic state is 2-A.
 Alpha  occ. eigenvalues --  -38.45049 -38.44723 -38.44568 -38.43953 -38.43884
 Alpha  occ. eigenvalues --  -38.43414 -38.43399  -2.20854  -2.20502  -2.20351
 Alpha  occ. eigenvalues --   -2.19843  -2.19742  -2.19250  -2.19186  -1.14580
 Alpha  occ. eigenvalues --   -1.14542  -1.14415  -1.14174  -1.14170  -1.14113
 Alpha  occ. eigenvalues --   -1.13987  -1.13986  -1.13953  -1.13574  -1.13543
 Alpha  occ. eigenvalues --   -1.13442  -1.13423  -1.13409  -1.13364  -1.12913
 Alpha  occ. eigenvalues --   -1.12900  -1.12888  -1.12874  -1.12862  -1.12824
 Alpha  occ. eigenvalues --   -0.16858  -0.13598  -0.12661  -0.10995
 Alpha virt. eigenvalues --   -0.06452  -0.05174  -0.04816  -0.03752  -0.02728
 Alpha virt. eigenvalues --   -0.02336  -0.01958  -0.01524  -0.01472  -0.00827
 Alpha virt. eigenvalues --   -0.00375  -0.00150   0.00130   0.00276   0.00604

  Beta  occ. eigenvalues --  -38.45020 -38.44712 -38.44448 -38.43942 -38.43868
  Beta  occ. eigenvalues --  -38.43411 -38.43392  -2.20802  -2.20481  -2.20126
  Beta  occ. eigenvalues --   -2.19824  -2.19715  -2.19216  -2.19209  -1.14547
  Beta  occ. eigenvalues --   -1.14508  -1.14365  -1.14156  -1.14155  -1.14101
  Beta  occ. eigenvalues --   -1.13834  -1.13833  -1.13806  -1.13547  -1.13531
  Beta  occ. eigenvalues --   -1.13426  -1.13407  -1.13386  -1.13340  -1.12911
  Beta  occ. eigenvalues --   -1.12887  -1.12881  -1.12873  -1.12853  -1.12798
  Beta  occ. eigenvalues --   -0.16452  -0.13175  -0.12096
  Beta virt. eigenvalues --   -0.07551  -0.06059  -0.04953  -0.04470  -0.03500
  Beta virt. eigenvalues --   -0.02469  -0.02150  -0.01775  -0.01234  -0.01021
  Beta virt. eigenvalues --   -0.00459  -0.00037   0.00006   0.00285   0.00425

 Mulliken charges and spin densities:
               1          2
     1  Na  -0.284843   0.166924
     2  Na   0.823170   0.056430
     3  Na  -0.916028   0.222106
     4  Na   1.190582   0.166002
     5  Na  -1.103293  -0.094896
     6  Na   0.202143  -0.136785
     7  Na   0.088267   0.620218
 Sum of Mulliken charges =  -0.00000   1.00000

 Dipole moment (field-independent basis, Debye):
    X=             -1.9053    Y=             -0.8143    Z=             -0.0140  Tot=              2.0720
 Quadrupole moment (field-independent basis, Debye-Ang):
   XX=            -62.8201   YY=            -61.5349   ZZ=            -71.0802
   XY=              5.6675   XZ=             -1.1797   YZ=              0.9411

 Normal termination of Gaussian 16 at Tue Nov 28 23:45:22 2023.
