 Gaussian 16, Revision B.01,
 Gaussian 16:  ES64L-G16RevB.01 20-Dec-2017

 -------------------------
 #P B3LYP/6-311+g(d) force
 -------------------------

 -----
 DPGEN
 -----
 Symbolic Z-matrix:
 Charge =  0 Multiplicity = 2

                         Standard orientation:
 ---------------------------------------------------------------------
 Center     Atomic      Atomic             Coordinates (Angstroms)
 Number     Number       Type             X           Y           Z
 ---------------------------------------------------------------------
      1         11           0        3.359358   -0.813098    0.121799
      2         11           0        1.288478    2.662777   -0.183180
      3         11           0        0.681206   -0.204509   -1.769947
      4         11           0       -0.080617    0.353767    1.899089
      5         11           0       -3.205161   -1.313914   -0.302315
      6         11           0        0.253380   -2.476907    0.296222
      7         11           0       -2.296644    1.791884   -0.061669
 ---------------------------------------------------------------------

 SCF Done:  E(UB3LYP) =  -1136.13247810     A.U. after   19 cycles

 The electronic state is 2-A.
 Alpha  occ. eigenvalues --  -38.44895 -38.44080 -38.43769 -38.43576 -38.43345
 Alpha  occ. eigenvalues --  -38.43204 -38.43180  -2.20697  -2.19882  -2.19623
 Alpha  occ. eigenvalues --   -2.19520  -2.19280  -2.19081  -2.19049  -1.14375
 Alpha  occ. eigenvalues --   -1.14345  -1.14342  -1.13575  -1.13542  -1.13518
 Alpha  occ. eigenvalues --   -1.13321  -1.13286  -1.13243  -1.13232  -1.13171
 Alpha  occ. eigenvalues --   -1.13129  -1.12967  -1.12919  -1.12898  -1.12777
 Alpha  occ. eigenvalues --   -1.12749  -1.12728  -1.12713  -1.12671  -1.12666
 Alpha  occ. eigenvalues --   -0.18590  -0.13268  -0.12166  -0.10641
 Alpha virt. eigenvalues --   -0.06305  -0.05201  -0.04188  -0.03298  -0.02787
 Alpha virt. eigenvalues --   -0.02425  -0.02075  -0.01138  -0.00316  -0.00166
 Alpha virt. eigenvalues --   -0.00053   0.00297   0.00746   0.00819   0.00841

  Beta  occ. eigenvalues --  -38.44894 -38.44077 -38.43764 -38.43511 -38.43256
  Beta  occ. eigenvalues --  -38.43198 -38.43165  -2.20700  -2.19877  -2.19617
  Beta  occ. eigenvalues --   -2.19400  -2.19117  -2.19058  -2.19041  -1.14362
  Beta  occ. eigenvalues --   -1.14348  -1.14339  -1.13573  -1.13528  -1.13515
  Beta  occ. eigenvalues --   -1.13307  -1.13269  -1.13242  -1.13150  -1.13087
  Beta  occ. eigenvalues --   -1.13043  -1.12865  -1.12812  -1.12786  -1.12752
  Beta  occ. eigenvalues --   -1.12714  -1.12694  -1.12684  -1.12663  -1.12656
  Beta  occ. eigenvalues --   -0.17864  -0.13055  -0.11920
  Beta virt. eigenvalues --   -0.06774  -0.06199  -0.05187  -0.04150  -0.02568
  Beta virt. eigenvalues --   -0.02045  -0.01967  -0.01396  -0.01096  -0.00360
  Beta virt. eigenvalues --   -0.00161   0.00090   0.00329   0.00807   0.00832

 Mulliken charges and spin densities:
               1          2
     1  Na   0.294781  -0.134719
     2  Na   0.016228  -0.183111
     3  Na  -0.325373   0.727358
     4  Na  -0.172842   0.591612
     5  Na  -0.113148  -0.030242
     6  Na   0.132704   0.047364
     7  Na   0.167651  -0.018263
 Sum of Mulliken charges =  -0.00000   1.00000

 Dipole moment (field-independent basis, Debye):
    X=              0.5276    Y=             -0.0621    Z=              0.0326  Tot=              0.5322
 Quadrupole moment (field-independent basis, Debye-Ang):
   XX=            -51.2986   YY=            -66.9170   ZZ=            -74.5186
   XY=              0.1317   XZ=              1.8550   YZ=             -0.7887

 Normal termination of Gaussian 16 at Thu Dec  7 14:46:43 2023.
