 Gaussian 16, Revision B.01,
 Gaussian 16:  ES64L-G16RevB.01 20-Dec-2017

 -------------------------
 #P B3LYP/6-311+g(d) force
 -------------------------

 -----
 DPGEN
 -----
 Symbolic Z-matrix:
 Charge =  0 Multiplicity = 2

                         Standard orientation:
 ---------------------------------------------------------------------
 Center     Atomic      Atomic             Coordinates (Angstroms)
 Number     Number       Type             X           Y           Z
 ---------------------------------------------------------------------
      1         11           0       -1.397017    1.000797    1.841346
      2         11           0        0.038398    0.525730   -1.830910
      3         11           0        0.710260    3.290575   -0.373772
      4         11           0        2.376386   -2.603979   -0.534325
      5         11           0        2.410829    0.453469    0.687617
      6         11           0       -3.448948   -0.832138   -0.965958
      7         11           0       -0.689908   -1.834454    1.176002
 ---------------------------------------------------------------------

 SCF Done:  E(UB3LYP) =  -1136.13231865     A.U. after   19 cycles

 The electronic state is 2-A.
 Alpha  occ. eigenvalues --  -38.44238 -38.44033 -38.43992 -38.43852 -38.43510
 Alpha  occ. eigenvalues --  -38.43322 -38.43294  -2.20018  -2.19913  -2.19868
 Alpha  occ. eigenvalues --   -2.19720  -2.19402  -2.19138  -2.19136  -1.13685
 Alpha  occ. eigenvalues --   -1.13678  -1.13641  -1.13627  -1.13597  -1.13564
 Alpha  occ. eigenvalues --   -1.13538  -1.13489  -1.13462  -1.13409  -1.13398
 Alpha  occ. eigenvalues --   -1.13335  -1.13114  -1.13060  -1.12983  -1.12815
 Alpha  occ. eigenvalues --   -1.12803  -1.12794  -1.12785  -1.12776  -1.12774
 Alpha  occ. eigenvalues --   -0.18145  -0.12787  -0.12307  -0.11224
 Alpha virt. eigenvalues --   -0.05594  -0.05051  -0.04637  -0.03576  -0.02981
 Alpha virt. eigenvalues --   -0.02755  -0.01526  -0.01247  -0.00552  -0.00098
 Alpha virt. eigenvalues --    0.00227   0.00320   0.00683   0.00787   0.00801

  Beta  occ. eigenvalues --  -38.44209 -38.43972 -38.43924 -38.43844 -38.43483
  Beta  occ. eigenvalues --  -38.43321 -38.43293  -2.19964  -2.19801  -2.19745
  Beta  occ. eigenvalues --   -2.19708  -2.19358  -2.19138  -2.19135  -1.13649
  Beta  occ. eigenvalues --   -1.13629  -1.13607  -1.13539  -1.13522  -1.13484
  Beta  occ. eigenvalues --   -1.13459  -1.13400  -1.13397  -1.13377  -1.13367
  Beta  occ. eigenvalues --   -1.13333  -1.13071  -1.13007  -1.12962  -1.12806
  Beta  occ. eigenvalues --   -1.12804  -1.12788  -1.12787  -1.12776  -1.12769
  Beta  occ. eigenvalues --   -0.17427  -0.12536  -0.12180
  Beta virt. eigenvalues --   -0.07339  -0.05289  -0.04958  -0.04499  -0.02997
  Beta virt. eigenvalues --   -0.02473  -0.01889  -0.01334  -0.01201  -0.00224
  Beta virt. eigenvalues --   -0.00094   0.00334   0.00364   0.00772   0.00817

 Mulliken charges and spin densities:
               1          2
     1  Na  -0.022407   0.247138
     2  Na  -0.307987   0.532673
     3  Na   0.333739  -0.005693
     4  Na   0.246875  -0.142184
     5  Na  -0.115150   0.106013
     6  Na  -0.171440  -0.035618
     7  Na   0.036369   0.297670
 Sum of Mulliken charges =  -0.00000   1.00000

 Dipole moment (field-independent basis, Debye):
    X=             -0.2999    Y=              0.1896    Z=             -0.1598  Tot=              0.3892
 Quadrupole moment (field-independent basis, Debye-Ang):
   XX=            -61.7612   YY=            -62.8297   ZZ=            -69.9196
   XY=              0.1395   XZ=              1.5949   YZ=              2.6890

 Normal termination of Gaussian 16 at Wed Dec  6 00:22:38 2023.
