 Gaussian 16, Revision B.01,
 Gaussian 16:  ES64L-G16RevB.01 20-Dec-2017

 -------------------------
 #P B3LYP/6-311+g(d) force
 -------------------------

 -----
 DPGEN
 -----
 Symbolic Z-matrix:
 Charge =  0 Multiplicity = 2

                         Standard orientation:
 ---------------------------------------------------------------------
 Center     Atomic      Atomic             Coordinates (Angstroms)
 Number     Number       Type             X           Y           Z
 ---------------------------------------------------------------------
      1         11           0        0.190929   -0.140992   -1.777260
      2         11           0        1.031521   -2.360217    0.439062
      3         11           0        2.951767    0.003645   -0.353047
      4         11           0        0.791666    2.528288    0.376521
      5         11           0       -0.403930    0.122082    1.939042
      6         11           0       -2.239406    1.727507   -0.436718
      7         11           0       -2.322547   -1.880313   -0.187600
 ---------------------------------------------------------------------

 SCF Done:  E(UB3LYP) =  -1136.13668684     A.U. after   17 cycles

 The electronic state is 2-A.
 Alpha  occ. eigenvalues --  -38.43615 -38.43511 -38.43459 -38.43452 -38.43407
 Alpha  occ. eigenvalues --  -38.43229 -38.43131  -2.19598  -2.19428  -2.19407
 Alpha  occ. eigenvalues --   -2.19369  -2.19313  -2.19171  -2.19061  -1.13290
 Alpha  occ. eigenvalues --   -1.13258  -1.13225  -1.13188  -1.13133  -1.13092
 Alpha  occ. eigenvalues --   -1.13063  -1.13053  -1.13042  -1.13034  -1.13000
 Alpha  occ. eigenvalues --   -1.12988  -1.12973  -1.12961  -1.12948  -1.12846
 Alpha  occ. eigenvalues --   -1.12823  -1.12768  -1.12747  -1.12710  -1.12673
 Alpha  occ. eigenvalues --   -0.19446  -0.13048  -0.12709  -0.11373
 Alpha virt. eigenvalues --   -0.05018  -0.04983  -0.04431  -0.03372  -0.03180
 Alpha virt. eigenvalues --   -0.02838  -0.01213  -0.00939  -0.00119   0.00187
 Alpha virt. eigenvalues --    0.00209   0.00376   0.00899   0.00966   0.00983

  Beta  occ. eigenvalues --  -38.43527 -38.43500 -38.43453 -38.43449 -38.43333
  Beta  occ. eigenvalues --  -38.43215 -38.43119  -2.19437  -2.19391  -2.19362
  Beta  occ. eigenvalues --   -2.19309  -2.19291  -2.19151  -2.19044  -1.13193
  Beta  occ. eigenvalues --   -1.13149  -1.13132  -1.13121  -1.13087  -1.13044
  Beta  occ. eigenvalues --   -1.13038  -1.13026  -1.13015  -1.12990  -1.12970
  Beta  occ. eigenvalues --   -1.12959  -1.12948  -1.12942  -1.12898  -1.12826
  Beta  occ. eigenvalues --   -1.12780  -1.12758  -1.12727  -1.12677  -1.12663
  Beta  occ. eigenvalues --   -0.18682  -0.12778  -0.12436
  Beta virt. eigenvalues --   -0.07373  -0.04999  -0.04953  -0.04417  -0.02562
  Beta virt. eigenvalues --   -0.02361  -0.01745  -0.01132  -0.00882   0.00000
  Beta virt. eigenvalues --    0.00148   0.00198   0.00393   0.00955   0.00958

 Mulliken charges and spin densities:
               1          2
     1  Na  -0.448309   0.563520
     2  Na   0.264888   0.035013
     3  Na   0.185936  -0.011409
     4  Na   0.288467   0.032568
     5  Na  -0.386876   0.514138
     6  Na   0.077450  -0.040482
     7  Na   0.018446  -0.093347
 Sum of Mulliken charges =  -0.00000   1.00000

 Dipole moment (field-independent basis, Debye):
    X=             -0.2157    Y=             -0.0220    Z=             -0.0026  Tot=              0.2168
 Quadrupole moment (field-independent basis, Debye-Ang):
   XX=            -59.2513   YY=            -64.4828   ZZ=            -71.1109
   XY=              0.5019   XZ=              1.1542   YZ=             -0.5870

 Normal termination of Gaussian 16 at Tue Dec  5 11:51:12 2023.
