 Gaussian 16, Revision B.01,
 Gaussian 16:  ES64L-G16RevB.01 20-Dec-2017

 -------------------------
 #P B3LYP/6-311+g(d) force
 -------------------------

 -----
 DPGEN
 -----
 Symbolic Z-matrix:
 Charge =  0 Multiplicity = 2

                         Standard orientation:
 ---------------------------------------------------------------------
 Center     Atomic      Atomic             Coordinates (Angstroms)
 Number     Number       Type             X           Y           Z
 ---------------------------------------------------------------------
      1         11           0        0.120643    0.039734   -1.737663
      2         11           0       -0.624077   -1.780907   -0.079573
      3         11           0       -2.576958   -0.052335    0.049127
      4         11           0       -0.723937    1.790444   -0.059173
      5         11           0        0.057642   -0.085565    1.747427
      6         11           0        1.827758    1.316815    0.111427
      7         11           0        1.918929   -1.228186   -0.031573
 ---------------------------------------------------------------------

 SCF Done:  E(UB3LYP) =  -1136.01168172     A.U. after   21 cycles

 The electronic state is 2-A.
 Alpha  occ. eigenvalues --  -38.45396 -38.45135 -38.44662 -38.44559 -38.44521
 Alpha  occ. eigenvalues --  -38.44488 -38.44325  -2.21835  -2.21552  -2.20950
 Alpha  occ. eigenvalues --   -2.20887  -2.20832  -2.20759  -2.20657  -1.15885
 Alpha  occ. eigenvalues --   -1.15722  -1.15539  -1.15495  -1.15367  -1.15266
 Alpha  occ. eigenvalues --   -1.15108  -1.14974  -1.14825  -1.14669  -1.14600
 Alpha  occ. eigenvalues --   -1.14454  -1.14380  -1.14330  -1.14308  -1.14264
 Alpha  occ. eigenvalues --   -1.14195  -1.14144  -1.14110  -1.14019  -1.13895
 Alpha  occ. eigenvalues --   -0.22965  -0.14427  -0.13060  -0.12974
 Alpha virt. eigenvalues --   -0.05437  -0.04081  -0.03984  -0.03961  -0.03298
 Alpha virt. eigenvalues --   -0.02822  -0.01057  -0.00264  -0.00133   0.00284
 Alpha virt. eigenvalues --    0.00870   0.01062   0.01088   0.01279   0.01293

  Beta  occ. eigenvalues --  -38.45289 -38.45030 -38.44653 -38.44541 -38.44502
  Beta  occ. eigenvalues --  -38.44465 -38.44302  -2.21647  -2.21368  -2.20920
  Beta  occ. eigenvalues --   -2.20864  -2.20813  -2.20735  -2.20629  -1.15799
  Beta  occ. eigenvalues --   -1.15593  -1.15424  -1.15381  -1.15248  -1.15153
  Beta  occ. eigenvalues --   -1.15097  -1.14958  -1.14779  -1.14638  -1.14575
  Beta  occ. eigenvalues --   -1.14366  -1.14304  -1.14256  -1.14236  -1.14201
  Beta  occ. eigenvalues --   -1.14133  -1.14105  -1.14085  -1.14010  -1.13887
  Beta  occ. eigenvalues --   -0.22095  -0.13982  -0.12565
  Beta virt. eigenvalues --   -0.08699  -0.05478  -0.03967  -0.03819  -0.03021
  Beta virt. eigenvalues --   -0.02318  -0.01848  -0.00978  -0.00230   0.00017
  Beta virt. eigenvalues --    0.00307   0.00902   0.01053   0.01124   0.01274

 Mulliken charges and spin densities:
               1          2
     1  Na  -0.090061   0.475307
     2  Na   0.116636   0.023496
     3  Na  -0.370590  -0.083279
     4  Na   0.262747   0.054229
     5  Na  -0.030555   0.500864
     6  Na   0.070454   0.028442
     7  Na   0.041368   0.000941
 Sum of Mulliken charges =  -0.00000   1.00000

 Dipole moment (field-independent basis, Debye):
    X=             -0.2332    Y=              0.0499    Z=              0.0847  Tot=              0.2531
 Quadrupole moment (field-independent basis, Debye-Ang):
   XX=            -60.3922   YY=            -73.0427   ZZ=            -67.0222
   XY=             -0.0274   XZ=              0.0135   YZ=              0.2654

 Normal termination of Gaussian 16 at Fri Dec  8 17:31:32 2023.
