 Gaussian 16, Revision B.01,
 Gaussian 16:  ES64L-G16RevB.01 20-Dec-2017

 -------------------------
 #P B3LYP/6-311+g(d) force
 -------------------------

 -----
 DPGEN
 -----
 Symbolic Z-matrix:
 Charge =  0 Multiplicity = 2

                         Standard orientation:
 ---------------------------------------------------------------------
 Center     Atomic      Atomic             Coordinates (Angstroms)
 Number     Number       Type             X           Y           Z
 ---------------------------------------------------------------------
      1         11           0       -2.722615    2.913965    0.313560
      2         11           0       -4.258683   -0.479333   -0.535009
      3         11           0        3.554905   -1.332228   -0.984463
      4         11           0        3.868977    1.702284    0.147731
      5         11           0        0.498199    3.203987    0.109865
      6         11           0       -1.706058   -2.850363   -0.292520
      7         11           0        0.765276   -3.158314    1.240837
 ---------------------------------------------------------------------

 SCF Done:  E(UB3LYP) =  -1136.10851440     A.U. after   20 cycles

 The electronic state is 2-A.
 Alpha  occ. eigenvalues --  -38.45534 -38.44481 -38.44461 -38.44341 -38.44294
 Alpha  occ. eigenvalues --  -38.44084 -38.44043  -2.21301  -2.20275  -2.20237
 Alpha  occ. eigenvalues --   -2.20172  -2.20087  -2.19886  -2.19884  -1.14974
 Alpha  occ. eigenvalues --   -1.14961  -1.14935  -1.13955  -1.13938  -1.13935
 Alpha  occ. eigenvalues --   -1.13930  -1.13922  -1.13911  -1.13880  -1.13829
 Alpha  occ. eigenvalues --   -1.13820  -1.13752  -1.13742  -1.13698  -1.13532
 Alpha  occ. eigenvalues --   -1.13528  -1.13515  -1.13506  -1.13501  -1.13495
 Alpha  occ. eigenvalues --   -0.15688  -0.13884  -0.13510  -0.10827
 Alpha virt. eigenvalues --   -0.07415  -0.05034  -0.04153  -0.03583  -0.03235
 Alpha virt. eigenvalues --   -0.02661  -0.02346  -0.01719  -0.01231  -0.00757
 Alpha virt. eigenvalues --   -0.00300  -0.00191   0.00016   0.00398   0.00639

  Beta  occ. eigenvalues --  -38.45511 -38.44466 -38.44456 -38.44331 -38.44252
  Beta  occ. eigenvalues --  -38.43996 -38.43990  -2.21263  -2.20249  -2.20233
  Beta  occ. eigenvalues --   -2.20162  -2.20012  -2.19789  -2.19721  -1.14950
  Beta  occ. eigenvalues --   -1.14937  -1.14890  -1.13922  -1.13919  -1.13915
  Beta  occ. eigenvalues --   -1.13913  -1.13907  -1.13893  -1.13857  -1.13829
  Beta  occ. eigenvalues --   -1.13802  -1.13702  -1.13694  -1.13642  -1.13455
  Beta  occ. eigenvalues --   -1.13441  -1.13431  -1.13421  -1.13411  -1.13396
  Beta  occ. eigenvalues --   -0.15185  -0.13111  -0.12796
  Beta virt. eigenvalues --   -0.07674  -0.07526  -0.04700  -0.03735  -0.03206
  Beta virt. eigenvalues --   -0.02861  -0.02445  -0.02112  -0.01618  -0.01093
  Beta virt. eigenvalues --   -0.00459  -0.00096   0.00067   0.00253   0.00387

 Mulliken charges and spin densities:
               1          2
     1  Na   0.264974  -0.073508
     2  Na   0.207379   0.418322
     3  Na   0.047472   0.108984
     4  Na  -0.066748   0.147794
     5  Na  -0.258375   0.164723
     6  Na  -0.407899   0.074260
     7  Na   0.213198   0.159427
 Sum of Mulliken charges =  -0.00000   1.00000

 Dipole moment (field-independent basis, Debye):
    X=              1.1520    Y=             -0.0676    Z=             -0.0689  Tot=              1.1560
 Quadrupole moment (field-independent basis, Debye-Ang):
   XX=            -62.3152   YY=            -68.8344   ZZ=            -70.0692
   XY=             -2.7508   XZ=              0.0680   YZ=              2.6250

 Normal termination of Gaussian 16 at Sun Dec  3 15:27:33 2023.
