 Gaussian 16, Revision B.01,
 Gaussian 16:  ES64L-G16RevB.01 20-Dec-2017

 -------------------------
 #P B3LYP/6-311+g(d) force
 -------------------------

 -----
 DPGEN
 -----
 Symbolic Z-matrix:
 Charge =  0 Multiplicity = 2

                         Standard orientation:
 ---------------------------------------------------------------------
 Center     Atomic      Atomic             Coordinates (Angstroms)
 Number     Number       Type             X           Y           Z
 ---------------------------------------------------------------------
      1         11           0        2.176691   -1.951038    0.120233
      2         11           0        2.655557    1.319380   -0.214898
      3         11           0       -0.677926    2.886450    0.188586
      4         11           0       -0.006710    0.034824    1.701302
      5         11           0       -3.009094    0.078321   -0.135275
      6         11           0        0.023777    0.154783   -1.591957
      7         11           0       -1.162295   -2.522720   -0.067991
 ---------------------------------------------------------------------

 SCF Done:  E(UB3LYP) =  -1136.13856414     A.U. after   20 cycles

 The electronic state is 2-A.
 Alpha  occ. eigenvalues --  -38.43793 -38.43756 -38.43482 -38.43430 -38.43220
 Alpha  occ. eigenvalues --  -38.42886 -38.42843  -2.19675  -2.19639  -2.19347
 Alpha  occ. eigenvalues --   -2.19326  -2.19147  -2.18910  -2.18896  -1.13366
 Alpha  occ. eigenvalues --   -1.13343  -1.13339  -1.13313  -1.13301  -1.13268
 Alpha  occ. eigenvalues --   -1.13038  -1.13021  -1.13013  -1.12988  -1.12969
 Alpha  occ. eigenvalues --   -1.12967  -1.12844  -1.12810  -1.12773  -1.12642
 Alpha  occ. eigenvalues --   -1.12544  -1.12524  -1.12522  -1.12517  -1.12505
 Alpha  occ. eigenvalues --   -0.19368  -0.13218  -0.12782  -0.10539
 Alpha virt. eigenvalues --   -0.05452  -0.05042  -0.04795  -0.03030  -0.02815
 Alpha virt. eigenvalues --   -0.02113  -0.01440  -0.01179  -0.00253  -0.00134
 Alpha virt. eigenvalues --    0.00051   0.00365   0.00857   0.00911   0.00941

  Beta  occ. eigenvalues --  -38.43787 -38.43747 -38.43475 -38.43424 -38.43213
  Beta  occ. eigenvalues --  -38.42805 -38.42772  -2.19668  -2.19627  -2.19338
  Beta  occ. eigenvalues --   -2.19318  -2.19137  -2.18768  -2.18761  -1.13363
  Beta  occ. eigenvalues --   -1.13331  -1.13321  -1.13298  -1.13275  -1.13259
  Beta  occ. eigenvalues --   -1.13031  -1.13008  -1.12988  -1.12972  -1.12966
  Beta  occ. eigenvalues --   -1.12947  -1.12837  -1.12780  -1.12758  -1.12551
  Beta  occ. eigenvalues --   -1.12448  -1.12426  -1.12419  -1.12416  -1.12408
  Beta  occ. eigenvalues --   -0.18644  -0.12934  -0.12501
  Beta virt. eigenvalues --   -0.06611  -0.05435  -0.05036  -0.04793  -0.02215
  Beta virt. eigenvalues --   -0.02015  -0.01353  -0.01109  -0.01085  -0.00303
  Beta virt. eigenvalues --   -0.00190   0.00173   0.00395   0.00892   0.00912

 Mulliken charges and spin densities:
               1          2
     1  Na   0.209814  -0.034253
     2  Na   0.216689  -0.063030
     3  Na   0.092010  -0.111799
     4  Na  -0.436654   0.720200
     5  Na   0.176121  -0.063110
     6  Na  -0.455635   0.589086
     7  Na   0.197656  -0.037093
 Sum of Mulliken charges =  -0.00000   1.00000

 Dipole moment (field-independent basis, Debye):
    X=             -0.0013    Y=              0.2053    Z=              0.0436  Tot=              0.2099
 Quadrupole moment (field-independent basis, Debye-Ang):
   XX=            -56.2471   YY=            -60.1183   ZZ=            -75.7008
   XY=             -0.3264   XZ=              0.1010   YZ=              0.1928

 Normal termination of Gaussian 16 at Tue Nov 28 21:46:11 2023.
