 Gaussian 16, Revision B.01,
 Gaussian 16:  ES64L-G16RevB.01 20-Dec-2017

 -------------------------
 #P B3LYP/6-311+g(d) force
 -------------------------

 -----
 DPGEN
 -----
 Symbolic Z-matrix:
 Charge =  0 Multiplicity = 2

                         Standard orientation:
 ---------------------------------------------------------------------
 Center     Atomic      Atomic             Coordinates (Angstroms)
 Number     Number       Type             X           Y           Z
 ---------------------------------------------------------------------
      1         11           0       -1.699187    2.298261   -0.164589
      2         11           0       -0.484363   -2.697667    0.071942
      3         11           0       -0.210969   -0.014948    2.006607
      4         11           0        3.225503   -1.113981   -0.148667
      5         11           0        0.134664    0.021812   -1.702030
      6         11           0       -2.865694   -0.697293   -0.211391
      7         11           0        1.900046    2.203816    0.148130
 ---------------------------------------------------------------------

 SCF Done:  E(UB3LYP) =  -1136.13687000     A.U. after   19 cycles

 The electronic state is 2-A.
 Alpha  occ. eigenvalues --  -38.44333 -38.43754 -38.43642 -38.43541 -38.43284
 Alpha  occ. eigenvalues --  -38.43134 -38.43134  -2.20111  -2.19678  -2.19489
 Alpha  occ. eigenvalues --   -2.19466  -2.19267  -2.19034  -2.19029  -1.13787
 Alpha  occ. eigenvalues --   -1.13763  -1.13755  -1.13366  -1.13350  -1.13329
 Alpha  occ. eigenvalues --   -1.13185  -1.13171  -1.13136  -1.13109  -1.13092
 Alpha  occ. eigenvalues --   -1.13079  -1.12957  -1.12922  -1.12883  -1.12711
 Alpha  occ. eigenvalues --   -1.12700  -1.12693  -1.12685  -1.12662  -1.12653
 Alpha  occ. eigenvalues --   -0.18975  -0.13178  -0.12350  -0.10899
 Alpha virt. eigenvalues --   -0.05813  -0.05130  -0.04346  -0.03260  -0.02840
 Alpha virt. eigenvalues --   -0.02622  -0.01655  -0.01046  -0.00213  -0.00175
 Alpha virt. eigenvalues --   -0.00025   0.00346   0.00782   0.00890   0.00930

  Beta  occ. eigenvalues --  -38.44334 -38.43745 -38.43638 -38.43446 -38.43217
  Beta  occ. eigenvalues --  -38.43126 -38.43126  -2.20115  -2.19666  -2.19483
  Beta  occ. eigenvalues --   -2.19291  -2.19143  -2.19024  -2.19019  -1.13777
  Beta  occ. eigenvalues --   -1.13769  -1.13759  -1.13361  -1.13347  -1.13285
  Beta  occ. eigenvalues --   -1.13177  -1.13141  -1.13108  -1.13025  -1.12970
  Beta  occ. eigenvalues --   -1.12957  -1.12878  -1.12841  -1.12790  -1.12704
  Beta  occ. eigenvalues --   -1.12691  -1.12664  -1.12657  -1.12644  -1.12639
  Beta  occ. eigenvalues --   -0.18212  -0.12949  -0.12090
  Beta virt. eigenvalues --   -0.06941  -0.05776  -0.05116  -0.04341  -0.02470
  Beta virt. eigenvalues --   -0.02046  -0.01631  -0.01479  -0.00984  -0.00247
  Beta virt. eigenvalues --   -0.00238   0.00116   0.00367   0.00829   0.00895

 Mulliken charges and spin densities:
               1          2
     1  Na   0.251702  -0.016801
     2  Na   0.177339  -0.079952
     3  Na  -0.493900   0.704394
     4  Na  -0.017633  -0.117070
     5  Na  -0.357236   0.541267
     6  Na   0.355906   0.046863
     7  Na   0.083822  -0.078701
 Sum of Mulliken charges =  -0.00000   1.00000

 Dipole moment (field-independent basis, Debye):
    X=              0.4272    Y=             -0.0344    Z=              0.1104  Tot=              0.4426
 Quadrupole moment (field-independent basis, Debye-Ang):
   XX=            -55.3975   YY=            -64.5376   ZZ=            -73.6323
   XY=             -0.6250   XZ=              0.7573   YZ=              0.2237

 Normal termination of Gaussian 16 at Thu Dec  7 02:52:06 2023.
