 Gaussian 16, Revision B.01,
 Gaussian 16:  ES64L-G16RevB.01 20-Dec-2017

 -------------------------
 #P B3LYP/6-311+g(d) force
 -------------------------

 -----
 DPGEN
 -----
 Symbolic Z-matrix:
 Charge =  0 Multiplicity = 2

                         Standard orientation:
 ---------------------------------------------------------------------
 Center     Atomic      Atomic             Coordinates (Angstroms)
 Number     Number       Type             X           Y           Z
 ---------------------------------------------------------------------
      1         11           0       -8.236093   -0.428227    0.357510
      2         11           0        7.855088   -1.040006   -0.180703
      3         11           0        2.686546    1.603604    0.749902
      4         11           0       -0.321183    2.628414   -0.714533
      5         11           0        4.809895   -1.322201    0.021021
      6         11           0       -1.598153    0.013201    0.224286
      7         11           0       -5.196100   -1.454785   -0.457482
 ---------------------------------------------------------------------

 SCF Done:  E(UB3LYP) =  -1136.10626807     A.U. after   19 cycles

 The electronic state is 2-A.
 Alpha  occ. eigenvalues --  -38.45091 -38.44669 -38.44629 -38.44585 -38.44235
 Alpha  occ. eigenvalues --  -38.44062 -38.43756  -2.20903  -2.20470  -2.20433
 Alpha  occ. eigenvalues --   -2.20410  -2.20017  -2.19867  -2.19516  -1.14624
 Alpha  occ. eigenvalues --   -1.14566  -1.14541  -1.14133  -1.14124  -1.14107
 Alpha  occ. eigenvalues --   -1.14075  -1.14073  -1.14070  -1.14065  -1.14062
 Alpha  occ. eigenvalues --   -1.14004  -1.13666  -1.13664  -1.13647  -1.13533
 Alpha  occ. eigenvalues --   -1.13529  -1.13520  -1.13200  -1.13191  -1.13160
 Alpha  occ. eigenvalues --   -0.15692  -0.13943  -0.12859  -0.10721
 Alpha virt. eigenvalues --   -0.07252  -0.05251  -0.04561  -0.03457  -0.03151
 Alpha virt. eigenvalues --   -0.02664  -0.02137  -0.01876  -0.01663  -0.01059
 Alpha virt. eigenvalues --   -0.00774  -0.00183  -0.00144   0.00097   0.00325

  Beta  occ. eigenvalues --  -38.45105 -38.44589 -38.44583 -38.44522 -38.44180
  Beta  occ. eigenvalues --  -38.44069 -38.43771  -2.20932  -2.20347  -2.20319
  Beta  occ. eigenvalues --   -2.20293  -2.19912  -2.19885  -2.19548  -1.14627
  Beta  occ. eigenvalues --   -1.14590  -1.14543  -1.14054  -1.14029  -1.14021
  Beta  occ. eigenvalues --   -1.14014  -1.14011  -1.13996  -1.13982  -1.13971
  Beta  occ. eigenvalues --   -1.13929  -1.13594  -1.13593  -1.13581  -1.13549
  Beta  occ. eigenvalues --   -1.13543  -1.13501  -1.13226  -1.13217  -1.13150
  Beta  occ. eigenvalues --   -0.15099  -0.13406  -0.12442
  Beta virt. eigenvalues --   -0.07656  -0.06647  -0.04793  -0.04412  -0.03281
  Beta virt. eigenvalues --   -0.02868  -0.02501  -0.02027  -0.01577  -0.01413
  Beta virt. eigenvalues --   -0.00863  -0.00336  -0.00036   0.00151   0.00165

 Mulliken charges and spin densities:
               1          2
     1  Na   0.219906   0.266829
     2  Na   0.470570   0.149434
     3  Na  -0.091759   0.431172
     4  Na   0.495099  -0.029477
     5  Na  -0.346121   0.034753
     6  Na  -0.407007   0.247311
     7  Na  -0.340688  -0.100021
 Sum of Mulliken charges =  -0.00000   1.00000

 Dipole moment (field-independent basis, Debye):
    X=              1.2031    Y=              1.1351    Z=             -0.0468  Tot=              1.6547
 Quadrupole moment (field-independent basis, Debye-Ang):
   XX=            -60.9267   YY=            -65.8308   ZZ=            -72.8327
   XY=             -3.4030   XZ=             -1.8760   YZ=             -1.6980

 Normal termination of Gaussian 16 at Sun Dec  3 21:49:08 2023.
