 Gaussian 16, Revision B.01,
 Gaussian 16:  ES64L-G16RevB.01 20-Dec-2017

 -------------------------
 #P B3LYP/6-311+g(d) force
 -------------------------

 -----
 DPGEN
 -----
 Symbolic Z-matrix:
 Charge =  0 Multiplicity = 2

                         Standard orientation:
 ---------------------------------------------------------------------
 Center     Atomic      Atomic             Coordinates (Angstroms)
 Number     Number       Type             X           Y           Z
 ---------------------------------------------------------------------
      1         11           0        2.889318    1.348745   -0.185827
      2         11           0       -2.648841    1.199425    1.258035
      3         11           0       -0.252983    2.132476   -1.090128
      4         11           0       -0.154510   -1.126475   -1.377209
      5         11           0        0.196589   -0.134784    1.243449
      6         11           0        3.183064   -1.768873    0.566555
      7         11           0       -3.212637   -1.650513   -0.414875
 ---------------------------------------------------------------------

 SCF Done:  E(UB3LYP) =  -1136.11893565     A.U. after   23 cycles

 The electronic state is 2-A.
 Alpha  occ. eigenvalues --  -38.44671 -38.44340 -38.44197 -38.43990 -38.43801
 Alpha  occ. eigenvalues --  -38.43718 -38.42349  -2.20537  -2.20237  -2.20164
 Alpha  occ. eigenvalues --   -2.19886  -2.19776  -2.19559  -2.18279  -1.14224
 Alpha  occ. eigenvalues --   -1.14199  -1.14179  -1.14113  -1.13873  -1.13847
 Alpha  occ. eigenvalues --   -1.13840  -1.13826  -1.13806  -1.13556  -1.13506
 Alpha  occ. eigenvalues --   -1.13492  -1.13463  -1.13384  -1.13342  -1.13228
 Alpha  occ. eigenvalues --   -1.13214  -1.13189  -1.11978  -1.11916  -1.11912
 Alpha  occ. eigenvalues --   -0.18939  -0.14244  -0.11465  -0.10905
 Alpha virt. eigenvalues --   -0.06729  -0.05421  -0.03952  -0.03196  -0.02788
 Alpha virt. eigenvalues --   -0.02541  -0.01933  -0.01390  -0.00418  -0.00172
 Alpha virt. eigenvalues --    0.00105   0.00303   0.00580   0.00673   0.00699

  Beta  occ. eigenvalues --  -38.44669 -38.44330 -38.44169 -38.43930 -38.43731
  Beta  occ. eigenvalues --  -38.43705 -38.42324  -2.20537  -2.20190  -2.20149
  Beta  occ. eigenvalues --   -2.19776  -2.19649  -2.19536  -2.18237  -1.14223
  Beta  occ. eigenvalues --   -1.14199  -1.14162  -1.14050  -1.13834  -1.13821
  Beta  occ. eigenvalues --   -1.13818  -1.13807  -1.13792  -1.13475  -1.13435
  Beta  occ. eigenvalues --   -1.13419  -1.13383  -1.13283  -1.13253  -1.13214
  Beta  occ. eigenvalues --   -1.13190  -1.13176  -1.11947  -1.11890  -1.11860
  Beta  occ. eigenvalues --   -0.18292  -0.13863  -0.11202
  Beta virt. eigenvalues --   -0.07126  -0.06607  -0.05253  -0.03412  -0.02982
  Beta virt. eigenvalues --   -0.02498  -0.02007  -0.01382  -0.01010  -0.00278
  Beta virt. eigenvalues --   -0.00045   0.00176   0.00323   0.00661   0.00716

 Mulliken charges and spin densities:
               1          2
     1  Na   0.373805   0.038470
     2  Na   1.183922   0.338957
     3  Na  -0.423558  -0.037761
     4  Na   0.168851   0.516780
     5  Na  -1.808190   0.147998
     6  Na   0.766571   0.052299
     7  Na  -0.261401  -0.056743
 Sum of Mulliken charges =  -0.00000   1.00000

 Dipole moment (field-independent basis, Debye):
    X=              0.2058    Y=              0.1263    Z=             -0.2147  Tot=              0.3231
 Quadrupole moment (field-independent basis, Debye-Ang):
   XX=            -49.3697   YY=            -71.1965   ZZ=            -72.5765
   XY=              1.0701   XZ=             -0.5469   YZ=             -0.3053

 Normal termination of Gaussian 16 at Tue Dec  5 10:00:40 2023.
