 Gaussian 16, Revision B.01,
 Gaussian 16:  ES64L-G16RevB.01 20-Dec-2017

 -------------------------
 #P B3LYP/6-311+g(d) force
 -------------------------

 -----
 DPGEN
 -----
 Symbolic Z-matrix:
 Charge =  0 Multiplicity = 2

                         Standard orientation:
 ---------------------------------------------------------------------
 Center     Atomic      Atomic             Coordinates (Angstroms)
 Number     Number       Type             X           Y           Z
 ---------------------------------------------------------------------
      1         11           0       -4.355661   -0.290094   -0.592777
      2         11           0       -0.577855   -0.986775   -1.775684
      3         11           0       -1.072843    2.216004   -0.025852
      4         11           0        3.360492   -0.488637   -1.334575
      5         11           0        2.409427    1.859344    0.506295
      6         11           0       -1.586390   -0.562069    1.831811
      7         11           0        1.822830   -1.747773    1.390781
 ---------------------------------------------------------------------

 SCF Done:  E(UB3LYP) =  -1136.11550451     A.U. after   29 cycles

 The electronic state is 2-A.
 Alpha  occ. eigenvalues --  -38.45646 -38.45033 -38.44511 -38.44401 -38.44000
 Alpha  occ. eigenvalues --  -38.43452 -38.42924  -2.21378  -2.20823  -2.20360
 Alpha  occ. eigenvalues --   -2.20245  -2.19834  -2.19301  -2.18740  -1.15064
 Alpha  occ. eigenvalues --   -1.15051  -1.15007  -1.14499  -1.14494  -1.14413
 Alpha  occ. eigenvalues --   -1.14042  -1.14007  -1.13972  -1.13941  -1.13894
 Alpha  occ. eigenvalues --   -1.13882  -1.13500  -1.13494  -1.13459  -1.12983
 Alpha  occ. eigenvalues --   -1.12953  -1.12915  -1.12444  -1.12438  -1.12350
 Alpha  occ. eigenvalues --   -0.17859  -0.14042  -0.11428  -0.10707
 Alpha virt. eigenvalues --   -0.07359  -0.05290  -0.04832  -0.03246  -0.03042
 Alpha virt. eigenvalues --   -0.02497  -0.02456  -0.01330  -0.00888  -0.00367
 Alpha virt. eigenvalues --    0.00011   0.00157   0.00213   0.00550   0.00637

  Beta  occ. eigenvalues --  -38.45666 -38.44963 -38.44443 -38.44388 -38.43952
  Beta  occ. eigenvalues --  -38.43423 -38.42952  -2.21416  -2.20693  -2.20238
  Beta  occ. eigenvalues --   -2.20222  -2.19748  -2.19246  -2.18791  -1.15089
  Beta  occ. eigenvalues --   -1.15074  -1.15032  -1.14416  -1.14394  -1.14317
  Beta  occ. eigenvalues --   -1.13963  -1.13920  -1.13917  -1.13883  -1.13867
  Beta  occ. eigenvalues --   -1.13855  -1.13442  -1.13426  -1.13386  -1.12934
  Beta  occ. eigenvalues --   -1.12913  -1.12899  -1.12482  -1.12458  -1.12389
  Beta  occ. eigenvalues --   -0.17130  -0.13978  -0.10603
  Beta virt. eigenvalues --   -0.07546  -0.07056  -0.04786  -0.04624  -0.02981
  Beta virt. eigenvalues --   -0.02792  -0.01811  -0.01786  -0.01095  -0.00685
  Beta virt. eigenvalues --   -0.00332   0.00002   0.00252   0.00301   0.00675

 Mulliken charges and spin densities:
               1          2
     1  Na   0.491035  -0.133134
     2  Na  -0.419901   0.444382
     3  Na  -0.097218   0.063679
     4  Na   0.556806   0.035050
     5  Na  -0.366880   0.171036
     6  Na  -0.068226   0.194558
     7  Na  -0.095616   0.224429
 Sum of Mulliken charges =  -0.00000   1.00000

 Dipole moment (field-independent basis, Debye):
    X=             -1.1522    Y=             -0.3811    Z=             -0.3417  Tot=              1.2608
 Quadrupole moment (field-independent basis, Debye-Ang):
   XX=            -47.7580   YY=            -79.6629   ZZ=            -68.1887
   XY=             -0.8968   XZ=             -0.3890   YZ=             -2.3936

 Normal termination of Gaussian 16 at Thu Dec  7 06:57:49 2023.
