 Gaussian 16, Revision B.01,
 Gaussian 16:  ES64L-G16RevB.01 20-Dec-2017

 -------------------------
 #P B3LYP/6-311+g(d) force
 -------------------------

 -----
 DPGEN
 -----
 Symbolic Z-matrix:
 Charge =  0 Multiplicity = 2

                         Standard orientation:
 ---------------------------------------------------------------------
 Center     Atomic      Atomic             Coordinates (Angstroms)
 Number     Number       Type             X           Y           Z
 ---------------------------------------------------------------------
      1         11           0        2.135898   -1.221575    1.476392
      2         11           0        0.864068    0.246218   -1.330342
      3         11           0       -2.414985    1.494328    0.164790
      4         11           0       -1.046173   -1.989114    0.552086
      5         11           0       -4.410896   -1.056802   -0.493399
      6         11           0        0.789173    3.356217    0.514904
      7         11           0        4.082914   -0.829273   -0.884430
 ---------------------------------------------------------------------

 SCF Done:  E(UB3LYP) =  -1136.12257475     A.U. after   21 cycles

 The electronic state is 2-A.
 Alpha  occ. eigenvalues --  -38.44974 -38.44433 -38.43972 -38.43812 -38.43699
 Alpha  occ. eigenvalues --  -38.43526 -38.43266  -2.20838  -2.20320  -2.19798
 Alpha  occ. eigenvalues --   -2.19685  -2.19524  -2.19391  -2.19038  -1.14541
 Alpha  occ. eigenvalues --   -1.14521  -1.14441  -1.14009  -1.13977  -1.13966
 Alpha  occ. eigenvalues --   -1.13506  -1.13485  -1.13407  -1.13339  -1.13309
 Alpha  occ. eigenvalues --   -1.13303  -1.13178  -1.13174  -1.13138  -1.13087
 Alpha  occ. eigenvalues --   -1.13064  -1.12978  -1.12714  -1.12703  -1.12668
 Alpha  occ. eigenvalues --   -0.17647  -0.14166  -0.11786  -0.10612
 Alpha virt. eigenvalues --   -0.06813  -0.05205  -0.04380  -0.03644  -0.02984
 Alpha virt. eigenvalues --   -0.02349  -0.01554  -0.01451  -0.00995  -0.00658
 Alpha virt. eigenvalues --   -0.00230  -0.00063   0.00366   0.00574   0.00743

  Beta  occ. eigenvalues --  -38.44964 -38.44409 -38.43962 -38.43739 -38.43651
  Beta  occ. eigenvalues --  -38.43476 -38.43272  -2.20823  -2.20283  -2.19783
  Beta  occ. eigenvalues --   -2.19547  -2.19435  -2.19303  -2.19049  -1.14520
  Beta  occ. eigenvalues --   -1.14498  -1.14433  -1.13968  -1.13952  -1.13910
  Beta  occ. eigenvalues --   -1.13497  -1.13474  -1.13378  -1.13246  -1.13220
  Beta  occ. eigenvalues --   -1.13209  -1.13114  -1.13110  -1.13086  -1.13033
  Beta  occ. eigenvalues --   -1.13001  -1.12897  -1.12721  -1.12712  -1.12674
  Beta  occ. eigenvalues --   -0.17038  -0.13575  -0.11574
  Beta virt. eigenvalues --   -0.06975  -0.06613  -0.05130  -0.03869  -0.03361
  Beta virt. eigenvalues --   -0.02689  -0.02049  -0.01327  -0.01148  -0.00528
  Beta virt. eigenvalues --   -0.00478  -0.00009   0.00070   0.00508   0.00704

 Mulliken charges and spin densities:
               1          2
     1  Na   0.339860   0.013020
     2  Na   0.172400   0.103952
     3  Na  -0.206286   0.221259
     4  Na  -0.604482   0.086984
     5  Na   0.484809   0.252183
     6  Na  -0.136631  -0.038988
     7  Na  -0.049670   0.361591
 Sum of Mulliken charges =  -0.00000   1.00000

 Dipole moment (field-independent basis, Debye):
    X=              0.4104    Y=             -0.3119    Z=              0.3614  Tot=              0.6295
 Quadrupole moment (field-independent basis, Debye-Ang):
   XX=            -64.5485   YY=            -71.7525   ZZ=            -64.9816
   XY=              2.0191   XZ=              3.3938   YZ=              2.8875

 Normal termination of Gaussian 16 at Tue Nov 28 20:23:12 2023.
