 Gaussian 16, Revision B.01,
 Gaussian 16:  ES64L-G16RevB.01 20-Dec-2017

 -------------------------
 #P B3LYP/6-311+g(d) force
 -------------------------

 -----
 DPGEN
 -----
 Symbolic Z-matrix:
 Charge =  0 Multiplicity = 2

                         Standard orientation:
 ---------------------------------------------------------------------
 Center     Atomic      Atomic             Coordinates (Angstroms)
 Number     Number       Type             X           Y           Z
 ---------------------------------------------------------------------
      1         11           0       -0.618214   -2.233426   -0.911352
      2         11           0       -3.784879    0.100504   -0.321118
      3         11           0        2.052662    2.008523    0.670710
      4         11           0       -1.130352   -0.492613    2.308933
      5         11           0       -1.198509    1.841747   -0.603897
      6         11           0        2.826417   -1.236057    0.872005
      7         11           0        1.852874    0.011321   -2.015281
 ---------------------------------------------------------------------

 SCF Done:  E(UB3LYP) =  -1136.12533656     A.U. after   23 cycles

 The electronic state is 2-A.
 Alpha  occ. eigenvalues --  -38.45103 -38.44914 -38.44584 -38.44191 -38.43132
 Alpha  occ. eigenvalues --  -38.43051 -38.42923  -2.20907  -2.20712  -2.20405
 Alpha  occ. eigenvalues --   -2.20075  -2.18939  -2.18910  -2.18788  -1.14600
 Alpha  occ. eigenvalues --   -1.14563  -1.14530  -1.14379  -1.14349  -1.14326
 Alpha  occ. eigenvalues --   -1.14089  -1.14077  -1.14033  -1.13747  -1.13726
 Alpha  occ. eigenvalues --   -1.13680  -1.12635  -1.12607  -1.12584  -1.12568
 Alpha  occ. eigenvalues --   -1.12563  -1.12554  -1.12466  -1.12461  -1.12421
 Alpha  occ. eigenvalues --   -0.18054  -0.13800  -0.11409  -0.11036
 Alpha virt. eigenvalues --   -0.06706  -0.05025  -0.04730  -0.03245  -0.02999
 Alpha virt. eigenvalues --   -0.02721  -0.02158  -0.00764  -0.00572  -0.00343
 Alpha virt. eigenvalues --    0.00046   0.00164   0.00344   0.00615   0.00749

  Beta  occ. eigenvalues --  -38.45103 -38.44840 -38.44576 -38.44137 -38.43110
  Beta  occ. eigenvalues --  -38.43040 -38.42912  -2.20908  -2.20574  -2.20392
  Beta  occ. eigenvalues --   -2.19976  -2.18901  -2.18892  -2.18770  -1.14597
  Beta  occ. eigenvalues --   -1.14558  -1.14532  -1.14286  -1.14254  -1.14225
  Beta  occ. eigenvalues --   -1.14083  -1.14048  -1.14024  -1.13676  -1.13661
  Beta  occ. eigenvalues --   -1.13608  -1.12608  -1.12574  -1.12562  -1.12555
  Beta  occ. eigenvalues --   -1.12534  -1.12531  -1.12456  -1.12428  -1.12413
  Beta  occ. eigenvalues --   -0.17337  -0.13649  -0.10850
  Beta virt. eigenvalues --   -0.07604  -0.06425  -0.04710  -0.04323  -0.03034
  Beta virt. eigenvalues --   -0.02296  -0.02069  -0.01969  -0.00681  -0.00232
  Beta virt. eigenvalues --   -0.00214   0.00179   0.00262   0.00378   0.00772

 Mulliken charges and spin densities:
               1          2
     1  Na  -0.299428   0.163873
     2  Na   0.604242  -0.111406
     3  Na   0.025213   0.214669
     4  Na  -0.251567   0.335635
     5  Na  -0.418729   0.158711
     6  Na   0.176447   0.115370
     7  Na   0.163822   0.123147
 Sum of Mulliken charges =  -0.00000   1.00000

 Dipole moment (field-independent basis, Debye):
    X=             -0.6225    Y=             -0.4107    Z=              0.3321  Tot=              0.8164
 Quadrupole moment (field-independent basis, Debye-Ang):
   XX=            -50.4340   YY=            -78.8439   ZZ=            -65.7171
   XY=              0.3065   XZ=              1.4960   YZ=             -0.0762

 Normal termination of Gaussian 16 at Thu Dec  7 21:26:55 2023.
