 Gaussian 16, Revision B.01,
 Gaussian 16:  ES64L-G16RevB.01 20-Dec-2017

 -------------------------
 #P B3LYP/6-311+g(d) force
 -------------------------

 -----
 DPGEN
 -----
 Symbolic Z-matrix:
 Charge =  0 Multiplicity = 2

                         Standard orientation:
 ---------------------------------------------------------------------
 Center     Atomic      Atomic             Coordinates (Angstroms)
 Number     Number       Type             X           Y           Z
 ---------------------------------------------------------------------
      1         11           0        0.105247   -0.632696   -1.951351
      2         11           0        3.109690   -0.775947   -0.026778
      3         11           0       -1.825772    2.455843   -0.130056
      4         11           0        1.473050    2.318099   -0.399630
      5         11           0       -0.055718    0.588601    2.111938
      6         11           0        0.254156   -2.570296    0.594057
      7         11           0       -3.060652   -1.383603   -0.198180
 ---------------------------------------------------------------------

 SCF Done:  E(UB3LYP) =  -1136.13745484     A.U. after   18 cycles

 The electronic state is 2-A.
 Alpha  occ. eigenvalues --  -38.43932 -38.43922 -38.43849 -38.43683 -38.43663
 Alpha  occ. eigenvalues --  -38.43395 -38.43353  -2.19801  -2.19742  -2.19708
 Alpha  occ. eigenvalues --   -2.19513  -2.19487  -2.19280  -2.19227  -1.13469
 Alpha  occ. eigenvalues --   -1.13438  -1.13435  -1.13429  -1.13394  -1.13387
 Alpha  occ. eigenvalues --   -1.13365  -1.13359  -1.13337  -1.13179  -1.13172
 Alpha  occ. eigenvalues --   -1.13170  -1.13164  -1.13158  -1.13122  -1.12965
 Alpha  occ. eigenvalues --   -1.12953  -1.12902  -1.12899  -1.12883  -1.12845
 Alpha  occ. eigenvalues --   -0.18400  -0.12657  -0.12495  -0.11131
 Alpha virt. eigenvalues --   -0.05503  -0.05185  -0.04561  -0.03425  -0.03107
 Alpha virt. eigenvalues --   -0.02889  -0.01478  -0.01046  -0.00233  -0.00160
 Alpha virt. eigenvalues --   -0.00079   0.00376   0.00760   0.00875   0.00889

  Beta  occ. eigenvalues --  -38.43932 -38.43837 -38.43780 -38.43681 -38.43661
  Beta  occ. eigenvalues --  -38.43378 -38.43342  -2.19711  -2.19643  -2.19615
  Beta  occ. eigenvalues --   -2.19514  -2.19487  -2.19252  -2.19211  -1.13374
  Beta  occ. eigenvalues --   -1.13372  -1.13365  -1.13361  -1.13348  -1.13323
  Beta  occ. eigenvalues --   -1.13314  -1.13304  -1.13253  -1.13179  -1.13171
  Beta  occ. eigenvalues --   -1.13161  -1.13152  -1.13142  -1.13121  -1.12949
  Beta  occ. eigenvalues --   -1.12902  -1.12893  -1.12867  -1.12866  -1.12833
  Beta  occ. eigenvalues --   -0.17630  -0.12465  -0.12303
  Beta virt. eigenvalues --   -0.07203  -0.05469  -0.05141  -0.04405  -0.02674
  Beta virt. eigenvalues --   -0.02398  -0.01865  -0.01398  -0.00994  -0.00252
  Beta virt. eigenvalues --   -0.00163   0.00061   0.00396   0.00843   0.00871

 Mulliken charges and spin densities:
               1          2
     1  Na  -0.385626   0.601704
     2  Na   0.237462  -0.054627
     3  Na   0.086740  -0.087915
     4  Na   0.158049   0.010690
     5  Na  -0.356064   0.542873
     6  Na   0.219184   0.095400
     7  Na   0.040254  -0.108125
 Sum of Mulliken charges =  -0.00000   1.00000

 Dipole moment (field-independent basis, Debye):
    X=             -0.1304    Y=              0.0196    Z=             -0.0112  Tot=              0.1323
 Quadrupole moment (field-independent basis, Debye-Ang):
   XX=            -58.0708   YY=            -65.8765   ZZ=            -71.0904
   XY=             -0.5981   XZ=              0.4236   YZ=             -1.8199

 Normal termination of Gaussian 16 at Tue Dec  5 20:59:23 2023.
