 Gaussian 16, Revision B.01,
 Gaussian 16:  ES64L-G16RevB.01 20-Dec-2017

 -------------------------
 #P B3LYP/6-311+g(d) force
 -------------------------

 -----
 DPGEN
 -----
 Symbolic Z-matrix:
 Charge =  0 Multiplicity = 2

                         Standard orientation:
 ---------------------------------------------------------------------
 Center     Atomic      Atomic             Coordinates (Angstroms)
 Number     Number       Type             X           Y           Z
 ---------------------------------------------------------------------
      1         11           0       -0.196422    0.580492    1.605499
      2         11           0        2.260669    2.061877    0.074445
      3         11           0       -2.580382    2.582407   -0.045976
      4         11           0       -0.061450    0.163103   -1.623948
      5         11           0        3.113033   -1.016469   -0.526673
      6         11           0        0.339858   -2.263781    0.949786
      7         11           0       -2.875306   -2.107630   -0.433133
 ---------------------------------------------------------------------

 SCF Done:  E(UB3LYP) =  -1136.12376755     A.U. after   21 cycles

 The electronic state is 2-A.
 Alpha  occ. eigenvalues --  -38.44540 -38.44369 -38.44347 -38.44118 -38.43663
 Alpha  occ. eigenvalues --  -38.43096 -38.42954  -2.20303  -2.20203  -2.20120
 Alpha  occ. eigenvalues --   -2.19972  -2.19582  -2.19089  -2.18883  -1.13976
 Alpha  occ. eigenvalues --   -1.13956  -1.13939  -1.13895  -1.13872  -1.13844
 Alpha  occ. eigenvalues --   -1.13802  -1.13774  -1.13760  -1.13637  -1.13626
 Alpha  occ. eigenvalues --   -1.13606  -1.13315  -1.13208  -1.13189  -1.12864
 Alpha  occ. eigenvalues --   -1.12746  -1.12690  -1.12533  -1.12519  -1.12476
 Alpha  occ. eigenvalues --   -0.18529  -0.13000  -0.12060  -0.10531
 Alpha virt. eigenvalues --   -0.06325  -0.05894  -0.03796  -0.03162  -0.02797
 Alpha virt. eigenvalues --   -0.02258  -0.02004  -0.01713  -0.00419  -0.00195
 Alpha virt. eigenvalues --    0.00035   0.00273   0.00524   0.00695   0.00707

  Beta  occ. eigenvalues --  -38.44531 -38.44373 -38.44339 -38.44106 -38.43609
  Beta  occ. eigenvalues --  -38.43016 -38.42918  -2.20287  -2.20194  -2.20131
  Beta  occ. eigenvalues --   -2.19951  -2.19484  -2.18946  -2.18823  -1.13956
  Beta  occ. eigenvalues --   -1.13945  -1.13930  -1.13889  -1.13846  -1.13834
  Beta  occ. eigenvalues --   -1.13803  -1.13779  -1.13768  -1.13626  -1.13597
  Beta  occ. eigenvalues --   -1.13589  -1.13243  -1.13139  -1.13112  -1.12771
  Beta  occ. eigenvalues --   -1.12645  -1.12586  -1.12486  -1.12458  -1.12419
  Beta  occ. eigenvalues --   -0.17804  -0.12732  -0.11877
  Beta virt. eigenvalues --   -0.06690  -0.06271  -0.05746  -0.03735  -0.02518
  Beta virt. eigenvalues --   -0.02216  -0.01909  -0.01641  -0.01183  -0.00393
  Beta virt. eigenvalues --   -0.00121   0.00114   0.00320   0.00585   0.00763

 Mulliken charges and spin densities:
               1          2
     1  Na   0.216427   0.056045
     2  Na   0.284083   0.111020
     3  Na  -0.094230  -0.039693
     4  Na  -0.450165   0.506768
     5  Na  -0.010059   0.092500
     6  Na   0.233906   0.242647
     7  Na  -0.179962   0.030713
 Sum of Mulliken charges =  -0.00000   1.00000

 Dipole moment (field-independent basis, Debye):
    X=             -0.2343    Y=              0.3100    Z=             -0.3119  Tot=              0.4983
 Quadrupole moment (field-independent basis, Debye-Ang):
   XX=            -51.9210   YY=            -63.5310   ZZ=            -75.5275
   XY=              0.1076   XZ=              0.6628   YZ=              0.3061

 Normal termination of Gaussian 16 at Sat Dec  9 06:21:50 2023.
