 Gaussian 16, Revision B.01,
 Gaussian 16:  ES64L-G16RevB.01 20-Dec-2017

 -------------------------
 #P B3LYP/6-311+g(d) force
 -------------------------

 -----
 DPGEN
 -----
 Symbolic Z-matrix:
 Charge =  0 Multiplicity = 2

                         Standard orientation:
 ---------------------------------------------------------------------
 Center     Atomic      Atomic             Coordinates (Angstroms)
 Number     Number       Type             X           Y           Z
 ---------------------------------------------------------------------
      1         11           0        2.976057    1.614149   -0.699506
      2         11           0        3.020377   -1.993718    0.755351
      3         11           0        0.415664   -2.129830   -1.340705
      4         11           0       -3.272225   -0.700537   -1.102465
      5         11           0       -1.986502   -1.165220    1.896939
      6         11           0       -0.807949    2.145760   -1.486960
      7         11           0       -0.345423    2.229395    1.977346
 ---------------------------------------------------------------------

 SCF Done:  E(UB3LYP) =  -1136.11983159     A.U. after   20 cycles

 The electronic state is 2-A.
 Alpha  occ. eigenvalues --  -38.45015 -38.44383 -38.44359 -38.44276 -38.44117
 Alpha  occ. eigenvalues --  -38.43906 -38.43844  -2.20740  -2.20187  -2.20128
 Alpha  occ. eigenvalues --   -2.20057  -2.19921  -2.19679  -2.19638  -1.14434
 Alpha  occ. eigenvalues --   -1.14398  -1.14363  -1.13855  -1.13843  -1.13820
 Alpha  occ. eigenvalues --   -1.13813  -1.13808  -1.13746  -1.13723  -1.13718
 Alpha  occ. eigenvalues --   -1.13671  -1.13584  -1.13570  -1.13561  -1.13345
 Alpha  occ. eigenvalues --   -1.13338  -1.13320  -1.13313  -1.13301  -1.13254
 Alpha  occ. eigenvalues --   -0.16800  -0.12824  -0.11935  -0.11201
 Alpha virt. eigenvalues --   -0.06326  -0.05554  -0.04657  -0.03521  -0.03456
 Alpha virt. eigenvalues --   -0.02901  -0.01651  -0.01104  -0.00736  -0.00407
 Alpha virt. eigenvalues --   -0.00232   0.00144   0.00296   0.00403   0.00717

  Beta  occ. eigenvalues --  -38.45011 -38.44349 -38.44331 -38.44226 -38.44097
  Beta  occ. eigenvalues --  -38.43905 -38.43808  -2.20734  -2.20111  -2.20090
  Beta  occ. eigenvalues --   -2.19965  -2.19886  -2.19676  -2.19571  -1.14424
  Beta  occ. eigenvalues --   -1.14395  -1.14361  -1.13802  -1.13793  -1.13791
  Beta  occ. eigenvalues --   -1.13777  -1.13739  -1.13733  -1.13662  -1.13657
  Beta  occ. eigenvalues --   -1.13596  -1.13553  -1.13539  -1.13537  -1.13340
  Beta  occ. eigenvalues --   -1.13336  -1.13318  -1.13265  -1.13258  -1.13201
  Beta  occ. eigenvalues --   -0.16143  -0.12667  -0.11802
  Beta virt. eigenvalues --   -0.07442  -0.06257  -0.05265  -0.03971  -0.03322
  Beta virt. eigenvalues --   -0.03094  -0.02082  -0.01592  -0.00926  -0.00559
  Beta virt. eigenvalues --   -0.00300  -0.00061   0.00207   0.00434   0.00518

 Mulliken charges and spin densities:
               1          2
     1  Na   0.047109  -0.080561
     2  Na   0.147933   0.025009
     3  Na  -0.331613   0.109160
     4  Na   0.402569   0.072729
     5  Na  -0.148468   0.299452
     6  Na  -0.215103   0.373139
     7  Na   0.097573   0.201071
 Sum of Mulliken charges =  -0.00000   1.00000

 Dipole moment (field-independent basis, Debye):
    X=              0.3230    Y=              0.0447    Z=              0.0450  Tot=              0.3292
 Quadrupole moment (field-independent basis, Debye-Ang):
   XX=            -59.8887   YY=            -71.9537   ZZ=            -66.3967
   XY=              2.6560   XZ=              2.6967   YZ=             -1.3236

 Normal termination of Gaussian 16 at Sun Dec  3 13:21:54 2023.
