 Gaussian 16, Revision B.01,
 Gaussian 16:  ES64L-G16RevB.01 20-Dec-2017

 -------------------------
 #P B3LYP/6-311+g(d) force
 -------------------------

 -----
 DPGEN
 -----
 Symbolic Z-matrix:
 Charge =  0 Multiplicity = 2

                         Standard orientation:
 ---------------------------------------------------------------------
 Center     Atomic      Atomic             Coordinates (Angstroms)
 Number     Number       Type             X           Y           Z
 ---------------------------------------------------------------------
      1         11           0       -2.708735   -1.109769   -1.483581
      2         11           0        0.983372   -2.038475   -0.812384
      3         11           0        3.825529    0.938277   -1.100380
      4         11           0        2.556317   -0.187642    1.925320
      5         11           0        0.168165    1.333819   -0.399601
      6         11           0       -1.920653   -1.267406    1.594097
      7         11           0       -2.903994    2.331195    0.276528
 ---------------------------------------------------------------------

 SCF Done:  E(UB3LYP) =  -1136.12158331     A.U. after   24 cycles

 The electronic state is 2-A.
 Alpha  occ. eigenvalues --  -38.44900 -38.44596 -38.44573 -38.44527 -38.43702
 Alpha  occ. eigenvalues --  -38.43669 -38.42823  -2.20691  -2.20415  -2.20400
 Alpha  occ. eigenvalues --   -2.20352  -2.19564  -2.19486  -2.18632  -1.14359
 Alpha  occ. eigenvalues --   -1.14347  -1.14313  -1.14167  -1.14087  -1.14065
 Alpha  occ. eigenvalues --   -1.14032  -1.14021  -1.14013  -1.13999  -1.13995
 Alpha  occ. eigenvalues --   -1.13967  -1.13278  -1.13269  -1.13194  -1.13170
 Alpha  occ. eigenvalues --   -1.13156  -1.13080  -1.12303  -1.12296  -1.12272
 Alpha  occ. eigenvalues --   -0.17817  -0.14131  -0.10935  -0.10496
 Alpha virt. eigenvalues --   -0.06735  -0.05782  -0.05150  -0.03079  -0.02572
 Alpha virt. eigenvalues --   -0.02401  -0.02053  -0.01334  -0.00980  -0.00421
 Alpha virt. eigenvalues --   -0.00092   0.00129   0.00181   0.00381   0.00488

  Beta  occ. eigenvalues --  -38.44869 -38.44577 -38.44549 -38.44473 -38.43695
  Beta  occ. eigenvalues --  -38.43647 -38.42827  -2.20634  -2.20381  -2.20354
  Beta  occ. eigenvalues --   -2.20251  -2.19553  -2.19449  -2.18639  -1.14313
  Beta  occ. eigenvalues --   -1.14306  -1.14277  -1.14138  -1.14060  -1.14028
  Beta  occ. eigenvalues --   -1.14007  -1.13981  -1.13962  -1.13950  -1.13931
  Beta  occ. eigenvalues --   -1.13888  -1.13265  -1.13234  -1.13179  -1.13161
  Beta  occ. eigenvalues --   -1.13103  -1.13059  -1.12311  -1.12294  -1.12277
  Beta  occ. eigenvalues --   -0.17213  -0.13902  -0.10812
  Beta virt. eigenvalues --   -0.06969  -0.06560  -0.05167  -0.04792  -0.02957
  Beta virt. eigenvalues --   -0.02432  -0.01819  -0.01522  -0.01048  -0.00632
  Beta virt. eigenvalues --   -0.00245   0.00041   0.00180   0.00282   0.00451

 Mulliken charges and spin densities:
               1          2
     1  Na   0.297287   0.033713
     2  Na  -0.012853   0.224525
     3  Na   0.879464   0.158833
     4  Na   0.162652   0.237261
     5  Na  -1.933151   0.189483
     6  Na   0.050702   0.274034
     7  Na   0.555900  -0.117850
 Sum of Mulliken charges =  -0.00000   1.00000

 Dipole moment (field-independent basis, Debye):
    X=              0.6864    Y=             -0.6124    Z=             -0.0100  Tot=              0.9199
 Quadrupole moment (field-independent basis, Debye-Ang):
   XX=            -48.4688   YY=            -77.7981   ZZ=            -67.4222
   XY=              2.8175   XZ=             -0.5851   YZ=             -0.3480

 Normal termination of Gaussian 16 at Tue Dec  5 21:45:12 2023.
