 Gaussian 16, Revision B.01,
 Gaussian 16:  ES64L-G16RevB.01 20-Dec-2017

 -------------------------
 #P B3LYP/6-311+g(d) force
 -------------------------

 -----
 DPGEN
 -----
 Symbolic Z-matrix:
 Charge =  0 Multiplicity = 2

                         Standard orientation:
 ---------------------------------------------------------------------
 Center     Atomic      Atomic             Coordinates (Angstroms)
 Number     Number       Type             X           Y           Z
 ---------------------------------------------------------------------
      1         11           0        0.143110    0.076601   -1.264580
      2         11           0       -0.749526    2.979368    0.491083
      3         11           0       -3.201573    0.992661   -0.578626
      4         11           0        2.573727    0.734710    1.260558
      5         11           0       -2.317317   -2.205513   -0.445879
      6         11           0        3.976122   -0.612631   -1.216377
      7         11           0       -0.424543   -1.965195    1.753820
 ---------------------------------------------------------------------

 SCF Done:  E(UB3LYP) =  -1136.12291460     A.U. after   21 cycles

 The electronic state is 2-A.
 Alpha  occ. eigenvalues --  -38.44673 -38.44231 -38.44228 -38.44149 -38.43750
 Alpha  occ. eigenvalues --  -38.43385 -38.43185  -2.20546  -2.20066  -2.20051
 Alpha  occ. eigenvalues --   -2.20001  -2.19620  -2.19299  -2.19005  -1.14261
 Alpha  occ. eigenvalues --   -1.14214  -1.14165  -1.13802  -1.13733  -1.13722
 Alpha  occ. eigenvalues --   -1.13688  -1.13686  -1.13671  -1.13660  -1.13638
 Alpha  occ. eigenvalues --   -1.13626  -1.13376  -1.13252  -1.13245  -1.12948
 Alpha  occ. eigenvalues --   -1.12937  -1.12923  -1.12676  -1.12667  -1.12636
 Alpha  occ. eigenvalues --   -0.17856  -0.13961  -0.12022  -0.10643
 Alpha virt. eigenvalues --   -0.06500  -0.05327  -0.04729  -0.03377  -0.02812
 Alpha virt. eigenvalues --   -0.02454  -0.02251  -0.01075  -0.00561  -0.00330
 Alpha virt. eigenvalues --   -0.00046   0.00167   0.00326   0.00537   0.00737

  Beta  occ. eigenvalues --  -38.44660 -38.44217 -38.44173 -38.44132 -38.43694
  Beta  occ. eigenvalues --  -38.43381 -38.43170  -2.20524  -2.20044  -2.19970
  Beta  occ. eigenvalues --   -2.19947  -2.19515  -2.19295  -2.18978  -1.14224
  Beta  occ. eigenvalues --   -1.14202  -1.14150  -1.13757  -1.13711  -1.13704
  Beta  occ. eigenvalues --   -1.13647  -1.13637  -1.13617  -1.13617  -1.13615
  Beta  occ. eigenvalues --   -1.13569  -1.13318  -1.13182  -1.13170  -1.12948
  Beta  occ. eigenvalues --   -1.12932  -1.12887  -1.12659  -1.12650  -1.12610
  Beta  occ. eigenvalues --   -0.17320  -0.13506  -0.11860
  Beta virt. eigenvalues --   -0.07206  -0.06279  -0.04709  -0.04382  -0.03172
  Beta virt. eigenvalues --   -0.02479  -0.02221  -0.01603  -0.00951  -0.00366
  Beta virt. eigenvalues --   -0.00204   0.00165   0.00258   0.00472   0.00718

 Mulliken charges and spin densities:
               1          2
     1  Na  -0.923048  -0.108605
     2  Na  -0.154888   0.191424
     3  Na   0.608276   0.090865
     4  Na   0.241733   0.128185
     5  Na   0.600142   0.074382
     6  Na   0.051116   0.332485
     7  Na  -0.423330   0.291263
 Sum of Mulliken charges =  -0.00000   1.00000

 Dipole moment (field-independent basis, Debye):
    X=              0.0500    Y=             -0.0426    Z=              0.1538  Tot=              0.1673
 Quadrupole moment (field-independent basis, Debye-Ang):
   XX=            -57.4291   YY=            -71.7581   ZZ=            -68.5149
   XY=              0.4046   XZ=              1.3210   YZ=              3.4572

 Normal termination of Gaussian 16 at Tue Dec  5 15:21:47 2023.
