 Gaussian 16, Revision B.01,
 Gaussian 16:  ES64L-G16RevB.01 20-Dec-2017

 -------------------------
 #P B3LYP/6-311+g(d) force
 -------------------------

 -----
 DPGEN
 -----
 Symbolic Z-matrix:
 Charge =  0 Multiplicity = 2

                         Standard orientation:
 ---------------------------------------------------------------------
 Center     Atomic      Atomic             Coordinates (Angstroms)
 Number     Number       Type             X           Y           Z
 ---------------------------------------------------------------------
      1         11           0        0.146164    0.210690    2.073575
      2         11           0        2.387915   -2.097199    0.082009
      3         11           0        0.276391    0.100530   -1.709526
      4         11           0       -0.898268    2.796575   -0.353160
      5         11           0        2.724909    1.470640    0.013168
      6         11           0       -3.301768   -0.071586    0.265031
      7         11           0       -1.335341   -2.409649   -0.371097
 ---------------------------------------------------------------------

 SCF Done:  E(UB3LYP) =  -1136.13620912     A.U. after   19 cycles

 The electronic state is 2-A.
 Alpha  occ. eigenvalues --  -38.44217 -38.44179 -38.43837 -38.43740 -38.43373
 Alpha  occ. eigenvalues --  -38.43250 -38.43215  -2.20037  -2.20019  -2.19704
 Alpha  occ. eigenvalues --   -2.19555  -2.19224  -2.19204  -2.19090  -1.13731
 Alpha  occ. eigenvalues --   -1.13710  -1.13697  -1.13690  -1.13669  -1.13638
 Alpha  occ. eigenvalues --   -1.13371  -1.13333  -1.13321  -1.13229  -1.13215
 Alpha  occ. eigenvalues --   -1.13199  -1.12953  -1.12913  -1.12873  -1.12858
 Alpha  occ. eigenvalues --   -1.12826  -1.12811  -1.12757  -1.12745  -1.12717
 Alpha  occ. eigenvalues --   -0.18523  -0.13123  -0.12212  -0.10836
 Alpha virt. eigenvalues --   -0.05848  -0.05326  -0.04374  -0.03302  -0.02844
 Alpha virt. eigenvalues --   -0.02684  -0.01649  -0.01194  -0.00446  -0.00185
 Alpha virt. eigenvalues --   -0.00025   0.00359   0.00759   0.00836   0.00902

  Beta  occ. eigenvalues --  -38.44216 -38.44174 -38.43746 -38.43738 -38.43365
  Beta  occ. eigenvalues --  -38.43208 -38.43179  -2.20037  -2.20012  -2.19555
  Beta  occ. eigenvalues --   -2.19535  -2.19193  -2.19093  -2.19079  -1.13734
  Beta  occ. eigenvalues --   -1.13701  -1.13680  -1.13671  -1.13666  -1.13636
  Beta  occ. eigenvalues --   -1.13260  -1.13222  -1.13217  -1.13211  -1.13199
  Beta  occ. eigenvalues --   -1.13189  -1.12916  -1.12843  -1.12836  -1.12822
  Beta  occ. eigenvalues --   -1.12786  -1.12740  -1.12734  -1.12714  -1.12699
  Beta  occ. eigenvalues --   -0.17787  -0.12924  -0.11959
  Beta virt. eigenvalues --   -0.06928  -0.05776  -0.05316  -0.04336  -0.02539
  Beta virt. eigenvalues --   -0.02085  -0.01614  -0.01546  -0.01136  -0.00495
  Beta virt. eigenvalues --   -0.00216   0.00111   0.00378   0.00812   0.00847

 Mulliken charges and spin densities:
               1          2
     1  Na  -0.468374   0.774714
     2  Na   0.037038  -0.060168
     3  Na   0.002458   0.497693
     4  Na   0.081253  -0.082078
     5  Na   0.236462  -0.081035
     6  Na  -0.011379  -0.001436
     7  Na   0.122541  -0.047689
 Sum of Mulliken charges =  -0.00000   1.00000

 Dipole moment (field-independent basis, Debye):
    X=              0.2081    Y=              0.1975    Z=              0.2468  Tot=              0.3784
 Quadrupole moment (field-independent basis, Debye-Ang):
   XX=            -54.8340   YY=            -64.7495   ZZ=            -74.0314
   XY=             -0.7827   XZ=             -0.1399   YZ=             -0.1935

 Normal termination of Gaussian 16 at Thu Dec  7 02:10:19 2023.
