 Gaussian 16, Revision B.01,
 Gaussian 16:  ES64L-G16RevB.01 20-Dec-2017

 -------------------------
 #P B3LYP/6-311+g(d) force
 -------------------------

 -----
 DPGEN
 -----
 Symbolic Z-matrix:
 Charge =  0 Multiplicity = 2

                         Standard orientation:
 ---------------------------------------------------------------------
 Center     Atomic      Atomic             Coordinates (Angstroms)
 Number     Number       Type             X           Y           Z
 ---------------------------------------------------------------------
      1         11           0        0.548178   -1.261114    1.843503
      2         11           0       -0.837075   -2.108844   -1.588421
      3         11           0       -2.399636    1.917059   -0.892170
      4         11           0        2.770030   -0.984437   -0.971500
      5         11           0        1.825758    1.934807    1.397158
      6         11           0        0.525455    1.333000   -1.293544
      7         11           0       -2.432711   -0.830471    1.504975
 ---------------------------------------------------------------------

 SCF Done:  E(UB3LYP) =  -1136.12502822     A.U. after   21 cycles

 The electronic state is 2-A.
 Alpha  occ. eigenvalues --  -38.44791 -38.44534 -38.44262 -38.43875 -38.43521
 Alpha  occ. eigenvalues --  -38.43150 -38.42770  -2.20592  -2.20385  -2.20099
 Alpha  occ. eigenvalues --   -2.19724  -2.19427  -2.18979  -2.18751  -1.14269
 Alpha  occ. eigenvalues --   -1.14226  -1.14217  -1.14075  -1.14041  -1.13982
 Alpha  occ. eigenvalues --   -1.13800  -1.13745  -1.13714  -1.13480  -1.13355
 Alpha  occ. eigenvalues --   -1.13342  -1.13104  -1.13056  -1.13042  -1.12739
 Alpha  occ. eigenvalues --   -1.12628  -1.12602  -1.12438  -1.12394  -1.12364
 Alpha  occ. eigenvalues --   -0.18426  -0.12841  -0.12239  -0.11726
 Alpha virt. eigenvalues --   -0.05570  -0.04798  -0.04628  -0.03591  -0.03315
 Alpha virt. eigenvalues --   -0.03058  -0.01265  -0.01000  -0.00474   0.00184
 Alpha virt. eigenvalues --    0.00383   0.00390   0.00446   0.00698   0.00826

  Beta  occ. eigenvalues --  -38.44742 -38.44488 -38.44239 -38.43850 -38.43474
  Beta  occ. eigenvalues --  -38.43149 -38.42750  -2.20501  -2.20301  -2.20059
  Beta  occ. eigenvalues --   -2.19680  -2.19344  -2.18978  -2.18719  -1.14201
  Beta  occ. eigenvalues --   -1.14167  -1.14147  -1.14023  -1.13970  -1.13929
  Beta  occ. eigenvalues --   -1.13764  -1.13724  -1.13674  -1.13435  -1.13326
  Beta  occ. eigenvalues --   -1.13312  -1.13045  -1.12990  -1.12979  -1.12734
  Beta  occ. eigenvalues --   -1.12623  -1.12603  -1.12397  -1.12364  -1.12347
  Beta  occ. eigenvalues --   -0.17626  -0.12656  -0.11516
  Beta virt. eigenvalues --   -0.08259  -0.05207  -0.04648  -0.04189  -0.03315
  Beta virt. eigenvalues --   -0.02703  -0.02265  -0.01205  -0.00695  -0.00311
  Beta virt. eigenvalues --    0.00281   0.00434   0.00476   0.00520   0.00779

 Mulliken charges and spin densities:
               1          2
     1  Na   0.010901   0.380062
     2  Na  -0.499724   0.264334
     3  Na  -0.160695  -0.043623
     4  Na   0.415671   0.110496
     5  Na  -0.212301   0.121847
     6  Na   0.400200   0.152072
     7  Na   0.045947   0.014813
 Sum of Mulliken charges =  -0.00000   1.00000

 Dipole moment (field-independent basis, Debye):
    X=              0.4108    Y=             -0.5154    Z=              0.0985  Tot=              0.6664
 Quadrupole moment (field-independent basis, Debye-Ang):
   XX=            -60.0879   YY=            -71.2892   ZZ=            -64.5956
   XY=              0.4879   XZ=             -0.0250   YZ=              6.7685

 Normal termination of Gaussian 16 at Fri Dec  8 05:29:41 2023.
