 Gaussian 16, Revision B.01,
 Gaussian 16:  ES64L-G16RevB.01 20-Dec-2017

 -------------------------
 #P B3LYP/6-311+g(d) force
 -------------------------

 -----
 DPGEN
 -----
 Symbolic Z-matrix:
 Charge =  0 Multiplicity = 2

                         Standard orientation:
 ---------------------------------------------------------------------
 Center     Atomic      Atomic             Coordinates (Angstroms)
 Number     Number       Type             X           Y           Z
 ---------------------------------------------------------------------
      1         11           0        0.301192   -1.965157    0.495957
      2         11           0        3.452360   -2.821023   -0.282614
      3         11           0        3.191911    0.238157   -0.207835
      4         11           0        1.200047    3.797858   -0.708818
      5         11           0        0.093033    1.792759    1.453325
      6         11           0       -2.345862   -0.365728   -0.624359
      7         11           0       -5.892681   -0.676867   -0.125656
 ---------------------------------------------------------------------

 SCF Done:  E(UB3LYP) =  -1136.12002209     A.U. after   20 cycles

 The electronic state is 2-A.
 Alpha  occ. eigenvalues --  -38.44564 -38.44497 -38.44289 -38.44230 -38.43996
 Alpha  occ. eigenvalues --  -38.43787 -38.43180  -2.20401  -2.20327  -2.20087
 Alpha  occ. eigenvalues --   -2.20019  -2.19850  -2.19657  -2.18984  -1.14093
 Alpha  occ. eigenvalues --   -1.14076  -1.14037  -1.14031  -1.13995  -1.13954
 Alpha  occ. eigenvalues --   -1.13744  -1.13740  -1.13706  -1.13654  -1.13654
 Alpha  occ. eigenvalues --   -1.13626  -1.13512  -1.13496  -1.13491  -1.13345
 Alpha  occ. eigenvalues --   -1.13327  -1.13257  -1.12675  -1.12661  -1.12630
 Alpha  occ. eigenvalues --   -0.16999  -0.13397  -0.12885  -0.10800
 Alpha virt. eigenvalues --   -0.06111  -0.05647  -0.04938  -0.03452  -0.02629
 Alpha virt. eigenvalues --   -0.02539  -0.01819  -0.01462  -0.01198  -0.00742
 Alpha virt. eigenvalues --   -0.00634  -0.00130   0.00380   0.00443   0.00484

  Beta  occ. eigenvalues --  -38.44541 -38.44485 -38.44278 -38.44113 -38.43984
  Beta  occ. eigenvalues --  -38.43746 -38.43188  -2.20361  -2.20307  -2.20066
  Beta  occ. eigenvalues --   -2.19829  -2.19802  -2.19583  -2.19006  -1.14066
  Beta  occ. eigenvalues --   -1.14045  -1.14018  -1.14005  -1.13982  -1.13928
  Beta  occ. eigenvalues --   -1.13730  -1.13725  -1.13692  -1.13507  -1.13505
  Beta  occ. eigenvalues --   -1.13485  -1.13484  -1.13483  -1.13479  -1.13297
  Beta  occ. eigenvalues --   -1.13274  -1.13204  -1.12693  -1.12682  -1.12596
  Beta  occ. eigenvalues --   -0.16566  -0.13073  -0.12185
  Beta virt. eigenvalues --   -0.07353  -0.05910  -0.05413  -0.04485  -0.03128
  Beta virt. eigenvalues --   -0.02564  -0.02228  -0.01736  -0.00986  -0.00854
  Beta virt. eigenvalues --   -0.00436  -0.00322   0.00122   0.00445   0.00567

 Mulliken charges and spin densities:
               1          2
     1  Na  -0.646453   0.047368
     2  Na   0.919340   0.090812
     3  Na  -0.493900   0.229273
     4  Na   0.094135   0.078685
     5  Na   0.195180   0.073705
     6  Na  -0.116357  -0.079287
     7  Na   0.048055   0.559443
 Sum of Mulliken charges =  -0.00000   1.00000

 Dipole moment (field-independent basis, Debye):
    X=              1.4696    Y=              0.2403    Z=              0.1160  Tot=              1.4936
 Quadrupole moment (field-independent basis, Debye-Ang):
   XX=            -72.0248   YY=            -61.1468   ZZ=            -67.3619
   XY=             -4.2924   XZ=             -2.7156   YZ=             -2.2316

 Normal termination of Gaussian 16 at Tue Nov 28 22:05:04 2023.
