 Gaussian 16, Revision B.01,
 Gaussian 16:  ES64L-G16RevB.01 20-Dec-2017

 -------------------------
 #P B3LYP/6-311+g(d) force
 -------------------------

 -----
 DPGEN
 -----
 Symbolic Z-matrix:
 Charge =  0 Multiplicity = 2

                         Standard orientation:
 ---------------------------------------------------------------------
 Center     Atomic      Atomic             Coordinates (Angstroms)
 Number     Number       Type             X           Y           Z
 ---------------------------------------------------------------------
      1         11           0       -0.032003    0.430075    1.859753
      2         11           0        0.039198   -0.088957   -1.821705
      3         11           0       -0.526945   -2.777576    0.015567
      4         11           0       -1.357121    2.672315   -0.045442
      5         11           0        2.651119   -1.492304    0.227520
      6         11           0        2.181683    1.917334   -0.237935
      7         11           0       -2.955931   -0.660887    0.002242
 ---------------------------------------------------------------------

 SCF Done:  E(UB3LYP) =  -1136.14123104     A.U. after   18 cycles

 The electronic state is 2-A.
 Alpha  occ. eigenvalues --  -38.43668 -38.43639 -38.43593 -38.43554 -38.43329
 Alpha  occ. eigenvalues --  -38.43302 -38.43264  -2.19523  -2.19512  -2.19449
 Alpha  occ. eigenvalues --   -2.19400  -2.19273  -2.19225  -2.19189  -1.13213
 Alpha  occ. eigenvalues --   -1.13212  -1.13191  -1.13189  -1.13173  -1.13156
 Alpha  occ. eigenvalues --   -1.13139  -1.13111  -1.13072  -1.13070  -1.13064
 Alpha  occ. eigenvalues --   -1.13041  -1.12945  -1.12921  -1.12897  -1.12886
 Alpha  occ. eigenvalues --   -1.12880  -1.12843  -1.12838  -1.12819  -1.12814
 Alpha  occ. eigenvalues --   -0.18927  -0.12924  -0.12739  -0.10796
 Alpha virt. eigenvalues --   -0.05346  -0.05110  -0.04830  -0.03123  -0.03039
 Alpha virt. eigenvalues --   -0.02519  -0.01294  -0.01171  -0.00272  -0.00210
 Alpha virt. eigenvalues --   -0.00000   0.00379   0.00861   0.00909   0.00925

  Beta  occ. eigenvalues --  -38.43665 -38.43630 -38.43588 -38.43550 -38.43297
  Beta  occ. eigenvalues --  -38.43250 -38.43183  -2.19520  -2.19500  -2.19444
  Beta  occ. eigenvalues --   -2.19394  -2.19184  -2.19127  -2.19078  -1.13214
  Beta  occ. eigenvalues --   -1.13203  -1.13176  -1.13159  -1.13152  -1.13148
  Beta  occ. eigenvalues --   -1.13127  -1.13089  -1.13069  -1.13069  -1.13041
  Beta  occ. eigenvalues --   -1.13037  -1.12888  -1.12846  -1.12829  -1.12815
  Beta  occ. eigenvalues --   -1.12791  -1.12789  -1.12781  -1.12734  -1.12732
  Beta  occ. eigenvalues --   -0.18182  -0.12675  -0.12494
  Beta virt. eigenvalues --   -0.06877  -0.05352  -0.05084  -0.04785  -0.02306
  Beta virt. eigenvalues --   -0.02247  -0.01467  -0.01214  -0.01098  -0.00334
  Beta virt. eigenvalues --   -0.00262   0.00128   0.00393   0.00881   0.00913

 Mulliken charges and spin densities:
               1          2
     1  Na  -0.413489   0.746472
     2  Na  -0.295134   0.669145
     3  Na   0.107860  -0.055359
     4  Na   0.216771  -0.129360
     5  Na   0.052229  -0.052016
     6  Na   0.233558  -0.076348
     7  Na   0.098206  -0.102535
 Sum of Mulliken charges =  -0.00000   1.00000

 Dipole moment (field-independent basis, Debye):
    X=             -0.0130    Y=              0.1818    Z=              0.0211  Tot=              0.1835
 Quadrupole moment (field-independent basis, Debye-Ang):
   XX=            -58.5454   YY=            -61.1761   ZZ=            -73.9613
   XY=             -0.4574   XZ=              0.2562   YZ=             -1.2254

 Normal termination of Gaussian 16 at Thu Dec  7 06:03:56 2023.
