 Gaussian 16, Revision B.01,
 Gaussian 16:  ES64L-G16RevB.01 20-Dec-2017

 -------------------------
 #P B3LYP/6-311+g(d) force
 -------------------------

 -----
 DPGEN
 -----
 Symbolic Z-matrix:
 Charge =  0 Multiplicity = 2

                         Standard orientation:
 ---------------------------------------------------------------------
 Center     Atomic      Atomic             Coordinates (Angstroms)
 Number     Number       Type             X           Y           Z
 ---------------------------------------------------------------------
      1         11           0        2.622397   -2.889051   -0.397924
      2         11           0       -0.957434    3.183334   -0.058713
      3         11           0        4.436213    0.321475    0.438178
      4         11           0        2.524974    2.600206   -0.402560
      5         11           0       -3.821748   -1.788561   -0.525229
      6         11           0       -4.370153    1.225334    0.390375
      7         11           0       -0.434249   -2.652738    0.555874
 ---------------------------------------------------------------------

 SCF Done:  E(UB3LYP) =  -1136.10866656     A.U. after   23 cycles

 The electronic state is 2-A.
 Alpha  occ. eigenvalues --  -38.45306 -38.44776 -38.44638 -38.44328 -38.44255
 Alpha  occ. eigenvalues --  -38.44146 -38.43972  -2.21081  -2.20582  -2.20423
 Alpha  occ. eigenvalues --   -2.20120  -2.20057  -2.19978  -2.19754  -1.14759
 Alpha  occ. eigenvalues --   -1.14748  -1.14725  -1.14238  -1.14227  -1.14223
 Alpha  occ. eigenvalues --   -1.14108  -1.14090  -1.14063  -1.13805  -1.13786
 Alpha  occ. eigenvalues --   -1.13780  -1.13744  -1.13729  -1.13719  -1.13616
 Alpha  occ. eigenvalues --   -1.13593  -1.13581  -1.13409  -1.13401  -1.13369
 Alpha  occ. eigenvalues --   -0.15711  -0.14241  -0.13123  -0.10800
 Alpha virt. eigenvalues --   -0.07616  -0.04868  -0.04347  -0.03633  -0.03398
 Alpha virt. eigenvalues --   -0.02780  -0.02091  -0.01944  -0.00968  -0.00617
 Alpha virt. eigenvalues --   -0.00283  -0.00196   0.00077   0.00198   0.00607

  Beta  occ. eigenvalues --  -38.45296 -38.44743 -38.44625 -38.44303 -38.44251
  Beta  occ. eigenvalues --  -38.44078 -38.43893  -2.21067  -2.20523  -2.20404
  Beta  occ. eigenvalues --   -2.20075  -2.20058  -2.19852  -2.19608  -1.14747
  Beta  occ. eigenvalues --   -1.14740  -1.14696  -1.14199  -1.14191  -1.14172
  Beta  occ. eigenvalues --   -1.14085  -1.14080  -1.14038  -1.13767  -1.13758
  Beta  occ. eigenvalues --   -1.13752  -1.13736  -1.13703  -1.13698  -1.13531
  Beta  occ. eigenvalues --   -1.13514  -1.13501  -1.13310  -1.13303  -1.13272
  Beta  occ. eigenvalues --   -0.15205  -0.13571  -0.12320
  Beta virt. eigenvalues --   -0.07787  -0.07641  -0.04480  -0.03854  -0.03374
  Beta virt. eigenvalues --   -0.02979  -0.02606  -0.01883  -0.01838  -0.00795
  Beta virt. eigenvalues --   -0.00287  -0.00078   0.00051   0.00165   0.00294

 Mulliken charges and spin densities:
               1          2
     1  Na   0.338290   0.004413
     2  Na   0.020140   0.371636
     3  Na   0.059492   0.301705
     4  Na   0.010160  -0.031487
     5  Na   0.213464   0.160255
     6  Na   0.077956   0.077122
     7  Na  -0.719502   0.116357
 Sum of Mulliken charges =  -0.00000   1.00000

 Dipole moment (field-independent basis, Debye):
    X=             -0.8017    Y=             -0.6933    Z=             -0.0197  Tot=              1.0601
 Quadrupole moment (field-independent basis, Debye-Ang):
   XX=            -57.9087   YY=            -69.7634   ZZ=            -71.6928
   XY=             -5.3503   XZ=             -1.1699   YZ=              2.0688

 Normal termination of Gaussian 16 at Sun Dec  3 19:22:03 2023.
