 Gaussian 16, Revision B.01,
 Gaussian 16:  ES64L-G16RevB.01 20-Dec-2017

 -------------------------
 #P B3LYP/6-311+g(d) force
 -------------------------

 -----
 DPGEN
 -----
 Symbolic Z-matrix:
 Charge =  0 Multiplicity = 2

                         Standard orientation:
 ---------------------------------------------------------------------
 Center     Atomic      Atomic             Coordinates (Angstroms)
 Number     Number       Type             X           Y           Z
 ---------------------------------------------------------------------
      1         11           0       -0.551971   -0.360892    2.067765
      2         11           0       -1.468154   -1.349989   -1.364538
      3         11           0       -4.067394   -0.730310    0.636973
      4         11           0       -1.431018    1.922225   -0.859951
      5         11           0        1.456307   -0.518857   -1.236490
      6         11           0        1.860035    2.564486    0.375274
      7         11           0        4.202194   -1.526663    0.380967
 ---------------------------------------------------------------------

 SCF Done:  E(UB3LYP) =  -1136.11573696     A.U. after   26 cycles

 The electronic state is 2-A.
 Alpha  occ. eigenvalues --  -38.45718 -38.45001 -38.44008 -38.44001 -38.43773
 Alpha  occ. eigenvalues --  -38.43521 -38.43182  -2.21507  -2.20792  -2.19943
 Alpha  occ. eigenvalues --   -2.19758  -2.19565  -2.19377  -2.19111  -1.15192
 Alpha  occ. eigenvalues --   -1.15149  -1.15107  -1.14463  -1.14455  -1.14425
 Alpha  occ. eigenvalues --   -1.13665  -1.13584  -1.13551  -1.13434  -1.13425
 Alpha  occ. eigenvalues --   -1.13409  -1.13246  -1.13223  -1.13192  -1.13066
 Alpha  occ. eigenvalues --   -1.13042  -1.12982  -1.12833  -1.12762  -1.12699
 Alpha  occ. eigenvalues --   -0.18286  -0.13414  -0.11420  -0.10996
 Alpha virt. eigenvalues --   -0.07302  -0.05489  -0.04229  -0.03275  -0.02848
 Alpha virt. eigenvalues --   -0.02547  -0.02344  -0.01498  -0.01054  -0.00206
 Alpha virt. eigenvalues --   -0.00085   0.00204   0.00291   0.00456   0.00601

  Beta  occ. eigenvalues --  -38.45648 -38.44995 -38.44030 -38.43932 -38.43763
  Beta  occ. eigenvalues --  -38.43498 -38.43140  -2.21376  -2.20782  -2.19822
  Beta  occ. eigenvalues --   -2.19799  -2.19547  -2.19336  -2.19039  -1.15100
  Beta  occ. eigenvalues --   -1.15058  -1.15009  -1.14455  -1.14443  -1.14414
  Beta  occ. eigenvalues --   -1.13578  -1.13495  -1.13463  -1.13452  -1.13447
  Beta  occ. eigenvalues --   -1.13435  -1.13231  -1.13207  -1.13180  -1.13031
  Beta  occ. eigenvalues --   -1.12996  -1.12959  -1.12778  -1.12692  -1.12648
  Beta  occ. eigenvalues --   -0.17404  -0.13386  -0.10922
  Beta virt. eigenvalues --   -0.07428  -0.06916  -0.05368  -0.03846  -0.02899
  Beta virt. eigenvalues --   -0.02496  -0.01904  -0.01826  -0.01283  -0.00811
  Beta virt. eigenvalues --   -0.00197  -0.00049   0.00322   0.00401   0.00531

 Mulliken charges and spin densities:
               1          2
     1  Na  -0.395223   0.501852
     2  Na   0.292756   0.213187
     3  Na   0.453741   0.125609
     4  Na  -0.105643   0.111406
     5  Na  -0.546252   0.084364
     6  Na   0.031045   0.048063
     7  Na   0.269576  -0.084481
 Sum of Mulliken charges =  -0.00000   1.00000

 Dipole moment (field-independent basis, Debye):
    X=             -1.2857    Y=              0.4543    Z=              0.9023  Tot=              1.6351
 Quadrupole moment (field-independent basis, Debye-Ang):
   XX=            -51.1141   YY=            -74.2267   ZZ=            -70.1269
   XY=              2.5503   XZ=              2.8631   YZ=             -0.9376

 Normal termination of Gaussian 16 at Thu Dec  7 03:16:21 2023.
