 Gaussian 16, Revision B.01,
 Gaussian 16:  ES64L-G16RevB.01 20-Dec-2017

 -------------------------
 #P B3LYP/6-311+g(d) force
 -------------------------

 -----
 DPGEN
 -----
 Symbolic Z-matrix:
 Charge =  0 Multiplicity = 2

                         Standard orientation:
 ---------------------------------------------------------------------
 Center     Atomic      Atomic             Coordinates (Angstroms)
 Number     Number       Type             X           Y           Z
 ---------------------------------------------------------------------
      1         11           0        2.953269   -0.544930    0.063893
      2         11           0       -1.833345    2.000447   -0.250646
      3         11           0       -0.347857    0.046698    1.728630
      4         11           0        0.736896   -0.282057   -1.714419
      5         11           0       -3.244940   -0.946462   -0.269567
      6         11           0        1.369649    2.521602    0.179170
      7         11           0        0.366329   -2.795298    0.262940
 ---------------------------------------------------------------------

 SCF Done:  E(UB3LYP) =  -1136.13213030     A.U. after   19 cycles

 The electronic state is 2-A.
 Alpha  occ. eigenvalues --  -38.44273 -38.44225 -38.43442 -38.43423 -38.43410
 Alpha  occ. eigenvalues --  -38.43085 -38.43082  -2.20146  -2.20076  -2.19447
 Alpha  occ. eigenvalues --   -2.19324  -2.19303  -2.19074  -2.18982  -1.13943
 Alpha  occ. eigenvalues --   -1.13782  -1.13753  -1.13753  -1.13740  -1.13710
 Alpha  occ. eigenvalues --   -1.13131  -1.13083  -1.13075  -1.13046  -1.12995
 Alpha  occ. eigenvalues --   -1.12979  -1.12960  -1.12951  -1.12913  -1.12752
 Alpha  occ. eigenvalues --   -1.12706  -1.12691  -1.12642  -1.12628  -1.12617
 Alpha  occ. eigenvalues --   -0.19098  -0.13396  -0.12535  -0.10604
 Alpha virt. eigenvalues --   -0.05920  -0.04920  -0.04648  -0.03337  -0.02818
 Alpha virt. eigenvalues --   -0.02202  -0.01634  -0.01015  -0.00354  -0.00112
 Alpha virt. eigenvalues --    0.00014   0.00341   0.00840   0.00869   0.00939

  Beta  occ. eigenvalues --  -38.44269 -38.44217 -38.43412 -38.43402 -38.43375
  Beta  occ. eigenvalues --  -38.43075 -38.43006  -2.20136  -2.20070  -2.19323
  Beta  occ. eigenvalues --   -2.19311  -2.19287  -2.18972  -2.18930  -1.13923
  Beta  occ. eigenvalues --   -1.13755  -1.13750  -1.13746  -1.13723  -1.13707
  Beta  occ. eigenvalues --   -1.13066  -1.13037  -1.13006  -1.12984  -1.12960
  Beta  occ. eigenvalues --   -1.12957  -1.12941  -1.12912  -1.12898  -1.12676
  Beta  occ. eigenvalues --   -1.12638  -1.12626  -1.12605  -1.12593  -1.12557
  Beta  occ. eigenvalues --   -0.18381  -0.13137  -0.12276
  Beta virt. eigenvalues --   -0.06737  -0.05818  -0.04905  -0.04623  -0.02550
  Beta virt. eigenvalues --   -0.02054  -0.01547  -0.01212  -0.00955  -0.00385
  Beta virt. eigenvalues --   -0.00136   0.00147   0.00377   0.00868   0.00879

 Mulliken charges and spin densities:
               1          2
     1  Na   0.615293  -0.003248
     2  Na   0.011626   0.001529
     3  Na  -0.260873   0.565342
     4  Na  -0.474744   0.665962
     5  Na  -0.082686  -0.055679
     6  Na   0.174807  -0.031159
     7  Na   0.016578  -0.142748
 Sum of Mulliken charges =  -0.00000   1.00000

 Dipole moment (field-independent basis, Debye):
    X=             -0.0935    Y=             -0.2894    Z=              0.0245  Tot=              0.3052
 Quadrupole moment (field-independent basis, Debye-Ang):
   XX=            -55.4247   YY=            -63.3089   ZZ=            -74.6919
   XY=              1.3930   XZ=              2.3359   YZ=             -0.4521

 Normal termination of Gaussian 16 at Tue Dec  5 09:48:49 2023.
