 Gaussian 16, Revision B.01,
 Gaussian 16:  ES64L-G16RevB.01 20-Dec-2017

 -------------------------
 #P B3LYP/6-311+g(d) force
 -------------------------

 -----
 DPGEN
 -----
 Symbolic Z-matrix:
 Charge =  0 Multiplicity = 2

                         Standard orientation:
 ---------------------------------------------------------------------
 Center     Atomic      Atomic             Coordinates (Angstroms)
 Number     Number       Type             X           Y           Z
 ---------------------------------------------------------------------
      1         11           0        1.637475   -2.452484   -0.203085
      2         11           0       -1.888144   -2.194796   -0.044246
      3         11           0       -2.837743    0.649984    0.205240
      4         11           0        0.214642    0.146794   -1.503535
      5         11           0       -0.387477    2.956719   -0.236970
      6         11           0        0.182549   -0.027188    1.528150
      7         11           0        3.078698    0.920971    0.254446
 ---------------------------------------------------------------------

 SCF Done:  E(UB3LYP) =  -1136.13335328     A.U. after   21 cycles

 The electronic state is 2-A.
 Alpha  occ. eigenvalues --  -38.44248 -38.43663 -38.43646 -38.43505 -38.43411
 Alpha  occ. eigenvalues --  -38.42815 -38.42673  -2.20082  -2.19568  -2.19543
 Alpha  occ. eigenvalues --   -2.19378  -2.19324  -2.18875  -2.18748  -1.13763
 Alpha  occ. eigenvalues --   -1.13744  -1.13709  -1.13319  -1.13243  -1.13231
 Alpha  occ. eigenvalues --   -1.13216  -1.13210  -1.13160  -1.13083  -1.13032
 Alpha  occ. eigenvalues --   -1.12999  -1.12984  -1.12973  -1.12946  -1.12668
 Alpha  occ. eigenvalues --   -1.12485  -1.12480  -1.12405  -1.12363  -1.12345
 Alpha  occ. eigenvalues --   -0.19301  -0.13317  -0.12758  -0.10205
 Alpha virt. eigenvalues --   -0.05768  -0.05132  -0.04738  -0.02971  -0.02638
 Alpha virt. eigenvalues --   -0.01774  -0.01687  -0.01296  -0.00331  -0.00241
 Alpha virt. eigenvalues --    0.00068   0.00349   0.00805   0.00878   0.00911

  Beta  occ. eigenvalues --  -38.44238 -38.43654 -38.43637 -38.43496 -38.43404
  Beta  occ. eigenvalues --  -38.42748 -38.42602  -2.20067  -2.19556  -2.19529
  Beta  occ. eigenvalues --   -2.19364  -2.19317  -2.18753  -2.18620  -1.13744
  Beta  occ. eigenvalues --   -1.13720  -1.13703  -1.13316  -1.13234  -1.13225
  Beta  occ. eigenvalues --   -1.13182  -1.13172  -1.13149  -1.13067  -1.13006
  Beta  occ. eigenvalues --   -1.12992  -1.12981  -1.12958  -1.12923  -1.12580
  Beta  occ. eigenvalues --   -1.12402  -1.12387  -1.12313  -1.12264  -1.12257
  Beta  occ. eigenvalues --   -0.18610  -0.13026  -0.12468
  Beta virt. eigenvalues --   -0.06346  -0.05714  -0.05113  -0.04729  -0.02189
  Beta virt. eigenvalues --   -0.01895  -0.01577  -0.01213  -0.00825  -0.00370
  Beta virt. eigenvalues --   -0.00289   0.00197   0.00391   0.00828   0.00895

 Mulliken charges and spin densities:
               1          2
     1  Na   0.246289  -0.036312
     2  Na   0.169873  -0.000267
     3  Na   0.278725   0.051685
     4  Na  -0.536547   0.520033
     5  Na   0.253922  -0.037824
     6  Na  -0.489646   0.577462
     7  Na   0.077384  -0.074777
 Sum of Mulliken charges =  -0.00000   1.00000

 Dipole moment (field-independent basis, Debye):
    X=              0.4616    Y=              0.1097    Z=              0.0095  Tot=              0.4746
 Quadrupole moment (field-independent basis, Debye-Ang):
   XX=            -54.6096   YY=            -58.9148   ZZ=            -77.2371
   XY=              0.1442   XZ=             -0.0033   YZ=              0.4897

 Normal termination of Gaussian 16 at Tue Nov 28 23:11:27 2023.
