 Gaussian 16, Revision B.01,
 Gaussian 16:  ES64L-G16RevB.01 20-Dec-2017

 -------------------------
 #P B3LYP/6-311+g(d) force
 -------------------------

 -----
 DPGEN
 -----
 Symbolic Z-matrix:
 Charge =  0 Multiplicity = 2

                         Standard orientation:
 ---------------------------------------------------------------------
 Center     Atomic      Atomic             Coordinates (Angstroms)
 Number     Number       Type             X           Y           Z
 ---------------------------------------------------------------------
      1         11           0        0.394206   -0.040937    2.271308
      2         11           0       -2.795563   -0.913542    0.039467
      3         11           0        3.030842   -0.547879   -0.194427
      4         11           0        1.489185    2.527816   -0.380207
      5         11           0        0.082019   -2.899563   -0.111198
      6         11           0       -1.969303    2.284411   -0.002057
      7         11           0       -0.231385   -0.410306   -1.622885
 ---------------------------------------------------------------------

 SCF Done:  E(UB3LYP) =  -1136.13646035     A.U. after   18 cycles

 The electronic state is 2-A.
 Alpha  occ. eigenvalues --  -38.43995 -38.43858 -38.43684 -38.43534 -38.43529
 Alpha  occ. eigenvalues --  -38.43417 -38.43339  -2.19842  -2.19687  -2.19569
 Alpha  occ. eigenvalues --   -2.19425  -2.19362  -2.19353  -2.19257  -1.13494
 Alpha  occ. eigenvalues --   -1.13468  -1.13467  -1.13363  -1.13348  -1.13330
 Alpha  occ. eigenvalues --   -1.13324  -1.13262  -1.13223  -1.13199  -1.13071
 Alpha  occ. eigenvalues --   -1.13046  -1.13027  -1.13026  -1.13004  -1.12994
 Alpha  occ. eigenvalues --   -1.12954  -1.12933  -1.12918  -1.12909  -1.12896
 Alpha  occ. eigenvalues --   -0.18678  -0.12929  -0.12589  -0.11001
 Alpha virt. eigenvalues --   -0.05433  -0.05043  -0.04819  -0.03302  -0.03010
 Alpha virt. eigenvalues --   -0.02819  -0.01301  -0.01051  -0.00303  -0.00268
 Alpha virt. eigenvalues --   -0.00049   0.00365   0.00843   0.00903   0.00907

  Beta  occ. eigenvalues --  -38.43889 -38.43854 -38.43680 -38.43528 -38.43522
  Beta  occ. eigenvalues --  -38.43416 -38.43283  -2.19683  -2.19647  -2.19565
  Beta  occ. eigenvalues --   -2.19416  -2.19352  -2.19258  -2.19250  -1.13373
  Beta  occ. eigenvalues --   -1.13353  -1.13339  -1.13333  -1.13327  -1.13313
  Beta  occ. eigenvalues --   -1.13308  -1.13240  -1.13201  -1.13195  -1.13043
  Beta  occ. eigenvalues --   -1.13033  -1.13024  -1.13006  -1.13000  -1.12937
  Beta  occ. eigenvalues --   -1.12918  -1.12903  -1.12899  -1.12882  -1.12860
  Beta  occ. eigenvalues --   -0.17955  -0.12714  -0.12372
  Beta virt. eigenvalues --   -0.07025  -0.05421  -0.05052  -0.04711  -0.02481
  Beta virt. eigenvalues --   -0.02236  -0.01743  -0.01226  -0.00989  -0.00355
  Beta virt. eigenvalues --   -0.00318   0.00122   0.00397   0.00877   0.00903

 Mulliken charges and spin densities:
               1          2
     1  Na  -0.706897   0.755149
     2  Na   0.270824   0.047863
     3  Na   0.215484  -0.032610
     4  Na   0.057562  -0.006280
     5  Na   0.404972   0.002741
     6  Na   0.013213  -0.019536
     7  Na  -0.255158   0.252673
 Sum of Mulliken charges =  -0.00000   1.00000

 Dipole moment (field-independent basis, Debye):
    X=              0.1592    Y=             -0.1028    Z=              0.2369  Tot=              0.3034
 Quadrupole moment (field-independent basis, Debye-Ang):
   XX=            -59.4213   YY=            -62.5159   ZZ=            -72.9706
   XY=             -0.2735   XZ=             -1.2855   YZ=             -0.7348

 Normal termination of Gaussian 16 at Thu Dec  7 06:31:25 2023.
