 Gaussian 16, Revision B.01,
 Gaussian 16:  ES64L-G16RevB.01 20-Dec-2017

 -------------------------
 #P B3LYP/6-311+g(d) force
 -------------------------

 -----
 DPGEN
 -----
 Symbolic Z-matrix:
 Charge =  0 Multiplicity = 2

                         Standard orientation:
 ---------------------------------------------------------------------
 Center     Atomic      Atomic             Coordinates (Angstroms)
 Number     Number       Type             X           Y           Z
 ---------------------------------------------------------------------
      1         11           0       -1.925177   -2.838446   -0.217886
      2         11           0       -2.830196    0.817404    0.041772
      3         11           0        2.745908   -1.927967   -0.158320
      4         11           0        0.248010   -0.284777   -1.600676
      5         11           0       -0.090542   -0.343138    2.083409
      6         11           0       -0.639048    2.945229   -0.347761
      7         11           0        2.491044    1.631695    0.199462
 ---------------------------------------------------------------------

 SCF Done:  E(UB3LYP) =  -1136.13448702     A.U. after   21 cycles

 The electronic state is 2-A.
 Alpha  occ. eigenvalues --  -38.44344 -38.44142 -38.43914 -38.43896 -38.43616
 Alpha  occ. eigenvalues --  -38.43228 -38.43192  -2.20144  -2.19913  -2.19755
 Alpha  occ. eigenvalues --   -2.19753  -2.19473  -2.19163  -2.19063  -1.13827
 Alpha  occ. eigenvalues --   -1.13796  -1.13782  -1.13588  -1.13567  -1.13558
 Alpha  occ. eigenvalues --   -1.13459  -1.13435  -1.13422  -1.13421  -1.13386
 Alpha  occ. eigenvalues --   -1.13382  -1.13141  -1.13101  -1.13086  -1.12854
 Alpha  occ. eigenvalues --   -1.12805  -1.12787  -1.12735  -1.12711  -1.12703
 Alpha  occ. eigenvalues --   -0.18307  -0.12955  -0.12391  -0.10539
 Alpha virt. eigenvalues --   -0.06067  -0.05294  -0.04683  -0.03150  -0.02837
 Alpha virt. eigenvalues --   -0.02477  -0.01606  -0.01487  -0.00556  -0.00396
 Alpha virt. eigenvalues --   -0.00010   0.00344   0.00745   0.00835   0.00856

  Beta  occ. eigenvalues --  -38.44341 -38.44142 -38.43908 -38.43892 -38.43518
  Beta  occ. eigenvalues --  -38.43186 -38.43170  -2.20141  -2.19914  -2.19749
  Beta  occ. eigenvalues --   -2.19744  -2.19293  -2.19058  -2.19054  -1.13816
  Beta  occ. eigenvalues --   -1.13788  -1.13781  -1.13576  -1.13570  -1.13559
  Beta  occ. eigenvalues --   -1.13458  -1.13430  -1.13391  -1.13390  -1.13386
  Beta  occ. eigenvalues --   -1.13381  -1.13020  -1.12975  -1.12956  -1.12779
  Beta  occ. eigenvalues --   -1.12741  -1.12726  -1.12713  -1.12694  -1.12680
  Beta  occ. eigenvalues --   -0.17592  -0.12750  -0.12183
  Beta virt. eigenvalues --   -0.06640  -0.06073  -0.05167  -0.04678  -0.02373
  Beta virt. eigenvalues --   -0.02132  -0.01539  -0.01512  -0.01316  -0.00599
  Beta virt. eigenvalues --   -0.00420   0.00139   0.00376   0.00743   0.00871

 Mulliken charges and spin densities:
               1          2
     1  Na   0.034635  -0.099246
     2  Na   0.207950   0.048618
     3  Na   0.125682  -0.093343
     4  Na  -0.136081   0.388790
     5  Na  -0.384794   0.649273
     6  Na  -0.012164   0.009976
     7  Na   0.164771   0.095932
 Sum of Mulliken charges =  -0.00000   1.00000

 Dipole moment (field-independent basis, Debye):
    X=              0.2849    Y=             -0.5621    Z=              0.1001  Tot=              0.6381
 Quadrupole moment (field-independent basis, Debye-Ang):
   XX=            -57.6600   YY=            -59.6464   ZZ=            -75.7592
   XY=              0.0435   XZ=              0.7132   YZ=              0.1614

 Normal termination of Gaussian 16 at Thu Dec  7 07:57:11 2023.
