 Gaussian 16, Revision B.01,
 Gaussian 16:  ES64L-G16RevB.01 20-Dec-2017

 -------------------------
 #P B3LYP/6-311+g(d) force
 -------------------------

 -----
 DPGEN
 -----
 Symbolic Z-matrix:
 Charge =  0 Multiplicity = 2

                         Standard orientation:
 ---------------------------------------------------------------------
 Center     Atomic      Atomic             Coordinates (Angstroms)
 Number     Number       Type             X           Y           Z
 ---------------------------------------------------------------------
      1         11           0       -3.390761    0.091416   -0.418260
      2         11           0        2.294834    1.788001   -0.122100
      3         11           0       -0.243072    0.104103    1.901719
      4         11           0        0.630459   -0.242620   -1.335809
      5         11           0       -0.847372    2.442574   -0.072777
      6         11           0        3.073028   -1.719331    0.038427
      7         11           0       -1.517116   -2.464143    0.008800
 ---------------------------------------------------------------------

 SCF Done:  E(UB3LYP) =  -1136.12613377     A.U. after   21 cycles

 The electronic state is 2-A.
 Alpha  occ. eigenvalues --  -38.44565 -38.44395 -38.43940 -38.43685 -38.43316
 Alpha  occ. eigenvalues --  -38.43112 -38.42749  -2.20397  -2.20201  -2.19873
 Alpha  occ. eigenvalues --   -2.19544  -2.19371  -2.19072  -2.18692  -1.14069
 Alpha  occ. eigenvalues --   -1.14053  -1.14039  -1.13890  -1.13857  -1.13841
 Alpha  occ. eigenvalues --   -1.13673  -1.13513  -1.13479  -1.13237  -1.13208
 Alpha  occ. eigenvalues --   -1.13177  -1.13058  -1.13006  -1.12976  -1.12767
 Alpha  occ. eigenvalues --   -1.12706  -1.12671  -1.12374  -1.12345  -1.12318
 Alpha  occ. eigenvalues --   -0.18999  -0.13701  -0.12184  -0.10359
 Alpha virt. eigenvalues --   -0.06329  -0.05477  -0.04128  -0.03299  -0.02486
 Alpha virt. eigenvalues --   -0.02216  -0.01929  -0.01276  -0.00504  -0.00114
 Alpha virt. eigenvalues --   -0.00012   0.00251   0.00727   0.00798   0.00894

  Beta  occ. eigenvalues --  -38.44549 -38.44397 -38.43932 -38.43679 -38.43276
  Beta  occ. eigenvalues --  -38.43010 -38.42738  -2.20369  -2.20208  -2.19861
  Beta  occ. eigenvalues --   -2.19536  -2.19299  -2.18885  -2.18678  -1.14051
  Beta  occ. eigenvalues --   -1.14023  -1.14017  -1.13890  -1.13862  -1.13837
  Beta  occ. eigenvalues --   -1.13658  -1.13482  -1.13472  -1.13233  -1.13186
  Beta  occ. eigenvalues --   -1.13163  -1.13001  -1.12952  -1.12923  -1.12648
  Beta  occ. eigenvalues --   -1.12574  -1.12540  -1.12364  -1.12317  -1.12287
  Beta  occ. eigenvalues --   -0.18293  -0.13428  -0.11950
  Beta virt. eigenvalues --   -0.06546  -0.06168  -0.05422  -0.04125  -0.02557
  Beta virt. eigenvalues --   -0.02001  -0.01749  -0.01246  -0.01019  -0.00523
  Beta virt. eigenvalues --   -0.00116   0.00145   0.00317   0.00785   0.00829

 Mulliken charges and spin densities:
               1          2
     1  Na  -0.028997   0.095342
     2  Na   0.405671  -0.029404
     3  Na  -0.436687   0.567747
     4  Na  -0.605790   0.262238
     5  Na   0.245691   0.140864
     6  Na   0.232218  -0.066478
     7  Na   0.187894   0.029690
 Sum of Mulliken charges =  -0.00000   1.00000

 Dipole moment (field-independent basis, Debye):
    X=              0.1620    Y=             -0.2805    Z=              0.2654  Tot=              0.4188
 Quadrupole moment (field-independent basis, Debye-Ang):
   XX=            -51.1407   YY=            -65.0666   ZZ=            -76.0260
   XY=             -1.0354   XZ=              2.0593   YZ=             -0.7398

 Normal termination of Gaussian 16 at Thu Dec  7 05:19:13 2023.
