 Gaussian 16, Revision B.01,
 Gaussian 16:  ES64L-G16RevB.01 20-Dec-2017

 -------------------------
 #P B3LYP/6-311+g(d) force
 -------------------------

 -----
 DPGEN
 -----
 Symbolic Z-matrix:
 Charge =  0 Multiplicity = 2

                         Standard orientation:
 ---------------------------------------------------------------------
 Center     Atomic      Atomic             Coordinates (Angstroms)
 Number     Number       Type             X           Y           Z
 ---------------------------------------------------------------------
      1         11           0        0.093959   -2.558818    0.209651
      2         11           0        3.076752   -1.120246   -0.456100
      3         11           0       -3.076978    1.993663   -0.038408
      4         11           0        0.017218    0.463537   -1.206659
      5         11           0       -2.910511   -1.126040   -0.552748
      6         11           0        2.880134    2.271568   -0.053319
      7         11           0       -0.080573    0.076336    2.097583
 ---------------------------------------------------------------------

 SCF Done:  E(UB3LYP) =  -1136.12641823     A.U. after   22 cycles

 The electronic state is 2-A.
 Alpha  occ. eigenvalues --  -38.44576 -38.44254 -38.44246 -38.43951 -38.43922
 Alpha  occ. eigenvalues --  -38.43574 -38.42282  -2.20415  -2.20135  -2.20055
 Alpha  occ. eigenvalues --   -2.19866  -2.19740  -2.19468  -2.18205  -1.14093
 Alpha  occ. eigenvalues --   -1.14070  -1.14044  -1.13844  -1.13817  -1.13778
 Alpha  occ. eigenvalues --   -1.13716  -1.13699  -1.13669  -1.13604  -1.13525
 Alpha  occ. eigenvalues --   -1.13477  -1.13411  -1.13395  -1.13382  -1.13140
 Alpha  occ. eigenvalues --   -1.13085  -1.13070  -1.11892  -1.11861  -1.11854
 Alpha  occ. eigenvalues --   -0.18488  -0.13870  -0.11653  -0.10511
 Alpha virt. eigenvalues --   -0.06372  -0.06032  -0.03878  -0.03356  -0.02511
 Alpha virt. eigenvalues --   -0.02324  -0.02286  -0.01441  -0.00882  -0.00206
 Alpha virt. eigenvalues --    0.00006   0.00202   0.00587   0.00646   0.00854

  Beta  occ. eigenvalues --  -38.44558 -38.44247 -38.44234 -38.43955 -38.43900
  Beta  occ. eigenvalues --  -38.43456 -38.42273  -2.20382  -2.20099  -2.20059
  Beta  occ. eigenvalues --   -2.19830  -2.19748  -2.19251  -2.18194  -1.14064
  Beta  occ. eigenvalues --   -1.14045  -1.14024  -1.13831  -1.13788  -1.13743
  Beta  occ. eigenvalues --   -1.13718  -1.13690  -1.13662  -1.13560  -1.13492
  Beta  occ. eigenvalues --   -1.13454  -1.13417  -1.13389  -1.13386  -1.12996
  Beta  occ. eigenvalues --   -1.12928  -1.12922  -1.11888  -1.11851  -1.11814
  Beta  occ. eigenvalues --   -0.17792  -0.13605  -0.11480
  Beta virt. eigenvalues --   -0.06666  -0.06213  -0.05907  -0.03851  -0.02722
  Beta virt. eigenvalues --   -0.02215  -0.01679  -0.01652  -0.01116  -0.00863
  Beta virt. eigenvalues --   -0.00118   0.00127   0.00276   0.00670   0.00680

 Mulliken charges and spin densities:
               1          2
     1  Na   0.161805   0.041874
     2  Na   0.250919   0.066776
     3  Na   0.195984  -0.010585
     4  Na  -0.750004   0.226694
     5  Na   0.417161   0.108280
     6  Na   0.174408  -0.033524
     7  Na  -0.450274   0.600485
 Sum of Mulliken charges =  -0.00000   1.00000

 Dipole moment (field-independent basis, Debye):
    X=              0.0023    Y=              0.2604    Z=              0.1759  Tot=              0.3143
 Quadrupole moment (field-independent basis, Debye-Ang):
   XX=            -53.3857   YY=            -65.4010   ZZ=            -75.0485
   XY=             -1.0155   XZ=              0.0467   YZ=              1.2606

 Normal termination of Gaussian 16 at Tue Dec  5 16:54:13 2023.
