 Gaussian 16, Revision B.01,
 Gaussian 16:  ES64L-G16RevB.01 20-Dec-2017

 -------------------------
 #P B3LYP/6-311+g(d) force
 -------------------------

 -----
 DPGEN
 -----
 Symbolic Z-matrix:
 Charge =  0 Multiplicity = 2

                         Standard orientation:
 ---------------------------------------------------------------------
 Center     Atomic      Atomic             Coordinates (Angstroms)
 Number     Number       Type             X           Y           Z
 ---------------------------------------------------------------------
      1         11           0       -0.099761    0.478734    2.147902
      2         11           0        1.107249    2.746820   -0.107190
      3         11           0       -2.445826   -2.059677    0.098800
      4         11           0       -0.236988   -0.086551   -1.472876
      5         11           0        0.852296   -2.555692    0.002809
      6         11           0        3.625077   -0.270218   -0.257137
      7         11           0       -2.802048    1.746584   -0.412307
 ---------------------------------------------------------------------

 SCF Done:  E(UB3LYP) =  -1136.13218272     A.U. after   20 cycles

 The electronic state is 2-A.
 Alpha  occ. eigenvalues --  -38.44510 -38.44211 -38.43854 -38.43844 -38.43550
 Alpha  occ. eigenvalues --  -38.43264 -38.43189  -2.20268  -2.20011  -2.19689
 Alpha  occ. eigenvalues --   -2.19657  -2.19413  -2.19252  -2.19072  -1.13944
 Alpha  occ. eigenvalues --   -1.13926  -1.13903  -1.13696  -1.13666  -1.13639
 Alpha  occ. eigenvalues --   -1.13372  -1.13350  -1.13348  -1.13343  -1.13331
 Alpha  occ. eigenvalues --   -1.13270  -1.13075  -1.13033  -1.13030  -1.12995
 Alpha  occ. eigenvalues --   -1.12916  -1.12864  -1.12743  -1.12728  -1.12676
 Alpha  occ. eigenvalues --   -0.18272  -0.12772  -0.12441  -0.10501
 Alpha virt. eigenvalues --   -0.06145  -0.05414  -0.04480  -0.02974  -0.02834
 Alpha virt. eigenvalues --   -0.02408  -0.01967  -0.01369  -0.00652  -0.00274
 Alpha virt. eigenvalues --   -0.00063   0.00267   0.00700   0.00770   0.00870

  Beta  occ. eigenvalues --  -38.44508 -38.44198 -38.43851 -38.43840 -38.43446
  Beta  occ. eigenvalues --  -38.43218 -38.43183  -2.20265  -2.19989  -2.19688
  Beta  occ. eigenvalues --   -2.19653  -2.19220  -2.19168  -2.19065  -1.13936
  Beta  occ. eigenvalues --   -1.13923  -1.13902  -1.13671  -1.13647  -1.13625
  Beta  occ. eigenvalues --   -1.13371  -1.13347  -1.13334  -1.13327  -1.13312
  Beta  occ. eigenvalues --   -1.13271  -1.12957  -1.12933  -1.12901  -1.12891
  Beta  occ. eigenvalues --   -1.12856  -1.12804  -1.12723  -1.12701  -1.12671
  Beta  occ. eigenvalues --   -0.17584  -0.12561  -0.12203
  Beta virt. eigenvalues --   -0.06639  -0.06041  -0.05383  -0.04435  -0.02264
  Beta virt. eigenvalues --   -0.02119  -0.01856  -0.01373  -0.01306  -0.00680
  Beta virt. eigenvalues --   -0.00301   0.00106   0.00318   0.00748   0.00798

 Mulliken charges and spin densities:
               1          2
     1  Na  -0.458451   0.677253
     2  Na   0.151472  -0.060085
     3  Na   0.255907   0.020880
     4  Na  -0.333389   0.353597
     5  Na   0.158863   0.037928
     6  Na   0.012296  -0.008364
     7  Na   0.213301  -0.021209
 Sum of Mulliken charges =  -0.00000   1.00000

 Dipole moment (field-independent basis, Debye):
    X=             -0.0767    Y=              0.2605    Z=              0.1463  Tot=              0.3085
 Quadrupole moment (field-independent basis, Debye-Ang):
   XX=            -52.6448   YY=            -63.7650   ZZ=            -75.7641
   XY=              0.7003   XZ=             -0.5921   YZ=             -1.4352

 Normal termination of Gaussian 16 at Thu Dec  7 06:17:34 2023.
