 Gaussian 16, Revision B.01,
 Gaussian 16:  ES64L-G16RevB.01 20-Dec-2017

 -------------------------
 #P B3LYP/6-311+g(d) force
 -------------------------

 -----
 DPGEN
 -----
 Symbolic Z-matrix:
 Charge =  0 Multiplicity = 2

                         Standard orientation:
 ---------------------------------------------------------------------
 Center     Atomic      Atomic             Coordinates (Angstroms)
 Number     Number       Type             X           Y           Z
 ---------------------------------------------------------------------
      1         11           0       -3.030225   -0.653314   -0.379765
      2         11           0        2.920033   -1.358027   -0.337154
      3         11           0       -1.189238    2.506432   -0.309188
      4         11           0       -0.318944    0.276275    1.895269
      5         11           0        0.107163   -0.238074   -1.734563
      6         11           0        2.063761    1.829101    0.280767
      7         11           0       -0.552550   -2.362393    0.584633
 ---------------------------------------------------------------------

 SCF Done:  E(UB3LYP) =  -1136.13489331     A.U. after   18 cycles

 The electronic state is 2-A.
 Alpha  occ. eigenvalues --  -38.43993 -38.43677 -38.43586 -38.43439 -38.43387
 Alpha  occ. eigenvalues --  -38.43149 -38.43032  -2.19866  -2.19590  -2.19515
 Alpha  occ. eigenvalues --   -2.19387  -2.19339  -2.19112  -2.18929  -1.13551
 Alpha  occ. eigenvalues --   -1.13528  -1.13505  -1.13324  -1.13250  -1.13207
 Alpha  occ. eigenvalues --   -1.13200  -1.13182  -1.13157  -1.13081  -1.13051
 Alpha  occ. eigenvalues --   -1.13014  -1.13003  -1.12980  -1.12953  -1.12796
 Alpha  occ. eigenvalues --   -1.12757  -1.12698  -1.12606  -1.12599  -1.12547
 Alpha  occ. eigenvalues --   -0.19308  -0.13228  -0.12418  -0.11241
 Alpha virt. eigenvalues --   -0.05551  -0.04909  -0.04196  -0.03364  -0.03008
 Alpha virt. eigenvalues --   -0.02729  -0.01579  -0.00916  -0.00127   0.00094
 Alpha virt. eigenvalues --    0.00167   0.00352   0.00837   0.00931   0.00960

  Beta  occ. eigenvalues --  -38.43984 -38.43674 -38.43495 -38.43432 -38.43318
  Beta  occ. eigenvalues --  -38.43127 -38.43024  -2.19854  -2.19512  -2.19425
  Beta  occ. eigenvalues --   -2.19329  -2.19261  -2.19077  -2.18918  -1.13546
  Beta  occ. eigenvalues --   -1.13501  -1.13491  -1.13216  -1.13194  -1.13176
  Beta  occ. eigenvalues --   -1.13151  -1.13139  -1.13090  -1.13011  -1.12997
  Beta  occ. eigenvalues --   -1.12979  -1.12949  -1.12937  -1.12894  -1.12762
  Beta  occ. eigenvalues --   -1.12702  -1.12676  -1.12601  -1.12572  -1.12532
  Beta  occ. eigenvalues --   -0.18555  -0.12966  -0.12148
  Beta virt. eigenvalues --   -0.07247  -0.05493  -0.04895  -0.04181  -0.02580
  Beta virt. eigenvalues --   -0.02235  -0.01654  -0.01455  -0.00874   0.00003
  Beta virt. eigenvalues --    0.00055   0.00173   0.00373   0.00897   0.00923

 Mulliken charges and spin densities:
               1          2
     1  Na   0.075218  -0.045427
     2  Na   0.053972  -0.060092
     3  Na   0.054595  -0.049316
     4  Na  -0.264480   0.454837
     5  Na  -0.537869   0.658981
     6  Na   0.174860  -0.031783
     7  Na   0.443704   0.072800
 Sum of Mulliken charges =  -0.00000   1.00000

 Dipole moment (field-independent basis, Debye):
    X=             -0.0924    Y=              0.0127    Z=             -0.1030  Tot=              0.1390
 Quadrupole moment (field-independent basis, Debye-Ang):
   XX=            -55.4868   YY=            -66.4975   ZZ=            -71.9788
   XY=             -0.4921   XZ=              1.2836   YZ=             -0.5684

 Normal termination of Gaussian 16 at Thu Dec  7 14:42:29 2023.
