 Gaussian 16, Revision B.01,
 Gaussian 16:  ES64L-G16RevB.01 20-Dec-2017

 -------------------------
 #P B3LYP/6-311+g(d) force
 -------------------------

 -----
 DPGEN
 -----
 Symbolic Z-matrix:
 Charge =  0 Multiplicity = 2

                         Standard orientation:
 ---------------------------------------------------------------------
 Center     Atomic      Atomic             Coordinates (Angstroms)
 Number     Number       Type             X           Y           Z
 ---------------------------------------------------------------------
      1         11           0       -1.330979   -1.859086   -1.453618
      2         11           0        3.955966    1.073945   -0.918649
      3         11           0        1.278789    1.003909   -1.234403
      4         11           0        2.553624   -1.784843    1.155292
      5         11           0       -2.127087    2.153844    0.990156
      6         11           0       -0.340876   -0.332272    2.264829
      7         11           0       -3.989437   -0.255497   -0.803607
 ---------------------------------------------------------------------

 SCF Done:  E(UB3LYP) =  -1136.10783091     A.U. after   24 cycles

 The electronic state is 2-A.
 Alpha  occ. eigenvalues --  -38.44724 -38.44682 -38.44652 -38.44576 -38.44471
 Alpha  occ. eigenvalues --  -38.44356 -38.42766  -2.20578  -2.20528  -2.20450
 Alpha  occ. eigenvalues --   -2.20400  -2.20305  -2.20230  -2.18584  -1.14515
 Alpha  occ. eigenvalues --   -1.14218  -1.14197  -1.14184  -1.14178  -1.14170
 Alpha  occ. eigenvalues --   -1.14145  -1.14116  -1.14105  -1.14054  -1.14029
 Alpha  occ. eigenvalues --   -1.13988  -1.13959  -1.13942  -1.13920  -1.13842
 Alpha  occ. eigenvalues --   -1.13830  -1.13797  -1.12271  -1.12262  -1.12238
 Alpha  occ. eigenvalues --   -0.17504  -0.14185  -0.11658  -0.11328
 Alpha virt. eigenvalues --   -0.07108  -0.05313  -0.04314  -0.03640  -0.03197
 Alpha virt. eigenvalues --   -0.02634  -0.02354  -0.01526  -0.00802  -0.00309
 Alpha virt. eigenvalues --   -0.00153   0.00037   0.00306   0.00455   0.00601

  Beta  occ. eigenvalues --  -38.44676 -38.44665 -38.44656 -38.44506 -38.44397
  Beta  occ. eigenvalues --  -38.44338 -38.42779  -2.20533  -2.20478  -2.20439
  Beta  occ. eigenvalues --   -2.20269  -2.20198  -2.20166  -2.18614  -1.14480
  Beta  occ. eigenvalues --   -1.14175  -1.14166  -1.14151  -1.14137  -1.14132
  Beta  occ. eigenvalues --   -1.14114  -1.14112  -1.14087  -1.13965  -1.13946
  Beta  occ. eigenvalues --   -1.13911  -1.13862  -1.13855  -1.13831  -1.13819
  Beta  occ. eigenvalues --   -1.13802  -1.13777  -1.12296  -1.12282  -1.12229
  Beta  occ. eigenvalues --   -0.16907  -0.13866  -0.10860
  Beta virt. eigenvalues --   -0.08140  -0.06935  -0.04830  -0.03859  -0.03160
  Beta virt. eigenvalues --   -0.02925  -0.02468  -0.01917  -0.01150  -0.00636
  Beta virt. eigenvalues --   -0.00161   0.00068   0.00168   0.00362   0.00549

 Mulliken charges and spin densities:
               1          2
     1  Na   0.317501   0.494059
     2  Na   0.456268  -0.048225
     3  Na  -1.011772   0.202386
     4  Na   0.147457   0.210190
     5  Na   0.796867   0.476521
     6  Na  -0.506479  -0.151025
     7  Na  -0.199841  -0.183905
 Sum of Mulliken charges =  -0.00000   1.00000

 Dipole moment (field-independent basis, Debye):
    X=              0.1840    Y=             -0.1299    Z=              0.0739  Tot=              0.2370
 Quadrupole moment (field-independent basis, Debye-Ang):
   XX=            -52.1263   YY=            -67.1932   ZZ=            -80.1425
   XY=             -5.8298   XZ=              0.8315   YZ=              0.2526

 Normal termination of Gaussian 16 at Sun Dec  3 22:06:41 2023.
