 Gaussian 16, Revision B.01,
 Gaussian 16:  ES64L-G16RevB.01 20-Dec-2017

 -------------------------
 #P B3LYP/6-311+g(d) force
 -------------------------

 -----
 DPGEN
 -----
 Symbolic Z-matrix:
 Charge =  0 Multiplicity = 2

                         Standard orientation:
 ---------------------------------------------------------------------
 Center     Atomic      Atomic             Coordinates (Angstroms)
 Number     Number       Type             X           Y           Z
 ---------------------------------------------------------------------
      1         11           0       -3.346597   -0.855883    0.398430
      2         11           0        2.830698   -1.756273    0.384764
      3         11           0       -0.331714   -2.156942   -0.684119
      4         11           0        0.303781    0.273338    2.062424
      5         11           0        1.664440    2.518730    0.006361
      6         11           0        0.654179    0.257391   -1.839177
      7         11           0       -1.774787    1.719641   -0.328683
 ---------------------------------------------------------------------

 SCF Done:  E(UB3LYP) =  -1136.12930956     A.U. after   20 cycles

 The electronic state is 2-A.
 Alpha  occ. eigenvalues --  -38.44146 -38.43987 -38.43853 -38.43756 -38.43419
 Alpha  occ. eigenvalues --  -38.43324 -38.43232  -2.20037  -2.19800  -2.19781
 Alpha  occ. eigenvalues --   -2.19688  -2.19345  -2.19204  -2.19169  -1.13707
 Alpha  occ. eigenvalues --   -1.13671  -1.13659  -1.13568  -1.13469  -1.13453
 Alpha  occ. eigenvalues --   -1.13449  -1.13432  -1.13397  -1.13376  -1.13334
 Alpha  occ. eigenvalues --   -1.13334  -1.13034  -1.13016  -1.12946  -1.12898
 Alpha  occ. eigenvalues --   -1.12867  -1.12861  -1.12819  -1.12813  -1.12735
 Alpha  occ. eigenvalues --   -0.18967  -0.13016  -0.12329  -0.11426
 Alpha virt. eigenvalues --   -0.05687  -0.05095  -0.03888  -0.03390  -0.03198
 Alpha virt. eigenvalues --   -0.03008  -0.01605  -0.01149  -0.00195   0.00157
 Alpha virt. eigenvalues --    0.00257   0.00335   0.00793   0.00845   0.00881

  Beta  occ. eigenvalues --  -38.44061 -38.43982 -38.43854 -38.43672 -38.43409
  Beta  occ. eigenvalues --  -38.43319 -38.43211  -2.19879  -2.19793  -2.19691
  Beta  occ. eigenvalues --   -2.19629  -2.19330  -2.19199  -2.19136  -1.13605
  Beta  occ. eigenvalues --   -1.13559  -1.13544  -1.13467  -1.13458  -1.13440
  Beta  occ. eigenvalues --   -1.13434  -1.13400  -1.13338  -1.13331  -1.13325
  Beta  occ. eigenvalues --   -1.13272  -1.13018  -1.12977  -1.12941  -1.12877
  Beta  occ. eigenvalues --   -1.12844  -1.12832  -1.12813  -1.12768  -1.12720
  Beta  occ. eigenvalues --   -0.18190  -0.12816  -0.12079
  Beta virt. eigenvalues --   -0.07446  -0.05536  -0.05072  -0.03866  -0.02693
  Beta virt. eigenvalues --   -0.02358  -0.01983  -0.01499  -0.01106  -0.00024
  Beta virt. eigenvalues --    0.00129   0.00260   0.00355   0.00843   0.00879

 Mulliken charges and spin densities:
               1          2
     1  Na   0.094316  -0.085155
     2  Na  -0.069826  -0.054144
     3  Na  -0.000615   0.182203
     4  Na  -0.455402   0.776881
     5  Na   0.143466  -0.092059
     6  Na   0.294563   0.151186
     7  Na  -0.006502   0.121088
 Sum of Mulliken charges =  -0.00000   1.00000

 Dipole moment (field-independent basis, Debye):
    X=              0.3167    Y=             -0.0119    Z=              0.4722  Tot=              0.5687
 Quadrupole moment (field-independent basis, Debye-Ang):
   XX=            -56.1387   YY=            -67.8336   ZZ=            -70.6036
   XY=              0.8101   XZ=              0.1744   YZ=             -0.9889

 Normal termination of Gaussian 16 at Tue Dec  5 19:09:43 2023.
