 Gaussian 16, Revision B.01,
 Gaussian 16:  ES64L-G16RevB.01 20-Dec-2017

 -------------------------
 #P B3LYP/6-311+g(d) force
 -------------------------

 -----
 DPGEN
 -----
 Symbolic Z-matrix:
 Charge =  0 Multiplicity = 2

                         Standard orientation:
 ---------------------------------------------------------------------
 Center     Atomic      Atomic             Coordinates (Angstroms)
 Number     Number       Type             X           Y           Z
 ---------------------------------------------------------------------
      1         11           0       -1.727706    2.985383   -1.291542
      2         11           0       -2.580884   -0.665400   -1.018980
      3         11           0       -2.899134   -0.838654    2.140427
      4         11           0        0.422086    0.309986    0.444899
      5         11           0        3.003231    0.993569    2.180503
      6         11           0        3.146979   -0.133780   -1.525774
      7         11           0        0.635428   -2.651103   -0.929532
 ---------------------------------------------------------------------

 SCF Done:  E(UB3LYP) =  -1136.11374249     A.U. after   24 cycles

 The electronic state is 2-A.
 Alpha  occ. eigenvalues --  -38.45166 -38.45115 -38.44317 -38.44205 -38.43708
 Alpha  occ. eigenvalues --  -38.43079 -38.42757  -2.20947  -2.20925  -2.20101
 Alpha  occ. eigenvalues --   -2.20055  -2.19517  -2.19036  -2.18574  -1.14641
 Alpha  occ. eigenvalues --   -1.14598  -1.14585  -1.14563  -1.14555  -1.14546
 Alpha  occ. eigenvalues --   -1.13751  -1.13742  -1.13740  -1.13736  -1.13715
 Alpha  occ. eigenvalues --   -1.13663  -1.13208  -1.13159  -1.13135  -1.12761
 Alpha  occ. eigenvalues --   -1.12706  -1.12663  -1.12272  -1.12240  -1.12193
 Alpha  occ. eigenvalues --   -0.17297  -0.13641  -0.11564  -0.10878
 Alpha virt. eigenvalues --   -0.06431  -0.05544  -0.04722  -0.03196  -0.02683
 Alpha virt. eigenvalues --   -0.02321  -0.02104  -0.01311  -0.00850  -0.00502
 Alpha virt. eigenvalues --   -0.00082   0.00194   0.00212   0.00445   0.00577

  Beta  occ. eigenvalues --  -38.45166 -38.45042 -38.44228 -38.44205 -38.43671
  Beta  occ. eigenvalues --  -38.43073 -38.42767  -2.20946  -2.20787  -2.20058
  Beta  occ. eigenvalues --   -2.19934  -2.19447  -2.19029  -2.18594  -1.14640
  Beta  occ. eigenvalues --   -1.14598  -1.14560  -1.14493  -1.14461  -1.14453
  Beta  occ. eigenvalues --   -1.13748  -1.13716  -1.13667  -1.13631  -1.13624
  Beta  occ. eigenvalues --   -1.13603  -1.13158  -1.13113  -1.13090  -1.12722
  Beta  occ. eigenvalues --   -1.12703  -1.12666  -1.12286  -1.12250  -1.12207
  Beta  occ. eigenvalues --   -0.16859  -0.13232  -0.10670
  Beta virt. eigenvalues --   -0.07804  -0.06105  -0.05211  -0.04350  -0.02980
  Beta virt. eigenvalues --   -0.02392  -0.01999  -0.01738  -0.00972  -0.00617
  Beta virt. eigenvalues --   -0.00220   0.00069   0.00216   0.00315   0.00526

 Mulliken charges and spin densities:
               1          2
     1  Na   0.180522   0.290259
     2  Na   1.705058   0.166782
     3  Na  -0.167856   0.214019
     4  Na  -2.348801   0.651194
     5  Na   0.068395  -0.154396
     6  Na   0.406862  -0.004886
     7  Na   0.155819  -0.162971
 Sum of Mulliken charges =  -0.00000   1.00000

 Dipole moment (field-independent basis, Debye):
    X=              0.1040    Y=             -0.0666    Z=             -0.1604  Tot=              0.2024
 Quadrupole moment (field-independent basis, Debye-Ang):
   XX=            -56.0712   YY=            -73.0437   ZZ=            -64.5391
   XY=              2.1225   XZ=             -4.3174   YZ=             -4.5538

 Normal termination of Gaussian 16 at Tue Dec  5 12:23:42 2023.
