 Gaussian 16, Revision B.01,
 Gaussian 16:  ES64L-G16RevB.01 20-Dec-2017

 -------------------------
 #P B3LYP/6-311+g(d) force
 -------------------------

 -----
 DPGEN
 -----
 Symbolic Z-matrix:
 Charge =  0 Multiplicity = 2

                         Standard orientation:
 ---------------------------------------------------------------------
 Center     Atomic      Atomic             Coordinates (Angstroms)
 Number     Number       Type             X           Y           Z
 ---------------------------------------------------------------------
      1         11           0       -0.094315    0.173977    2.116857
      2         11           0       -0.497910    3.181491   -0.001070
      3         11           0        3.401347    0.821334   -0.412380
      4         11           0       -3.095791    0.364757   -0.198538
      5         11           0       -1.661196   -2.525252   -0.155343
      6         11           0       -0.198276   -0.029184   -1.546378
      7         11           0        2.146141   -1.987125    0.196852
 ---------------------------------------------------------------------

 SCF Done:  E(UB3LYP) =  -1136.13251407     A.U. after   20 cycles

 The electronic state is 2-A.
 Alpha  occ. eigenvalues --  -38.44547 -38.44374 -38.43620 -38.43593 -38.43454
 Alpha  occ. eigenvalues --  -38.43382 -38.43253  -2.20345  -2.20239  -2.19485
 Alpha  occ. eigenvalues --   -2.19452  -2.19416  -2.19170  -2.19126  -1.14028
 Alpha  occ. eigenvalues --   -1.14005  -1.13976  -1.13939  -1.13906  -1.13855
 Alpha  occ. eigenvalues --   -1.13167  -1.13133  -1.13126  -1.13109  -1.13107
 Alpha  occ. eigenvalues --   -1.13097  -1.13084  -1.13058  -1.13045  -1.12843
 Alpha  occ. eigenvalues --   -1.12830  -1.12812  -1.12797  -1.12784  -1.12759
 Alpha  occ. eigenvalues --   -0.18389  -0.13342  -0.12022  -0.10634
 Alpha virt. eigenvalues --   -0.06161  -0.04955  -0.04789  -0.03266  -0.02715
 Alpha virt. eigenvalues --   -0.02492  -0.01873  -0.01139  -0.00659  -0.00351
 Alpha virt. eigenvalues --   -0.00043   0.00324   0.00757   0.00798   0.00851

  Beta  occ. eigenvalues --  -38.44538 -38.44365 -38.43587 -38.43516 -38.43404
  Beta  occ. eigenvalues --  -38.43383 -38.43248  -2.20330  -2.20226  -2.19445
  Beta  occ. eigenvalues --   -2.19327  -2.19293  -2.19173  -2.19122  -1.14021
  Beta  occ. eigenvalues --   -1.13983  -1.13967  -1.13926  -1.13883  -1.13844
  Beta  occ. eigenvalues --   -1.13134  -1.13103  -1.13077  -1.13058  -1.13016
  Beta  occ. eigenvalues --   -1.12995  -1.12983  -1.12978  -1.12953  -1.12836
  Beta  occ. eigenvalues --   -1.12826  -1.12816  -1.12790  -1.12780  -1.12735
  Beta  occ. eigenvalues --   -0.17677  -0.13100  -0.11821
  Beta virt. eigenvalues --   -0.06752  -0.06062  -0.04913  -0.04750  -0.02541
  Beta virt. eigenvalues --   -0.01974  -0.01757  -0.01490  -0.01068  -0.00677
  Beta virt. eigenvalues --   -0.00383   0.00119   0.00366   0.00795   0.00831

 Mulliken charges and spin densities:
               1          2
     1  Na  -0.432439   0.694154
     2  Na  -0.090371  -0.093340
     3  Na  -0.017734  -0.008472
     4  Na   0.347630   0.006503
     5  Na   0.227752   0.058343
     6  Na  -0.274223   0.269390
     7  Na   0.239385   0.073423
 Sum of Mulliken charges =  -0.00000   1.00000

 Dipole moment (field-independent basis, Debye):
    X=              0.0775    Y=              0.1803    Z=              0.0803  Tot=              0.2121
 Quadrupole moment (field-independent basis, Debye-Ang):
   XX=            -55.0467   YY=            -63.4843   ZZ=            -75.0803
   XY=              1.3239   XZ=             -0.5831   YZ=             -0.8619

 Normal termination of Gaussian 16 at Thu Dec  7 18:53:24 2023.
