 Gaussian 16, Revision B.01,
 Gaussian 16:  ES64L-G16RevB.01 20-Dec-2017

 -------------------------
 #P B3LYP/6-311+g(d) force
 -------------------------

 -----
 DPGEN
 -----
 Symbolic Z-matrix:
 Charge =  0 Multiplicity = 2

                         Standard orientation:
 ---------------------------------------------------------------------
 Center     Atomic      Atomic             Coordinates (Angstroms)
 Number     Number       Type             X           Y           Z
 ---------------------------------------------------------------------
      1         11           0        4.728194   -0.404754   -0.063164
      2         11           0        1.739004   -1.649996   -1.083187
      3         11           0       -4.359141   -1.214934    0.623107
      4         11           0        2.749895    1.540757    1.412909
      5         11           0       -1.385815   -2.404037    0.335552
      6         11           0       -3.402895    2.338354   -0.417966
      7         11           0       -0.069243    1.794610   -0.807252
 ---------------------------------------------------------------------

 SCF Done:  E(UB3LYP) =  -1136.11185518     A.U. after   26 cycles

 The electronic state is 2-A.
 Alpha  occ. eigenvalues --  -38.45714 -38.44879 -38.44571 -38.44319 -38.44044
 Alpha  occ. eigenvalues --  -38.43484 -38.43414  -2.21523  -2.20727  -2.20318
 Alpha  occ. eigenvalues --   -2.20149  -2.19852  -2.19275  -2.19228  -1.15199
 Alpha  occ. eigenvalues --   -1.15180  -1.15163  -1.14383  -1.14366  -1.14358
 Alpha  occ. eigenvalues --   -1.14005  -1.13988  -1.13966  -1.13817  -1.13813
 Alpha  occ. eigenvalues --   -1.13765  -1.13515  -1.13507  -1.13474  -1.12958
 Alpha  occ. eigenvalues --   -1.12943  -1.12932  -1.12905  -1.12881  -1.12851
 Alpha  occ. eigenvalues --   -0.16971  -0.14253  -0.11714  -0.11070
 Alpha virt. eigenvalues --   -0.07579  -0.05174  -0.04541  -0.03583  -0.03320
 Alpha virt. eigenvalues --   -0.02375  -0.02226  -0.01422  -0.01097  -0.00553
 Alpha virt. eigenvalues --   -0.00486  -0.00101   0.00261   0.00392   0.00554

  Beta  occ. eigenvalues --  -38.45681 -38.44824 -38.44594 -38.44262 -38.43991
  Beta  occ. eigenvalues --  -38.43496 -38.43370  -2.21468  -2.20627  -2.20361
  Beta  occ. eigenvalues --   -2.20047  -2.19752  -2.19301  -2.19147  -1.15159
  Beta  occ. eigenvalues --   -1.15141  -1.15100  -1.14303  -1.14298  -1.14294
  Beta  occ. eigenvalues --   -1.14036  -1.14019  -1.13982  -1.13749  -1.13726
  Beta  occ. eigenvalues --   -1.13696  -1.13459  -1.13437  -1.13405  -1.12981
  Beta  occ. eigenvalues --   -1.12964  -1.12913  -1.12848  -1.12824  -1.12800
  Beta  occ. eigenvalues --   -0.16184  -0.13751  -0.11505
  Beta virt. eigenvalues --   -0.07677  -0.07433  -0.04704  -0.04030  -0.03184
  Beta virt. eigenvalues --   -0.03000  -0.02198  -0.02077  -0.00973  -0.00725
  Beta virt. eigenvalues --   -0.00419  -0.00292  -0.00072   0.00368   0.00523

 Mulliken charges and spin densities:
               1          2
     1  Na   0.358650   0.189723
     2  Na  -0.144142   0.312264
     3  Na   0.143090   0.325549
     4  Na   0.305233   0.248764
     5  Na  -0.177521  -0.180799
     6  Na   0.179150   0.013373
     7  Na  -0.664460   0.091125
 Sum of Mulliken charges =  -0.00000   1.00000

 Dipole moment (field-independent basis, Debye):
    X=              1.3537    Y=              0.4760    Z=              0.3337  Tot=              1.4732
 Quadrupole moment (field-independent basis, Debye-Ang):
   XX=            -56.0763   YY=            -74.5248   ZZ=            -67.9606
   XY=             -4.2526   XZ=             -1.4630   YZ=              2.4958

 Normal termination of Gaussian 16 at Sun Dec  3 12:37:05 2023.
