 Gaussian 16, Revision B.01,
 Gaussian 16:  ES64L-G16RevB.01 20-Dec-2017

 -------------------------
 #P B3LYP/6-311+g(d) force
 -------------------------

 -----
 DPGEN
 -----
 Symbolic Z-matrix:
 Charge =  0 Multiplicity = 2

                         Standard orientation:
 ---------------------------------------------------------------------
 Center     Atomic      Atomic             Coordinates (Angstroms)
 Number     Number       Type             X           Y           Z
 ---------------------------------------------------------------------
      1         11           0       -2.521205   -1.513604   -0.087713
      2         11           0       -2.660728    1.666664   -0.104010
      3         11           0        0.269814    0.022992   -1.295232
      4         11           0        3.134210   -0.190394    0.138079
      5         11           0        0.663470   -2.847804   -0.400024
      6         11           0        0.034148   -0.006161    2.107839
      7         11           0        1.080292    2.868307   -0.358938
 ---------------------------------------------------------------------

 SCF Done:  E(UB3LYP) =  -1136.13513300     A.U. after   19 cycles

 The electronic state is 2-A.
 Alpha  occ. eigenvalues --  -38.44249 -38.43873 -38.43665 -38.43566 -38.43516
 Alpha  occ. eigenvalues --  -38.43309 -38.42734  -2.20088  -2.19705  -2.19500
 Alpha  occ. eigenvalues --   -2.19447  -2.19401  -2.19189  -2.18825  -1.13779
 Alpha  occ. eigenvalues --   -1.13751  -1.13712  -1.13406  -1.13367  -1.13345
 Alpha  occ. eigenvalues --   -1.13223  -1.13150  -1.13126  -1.13116  -1.13108
 Alpha  occ. eigenvalues --   -1.13084  -1.13074  -1.13018  -1.13010  -1.12936
 Alpha  occ. eigenvalues --   -1.12830  -1.12805  -1.12506  -1.12460  -1.12443
 Alpha  occ. eigenvalues --   -0.18801  -0.13134  -0.12497  -0.10553
 Alpha virt. eigenvalues --   -0.05759  -0.05087  -0.04771  -0.03082  -0.02668
 Alpha virt. eigenvalues --   -0.02390  -0.01598  -0.01195  -0.00471  -0.00339
 Alpha virt. eigenvalues --    0.00010   0.00342   0.00823   0.00856   0.00896

  Beta  occ. eigenvalues --  -38.44244 -38.43871 -38.43656 -38.43561 -38.43411
  Beta  occ. eigenvalues --  -38.43298 -38.42686  -2.20082  -2.19705  -2.19487
  Beta  occ. eigenvalues --   -2.19442  -2.19208  -2.19173  -2.18741  -1.13774
  Beta  occ. eigenvalues --   -1.13724  -1.13713  -1.13408  -1.13348  -1.13346
  Beta  occ. eigenvalues --   -1.13207  -1.13129  -1.13121  -1.13110  -1.13091
  Beta  occ. eigenvalues --   -1.13071  -1.12951  -1.12917  -1.12885  -1.12871
  Beta  occ. eigenvalues --   -1.12806  -1.12792  -1.12433  -1.12398  -1.12384
  Beta  occ. eigenvalues --   -0.18093  -0.12923  -0.12230
  Beta virt. eigenvalues --   -0.06614  -0.05720  -0.05079  -0.04723  -0.02302
  Beta virt. eigenvalues --   -0.01955  -0.01515  -0.01289  -0.01113  -0.00515
  Beta virt. eigenvalues --   -0.00377   0.00165   0.00384   0.00844   0.00881

 Mulliken charges and spin densities:
               1          2
     1  Na   0.282035   0.053294
     2  Na   0.126613  -0.005460
     3  Na  -0.895336   0.061384
     4  Na   0.315817   0.062293
     5  Na   0.458313   0.079201
     6  Na  -0.503938   0.745262
     7  Na   0.216496   0.004025
 Sum of Mulliken charges =  -0.00000   1.00000

 Dipole moment (field-independent basis, Debye):
    X=              0.2293    Y=              0.1637    Z=              0.2870  Tot=              0.4022
 Quadrupole moment (field-independent basis, Debye-Ang):
   XX=            -55.4223   YY=            -60.8641   ZZ=            -75.8466
   XY=             -0.5030   XZ=              0.5567   YZ=              0.0427

 Normal termination of Gaussian 16 at Fri Dec  8 01:43:52 2023.
