 Gaussian 16, Revision B.01,
 Gaussian 16:  ES64L-G16RevB.01 20-Dec-2017

 -------------------------
 #P B3LYP/6-311+g(d) force
 -------------------------

 -----
 DPGEN
 -----
 Symbolic Z-matrix:
 Charge =  0 Multiplicity = 2

                         Standard orientation:
 ---------------------------------------------------------------------
 Center     Atomic      Atomic             Coordinates (Angstroms)
 Number     Number       Type             X           Y           Z
 ---------------------------------------------------------------------
      1         11           0       -4.632787   -0.278565   -0.788942
      2         11           0        3.579675   -1.595521   -0.769452
      3         11           0       -1.947742   -1.857760    0.517589
      4         11           0       -2.742534    2.225185   -0.092699
      5         11           0        1.033568    1.879947    1.008088
      6         11           0        3.774265    1.871028   -0.460059
      7         11           0        0.935556   -2.244315    0.585474
 ---------------------------------------------------------------------

 SCF Done:  E(UB3LYP) =  -1136.11139680     A.U. after   22 cycles

 The electronic state is 2-A.
 Alpha  occ. eigenvalues --  -38.45334 -38.44755 -38.44480 -38.44471 -38.44282
 Alpha  occ. eigenvalues --  -38.43771 -38.43082  -2.21110  -2.20593  -2.20343
 Alpha  occ. eigenvalues --   -2.20281  -2.20131  -2.19592  -2.18977  -1.14793
 Alpha  occ. eigenvalues --   -1.14768  -1.14761  -1.14280  -1.14244  -1.14209
 Alpha  occ. eigenvalues --   -1.14079  -1.14000  -1.13980  -1.13959  -1.13946
 Alpha  occ. eigenvalues --   -1.13920  -1.13780  -1.13769  -1.13756  -1.13258
 Alpha  occ. eigenvalues --   -1.13233  -1.13227  -1.12699  -1.12614  -1.12592
 Alpha  occ. eigenvalues --   -0.16849  -0.14676  -0.12253  -0.10946
 Alpha virt. eigenvalues --   -0.07315  -0.04849  -0.04135  -0.04010  -0.03593
 Alpha virt. eigenvalues --   -0.02422  -0.01764  -0.01507  -0.01110  -0.00564
 Alpha virt. eigenvalues --   -0.00153  -0.00027   0.00278   0.00526   0.00601

  Beta  occ. eigenvalues --  -38.45320 -38.44707 -38.44479 -38.44445 -38.44227
  Beta  occ. eigenvalues --  -38.43725 -38.43071  -2.21088  -2.20503  -2.20298
  Beta  occ. eigenvalues --   -2.20285  -2.20028  -2.19505  -2.18963  -1.14782
  Beta  occ. eigenvalues --   -1.14758  -1.14706  -1.14224  -1.14181  -1.14146
  Beta  occ. eigenvalues --   -1.14010  -1.13992  -1.13961  -1.13959  -1.13924
  Beta  occ. eigenvalues --   -1.13913  -1.13705  -1.13699  -1.13693  -1.13202
  Beta  occ. eigenvalues --   -1.13174  -1.13165  -1.12657  -1.12609  -1.12584
  Beta  occ. eigenvalues --   -0.16227  -0.14164  -0.11941
  Beta virt. eigenvalues --   -0.07536  -0.07188  -0.04279  -0.03852  -0.03717
  Beta virt. eigenvalues --   -0.02998  -0.02251  -0.01543  -0.01130  -0.01012
  Beta virt. eigenvalues --   -0.00361  -0.00028   0.00212   0.00466   0.00624

 Mulliken charges and spin densities:
               1          2
     1  Na   0.816790   0.348497
     2  Na   0.190586   0.401245
     3  Na  -0.198586   0.130314
     4  Na  -0.125557   0.084062
     5  Na  -1.022471   0.208486
     6  Na   0.756534   0.034007
     7  Na  -0.417296  -0.206612
 Sum of Mulliken charges =  -0.00000   1.00000

 Dipole moment (field-independent basis, Debye):
    X=             -0.5188    Y=              0.5100    Z=             -0.6006  Tot=              0.9434
 Quadrupole moment (field-independent basis, Debye-Ang):
   XX=            -56.6277   YY=            -69.4236   ZZ=            -71.1853
   XY=              0.9100   XZ=             -0.9794   YZ=             -0.1217

 Normal termination of Gaussian 16 at Sun Dec  3 11:56:52 2023.
