 Gaussian 16, Revision B.01,
 Gaussian 16:  ES64L-G16RevB.01 20-Dec-2017

 -------------------------
 #P B3LYP/6-311+g(d) force
 -------------------------

 -----
 DPGEN
 -----
 Symbolic Z-matrix:
 Charge =  0 Multiplicity = 2

                         Standard orientation:
 ---------------------------------------------------------------------
 Center     Atomic      Atomic             Coordinates (Angstroms)
 Number     Number       Type             X           Y           Z
 ---------------------------------------------------------------------
      1         11           0        2.659024   -1.280925    0.020787
      2         11           0        0.016762    0.336770    1.688642
      3         11           0       -0.332733   -2.723754    0.047071
      4         11           0       -2.839877   -0.741740    0.128572
      5         11           0        2.279000    1.994525   -0.112496
      6         11           0       -1.600164    2.621938   -0.162862
      7         11           0       -0.182011   -0.206814   -1.609713
 ---------------------------------------------------------------------

 SCF Done:  E(UB3LYP) =  -1136.13684962     A.U. after   21 cycles

 The electronic state is 2-A.
 Alpha  occ. eigenvalues --  -38.43852 -38.43765 -38.43715 -38.43590 -38.43164
 Alpha  occ. eigenvalues --  -38.42885 -38.42864  -2.19704  -2.19672  -2.19554
 Alpha  occ. eigenvalues --   -2.19479  -2.19117  -2.18934  -2.18870  -1.13392
 Alpha  occ. eigenvalues --   -1.13378  -1.13372  -1.13342  -1.13336  -1.13309
 Alpha  occ. eigenvalues --   -1.13229  -1.13223  -1.13182  -1.13158  -1.13139
 Alpha  occ. eigenvalues --   -1.13119  -1.12882  -1.12762  -1.12741  -1.12632
 Alpha  occ. eigenvalues --   -1.12547  -1.12539  -1.12527  -1.12490  -1.12483
 Alpha  occ. eigenvalues --   -0.19300  -0.13230  -0.12763  -0.10450
 Alpha virt. eigenvalues --   -0.05533  -0.05203  -0.04735  -0.03033  -0.02813
 Alpha virt. eigenvalues --   -0.02052  -0.01425  -0.01231  -0.00341  -0.00163
 Alpha virt. eigenvalues --    0.00048   0.00366   0.00849   0.00899   0.00920

  Beta  occ. eigenvalues --  -38.43848 -38.43757 -38.43710 -38.43584 -38.43155
  Beta  occ. eigenvalues --  -38.42812 -38.42787  -2.19700  -2.19662  -2.19548
  Beta  occ. eigenvalues --   -2.19473  -2.19104  -2.18801  -2.18730  -1.13390
  Beta  occ. eigenvalues --   -1.13373  -1.13351  -1.13338  -1.13309  -1.13292
  Beta  occ. eigenvalues --   -1.13223  -1.13198  -1.13182  -1.13157  -1.13122
  Beta  occ. eigenvalues --   -1.13103  -1.12859  -1.12739  -1.12719  -1.12544
  Beta  occ. eigenvalues --   -1.12455  -1.12443  -1.12434  -1.12386  -1.12382
  Beta  occ. eigenvalues --   -0.18566  -0.12964  -0.12497
  Beta virt. eigenvalues --   -0.06521  -0.05531  -0.05184  -0.04726  -0.02218
  Beta virt. eigenvalues --   -0.02022  -0.01347  -0.01173  -0.01030  -0.00396
  Beta virt. eigenvalues --   -0.00216   0.00178   0.00394   0.00866   0.00910

 Mulliken charges and spin densities:
               1          2
     1  Na   0.175968  -0.034731
     2  Na  -0.450135   0.645087
     3  Na   0.383977   0.021609
     4  Na   0.327897  -0.025621
     5  Na   0.073412  -0.112485
     6  Na   0.024757  -0.137515
     7  Na  -0.535875   0.643656
 Sum of Mulliken charges =  -0.00000   1.00000

 Dipole moment (field-independent basis, Debye):
    X=              0.0066    Y=              0.3464    Z=              0.0414  Tot=              0.3490
 Quadrupole moment (field-independent basis, Debye-Ang):
   XX=            -56.1794   YY=            -59.8144   ZZ=            -76.0368
   XY=             -0.1193   XZ=             -0.4698   YZ=             -1.3189

 Normal termination of Gaussian 16 at Thu Dec  7 03:11:42 2023.
