 Gaussian 16, Revision B.01,
 Gaussian 16:  ES64L-G16RevB.01 20-Dec-2017

 -------------------------
 #P B3LYP/6-311+g(d) force
 -------------------------

 -----
 DPGEN
 -----
 Symbolic Z-matrix:
 Charge =  0 Multiplicity = 2

                         Standard orientation:
 ---------------------------------------------------------------------
 Center     Atomic      Atomic             Coordinates (Angstroms)
 Number     Number       Type             X           Y           Z
 ---------------------------------------------------------------------
      1         11           0        1.397174    3.635144   -0.176078
      2         11           0       -3.293160   -2.723130    0.517770
      3         11           0        0.052238   -2.545080   -0.467685
      4         11           0        4.080529   -2.484708   -0.025510
      5         11           0        4.575585    0.768110    0.236417
      6         11           0       -4.794947    0.191404   -0.297597
      7         11           0       -2.017420    3.158261    0.212684
 ---------------------------------------------------------------------

 SCF Done:  E(UB3LYP) =  -1136.10436885     A.U. after   23 cycles

 The electronic state is 2-A.
 Alpha  occ. eigenvalues --  -38.45244 -38.44879 -38.44859 -38.44756 -38.44627
 Alpha  occ. eigenvalues --  -38.44311 -38.44090  -2.21010  -2.20644  -2.20591
 Alpha  occ. eigenvalues --   -2.20530  -2.20401  -2.20107  -2.19850  -1.14676
 Alpha  occ. eigenvalues --   -1.14660  -1.14651  -1.14317  -1.14298  -1.14291
 Alpha  occ. eigenvalues --   -1.14279  -1.14269  -1.14221  -1.14191  -1.14182
 Alpha  occ. eigenvalues --   -1.14145  -1.14082  -1.14070  -1.14051  -1.13757
 Alpha  occ. eigenvalues --   -1.13740  -1.13731  -1.13517  -1.13508  -1.13478
 Alpha  occ. eigenvalues --   -0.15250  -0.13937  -0.12929  -0.10887
 Alpha virt. eigenvalues --   -0.07765  -0.05040  -0.04960  -0.03501  -0.03216
 Alpha virt. eigenvalues --   -0.02655  -0.02210  -0.02000  -0.01352  -0.00773
 Alpha virt. eigenvalues --   -0.00736  -0.00295  -0.00041   0.00202   0.00318

  Beta  occ. eigenvalues --  -38.45209 -38.44879 -38.44862 -38.44674 -38.44637
  Beta  occ. eigenvalues --  -38.44232 -38.44062  -2.20946  -2.20647  -2.20601
  Beta  occ. eigenvalues --   -2.20426  -2.20378  -2.19960  -2.19798  -1.14634
  Beta  occ. eigenvalues --   -1.14621  -1.14598  -1.14321  -1.14303  -1.14289
  Beta  occ. eigenvalues --   -1.14279  -1.14272  -1.14204  -1.14105  -1.14100
  Beta  occ. eigenvalues --   -1.14085  -1.14076  -1.14056  -1.14006  -1.13656
  Beta  occ. eigenvalues --   -1.13641  -1.13639  -1.13482  -1.13474  -1.13442
  Beta  occ. eigenvalues --   -0.14642  -0.13351  -0.12386
  Beta virt. eigenvalues --   -0.07805  -0.07670  -0.04692  -0.04373  -0.03279
  Beta virt. eigenvalues --   -0.02814  -0.02520  -0.02162  -0.01844  -0.01205
  Beta virt. eigenvalues --   -0.00505  -0.00363   0.00085   0.00119   0.00276

 Mulliken charges and spin densities:
               1          2
     1  Na   0.202457   0.120615
     2  Na   0.155033  -0.083473
     3  Na  -0.536910   0.393943
     4  Na   0.510444   0.018471
     5  Na  -0.080106   0.170553
     6  Na  -0.114321   0.395629
     7  Na  -0.136597  -0.015739
 Sum of Mulliken charges =  -0.00000   1.00000

 Dipole moment (field-independent basis, Debye):
    X=              0.7894    Y=             -0.5824    Z=              0.0801  Tot=              0.9843
 Quadrupole moment (field-independent basis, Debye-Ang):
   XX=            -59.3185   YY=            -65.8092   ZZ=            -74.3287
   XY=              1.1867   XZ=             -0.7926   YZ=             -0.8445

 Normal termination of Gaussian 16 at Sun Dec  3 16:25:01 2023.
