 Gaussian 16, Revision B.01,
 Gaussian 16:  ES64L-G16RevB.01 20-Dec-2017

 -------------------------
 #P B3LYP/6-311+g(d) force
 -------------------------

 -----
 DPGEN
 -----
 Symbolic Z-matrix:
 Charge =  0 Multiplicity = 2

                         Standard orientation:
 ---------------------------------------------------------------------
 Center     Atomic      Atomic             Coordinates (Angstroms)
 Number     Number       Type             X           Y           Z
 ---------------------------------------------------------------------
      1         11           0        0.487166    0.376427    2.188499
      2         11           0       -3.223135   -0.518102   -0.164709
      3         11           0       -1.318609    2.936897    0.059721
      4         11           0        2.653236    1.543988   -0.721139
      5         11           0        2.536200   -1.765736    0.033142
      6         11           0       -0.203554    0.005952   -1.358492
      7         11           0       -0.931304   -2.579427   -0.037022
 ---------------------------------------------------------------------

 SCF Done:  E(UB3LYP) =  -1136.13242123     A.U. after   19 cycles

 The electronic state is 2-A.
 Alpha  occ. eigenvalues --  -38.44207 -38.44109 -38.43738 -38.43707 -38.43700
 Alpha  occ. eigenvalues --  -38.43181 -38.43066  -2.20059  -2.19945  -2.19586
 Alpha  occ. eigenvalues --   -2.19555  -2.19493  -2.19111  -2.19092  -1.13759
 Alpha  occ. eigenvalues --   -1.13725  -1.13682  -1.13633  -1.13596  -1.13571
 Alpha  occ. eigenvalues --   -1.13255  -1.13252  -1.13233  -1.13215  -1.13184
 Alpha  occ. eigenvalues --   -1.13173  -1.13169  -1.13146  -1.13132  -1.12946
 Alpha  occ. eigenvalues --   -1.12775  -1.12747  -1.12723  -1.12703  -1.12674
 Alpha  occ. eigenvalues --   -0.18542  -0.13251  -0.12241  -0.10666
 Alpha virt. eigenvalues --   -0.05828  -0.05346  -0.04520  -0.03177  -0.02788
 Alpha virt. eigenvalues --   -0.02483  -0.01687  -0.01267  -0.00532  -0.00241
 Alpha virt. eigenvalues --   -0.00030   0.00322   0.00737   0.00828   0.00885

  Beta  occ. eigenvalues --  -38.44206 -38.44083 -38.43734 -38.43707 -38.43598
  Beta  occ. eigenvalues --  -38.43177 -38.43023  -2.20058  -2.19900  -2.19581
  Beta  occ. eigenvalues --   -2.19496  -2.19365  -2.19097  -2.19024  -1.13759
  Beta  occ. eigenvalues --   -1.13715  -1.13681  -1.13595  -1.13560  -1.13538
  Beta  occ. eigenvalues --   -1.13253  -1.13237  -1.13212  -1.13169  -1.13149
  Beta  occ. eigenvalues --   -1.13138  -1.13089  -1.13056  -1.13023  -1.12918
  Beta  occ. eigenvalues --   -1.12745  -1.12717  -1.12690  -1.12658  -1.12635
  Beta  occ. eigenvalues --   -0.17860  -0.12991  -0.12042
  Beta virt. eigenvalues --   -0.06739  -0.05761  -0.05286  -0.04482  -0.02475
  Beta virt. eigenvalues --   -0.02048  -0.01602  -0.01426  -0.01180  -0.00534
  Beta virt. eigenvalues --   -0.00275   0.00145   0.00377   0.00789   0.00856

 Mulliken charges and spin densities:
               1          2
     1  Na  -0.619773   0.708206
     2  Na   0.233873   0.023475
     3  Na   0.042631  -0.032505
     4  Na   0.247660   0.081468
     5  Na   0.351648   0.115657
     6  Na  -0.518411   0.029221
     7  Na   0.262372   0.074478
 Sum of Mulliken charges =  -0.00000   1.00000

 Dipole moment (field-independent basis, Debye):
    X=             -0.0169    Y=              0.2320    Z=              0.2158  Tot=              0.3173
 Quadrupole moment (field-independent basis, Debye-Ang):
   XX=            -54.9621   YY=            -63.1262   ZZ=            -74.9231
   XY=             -0.7653   XZ=             -1.1027   YZ=             -0.9227

 Normal termination of Gaussian 16 at Thu Dec  7 04:58:27 2023.
