 Gaussian 16, Revision B.01,
 Gaussian 16:  ES64L-G16RevB.01 20-Dec-2017

 -------------------------
 #P B3LYP/6-311+g(d) force
 -------------------------

 -----
 DPGEN
 -----
 Symbolic Z-matrix:
 Charge =  0 Multiplicity = 2

                         Standard orientation:
 ---------------------------------------------------------------------
 Center     Atomic      Atomic             Coordinates (Angstroms)
 Number     Number       Type             X           Y           Z
 ---------------------------------------------------------------------
      1         11           0       -2.857408    1.024923   -0.299592
      2         11           0        1.541231   -2.418273    0.220899
      3         11           0        2.922042    0.802412   -0.361539
      4         11           0        0.255468   -0.095722   -1.725875
      5         11           0        0.045846    2.817686    0.285173
      6         11           0       -1.975481   -2.129330   -0.077933
      7         11           0        0.068301   -0.001696    1.958867
 ---------------------------------------------------------------------

 SCF Done:  E(UB3LYP) =  -1136.14035307     A.U. after   18 cycles

 The electronic state is 2-A.
 Alpha  occ. eigenvalues --  -38.43780 -38.43637 -38.43505 -38.43401 -38.43380
 Alpha  occ. eigenvalues --  -38.43304 -38.43212  -2.19649  -2.19488  -2.19447
 Alpha  occ. eigenvalues --   -2.19297  -2.19272  -2.19266  -2.19085  -1.13373
 Alpha  occ. eigenvalues --   -1.13298  -1.13276  -1.13171  -1.13157  -1.13140
 Alpha  occ. eigenvalues --   -1.13124  -1.13101  -1.13065  -1.13009  -1.12960
 Alpha  occ. eigenvalues --   -1.12951  -1.12935  -1.12930  -1.12913  -1.12901
 Alpha  occ. eigenvalues --   -1.12883  -1.12870  -1.12767  -1.12744  -1.12708
 Alpha  occ. eigenvalues --   -0.19025  -0.13037  -0.12608  -0.11007
 Alpha virt. eigenvalues --   -0.05319  -0.05050  -0.04656  -0.03205  -0.03044
 Alpha virt. eigenvalues --   -0.02657  -0.01357  -0.01046  -0.00196  -0.00125
 Alpha virt. eigenvalues --    0.00018   0.00367   0.00864   0.00924   0.00943

  Beta  occ. eigenvalues --  -38.43769 -38.43632 -38.43413 -38.43396 -38.43372
  Beta  occ. eigenvalues --  -38.43234 -38.43204  -2.19633  -2.19482  -2.19279
  Beta  occ. eigenvalues --   -2.19267  -2.19255  -2.19170  -2.19074  -1.13349
  Beta  occ. eigenvalues --   -1.13275  -1.13266  -1.13168  -1.13147  -1.13122
  Beta  occ. eigenvalues --   -1.13031  -1.12991  -1.12964  -1.12955  -1.12932
  Beta  occ. eigenvalues --   -1.12919  -1.12901  -1.12888  -1.12874  -1.12865
  Beta  occ. eigenvalues --   -1.12822  -1.12814  -1.12749  -1.12716  -1.12704
  Beta  occ. eigenvalues --   -0.18289  -0.12764  -0.12345
  Beta virt. eigenvalues --   -0.07074  -0.05274  -0.05057  -0.04623  -0.02418
  Beta virt. eigenvalues --   -0.02227  -0.01592  -0.01261  -0.00979  -0.00213
  Beta virt. eigenvalues --   -0.00181   0.00124   0.00391   0.00911   0.00920

 Mulliken charges and spin densities:
               1          2
     1  Na  -0.009205  -0.054026
     2  Na   0.234467  -0.056396
     3  Na   0.240696  -0.044645
     4  Na  -0.328157   0.576330
     5  Na   0.139768  -0.033738
     6  Na   0.091016  -0.071057
     7  Na  -0.368584   0.683532
 Sum of Mulliken charges =  -0.00000   1.00000

 Dipole moment (field-independent basis, Debye):
    X=              0.1049    Y=             -0.0142    Z=              0.0570  Tot=              0.1202
 Quadrupole moment (field-independent basis, Debye-Ang):
   XX=            -58.1538   YY=            -62.7692   ZZ=            -73.1054
   XY=             -0.0317   XZ=              0.4166   YZ=             -0.3685

 Normal termination of Gaussian 16 at Thu Dec  7 09:28:36 2023.
