 Gaussian 16, Revision B.01,
 Gaussian 16:  ES64L-G16RevB.01 20-Dec-2017

 -------------------------
 #P B3LYP/6-311+g(d) force
 -------------------------

 -----
 DPGEN
 -----
 Symbolic Z-matrix:
 Charge =  0 Multiplicity = 2

                         Standard orientation:
 ---------------------------------------------------------------------
 Center     Atomic      Atomic             Coordinates (Angstroms)
 Number     Number       Type             X           Y           Z
 ---------------------------------------------------------------------
      1         11           0        0.211035   -0.467240   -1.672516
      2         11           0        0.238821   -0.126054    2.015888
      3         11           0        2.297533   -2.256769   -0.093882
      4         11           0       -2.459466   -2.237885   -0.089162
      5         11           0       -0.201090    2.689855   -0.497328
      6         11           0        3.070685    1.272058    0.133588
      7         11           0       -3.157519    1.126035    0.203413
 ---------------------------------------------------------------------

 SCF Done:  E(UB3LYP) =  -1136.13198833     A.U. after   21 cycles

 The electronic state is 2-A.
 Alpha  occ. eigenvalues --  -38.44625 -38.44384 -38.44119 -38.44003 -38.43854
 Alpha  occ. eigenvalues --  -38.43294 -38.42783  -2.20427  -2.20185  -2.19905
 Alpha  occ. eigenvalues --   -2.19834  -2.19708  -2.19225  -2.18635  -1.14101
 Alpha  occ. eigenvalues --   -1.14081  -1.14071  -1.13857  -1.13845  -1.13838
 Alpha  occ. eigenvalues --   -1.13581  -1.13560  -1.13549  -1.13538  -1.13491
 Alpha  occ. eigenvalues --   -1.13463  -1.13381  -1.13337  -1.13321  -1.12904
 Alpha  occ. eigenvalues --   -1.12872  -1.12837  -1.12326  -1.12294  -1.12267
 Alpha  occ. eigenvalues --   -0.18200  -0.13322  -0.11920  -0.10541
 Alpha virt. eigenvalues --   -0.06150  -0.05928  -0.04131  -0.03338  -0.02675
 Alpha virt. eigenvalues --   -0.02481  -0.01944  -0.01447  -0.00711  -0.00266
 Alpha virt. eigenvalues --   -0.00039   0.00316   0.00677   0.00719   0.00818

  Beta  occ. eigenvalues --  -38.44621 -38.44385 -38.44121 -38.43997 -38.43767
  Beta  occ. eigenvalues --  -38.43224 -38.42772  -2.20422  -2.20188  -2.19909
  Beta  occ. eigenvalues --   -2.19826  -2.19546  -2.19097  -2.18617  -1.14083
  Beta  occ. eigenvalues --   -1.14076  -1.14067  -1.13851  -1.13843  -1.13840
  Beta  occ. eigenvalues --   -1.13574  -1.13560  -1.13552  -1.13525  -1.13471
  Beta  occ. eigenvalues --   -1.13456  -1.13272  -1.13225  -1.13203  -1.12817
  Beta  occ. eigenvalues --   -1.12778  -1.12746  -1.12310  -1.12264  -1.12258
  Beta  occ. eigenvalues --   -0.17481  -0.13147  -0.11686
  Beta virt. eigenvalues --   -0.06675  -0.06080  -0.05877  -0.04104  -0.02602
  Beta virt. eigenvalues --   -0.01982  -0.01814  -0.01484  -0.01325  -0.00781
  Beta virt. eigenvalues --   -0.00263   0.00112   0.00345   0.00720   0.00755

 Mulliken charges and spin densities:
               1          2
     1  Na   0.102063   0.469967
     2  Na  -0.302061   0.677438
     3  Na   0.109037  -0.104441
     4  Na   0.070558  -0.090859
     5  Na  -0.061825   0.001336
     6  Na   0.120645   0.039032
     7  Na  -0.038417   0.007528
 Sum of Mulliken charges =  -0.00000   1.00000

 Dipole moment (field-independent basis, Debye):
    X=              0.2088    Y=             -0.2452    Z=              0.2275  Tot=              0.3943
 Quadrupole moment (field-independent basis, Debye-Ang):
   XX=            -51.2813   YY=            -65.7697   ZZ=            -75.7946
   XY=              0.3174   XZ=             -0.2418   YZ=             -0.3303

 Normal termination of Gaussian 16 at Tue Dec  5 18:10:42 2023.
