 Gaussian 16, Revision B.01,
 Gaussian 16:  ES64L-G16RevB.01 20-Dec-2017

 -------------------------
 #P B3LYP/6-311+g(d) force
 -------------------------

 -----
 DPGEN
 -----
 Symbolic Z-matrix:
 Charge =  0 Multiplicity = 2

                         Standard orientation:
 ---------------------------------------------------------------------
 Center     Atomic      Atomic             Coordinates (Angstroms)
 Number     Number       Type             X           Y           Z
 ---------------------------------------------------------------------
      1         11           0        3.334749   -1.134683   -0.166521
      2         11           0       -0.099456    0.345336   -1.582039
      3         11           0       -1.438632    2.475962    0.269362
      4         11           0        0.343008   -0.325419    2.191386
      5         11           0        1.753158    2.076082   -0.274533
      6         11           0       -3.415727   -0.752810   -0.104234
      7         11           0       -0.477100   -2.684468   -0.333421
 ---------------------------------------------------------------------

 SCF Done:  E(UB3LYP) =  -1136.12970572     A.U. after   20 cycles

 The electronic state is 2-A.
 Alpha  occ. eigenvalues --  -38.44502 -38.44428 -38.43813 -38.43495 -38.43462
 Alpha  occ. eigenvalues --  -38.43422 -38.43236  -2.20279  -2.20197  -2.19666
 Alpha  occ. eigenvalues --   -2.19481  -2.19355  -2.19332  -2.19117  -1.13952
 Alpha  occ. eigenvalues --   -1.13934  -1.13922  -1.13870  -1.13861  -1.13833
 Alpha  occ. eigenvalues --   -1.13367  -1.13326  -1.13300  -1.13276  -1.13150
 Alpha  occ. eigenvalues --   -1.13123  -1.13019  -1.13003  -1.12995  -1.12949
 Alpha  occ. eigenvalues --   -1.12943  -1.12933  -1.12791  -1.12767  -1.12736
 Alpha  occ. eigenvalues --   -0.18493  -0.12900  -0.12333  -0.10781
 Alpha virt. eigenvalues --   -0.06220  -0.05003  -0.04402  -0.03088  -0.03041
 Alpha virt. eigenvalues --   -0.02580  -0.01993  -0.01139  -0.00299  -0.00201
 Alpha virt. eigenvalues --   -0.00066   0.00285   0.00754   0.00839   0.00854

  Beta  occ. eigenvalues --  -38.44504 -38.44429 -38.43711 -38.43486 -38.43410
  Beta  occ. eigenvalues --  -38.43405 -38.43229  -2.20283  -2.20200  -2.19477
  Beta  occ. eigenvalues --   -2.19383  -2.19332  -2.19318  -2.19107  -1.13945
  Beta  occ. eigenvalues --   -1.13938  -1.13926  -1.13869  -1.13853  -1.13837
  Beta  occ. eigenvalues --   -1.13316  -1.13203  -1.13168  -1.13141  -1.13087
  Beta  occ. eigenvalues --   -1.13059  -1.12994  -1.12973  -1.12961  -1.12938
  Beta  occ. eigenvalues --   -1.12929  -1.12893  -1.12780  -1.12739  -1.12730
  Beta  occ. eigenvalues --   -0.17762  -0.12710  -0.12114
  Beta virt. eigenvalues --   -0.06816  -0.06174  -0.04994  -0.04343  -0.02396
  Beta virt. eigenvalues --   -0.02198  -0.01916  -0.01546  -0.01078  -0.00318
  Beta virt. eigenvalues --   -0.00229   0.00089   0.00313   0.00814   0.00853

 Mulliken charges and spin densities:
               1          2
     1  Na   0.079999  -0.077105
     2  Na  -0.220677   0.306959
     3  Na   0.108766   0.064171
     4  Na  -0.625444   0.734923
     5  Na   0.516180   0.100320
     6  Na   0.046575  -0.048154
     7  Na   0.094600  -0.081114
 Sum of Mulliken charges =  -0.00000   1.00000

 Dipole moment (field-independent basis, Debye):
    X=             -0.1061    Y=             -0.2955    Z=              0.2197  Tot=              0.3832
 Quadrupole moment (field-independent basis, Debye-Ang):
   XX=            -52.3334   YY=            -66.2983   ZZ=            -74.2944
   XY=             -1.3635   XZ=             -1.1063   YZ=              1.3985

 Normal termination of Gaussian 16 at Thu Dec  7 23:31:28 2023.
