 Gaussian 16, Revision B.01,
 Gaussian 16:  ES64L-G16RevB.01 20-Dec-2017

 -------------------------
 #P B3LYP/6-311+g(d) force
 -------------------------

 -----
 DPGEN
 -----
 Symbolic Z-matrix:
 Charge =  0 Multiplicity = 2

                         Standard orientation:
 ---------------------------------------------------------------------
 Center     Atomic      Atomic             Coordinates (Angstroms)
 Number     Number       Type             X           Y           Z
 ---------------------------------------------------------------------
      1         11           0        2.606931   -2.109348    0.102071
      2         11           0       -0.683863    3.168697   -0.020029
      3         11           0        2.679187    2.153979    0.381955
      4         11           0        5.457108   -0.539609   -0.289799
      5         11           0       -3.968114    1.818192   -0.321439
      6         11           0       -1.604417   -2.810138   -0.116746
      7         11           0       -4.486832   -1.681772    0.263988
 ---------------------------------------------------------------------

 SCF Done:  E(UB3LYP) =  -1136.10984215     A.U. after   23 cycles

 The electronic state is 2-A.
 Alpha  occ. eigenvalues --  -38.45629 -38.45425 -38.44521 -38.44510 -38.44480
 Alpha  occ. eigenvalues --  -38.43855 -38.43535  -2.21390  -2.21192  -2.20324
 Alpha  occ. eigenvalues --   -2.20317  -2.20259  -2.19655  -2.19300  -1.15079
 Alpha  occ. eigenvalues --   -1.15065  -1.15014  -1.14875  -1.14864  -1.14785
 Alpha  occ. eigenvalues --   -1.14015  -1.13989  -1.13980  -1.13973  -1.13972
 Alpha  occ. eigenvalues --   -1.13940  -1.13932  -1.13913  -1.13872  -1.13315
 Alpha  occ. eigenvalues --   -1.13306  -1.13285  -1.12986  -1.12982  -1.12941
 Alpha  occ. eigenvalues --   -0.15711  -0.14314  -0.12711  -0.10868
 Alpha virt. eigenvalues --   -0.07631  -0.05397  -0.04296  -0.03669  -0.03266
 Alpha virt. eigenvalues --   -0.02697  -0.02375  -0.01597  -0.01246  -0.00802
 Alpha virt. eigenvalues --   -0.00516  -0.00296   0.00064   0.00397   0.00517

  Beta  occ. eigenvalues --  -38.45610 -38.45373 -38.44538 -38.44456 -38.44438
  Beta  occ. eigenvalues --  -38.43813 -38.43543  -2.21360  -2.21099  -2.20352
  Beta  occ. eigenvalues --   -2.20223  -2.20179  -2.19575  -2.19318  -1.15063
  Beta  occ. eigenvalues --   -1.15044  -1.14960  -1.14815  -1.14802  -1.14702
  Beta  occ. eigenvalues --   -1.14039  -1.14015  -1.13972  -1.13907  -1.13903
  Beta  occ. eigenvalues --   -1.13878  -1.13876  -1.13863  -1.13825  -1.13261
  Beta  occ. eigenvalues --   -1.13250  -1.13236  -1.13001  -1.12996  -1.12930
  Beta  occ. eigenvalues --   -0.15134  -0.13995  -0.12237
  Beta virt. eigenvalues --   -0.07666  -0.07321  -0.04813  -0.03898  -0.03471
  Beta virt. eigenvalues --   -0.02904  -0.02534  -0.02203  -0.01468  -0.00921
  Beta virt. eigenvalues --   -0.00522  -0.00375   0.00079   0.00226   0.00458

 Mulliken charges and spin densities:
               1          2
     1  Na  -0.476043   0.166319
     2  Na   0.171623  -0.122511
     3  Na  -0.076908   0.253873
     4  Na   0.922159   0.273746
     5  Na  -0.295498   0.288315
     6  Na  -0.623999   0.126344
     7  Na   0.378666   0.013914
 Sum of Mulliken charges =  -0.00000   1.00000

 Dipole moment (field-independent basis, Debye):
    X=              1.3472    Y=             -0.1705    Z=              0.0446  Tot=              1.3586
 Quadrupole moment (field-independent basis, Debye-Ang):
   XX=            -50.9108   YY=            -71.5303   ZZ=            -74.0304
   XY=              2.9068   XZ=             -0.6748   YZ=             -0.4159

 Normal termination of Gaussian 16 at Sun Dec  3 17:12:19 2023.
