 Gaussian 16, Revision B.01,
 Gaussian 16:  ES64L-G16RevB.01 20-Dec-2017

 -------------------------
 #P B3LYP/6-311+g(d) force
 -------------------------

 -----
 DPGEN
 -----
 Symbolic Z-matrix:
 Charge =  0 Multiplicity = 2

                         Standard orientation:
 ---------------------------------------------------------------------
 Center     Atomic      Atomic             Coordinates (Angstroms)
 Number     Number       Type             X           Y           Z
 ---------------------------------------------------------------------
      1         11           0        3.480459   -1.702295   -0.285254
      2         11           0       -3.097591   -1.940151   -0.517799
      3         11           0       -2.655509    0.931494    0.884417
      4         11           0        1.027875    0.796499   -1.636805
      5         11           0       -0.055903   -2.774390    0.453368
      6         11           0        1.627327    1.507902    1.947426
      7         11           0       -0.326659    3.180941   -0.845353
 ---------------------------------------------------------------------

 SCF Done:  E(UB3LYP) =  -1136.11988225     A.U. after   19 cycles

 The electronic state is 2-A.
 Alpha  occ. eigenvalues --  -38.44801 -38.44650 -38.44453 -38.44152 -38.43956
 Alpha  occ. eigenvalues --  -38.43785 -38.43760  -2.20587  -2.20419  -2.20205
 Alpha  occ. eigenvalues --   -2.19949  -2.19779  -2.19684  -2.19633  -1.14268
 Alpha  occ. eigenvalues --   -1.14257  -1.14220  -1.14115  -1.14100  -1.14038
 Alpha  occ. eigenvalues --   -1.13879  -1.13865  -1.13843  -1.13608  -1.13591
 Alpha  occ. eigenvalues --   -1.13573  -1.13559  -1.13442  -1.13434  -1.13428
 Alpha  occ. eigenvalues --   -1.13331  -1.13314  -1.13257  -1.13234  -1.13172
 Alpha  occ. eigenvalues --   -0.17189  -0.13261  -0.12667  -0.10356
 Alpha virt. eigenvalues --   -0.06520  -0.05710  -0.04847  -0.03273  -0.03084
 Alpha virt. eigenvalues --   -0.02472  -0.01832  -0.01321  -0.00957  -0.00871
 Alpha virt. eigenvalues --   -0.00009   0.00225   0.00362   0.00571   0.00676

  Beta  occ. eigenvalues --  -38.44791 -38.44651 -38.44455 -38.44059 -38.43959
  Beta  occ. eigenvalues --  -38.43735 -38.43728  -2.20569  -2.20421  -2.20210
  Beta  occ. eigenvalues --   -2.19784  -2.19775  -2.19607  -2.19565  -1.14249
  Beta  occ. eigenvalues --   -1.14241  -1.14212  -1.14110  -1.14100  -1.14043
  Beta  occ. eigenvalues --   -1.13879  -1.13865  -1.13848  -1.13520  -1.13487
  Beta  occ. eigenvalues --   -1.13467  -1.13445  -1.13440  -1.13437  -1.13429
  Beta  occ. eigenvalues --   -1.13273  -1.13235  -1.13223  -1.13186  -1.13110
  Beta  occ. eigenvalues --   -0.16650  -0.13010  -0.12558
  Beta virt. eigenvalues --   -0.06588  -0.06284  -0.05592  -0.04666  -0.02905
  Beta virt. eigenvalues --   -0.02505  -0.01885  -0.01497  -0.01188  -0.00902
  Beta virt. eigenvalues --   -0.00598   0.00196   0.00368   0.00471   0.00662

 Mulliken charges and spin densities:
               1          2
     1  Na   0.364083  -0.008330
     2  Na   0.304005  -0.089325
     3  Na  -0.262886   0.130804
     4  Na  -0.531184   0.351654
     5  Na  -0.246863   0.018711
     6  Na  -0.351217   0.562041
     7  Na   0.724063   0.034445
 Sum of Mulliken charges =  -0.00000   1.00000

 Dipole moment (field-independent basis, Debye):
    X=             -0.2620    Y=             -0.4902    Z=              0.0218  Tot=              0.5563
 Quadrupole moment (field-independent basis, Debye-Ang):
   XX=            -58.5466   YY=            -63.4130   ZZ=            -75.3229
   XY=             -3.0772   XZ=              0.3257   YZ=              0.8310

 Normal termination of Gaussian 16 at Mon Dec  4 00:46:44 2023.
