 Gaussian 16, Revision B.01,
 Gaussian 16:  ES64L-G16RevB.01 20-Dec-2017

 -------------------------
 #P B3LYP/6-311+g(d) force
 -------------------------

 -----
 DPGEN
 -----
 Symbolic Z-matrix:
 Charge =  0 Multiplicity = 2

                         Standard orientation:
 ---------------------------------------------------------------------
 Center     Atomic      Atomic             Coordinates (Angstroms)
 Number     Number       Type             X           Y           Z
 ---------------------------------------------------------------------
      1         11           0        0.496449   -1.860159    0.770195
      2         11           0        3.842878   -2.624386   -0.426851
      3         11           0        2.965349    0.078527   -0.232676
      4         11           0        0.984743    4.009649   -0.598939
      5         11           0       -0.029422    1.779919    1.288242
      6         11           0       -2.201288   -0.389593   -0.588773
      7         11           0       -6.058710   -0.993957   -0.211198
 ---------------------------------------------------------------------

 SCF Done:  E(UB3LYP) =  -1136.11494405     A.U. after   19 cycles

 The electronic state is 2-A.
 Alpha  occ. eigenvalues --  -38.44673 -38.44606 -38.44384 -38.44092 -38.43893
 Alpha  occ. eigenvalues --  -38.43820 -38.43547  -2.20503  -2.20448  -2.20253
 Alpha  occ. eigenvalues --   -2.19974  -2.19762  -2.19626  -2.19337  -1.14285
 Alpha  occ. eigenvalues --   -1.14188  -1.14169  -1.14083  -1.14083  -1.14048
 Alpha  occ. eigenvalues --   -1.13882  -1.13876  -1.13826  -1.13664  -1.13657
 Alpha  occ. eigenvalues --   -1.13558  -1.13487  -1.13439  -1.13406  -1.13276
 Alpha  occ. eigenvalues --   -1.13269  -1.13229  -1.13032  -1.13015  -1.12976
 Alpha  occ. eigenvalues --   -0.17256  -0.13581  -0.12649  -0.10997
 Alpha virt. eigenvalues --   -0.06050  -0.05452  -0.05156  -0.03436  -0.02738
 Alpha virt. eigenvalues --   -0.02399  -0.01962  -0.01448  -0.01320  -0.00775
 Alpha virt. eigenvalues --   -0.00668  -0.00151   0.00282   0.00448   0.00529

  Beta  occ. eigenvalues --  -38.44596 -38.44546 -38.44364 -38.44052 -38.43887
  Beta  occ. eigenvalues --  -38.43800 -38.43562  -2.20488  -2.20216  -2.20211
  Beta  occ. eigenvalues --   -2.19901  -2.19753  -2.19588  -2.19372  -1.14266
  Beta  occ. eigenvalues --   -1.14168  -1.14156  -1.13922  -1.13922  -1.13891
  Beta  occ. eigenvalues --   -1.13857  -1.13846  -1.13809  -1.13615  -1.13609
  Beta  occ. eigenvalues --   -1.13502  -1.13473  -1.13439  -1.13387  -1.13250
  Beta  occ. eigenvalues --   -1.13242  -1.13205  -1.13061  -1.13042  -1.12959
  Beta  occ. eigenvalues --   -0.16883  -0.13245  -0.11836
  Beta virt. eigenvalues --   -0.07563  -0.05755  -0.05234  -0.04839  -0.03146
  Beta virt. eigenvalues --   -0.02582  -0.02154  -0.01816  -0.00940  -0.00853
  Beta virt. eigenvalues --   -0.00557  -0.00269   0.00074   0.00381   0.00551

 Mulliken charges and spin densities:
               1          2
     1  Na  -0.365152   0.051735
     2  Na   0.886744   0.045594
     3  Na  -0.672017   0.178346
     4  Na   0.163113   0.112615
     5  Na   0.081544   0.065442
     6  Na  -0.069378  -0.069722
     7  Na  -0.024854   0.615992
 Sum of Mulliken charges =  -0.00000   1.00000

 Dipole moment (field-independent basis, Debye):
    X=              1.3330    Y=             -0.6775    Z=             -0.0223  Tot=              1.4954
 Quadrupole moment (field-independent basis, Debye-Ang):
   XX=            -69.1980   YY=            -63.0396   ZZ=            -68.0927
   XY=             -6.0922   XZ=             -2.3887   YZ=             -2.3884

 Normal termination of Gaussian 16 at Tue Nov 28 22:44:12 2023.
