 Gaussian 16, Revision B.01,
 Gaussian 16:  ES64L-G16RevB.01 20-Dec-2017

 -------------------------
 #P B3LYP/6-311+g(d) force
 -------------------------

 -----
 DPGEN
 -----
 Symbolic Z-matrix:
 Charge =  0 Multiplicity = 2

                         Standard orientation:
 ---------------------------------------------------------------------
 Center     Atomic      Atomic             Coordinates (Angstroms)
 Number     Number       Type             X           Y           Z
 ---------------------------------------------------------------------
      1         11           0        0.093726   -0.711547    1.972490
      2         11           0       -0.482068    2.090851   -0.418405
      3         11           0       -3.696633    1.075710    0.507122
      4         11           0        3.339818    1.421859    0.016912
      5         11           0       -2.933778   -1.815453   -0.596499
      6         11           0        3.122018   -1.510941    0.197549
      7         11           0        0.556917   -0.550479   -1.679170
 ---------------------------------------------------------------------

 SCF Done:  E(UB3LYP) =  -1136.10685289     A.U. after   35 cycles

 The electronic state is 2-A.
 Alpha  occ. eigenvalues --  -38.45653 -38.45409 -38.45191 -38.44504 -38.44332
 Alpha  occ. eigenvalues --  -38.43614 -38.42381  -2.21429  -2.21234  -2.21001
 Alpha  occ. eigenvalues --   -2.20302  -2.20218  -2.19549  -2.18248  -1.15129
 Alpha  occ. eigenvalues --   -1.15080  -1.15041  -1.14970  -1.14892  -1.14847
 Alpha  occ. eigenvalues --   -1.14686  -1.14650  -1.14635  -1.13975  -1.13958
 Alpha  occ. eigenvalues --   -1.13938  -1.13900  -1.13876  -1.13843  -1.13255
 Alpha  occ. eigenvalues --   -1.13186  -1.13134  -1.11969  -1.11922  -1.11843
 Alpha  occ. eigenvalues --   -0.18296  -0.14527  -0.10766  -0.10647
 Alpha virt. eigenvalues --   -0.07937  -0.06022  -0.04159  -0.03279  -0.02964
 Alpha virt. eigenvalues --   -0.02486  -0.02250  -0.01711  -0.00727  -0.00585
 Alpha virt. eigenvalues --   -0.00047   0.00140   0.00280   0.00499   0.00543

  Beta  occ. eigenvalues --  -38.45619 -38.45409 -38.45174 -38.44487 -38.44326
  Beta  occ. eigenvalues --  -38.43520 -38.42363  -2.21366  -2.21236  -2.20969
  Beta  occ. eigenvalues --   -2.20273  -2.20209  -2.19376  -2.18221  -1.15084
  Beta  occ. eigenvalues --   -1.15033  -1.14993  -1.14974  -1.14884  -1.14839
  Beta  occ. eigenvalues --   -1.14663  -1.14625  -1.14612  -1.13957  -1.13926
  Beta  occ. eigenvalues --   -1.13914  -1.13899  -1.13856  -1.13828  -1.13137
  Beta  occ. eigenvalues --   -1.13068  -1.13008  -1.11947  -1.11881  -1.11826
  Beta  occ. eigenvalues --   -0.17644  -0.14261  -0.10533
  Beta virt. eigenvalues --   -0.07700  -0.06988  -0.05882  -0.03562  -0.03091
  Beta virt. eigenvalues --   -0.02825  -0.01915  -0.01669  -0.01353  -0.00652
  Beta virt. eigenvalues --   -0.00318   0.00016   0.00147   0.00462   0.00588

 Mulliken charges and spin densities:
               1          2
     1  Na  -0.423967   0.256166
     2  Na  -0.238434  -0.056124
     3  Na   0.251865   0.158182
     4  Na  -0.107669  -0.025783
     5  Na   0.103321   0.021543
     6  Na   0.744950   0.180172
     7  Na  -0.330066   0.465844
 Sum of Mulliken charges =  -0.00000   1.00000

 Dipole moment (field-independent basis, Debye):
    X=              0.1299    Y=             -0.0485    Z=              0.3972  Tot=              0.4207
 Quadrupole moment (field-independent basis, Debye-Ang):
   XX=            -44.9257   YY=            -77.0142   ZZ=            -73.1076
   XY=              1.0753   XZ=             -0.9456   YZ=              2.8454

 Normal termination of Gaussian 16 at Fri Dec  8 04:24:31 2023.
