 Gaussian 16, Revision B.01,
 Gaussian 16:  ES64L-G16RevB.01 20-Dec-2017

 -------------------------
 #P B3LYP/6-311+g(d) force
 -------------------------

 -----
 DPGEN
 -----
 Symbolic Z-matrix:
 Charge =  0 Multiplicity = 2

                         Standard orientation:
 ---------------------------------------------------------------------
 Center     Atomic      Atomic             Coordinates (Angstroms)
 Number     Number       Type             X           Y           Z
 ---------------------------------------------------------------------
      1         11           0       -1.055380    2.428163   -0.066088
      2         11           0        2.163547   -1.737472   -0.017375
      3         11           0       -0.757140   -2.310614   -0.003669
      4         11           0        2.482424    1.625705    0.176432
      5         11           0       -0.048953    0.017263    1.912844
      6         11           0        0.510063    0.121302   -1.833416
      7         11           0       -3.294560   -0.144347   -0.168727
 ---------------------------------------------------------------------

 SCF Done:  E(UB3LYP) =  -1136.13264162     A.U. after   19 cycles

 The electronic state is 2-A.
 Alpha  occ. eigenvalues --  -38.44211 -38.43645 -38.43565 -38.43498 -38.43380
 Alpha  occ. eigenvalues --  -38.43221 -38.42856  -2.20032  -2.19553  -2.19534
 Alpha  occ. eigenvalues --   -2.19513  -2.19355  -2.19111  -2.18839  -1.13701
 Alpha  occ. eigenvalues --   -1.13692  -1.13680  -1.13300  -1.13252  -1.13224
 Alpha  occ. eigenvalues --   -1.13223  -1.13193  -1.13172  -1.13156  -1.13145
 Alpha  occ. eigenvalues --   -1.13097  -1.13054  -1.12984  -1.12971  -1.12796
 Alpha  occ. eigenvalues --   -1.12789  -1.12715  -1.12525  -1.12489  -1.12451
 Alpha  occ. eigenvalues --   -0.19500  -0.13274  -0.12513  -0.11193
 Alpha virt. eigenvalues --   -0.05740  -0.04878  -0.04152  -0.03339  -0.02996
 Alpha virt. eigenvalues --   -0.02703  -0.01582  -0.00866  -0.00050  -0.00003
 Alpha virt. eigenvalues --    0.00180   0.00346   0.00863   0.00949   0.00993

  Beta  occ. eigenvalues --  -38.44212 -38.43637 -38.43475 -38.43418 -38.43371
  Beta  occ. eigenvalues --  -38.43214 -38.42845  -2.20036  -2.19524  -2.19390
  Beta  occ. eigenvalues --   -2.19369  -2.19342  -2.19102  -2.18825  -1.13706
  Beta  occ. eigenvalues --   -1.13684  -1.13680  -1.13260  -1.13182  -1.13172
  Beta  occ. eigenvalues --   -1.13167  -1.13131  -1.13085  -1.13062  -1.13045
  Beta  occ. eigenvalues --   -1.13030  -1.13007  -1.12957  -1.12922  -1.12789
  Beta  occ. eigenvalues --   -1.12750  -1.12715  -1.12517  -1.12448  -1.12436
  Beta  occ. eigenvalues --   -0.18716  -0.13042  -0.12215
  Beta virt. eigenvalues --   -0.07198  -0.05682  -0.04881  -0.04162  -0.02541
  Beta virt. eigenvalues --   -0.02129  -0.01624  -0.01510  -0.00812  -0.00052
  Beta virt. eigenvalues --    0.00088   0.00139   0.00364   0.00910   0.00939

 Mulliken charges and spin densities:
               1          2
     1  Na   0.198772  -0.100742
     2  Na   0.545970   0.010809
     3  Na   0.321609  -0.008546
     4  Na   0.340510  -0.082908
     5  Na  -0.654712   0.644127
     6  Na  -0.619669   0.625076
     7  Na  -0.132480  -0.087817
 Sum of Mulliken charges =  -0.00000   1.00000

 Dipole moment (field-independent basis, Debye):
    X=             -0.1745    Y=              0.2893    Z=              0.0351  Tot=              0.3397
 Quadrupole moment (field-independent basis, Debye-Ang):
   XX=            -54.9407   YY=            -67.4143   ZZ=            -71.9434
   XY=              0.3643   XZ=              1.2914   YZ=              0.3166

 Normal termination of Gaussian 16 at Tue Dec  5 10:57:33 2023.
