 Gaussian 16, Revision B.01,
 Gaussian 16:  ES64L-G16RevB.01 20-Dec-2017

 -------------------------
 #P B3LYP/6-311+g(d) force
 -------------------------

 -----
 DPGEN
 -----
 Symbolic Z-matrix:
 Charge =  0 Multiplicity = 2

                         Standard orientation:
 ---------------------------------------------------------------------
 Center     Atomic      Atomic             Coordinates (Angstroms)
 Number     Number       Type             X           Y           Z
 ---------------------------------------------------------------------
      1         11           0        2.279008    2.638955   -0.723999
      2         11           0        0.454531   -0.783802    1.773078
      3         11           0       -1.419827    1.231750   -0.395983
      4         11           0        4.231738   -0.517589    0.817239
      5         11           0       -4.354705    1.233337    0.551495
      6         11           0        1.498386   -1.569851   -1.483422
      7         11           0       -2.689132   -2.232800   -0.538408
 ---------------------------------------------------------------------

 SCF Done:  E(UB3LYP) =  -1136.10731407     A.U. after   31 cycles

 The electronic state is 2-A.
 Alpha  occ. eigenvalues --  -38.46533 -38.45104 -38.45002 -38.44038 -38.43815
 Alpha  occ. eigenvalues --  -38.43622 -38.43223  -2.22305  -2.20872  -2.20738
 Alpha  occ. eigenvalues --   -2.19842  -2.19577  -2.19453  -2.19099  -1.15995
 Alpha  occ. eigenvalues --   -1.15954  -1.15916  -1.14555  -1.14547  -1.14499
 Alpha  occ. eigenvalues --   -1.14444  -1.14397  -1.14369  -1.13506  -1.13475
 Alpha  occ. eigenvalues --   -1.13456  -1.13251  -1.13218  -1.13209  -1.13149
 Alpha  occ. eigenvalues --   -1.13096  -1.13072  -1.12823  -1.12755  -1.12706
 Alpha  occ. eigenvalues --   -0.17270  -0.13991  -0.11107  -0.10328
 Alpha virt. eigenvalues --   -0.07423  -0.06201  -0.04492  -0.03290  -0.03061
 Alpha virt. eigenvalues --   -0.02249  -0.01960  -0.01817  -0.01361  -0.00941
 Alpha virt. eigenvalues --   -0.00386  -0.00029   0.00144   0.00431   0.00458

  Beta  occ. eigenvalues --  -38.46516 -38.45105 -38.45020 -38.43954 -38.43772
  Beta  occ. eigenvalues --  -38.43570 -38.43214  -2.22273  -2.20878  -2.20775
  Beta  occ. eigenvalues --   -2.19686  -2.19498  -2.19355  -2.19088  -1.15964
  Beta  occ. eigenvalues --   -1.15939  -1.15888  -1.14553  -1.14540  -1.14499
  Beta  occ. eigenvalues --   -1.14469  -1.14424  -1.14382  -1.13400  -1.13363
  Beta  occ. eigenvalues --   -1.13355  -1.13199  -1.13160  -1.13150  -1.13090
  Beta  occ. eigenvalues --   -1.13028  -1.13005  -1.12822  -1.12738  -1.12671
  Beta  occ. eigenvalues --   -0.16782  -0.13394  -0.10718
  Beta virt. eigenvalues --   -0.07314  -0.06914  -0.06223  -0.03806  -0.03030
  Beta virt. eigenvalues --   -0.02794  -0.02042  -0.01738  -0.01662  -0.00869
  Beta virt. eigenvalues --   -0.00592  -0.00160   0.00057   0.00252   0.00524

 Mulliken charges and spin densities:
               1          2
     1  Na  -0.040536   0.118483
     2  Na   0.191971  -0.019294
     3  Na  -1.554830   0.020984
     4  Na   0.072884   0.535809
     5  Na   0.944285   0.384423
     6  Na   0.076807   0.009892
     7  Na   0.309419  -0.050298
 Sum of Mulliken charges =  -0.00000   1.00000

 Dipole moment (field-independent basis, Debye):
    X=             -0.1304    Y=             -1.4436    Z=              0.0859  Tot=              1.4521
 Quadrupole moment (field-independent basis, Debye-Ang):
   XX=            -65.1009   YY=            -75.9642   ZZ=            -63.1971
   XY=              5.6052   XZ=             -3.2075   YZ=              3.0746

 Normal termination of Gaussian 16 at Sun Dec  3 17:47:43 2023.
