 Gaussian 16, Revision B.01,
 Gaussian 16:  ES64L-G16RevB.01 20-Dec-2017

 -------------------------
 #P B3LYP/6-311+g(d) force
 -------------------------

 -----
 DPGEN
 -----
 Symbolic Z-matrix:
 Charge =  0 Multiplicity = 2

                         Standard orientation:
 ---------------------------------------------------------------------
 Center     Atomic      Atomic             Coordinates (Angstroms)
 Number     Number       Type             X           Y           Z
 ---------------------------------------------------------------------
      1         11           0        2.390712   -0.891343   -1.062226
      2         11           0        5.458721   -1.143989    0.976525
      3         11           0        3.571338    2.170821    0.082704
      4         11           0       -0.095652    1.437752   -0.276293
      5         11           0       -1.097963   -1.647098    0.095067
      6         11           0       -3.978753   -0.258417   -0.818370
      7         11           0       -6.248403    0.332274    1.002593
 ---------------------------------------------------------------------

 SCF Done:  E(UB3LYP) =  -1136.11613428     A.U. after   20 cycles

 The electronic state is 2-A.
 Alpha  occ. eigenvalues --  -38.44876 -38.44474 -38.44388 -38.44304 -38.44039
 Alpha  occ. eigenvalues --  -38.43581 -38.43522  -2.20701  -2.20282  -2.20234
 Alpha  occ. eigenvalues --   -2.20077  -2.19897  -2.19397  -2.19378  -1.14408
 Alpha  occ. eigenvalues --   -1.14394  -1.14294  -1.13962  -1.13944  -1.13924
 Alpha  occ. eigenvalues --   -1.13898  -1.13885  -1.13854  -1.13740  -1.13734
 Alpha  occ. eigenvalues --   -1.13685  -1.13568  -1.13553  -1.13511  -1.13206
 Alpha  occ. eigenvalues --   -1.13068  -1.13049  -1.13024  -1.13015  -1.12919
 Alpha  occ. eigenvalues --   -0.16935  -0.14270  -0.11681  -0.11003
 Alpha virt. eigenvalues --   -0.06585  -0.05533  -0.04901  -0.03104  -0.02952
 Alpha virt. eigenvalues --   -0.02725  -0.02367  -0.01054  -0.00945  -0.00848
 Alpha virt. eigenvalues --   -0.00399  -0.00306   0.00010   0.00284   0.00580

  Beta  occ. eigenvalues --  -38.44860 -38.44422 -38.44357 -38.44255 -38.44009
  Beta  occ. eigenvalues --  -38.43581 -38.43521  -2.20676  -2.20188  -2.20179
  Beta  occ. eigenvalues --   -2.19985  -2.19840  -2.19395  -2.19377  -1.14384
  Beta  occ. eigenvalues --   -1.14356  -1.14278  -1.13901  -1.13891  -1.13881
  Beta  occ. eigenvalues --   -1.13865  -1.13802  -1.13783  -1.13677  -1.13666
  Beta  occ. eigenvalues --   -1.13629  -1.13528  -1.13512  -1.13475  -1.13205
  Beta  occ. eigenvalues --   -1.13064  -1.13049  -1.13022  -1.13014  -1.12918
  Beta  occ. eigenvalues --   -0.16368  -0.13986  -0.11395
  Beta virt. eigenvalues --   -0.07411  -0.06317  -0.04978  -0.04765  -0.02847
  Beta virt. eigenvalues --   -0.02784  -0.02151  -0.01992  -0.00967  -0.00786
  Beta virt. eigenvalues --   -0.00561  -0.00173  -0.00020   0.00168   0.00370

 Mulliken charges and spin densities:
               1          2
     1  Na  -0.036155   0.149884
     2  Na   0.125045   0.188491
     3  Na   0.348681  -0.015638
     4  Na  -0.499642   0.410010
     5  Na  -0.064411   0.183813
     6  Na   0.219276   0.073756
     7  Na  -0.092795   0.009683
 Sum of Mulliken charges =  -0.00000   1.00000

 Dipole moment (field-independent basis, Debye):
    X=              1.2898    Y=              0.0533    Z=              0.3942  Tot=              1.3497
 Quadrupole moment (field-independent basis, Debye-Ang):
   XX=            -70.2319   YY=            -67.2683   ZZ=            -66.8955
   XY=             -0.2609   XZ=             -0.8820   YZ=              0.4212

 Normal termination of Gaussian 16 at Tue Nov 28 23:07:43 2023.
