 Gaussian 16, Revision B.01,
 Gaussian 16:  ES64L-G16RevB.01 20-Dec-2017

 -------------------------
 #P B3LYP/6-311+g(d) force
 -------------------------

 -----
 DPGEN
 -----
 Symbolic Z-matrix:
 Charge =  0 Multiplicity = 2

                         Standard orientation:
 ---------------------------------------------------------------------
 Center     Atomic      Atomic             Coordinates (Angstroms)
 Number     Number       Type             X           Y           Z
 ---------------------------------------------------------------------
      1         11           0       -2.454664    2.234831    0.149534
      2         11           0        2.284127    2.535224   -0.524815
      3         11           0       -3.096265   -0.998752   -0.386276
      4         11           0        0.187042   -0.139581    2.387606
      5         11           0       -0.100089    0.110253   -1.225204
      6         11           0        0.277099   -2.857098   -0.367196
      7         11           0        2.902749   -0.884877   -0.033649
 ---------------------------------------------------------------------

 SCF Done:  E(UB3LYP) =  -1136.13100108     A.U. after   20 cycles

 The electronic state is 2-A.
 Alpha  occ. eigenvalues --  -38.44263 -38.44243 -38.44087 -38.44038 -38.43609
 Alpha  occ. eigenvalues --  -38.43041 -38.42976  -2.20093  -2.20043  -2.19952
 Alpha  occ. eigenvalues --   -2.19871  -2.19402  -2.19057  -2.18854  -1.13787
 Alpha  occ. eigenvalues --   -1.13762  -1.13738  -1.13711  -1.13697  -1.13660
 Alpha  occ. eigenvalues --   -1.13641  -1.13622  -1.13582  -1.13518  -1.13494
 Alpha  occ. eigenvalues --   -1.13480  -1.13076  -1.13050  -1.13049  -1.12781
 Alpha  occ. eigenvalues --   -1.12738  -1.12683  -1.12523  -1.12494  -1.12484
 Alpha  occ. eigenvalues --   -0.18269  -0.13349  -0.11942  -0.10743
 Alpha virt. eigenvalues --   -0.05821  -0.05634  -0.04505  -0.03204  -0.02734
 Alpha virt. eigenvalues --   -0.02485  -0.01750  -0.01293  -0.00726  -0.00396
 Alpha virt. eigenvalues --   -0.00063   0.00302   0.00695   0.00777   0.00861

  Beta  occ. eigenvalues --  -38.44257 -38.44243 -38.44082 -38.43918 -38.43601
  Beta  occ. eigenvalues --  -38.43007 -38.42969  -2.20083  -2.20044  -2.19947
  Beta  occ. eigenvalues --   -2.19648  -2.19388  -2.18997  -2.18844  -1.13781
  Beta  occ. eigenvalues --   -1.13744  -1.13734  -1.13708  -1.13689  -1.13660
  Beta  occ. eigenvalues --   -1.13638  -1.13599  -1.13576  -1.13368  -1.13342
  Beta  occ. eigenvalues --   -1.13323  -1.13059  -1.13042  -1.13037  -1.12744
  Beta  occ. eigenvalues --   -1.12682  -1.12640  -1.12509  -1.12483  -1.12465
  Beta  occ. eigenvalues --   -0.17596  -0.13167  -0.11726
  Beta virt. eigenvalues --   -0.06755  -0.05720  -0.05558  -0.04457  -0.02511
  Beta virt. eigenvalues --   -0.01891  -0.01655  -0.01577  -0.01201  -0.00727
  Beta virt. eigenvalues --   -0.00422   0.00141   0.00359   0.00782   0.00794

 Mulliken charges and spin densities:
               1          2
     1  Na   0.065507   0.084189
     2  Na   0.077212   0.086918
     3  Na   0.277352   0.033162
     4  Na  -0.594706   0.715351
     5  Na  -0.457334  -0.119057
     6  Na   0.164330   0.076658
     7  Na   0.467639   0.122778
 Sum of Mulliken charges =  -0.00000   1.00000

 Dipole moment (field-independent basis, Debye):
    X=             -0.4143    Y=              0.1131    Z=              0.2650  Tot=              0.5046
 Quadrupole moment (field-independent basis, Debye-Ang):
   XX=            -55.2492   YY=            -62.7414   ZZ=            -75.3632
   XY=             -0.7850   XZ=             -0.0857   YZ=              0.6099

 Normal termination of Gaussian 16 at Tue Dec  5 16:35:18 2023.
