 Gaussian 16, Revision B.01,
 Gaussian 16:  ES64L-G16RevB.01 20-Dec-2017

 -------------------------
 #P B3LYP/6-311+g(d) force
 -------------------------

 -----
 DPGEN
 -----
 Symbolic Z-matrix:
 Charge =  0 Multiplicity = 2

                         Standard orientation:
 ---------------------------------------------------------------------
 Center     Atomic      Atomic             Coordinates (Angstroms)
 Number     Number       Type             X           Y           Z
 ---------------------------------------------------------------------
      1         11           0       -0.058700    1.073111   -0.515576
      2         11           0       -2.593766    3.633886    0.435985
      3         11           0       -3.044366    0.577162   -0.277898
      4         11           0       -0.339376   -2.213001    1.387680
      5         11           0        2.998493   -0.998014    0.125885
      6         11           0       -2.420763   -3.147922   -0.845062
      7         11           0        5.458478    1.074780   -0.311014
 ---------------------------------------------------------------------

 SCF Done:  E(UB3LYP) =  -1136.11909239     A.U. after   21 cycles

 The electronic state is 2-A.
 Alpha  occ. eigenvalues --  -38.45171 -38.44993 -38.44458 -38.44173 -38.43637
 Alpha  occ. eigenvalues --  -38.43426 -38.42985  -2.21010  -2.20798  -2.20348
 Alpha  occ. eigenvalues --   -2.20007  -2.19459  -2.19240  -2.18804  -1.14743
 Alpha  occ. eigenvalues --   -1.14697  -1.14587  -1.14482  -1.14457  -1.14423
 Alpha  occ. eigenvalues --   -1.14071  -1.14021  -1.13908  -1.13698  -1.13666
 Alpha  occ. eigenvalues --   -1.13640  -1.13117  -1.13108  -1.13085  -1.12884
 Alpha  occ. eigenvalues --   -1.12875  -1.12867  -1.12492  -1.12479  -1.12447
 Alpha  occ. eigenvalues --   -0.17170  -0.13690  -0.12781  -0.10242
 Alpha virt. eigenvalues --   -0.06694  -0.05387  -0.04843  -0.03410  -0.02742
 Alpha virt. eigenvalues --   -0.02348  -0.02202  -0.01730  -0.01073  -0.00527
 Alpha virt. eigenvalues --   -0.00358  -0.00212   0.00394   0.00501   0.00551

  Beta  occ. eigenvalues --  -38.45146 -38.44993 -38.44440 -38.44153 -38.43598
  Beta  occ. eigenvalues --  -38.43337 -38.42984  -2.20964  -2.20798  -2.20316
  Beta  occ. eigenvalues --   -2.19972  -2.19386  -2.19073  -2.18810  -1.14721
  Beta  occ. eigenvalues --   -1.14662  -1.14547  -1.14480  -1.14457  -1.14422
  Beta  occ. eigenvalues --   -1.14047  -1.13997  -1.13879  -1.13677  -1.13647
  Beta  occ. eigenvalues --   -1.13590  -1.13069  -1.13056  -1.13033  -1.12775
  Beta  occ. eigenvalues --   -1.12761  -1.12756  -1.12504  -1.12491  -1.12389
  Beta  occ. eigenvalues --   -0.16729  -0.13305  -0.12169
  Beta virt. eigenvalues --   -0.06890  -0.06556  -0.05112  -0.04436  -0.03093
  Beta virt. eigenvalues --   -0.02513  -0.02198  -0.01942  -0.01440  -0.00830
  Beta virt. eigenvalues --   -0.00182  -0.00141   0.00060   0.00463   0.00592

 Mulliken charges and spin densities:
               1          2
     1  Na  -1.143900  -0.145061
     2  Na   0.730182  -0.042959
     3  Na   0.092816   0.371449
     4  Na   0.191243   0.079305
     5  Na  -0.412810   0.163930
     6  Na   0.244130   0.225614
     7  Na   0.298339   0.347721
 Sum of Mulliken charges =  -0.00000   1.00000

 Dipole moment (field-independent basis, Debye):
    X=             -2.1444    Y=              1.3528    Z=              0.4916  Tot=              2.5826
 Quadrupole moment (field-independent basis, Debye-Ang):
   XX=            -77.2548   YY=            -56.3695   ZZ=            -68.2725
   XY=             -5.7372   XZ=             -1.1064   YZ=              1.0782

 Normal termination of Gaussian 16 at Wed Nov 29 01:45:30 2023.
