 Gaussian 16, Revision B.01,
 Gaussian 16:  ES64L-G16RevB.01 20-Dec-2017

 -------------------------
 #P B3LYP/6-311+g(d) force
 -------------------------

 -----
 DPGEN
 -----
 Symbolic Z-matrix:
 Charge =  0 Multiplicity = 2

                         Standard orientation:
 ---------------------------------------------------------------------
 Center     Atomic      Atomic             Coordinates (Angstroms)
 Number     Number       Type             X           Y           Z
 ---------------------------------------------------------------------
      1         11           0       -1.482481    2.204951   -0.333537
      2         11           0        2.292638    1.455853   -0.698455
      3         11           0       -0.375648   -2.060610    0.870786
      4         11           0        2.612393   -1.391890   -0.061079
      5         11           0       -3.292404   -0.639567   -0.097466
      6         11           0        0.465522    1.141181    1.958984
      7         11           0       -0.220021   -0.709919   -1.639234
 ---------------------------------------------------------------------

 SCF Done:  E(UB3LYP) =  -1136.12821394     A.U. after   21 cycles

 The electronic state is 2-A.
 Alpha  occ. eigenvalues --  -38.44395 -38.43770 -38.43753 -38.43591 -38.43500
 Alpha  occ. eigenvalues --  -38.43200 -38.43059  -2.20234  -2.19708  -2.19682
 Alpha  occ. eigenvalues --   -2.19613  -2.19424  -2.19081  -2.19038  -1.13903
 Alpha  occ. eigenvalues --   -1.13891  -1.13883  -1.13558  -1.13431  -1.13371
 Alpha  occ. eigenvalues --   -1.13365  -1.13328  -1.13313  -1.13246  -1.13230
 Alpha  occ. eigenvalues --   -1.13190  -1.13099  -1.13056  -1.13047  -1.12757
 Alpha  occ. eigenvalues --   -1.12754  -1.12720  -1.12696  -1.12665  -1.12634
 Alpha  occ. eigenvalues --   -0.19343  -0.13635  -0.12075  -0.11313
 Alpha virt. eigenvalues --   -0.06001  -0.04951  -0.03750  -0.03532  -0.03169
 Alpha virt. eigenvalues --   -0.02606  -0.01828  -0.00768  -0.00143   0.00051
 Alpha virt. eigenvalues --    0.00239   0.00371   0.00792   0.00905   0.00951

  Beta  occ. eigenvalues --  -38.44395 -38.43750 -38.43746 -38.43539 -38.43424
  Beta  occ. eigenvalues --  -38.43193 -38.43028  -2.20236  -2.19690  -2.19660
  Beta  occ. eigenvalues --   -2.19518  -2.19284  -2.19071  -2.18982  -1.13893
  Beta  occ. eigenvalues --   -1.13890  -1.13885  -1.13544  -1.13394  -1.13330
  Beta  occ. eigenvalues --   -1.13319  -1.13306  -1.13275  -1.13216  -1.13183
  Beta  occ. eigenvalues --   -1.13121  -1.13012  -1.12960  -1.12943  -1.12750
  Beta  occ. eigenvalues --   -1.12721  -1.12690  -1.12683  -1.12604  -1.12592
  Beta  occ. eigenvalues --   -0.18571  -0.13378  -0.11892
  Beta virt. eigenvalues --   -0.07274  -0.05912  -0.04939  -0.03623  -0.02845
  Beta virt. eigenvalues --   -0.02432  -0.01752  -0.01520  -0.00738   0.00032
  Beta virt. eigenvalues --    0.00075   0.00234   0.00396   0.00868   0.00917

 Mulliken charges and spin densities:
               1          2
     1  Na   0.208291   0.004340
     2  Na   0.361904   0.066022
     3  Na   0.468914   0.379231
     4  Na   0.328554   0.032683
     5  Na   0.121581  -0.088145
     6  Na  -0.668347   0.292996
     7  Na  -0.820898   0.312874
 Sum of Mulliken charges =  -0.00000   1.00000

 Dipole moment (field-independent basis, Debye):
    X=             -0.3692    Y=              0.0493    Z=              0.0407  Tot=              0.3747
 Quadrupole moment (field-independent basis, Debye-Ang):
   XX=            -53.3775   YY=            -71.1115   ZZ=            -70.1453
   XY=              0.0378   XZ=             -0.5489   YZ=             -2.0588

 Normal termination of Gaussian 16 at Tue Dec  5 17:59:02 2023.
