 Gaussian 16, Revision B.01,
 Gaussian 16:  ES64L-G16RevB.01 20-Dec-2017

 -------------------------
 #P B3LYP/6-311+g(d) force
 -------------------------

 -----
 DPGEN
 -----
 Symbolic Z-matrix:
 Charge =  0 Multiplicity = 2

                         Standard orientation:
 ---------------------------------------------------------------------
 Center     Atomic      Atomic             Coordinates (Angstroms)
 Number     Number       Type             X           Y           Z
 ---------------------------------------------------------------------
      1         11           0        0.547240   -0.310967   -1.662477
      2         11           0       -3.220443   -0.310257   -0.428069
      3         11           0        3.595332   -1.117232    0.066685
      4         11           0        0.071425   -0.236143    2.005091
      5         11           0       -1.579937    2.571495    0.238718
      6         11           0        1.690815    2.364107   -0.256694
      7         11           0       -1.104432   -2.961003    0.036747
 ---------------------------------------------------------------------

 SCF Done:  E(UB3LYP) =  -1136.13120552     A.U. after   20 cycles

 The electronic state is 2-A.
 Alpha  occ. eigenvalues --  -38.45008 -38.44297 -38.43861 -38.43753 -38.43568
 Alpha  occ. eigenvalues --  -38.43521 -38.43151  -2.20752  -2.20110  -2.19711
 Alpha  occ. eigenvalues --   -2.19569  -2.19463  -2.19383  -2.18994  -1.14429
 Alpha  occ. eigenvalues --   -1.14412  -1.14389  -1.13778  -1.13775  -1.13753
 Alpha  occ. eigenvalues --   -1.13432  -1.13373  -1.13330  -1.13243  -1.13239
 Alpha  occ. eigenvalues --   -1.13209  -1.13151  -1.13108  -1.13068  -1.13050
 Alpha  occ. eigenvalues --   -1.13006  -1.13001  -1.12660  -1.12653  -1.12649
 Alpha  occ. eigenvalues --   -0.18077  -0.13027  -0.12237  -0.10423
 Alpha virt. eigenvalues --   -0.06536  -0.05212  -0.04607  -0.03187  -0.02788
 Alpha virt. eigenvalues --   -0.02460  -0.02093  -0.01204  -0.00735  -0.00355
 Alpha virt. eigenvalues --   -0.00057   0.00283   0.00682   0.00722   0.00775

  Beta  occ. eigenvalues --  -38.45013 -38.44287 -38.43853 -38.43749 -38.43512
  Beta  occ. eigenvalues --  -38.43423 -38.43147  -2.20763  -2.20093  -2.19700
  Beta  occ. eigenvalues --   -2.19566  -2.19361  -2.19203  -2.18990  -1.14430
  Beta  occ. eigenvalues --   -1.14413  -1.14397  -1.13767  -1.13749  -1.13744
  Beta  occ. eigenvalues --   -1.13417  -1.13345  -1.13328  -1.13241  -1.13221
  Beta  occ. eigenvalues --   -1.13201  -1.13080  -1.13035  -1.12994  -1.12930
  Beta  occ. eigenvalues --   -1.12880  -1.12872  -1.12661  -1.12650  -1.12626
  Beta  occ. eigenvalues --   -0.17368  -0.12822  -0.12044
  Beta virt. eigenvalues --   -0.06578  -0.06487  -0.05128  -0.04572  -0.02488
  Beta virt. eigenvalues --   -0.02052  -0.02048  -0.01387  -0.01115  -0.00780
  Beta virt. eigenvalues --   -0.00369   0.00096   0.00320   0.00722   0.00810

 Mulliken charges and spin densities:
               1          2
     1  Na   0.037490   0.362703
     2  Na   0.008367   0.071072
     3  Na   0.030051  -0.108387
     4  Na  -0.262108   0.708511
     5  Na  -0.027026   0.018254
     6  Na   0.107169  -0.015743
     7  Na   0.106058  -0.036409
 Sum of Mulliken charges =  -0.00000   1.00000

 Dipole moment (field-independent basis, Debye):
    X=              0.6000    Y=             -0.4291    Z=              0.0157  Tot=              0.7378
 Quadrupole moment (field-independent basis, Debye-Ang):
   XX=            -53.0320   YY=            -63.5049   ZZ=            -76.1687
   XY=             -0.9912   XZ=              1.3419   YZ=             -0.1630

 Normal termination of Gaussian 16 at Fri Dec  8 06:23:09 2023.
