 Gaussian 16, Revision B.01,
 Gaussian 16:  ES64L-G16RevB.01 20-Dec-2017

 -------------------------
 #P B3LYP/6-311+g(d) force
 -------------------------

 -----
 DPGEN
 -----
 Symbolic Z-matrix:
 Charge =  0 Multiplicity = 2

                         Standard orientation:
 ---------------------------------------------------------------------
 Center     Atomic      Atomic             Coordinates (Angstroms)
 Number     Number       Type             X           Y           Z
 ---------------------------------------------------------------------
      1         11           0        3.173299   -0.371852   -0.116227
      2         11           0       -2.355239    1.770344   -0.154964
      3         11           0        0.546205   -2.643486    0.003212
      4         11           0        0.026203   -0.104651   -1.635062
      5         11           0       -2.628700   -1.398735   -0.090414
      6         11           0        1.220451    2.553056   -0.189732
      7         11           0        0.017783    0.195324    2.183187
 ---------------------------------------------------------------------

 SCF Done:  E(UB3LYP) =  -1136.13833932     A.U. after   18 cycles

 The electronic state is 2-A.
 Alpha  occ. eigenvalues --  -38.44131 -38.43824 -38.43602 -38.43556 -38.43248
 Alpha  occ. eigenvalues --  -38.43207 -38.43012  -2.19960  -2.19703  -2.19489
 Alpha  occ. eigenvalues --   -2.19429  -2.19236  -2.19113  -2.18915  -1.13632
 Alpha  occ. eigenvalues --   -1.13617  -1.13606  -1.13363  -1.13328  -1.13322
 Alpha  occ. eigenvalues --   -1.13220  -1.13159  -1.13139  -1.13102  -1.13075
 Alpha  occ. eigenvalues --   -1.13039  -1.12950  -1.12920  -1.12850  -1.12778
 Alpha  occ. eigenvalues --   -1.12772  -1.12732  -1.12595  -1.12569  -1.12528
 Alpha  occ. eigenvalues --   -0.18977  -0.13167  -0.12392  -0.11031
 Alpha virt. eigenvalues --   -0.05668  -0.05002  -0.04387  -0.03255  -0.02954
 Alpha virt. eigenvalues --   -0.02784  -0.01564  -0.00944  -0.00182  -0.00104
 Alpha virt. eigenvalues --   -0.00039   0.00361   0.00806   0.00927   0.00945

  Beta  occ. eigenvalues --  -38.44130 -38.43720 -38.43598 -38.43550 -38.43242
  Beta  occ. eigenvalues --  -38.43144 -38.43006  -2.19959  -2.19511  -2.19484
  Beta  occ. eigenvalues --   -2.19423  -2.19122  -2.19105  -2.18907  -1.13622
  Beta  occ. eigenvalues --   -1.13610  -1.13606  -1.13240  -1.13218  -1.13191
  Beta  occ. eigenvalues --   -1.13186  -1.13153  -1.13114  -1.13088  -1.13055
  Beta  occ. eigenvalues --   -1.13039  -1.12877  -1.12862  -1.12776  -1.12753
  Beta  occ. eigenvalues --   -1.12735  -1.12728  -1.12581  -1.12534  -1.12528
  Beta  occ. eigenvalues --   -0.18227  -0.12940  -0.12143
  Beta virt. eigenvalues --   -0.07042  -0.05637  -0.05018  -0.04361  -0.02455
  Beta virt. eigenvalues --   -0.02107  -0.01689  -0.01481  -0.00887  -0.00242
  Beta virt. eigenvalues --   -0.00156   0.00113   0.00381   0.00868   0.00911

 Mulliken charges and spin densities:
               1          2
     1  Na   0.166698  -0.045699
     2  Na   0.273389  -0.017944
     3  Na   0.298855   0.012114
     4  Na  -0.471281   0.334621
     5  Na   0.257275   0.016721
     6  Na   0.222654  -0.056789
     7  Na  -0.747591   0.756976
 Sum of Mulliken charges =  -0.00000   1.00000

 Dipole moment (field-independent basis, Debye):
    X=              0.1994    Y=              0.0813    Z=              0.2387  Tot=              0.3214
 Quadrupole moment (field-independent basis, Debye-Ang):
   XX=            -55.8379   YY=            -65.2796   ZZ=            -72.9120
   XY=             -0.0838   XZ=              0.0248   YZ=             -0.6275

 Normal termination of Gaussian 16 at Fri Dec  8 02:44:24 2023.
