 Gaussian 16, Revision B.01,
 Gaussian 16:  ES64L-G16RevB.01 20-Dec-2017

 -------------------------
 #P B3LYP/6-311+g(d) force
 -------------------------

 -----
 DPGEN
 -----
 Symbolic Z-matrix:
 Charge =  0 Multiplicity = 2

                         Standard orientation:
 ---------------------------------------------------------------------
 Center     Atomic      Atomic             Coordinates (Angstroms)
 Number     Number       Type             X           Y           Z
 ---------------------------------------------------------------------
      1         11           0       -3.394287   -1.693705   -1.201508
      2         11           0        2.621322   -1.542218    2.176648
      3         11           0        4.581718    0.310707   -0.255981
      4         11           0       -3.937288    0.167644    1.280884
      5         11           0        0.441809   -1.676774   -1.228354
      6         11           0        1.236839    1.846020   -1.514709
      7         11           0       -1.550112    2.588327    0.743020
 ---------------------------------------------------------------------

 SCF Done:  E(UB3LYP) =  -1136.10417198     A.U. after   29 cycles

 The electronic state is 2-A.
 Alpha  occ. eigenvalues --  -38.46156 -38.45078 -38.45050 -38.44190 -38.44178
 Alpha  occ. eigenvalues --  -38.43630 -38.43305  -2.21890  -2.20859  -2.20813
 Alpha  occ. eigenvalues --   -2.20006  -2.19970  -2.19392  -2.19101  -1.15572
 Alpha  occ. eigenvalues --   -1.15541  -1.15521  -1.14531  -1.14518  -1.14473
 Alpha  occ. eigenvalues --   -1.14466  -1.14454  -1.14426  -1.13741  -1.13665
 Alpha  occ. eigenvalues --   -1.13653  -1.13635  -1.13619  -1.13571  -1.13085
 Alpha  occ. eigenvalues --   -1.13065  -1.13031  -1.12781  -1.12762  -1.12718
 Alpha  occ. eigenvalues --   -0.16317  -0.14012  -0.11334  -0.11150
 Alpha virt. eigenvalues --   -0.07640  -0.05339  -0.04724  -0.03599  -0.03066
 Alpha virt. eigenvalues --   -0.02625  -0.02298  -0.01537  -0.01243  -0.00499
 Alpha virt. eigenvalues --   -0.00212  -0.00110  -0.00061   0.00297   0.00501

  Beta  occ. eigenvalues --  -38.46144 -38.44994 -38.44993 -38.44205 -38.44145
  Beta  occ. eigenvalues --  -38.43643 -38.43272  -2.21869  -2.20710  -2.20703
  Beta  occ. eigenvalues --   -2.20000  -2.19942  -2.19416  -2.19040  -1.15559
  Beta  occ. eigenvalues --   -1.15517  -1.15500  -1.14429  -1.14403  -1.14401
  Beta  occ. eigenvalues --   -1.14388  -1.14358  -1.14342  -1.13738  -1.13665
  Beta  occ. eigenvalues --   -1.13634  -1.13612  -1.13602  -1.13556  -1.13103
  Beta  occ. eigenvalues --   -1.13084  -1.13034  -1.12731  -1.12720  -1.12689
  Beta  occ. eigenvalues --   -0.15621  -0.13633  -0.11088
  Beta virt. eigenvalues --   -0.07780  -0.07383  -0.04881  -0.04232  -0.03280
  Beta virt. eigenvalues --   -0.02816  -0.02473  -0.01846  -0.01257  -0.01012
  Beta virt. eigenvalues --   -0.00331  -0.00131  -0.00079   0.00099   0.00455

 Mulliken charges and spin densities:
               1          2
     1  Na   0.249335  -0.125276
     2  Na   0.141326   0.233863
     3  Na   0.217997   0.108355
     4  Na  -0.070719   0.108313
     5  Na  -0.436374   0.586081
     6  Na   0.056266   0.071263
     7  Na  -0.157832   0.017401
 Sum of Mulliken charges =  -0.00000   1.00000

 Dipole moment (field-independent basis, Debye):
    X=              1.5331    Y=             -0.4342    Z=              0.2537  Tot=              1.6135
 Quadrupole moment (field-independent basis, Debye-Ang):
   XX=            -55.5348   YY=            -76.8990   ZZ=            -66.6548
   XY=              4.0975   XZ=             -4.5282   YZ=              0.4866

 Normal termination of Gaussian 16 at Mon Dec  4 00:42:32 2023.
