 Gaussian 16, Revision B.01,
 Gaussian 16:  ES64L-G16RevB.01 20-Dec-2017

 -------------------------
 #P B3LYP/6-311+g(d) force
 -------------------------

 -----
 DPGEN
 -----
 Symbolic Z-matrix:
 Charge =  0 Multiplicity = 2

                         Standard orientation:
 ---------------------------------------------------------------------
 Center     Atomic      Atomic             Coordinates (Angstroms)
 Number     Number       Type             X           Y           Z
 ---------------------------------------------------------------------
      1         11           0       -4.227409    0.451510   -0.814132
      2         11           0       -1.175147    2.095796    0.947468
      3         11           0        0.759171   -2.263391   -1.300863
      4         11           0        2.129622   -0.627185    1.838218
      5         11           0        1.124469    2.559061   -0.697628
      6         11           0        3.622118   -0.068233   -0.753344
      7         11           0       -2.232823   -2.147558    0.780280
 ---------------------------------------------------------------------

 SCF Done:  E(UB3LYP) =  -1136.10970340     A.U. after   24 cycles

 The electronic state is 2-A.
 Alpha  occ. eigenvalues --  -38.45329 -38.45162 -38.44672 -38.44219 -38.43972
 Alpha  occ. eigenvalues --  -38.43887 -38.43496  -2.21145  -2.20921  -2.20443
 Alpha  occ. eigenvalues --   -2.19979  -2.19815  -2.19763  -2.19337  -1.14850
 Alpha  occ. eigenvalues --   -1.14790  -1.14769  -1.14612  -1.14583  -1.14547
 Alpha  occ. eigenvalues --   -1.14103  -1.14084  -1.14066  -1.13661  -1.13648
 Alpha  occ. eigenvalues --   -1.13615  -1.13612  -1.13469  -1.13451  -1.13437
 Alpha  occ. eigenvalues --   -1.13393  -1.13371  -1.13016  -1.12970  -1.12947
 Alpha  occ. eigenvalues --   -0.17153  -0.13690  -0.12128  -0.10060
 Alpha virt. eigenvalues --   -0.07461  -0.05737  -0.04340  -0.03685  -0.02875
 Alpha virt. eigenvalues --   -0.02525  -0.02120  -0.01511  -0.01017  -0.00640
 Alpha virt. eigenvalues --   -0.00310   0.00138   0.00175   0.00471   0.00598

  Beta  occ. eigenvalues --  -38.45300 -38.45155 -38.44611 -38.44218 -38.43969
  Beta  occ. eigenvalues --  -38.43841 -38.43483  -2.21092  -2.20912  -2.20328
  Beta  occ. eigenvalues --   -2.19978  -2.19811  -2.19679  -2.19315  -1.14802
  Beta  occ. eigenvalues --   -1.14751  -1.14730  -1.14608  -1.14567  -1.14534
  Beta  occ. eigenvalues --   -1.14024  -1.14005  -1.13991  -1.13664  -1.13647
  Beta  occ. eigenvalues --   -1.13595  -1.13594  -1.13462  -1.13435  -1.13393
  Beta  occ. eigenvalues --   -1.13338  -1.13313  -1.13004  -1.12949  -1.12919
  Beta  occ. eigenvalues --   -0.16646  -0.13229  -0.12001
  Beta virt. eigenvalues --   -0.07205  -0.06659  -0.05546  -0.03753  -0.03589
  Beta virt. eigenvalues --   -0.02531  -0.02258  -0.01609  -0.01177  -0.00663
  Beta virt. eigenvalues --   -0.00454  -0.00273   0.00208   0.00349   0.00606

 Mulliken charges and spin densities:
               1          2
     1  Na   0.108133   0.299229
     2  Na  -0.334068   0.113595
     3  Na  -0.162615  -0.028013
     4  Na  -0.106232   0.264384
     5  Na   0.064646  -0.079560
     6  Na   0.405993   0.372277
     7  Na   0.024142   0.058088
 Sum of Mulliken charges =  -0.00000   1.00000

 Dipole moment (field-independent basis, Debye):
    X=              0.3141    Y=             -0.6424    Z=              0.0375  Tot=              0.7161
 Quadrupole moment (field-independent basis, Debye-Ang):
   XX=            -62.2563   YY=            -73.1519   ZZ=            -66.2672
   XY=             -0.1024   XZ=              2.4051   YZ=             -1.1373

 Normal termination of Gaussian 16 at Sun Dec  3 17:56:57 2023.
