 Gaussian 16, Revision B.01,
 Gaussian 16:  ES64L-G16RevB.01 20-Dec-2017

 -------------------------
 #P B3LYP/6-311+g(d) force
 -------------------------

 -----
 DPGEN
 -----
 Symbolic Z-matrix:
 Charge =  0 Multiplicity = 2

                         Standard orientation:
 ---------------------------------------------------------------------
 Center     Atomic      Atomic             Coordinates (Angstroms)
 Number     Number       Type             X           Y           Z
 ---------------------------------------------------------------------
      1         11           0        1.512529   -2.934062    0.190458
      2         11           0        4.273589   -1.349149    0.491570
      3         11           0        3.275665    2.174216   -0.562439
      4         11           0       -0.450140    3.712897   -0.661680
      5         11           0       -2.163975    2.285332    1.307735
      6         11           0       -4.495113   -0.827648   -0.192961
      7         11           0       -1.952555   -3.061587   -0.572683
 ---------------------------------------------------------------------

 SCF Done:  E(UB3LYP) =  -1136.10464677     A.U. after   22 cycles

 The electronic state is 2-A.
 Alpha  occ. eigenvalues --  -38.44904 -38.44886 -38.44808 -38.44633 -38.44502
 Alpha  occ. eigenvalues --  -38.44305 -38.43795  -2.20695  -2.20672  -2.20572
 Alpha  occ. eigenvalues --   -2.20397  -2.20286  -2.20116  -2.19611  -1.14411
 Alpha  occ. eigenvalues --   -1.14362  -1.14350  -1.14342  -1.14321  -1.14319
 Alpha  occ. eigenvalues --   -1.14232  -1.14211  -1.14181  -1.14082  -1.14075
 Alpha  occ. eigenvalues --   -1.14054  -1.13940  -1.13925  -1.13905  -1.13782
 Alpha  occ. eigenvalues --   -1.13766  -1.13749  -1.13265  -1.13257  -1.13246
 Alpha  occ. eigenvalues --   -0.15450  -0.13739  -0.13465  -0.10647
 Alpha virt. eigenvalues --   -0.07789  -0.05119  -0.04245  -0.03594  -0.03423
 Alpha virt. eigenvalues --   -0.02489  -0.02200  -0.01852  -0.01264  -0.00892
 Alpha virt. eigenvalues --   -0.00692  -0.00304   0.00181   0.00301   0.00592

  Beta  occ. eigenvalues --  -38.44924 -38.44852 -38.44718 -38.44639 -38.44444
  Beta  occ. eigenvalues --  -38.44296 -38.43742  -2.20714  -2.20636  -2.20414
  Beta  occ. eigenvalues --   -2.20404  -2.20179  -2.20104  -2.19511  -1.14387
  Beta  occ. eigenvalues --   -1.14383  -1.14365  -1.14322  -1.14303  -1.14277
  Beta  occ. eigenvalues --   -1.14117  -1.14098  -1.14098  -1.14090  -1.14068
  Beta  occ. eigenvalues --   -1.14026  -1.13868  -1.13852  -1.13836  -1.13767
  Beta  occ. eigenvalues --   -1.13760  -1.13729  -1.13196  -1.13192  -1.13188
  Beta  occ. eigenvalues --   -0.14959  -0.13260  -0.12706
  Beta virt. eigenvalues --   -0.07710  -0.07464  -0.04727  -0.03889  -0.03354
  Beta virt. eigenvalues --   -0.03061  -0.02290  -0.01946  -0.01627  -0.01187
  Beta virt. eigenvalues --   -0.00683  -0.00384  -0.00113   0.00295   0.00443

 Mulliken charges and spin densities:
               1          2
     1  Na  -0.241435   0.200889
     2  Na   0.400530  -0.014297
     3  Na  -0.229682   0.476658
     4  Na   0.138897  -0.005906
     5  Na  -0.318367   0.165697
     6  Na  -0.024871   0.266683
     7  Na   0.274928  -0.089726
 Sum of Mulliken charges =  -0.00000   1.00000

 Dipole moment (field-independent basis, Debye):
    X=             -0.2399    Y=              0.5086    Z=              0.1328  Tot=              0.5778
 Quadrupole moment (field-independent basis, Debye-Ang):
   XX=            -61.8284   YY=            -70.2224   ZZ=            -69.6854
   XY=             -3.2279   XZ=             -0.1313   YZ=             -1.6579

 Normal termination of Gaussian 16 at Sun Dec  3 17:36:55 2023.
