 Gaussian 16, Revision B.01,
 Gaussian 16:  ES64L-G16RevB.01 20-Dec-2017

 -------------------------
 #P B3LYP/6-311+g(d) force
 -------------------------

 -----
 DPGEN
 -----
 Symbolic Z-matrix:
 Charge =  0 Multiplicity = 2

                         Standard orientation:
 ---------------------------------------------------------------------
 Center     Atomic      Atomic             Coordinates (Angstroms)
 Number     Number       Type             X           Y           Z
 ---------------------------------------------------------------------
      1         11           0       -0.739838    1.100606   -0.144015
      2         11           0        0.681700    4.108699    0.189100
      3         11           0        2.622344    0.986564   -0.302290
      4         11           0        4.900207   -2.325915    0.000024
      5         11           0        1.083449   -1.771558   -0.052131
      6         11           0       -2.699830   -1.120756    0.769482
      7         11           0       -5.848033   -0.977640   -0.460170
 ---------------------------------------------------------------------

 SCF Done:  E(UB3LYP) =  -1136.12064086     A.U. after   20 cycles

 The electronic state is 2-A.
 Alpha  occ. eigenvalues --  -38.44692 -38.44680 -38.44520 -38.44150 -38.43743
 Alpha  occ. eigenvalues --  -38.43681 -38.43379  -2.20520  -2.20447  -2.20317
 Alpha  occ. eigenvalues --   -2.20010  -2.19618  -2.19548  -2.19223  -1.14278
 Alpha  occ. eigenvalues --   -1.14223  -1.14114  -1.14111  -1.14076  -1.14047
 Alpha  occ. eigenvalues --   -1.13954  -1.13953  -1.13932  -1.13733  -1.13693
 Alpha  occ. eigenvalues --   -1.13578  -1.13322  -1.13299  -1.13280  -1.13207
 Alpha  occ. eigenvalues --   -1.13204  -1.13155  -1.12921  -1.12889  -1.12851
 Alpha  occ. eigenvalues --   -0.17188  -0.13667  -0.12581  -0.11041
 Alpha virt. eigenvalues --   -0.06527  -0.04930  -0.04600  -0.03888  -0.02738
 Alpha virt. eigenvalues --   -0.02346  -0.01840  -0.01582  -0.01462  -0.00864
 Alpha virt. eigenvalues --   -0.00352   0.00002   0.00099   0.00391   0.00646

  Beta  occ. eigenvalues --  -38.44681 -38.44653 -38.44420 -38.44119 -38.43722
  Beta  occ. eigenvalues --  -38.43663 -38.43382  -2.20522  -2.20373  -2.20129
  Beta  occ. eigenvalues --   -2.19957  -2.19590  -2.19509  -2.19236  -1.14269
  Beta  occ. eigenvalues --   -1.14226  -1.14079  -1.14063  -1.14059  -1.14001
  Beta  occ. eigenvalues --   -1.13826  -1.13825  -1.13810  -1.13701  -1.13661
  Beta  occ. eigenvalues --   -1.13511  -1.13316  -1.13274  -1.13242  -1.13180
  Beta  occ. eigenvalues --   -1.13173  -1.13129  -1.12934  -1.12905  -1.12798
  Beta  occ. eigenvalues --   -0.16675  -0.13010  -0.12187
  Beta virt. eigenvalues --   -0.07717  -0.06081  -0.04669  -0.04359  -0.03625
  Beta virt. eigenvalues --   -0.02502  -0.02105  -0.01557  -0.01195  -0.01149
  Beta virt. eigenvalues --   -0.00553  -0.00132   0.00175   0.00258   0.00484

 Mulliken charges and spin densities:
               1          2
     1  Na  -1.599722  -0.142583
     2  Na   0.789724   0.137511
     3  Na   0.281659   0.188161
     4  Na   0.918847   0.189611
     5  Na  -0.748861   0.124883
     6  Na   0.014234   0.020652
     7  Na   0.344119   0.481765
 Sum of Mulliken charges =  -0.00000   1.00000

 Dipole moment (field-independent basis, Debye):
    X=              0.9978    Y=             -0.0024    Z=             -0.0403  Tot=              0.9986
 Quadrupole moment (field-independent basis, Debye-Ang):
   XX=            -58.8941   YY=            -62.1588   ZZ=            -72.0672
   XY=             -4.4844   XZ=              2.1078   YZ=              0.2114

 Normal termination of Gaussian 16 at Tue Nov 28 22:42:49 2023.
