 Gaussian 16, Revision B.01,
 Gaussian 16:  ES64L-G16RevB.01 20-Dec-2017

 -------------------------
 #P B3LYP/6-311+g(d) force
 -------------------------

 -----
 DPGEN
 -----
 Symbolic Z-matrix:
 Charge =  0 Multiplicity = 2

                         Standard orientation:
 ---------------------------------------------------------------------
 Center     Atomic      Atomic             Coordinates (Angstroms)
 Number     Number       Type             X           Y           Z
 ---------------------------------------------------------------------
      1         11           0       -0.043856   -0.480798    1.926366
      2         11           0        1.473675   -1.281008   -0.970319
      3         11           0        4.106343   -0.091696    0.534873
      4         11           0        1.192654    1.986437   -0.663987
      5         11           0       -1.357670    0.182057   -1.515540
      6         11           0       -2.528025   -2.457281    0.032190
      7         11           0       -2.843122    2.142289    0.656417
 ---------------------------------------------------------------------

 SCF Done:  E(UB3LYP) =  -1136.12206128     A.U. after   23 cycles

 The electronic state is 2-A.
 Alpha  occ. eigenvalues --  -38.45133 -38.44666 -38.43965 -38.43665 -38.43623
 Alpha  occ. eigenvalues --  -38.43538 -38.42887  -2.20925  -2.20500  -2.19752
 Alpha  occ. eigenvalues --   -2.19568  -2.19532  -2.19334  -2.18887  -1.14605
 Alpha  occ. eigenvalues --   -1.14576  -1.14552  -1.14203  -1.14132  -1.14105
 Alpha  occ. eigenvalues --   -1.13439  -1.13401  -1.13376  -1.13330  -1.13244
 Alpha  occ. eigenvalues --   -1.13233  -1.13203  -1.13163  -1.13103  -1.13031
 Alpha  occ. eigenvalues --   -1.12990  -1.12966  -1.12603  -1.12528  -1.12478
 Alpha  occ. eigenvalues --   -0.18470  -0.13591  -0.11232  -0.10921
 Alpha virt. eigenvalues --   -0.06956  -0.05321  -0.04077  -0.03098  -0.02774
 Alpha virt. eigenvalues --   -0.02372  -0.02290  -0.01392  -0.00853  -0.00031
 Alpha virt. eigenvalues --    0.00103   0.00127   0.00469   0.00616   0.00651

  Beta  occ. eigenvalues --  -38.45123 -38.44605 -38.43947 -38.43643 -38.43588
  Beta  occ. eigenvalues --  -38.43542 -38.42836  -2.20906  -2.20387  -2.19719
  Beta  occ. eigenvalues --   -2.19509  -2.19497  -2.19344  -2.18798  -1.14593
  Beta  occ. eigenvalues --   -1.14558  -1.14539  -1.14125  -1.14049  -1.14023
  Beta  occ. eigenvalues --   -1.13418  -1.13370  -1.13356  -1.13290  -1.13211
  Beta  occ. eigenvalues --   -1.13163  -1.13143  -1.13132  -1.13083  -1.13036
  Beta  occ. eigenvalues --   -1.12987  -1.12973  -1.12534  -1.12449  -1.12417
  Beta  occ. eigenvalues --   -0.17685  -0.13419  -0.11038
  Beta virt. eigenvalues --   -0.07086  -0.06654  -0.05260  -0.03701  -0.02852
  Beta virt. eigenvalues --   -0.02369  -0.01882  -0.01607  -0.01227  -0.00489
  Beta virt. eigenvalues --    0.00003   0.00127   0.00156   0.00602   0.00680

 Mulliken charges and spin densities:
               1          2
     1  Na  -0.490832   0.704838
     2  Na   0.150582   0.118525
     3  Na   0.313297   0.104794
     4  Na  -0.082450   0.066869
     5  Na   0.188373  -0.046494
     6  Na   0.009870  -0.047852
     7  Na  -0.088840   0.099320
 Sum of Mulliken charges =  -0.00000   1.00000

 Dipole moment (field-independent basis, Debye):
    X=              0.9995    Y=              0.0395    Z=              0.5453  Tot=              1.1393
 Quadrupole moment (field-independent basis, Debye-Ang):
   XX=            -47.6483   YY=            -72.6812   ZZ=            -71.4506
   XY=              1.3194   XZ=              0.7269   YZ=              1.5891

 Normal termination of Gaussian 16 at Fri Dec  8 07:52:07 2023.
