 Gaussian 16, Revision B.01,
 Gaussian 16:  ES64L-G16RevB.01 20-Dec-2017

 -------------------------
 #P B3LYP/6-311+g(d) force
 -------------------------

 -----
 DPGEN
 -----
 Symbolic Z-matrix:
 Charge =  0 Multiplicity = 2

                         Standard orientation:
 ---------------------------------------------------------------------
 Center     Atomic      Atomic             Coordinates (Angstroms)
 Number     Number       Type             X           Y           Z
 ---------------------------------------------------------------------
      1         11           0        5.025147   -1.377729   -0.931846
      2         11           0        3.971997   -3.512063    1.255660
      3         11           0        0.869263    3.528393    0.995315
      4         11           0       -1.981771    2.034046    0.504107
      5         11           0        3.017155    2.121426   -1.116990
      6         11           0       -6.994474   -1.463841   -0.142406
      7         11           0       -3.907318   -1.330231   -0.563840
 ---------------------------------------------------------------------

 SCF Done:  E(UB3LYP) =  -1136.10529386     A.U. after   17 cycles

 The electronic state is 2-A.
 Alpha  occ. eigenvalues --  -38.44794 -38.44602 -38.44579 -38.44512 -38.44330
 Alpha  occ. eigenvalues --  -38.44200 -38.44061  -2.20584  -2.20400  -2.20376
 Alpha  occ. eigenvalues --   -2.20295  -2.20115  -2.20004  -2.19826  -1.14250
 Alpha  occ. eigenvalues --   -1.14232  -1.14229  -1.14055  -1.14050  -1.14033
 Alpha  occ. eigenvalues --   -1.14024  -1.14017  -1.13994  -1.13945  -1.13942
 Alpha  occ. eigenvalues --   -1.13936  -1.13782  -1.13771  -1.13764  -1.13673
 Alpha  occ. eigenvalues --   -1.13667  -1.13663  -1.13504  -1.13492  -1.13474
 Alpha  occ. eigenvalues --   -0.15154  -0.13884  -0.12962  -0.10975
 Alpha virt. eigenvalues --   -0.07043  -0.05601  -0.04142  -0.03384  -0.03206
 Alpha virt. eigenvalues --   -0.02654  -0.02226  -0.02037  -0.01529  -0.01092
 Alpha virt. eigenvalues --   -0.00692  -0.00390  -0.00130   0.00209   0.00364

  Beta  occ. eigenvalues --  -38.44760 -38.44527 -38.44490 -38.44466 -38.44338
  Beta  occ. eigenvalues --  -38.44213 -38.44074  -2.20521  -2.20260  -2.20210
  Beta  occ. eigenvalues --   -2.20208  -2.20133  -2.20035  -2.19854  -1.14211
  Beta  occ. eigenvalues --   -1.14189  -1.14186  -1.13959  -1.13954  -1.13940
  Beta  occ. eigenvalues --   -1.13920  -1.13906  -1.13888  -1.13885  -1.13883
  Beta  occ. eigenvalues --   -1.13882  -1.13797  -1.13786  -1.13754  -1.13700
  Beta  occ. eigenvalues --   -1.13686  -1.13641  -1.13527  -1.13514  -1.13467
  Beta  occ. eigenvalues --   -0.14482  -0.13409  -0.12618
  Beta virt. eigenvalues --   -0.07824  -0.06486  -0.05167  -0.03927  -0.03209
  Beta virt. eigenvalues --   -0.02941  -0.02501  -0.01972  -0.01791  -0.01392
  Beta virt. eigenvalues --   -0.00922  -0.00326  -0.00029   0.00048   0.00287

 Mulliken charges and spin densities:
               1          2
     1  Na   0.021909  -0.058535
     2  Na  -0.010842   0.220116
     3  Na   0.204133  -0.025314
     4  Na  -0.110851   0.333715
     5  Na  -0.292993   0.434272
     6  Na   0.352565   0.116926
     7  Na  -0.163920  -0.021179
 Sum of Mulliken charges =  -0.00000   1.00000

 Dipole moment (field-independent basis, Debye):
    X=             -1.1917    Y=             -0.2542    Z=              0.3636  Tot=              1.2716
 Quadrupole moment (field-independent basis, Debye-Ang):
   XX=            -59.5453   YY=            -67.5862   ZZ=            -68.8901
   XY=              2.9680   XZ=             -2.1563   YZ=             -1.3405

 Normal termination of Gaussian 16 at Sun Dec  3 21:33:13 2023.
