 Gaussian 16, Revision B.01,
 Gaussian 16:  ES64L-G16RevB.01 20-Dec-2017

 -------------------------
 #P B3LYP/6-311+g(d) force
 -------------------------

 -----
 DPGEN
 -----
 Symbolic Z-matrix:
 Charge =  0 Multiplicity = 2

                         Standard orientation:
 ---------------------------------------------------------------------
 Center     Atomic      Atomic             Coordinates (Angstroms)
 Number     Number       Type             X           Y           Z
 ---------------------------------------------------------------------
      1         11           0       -4.333444   -0.116819    0.630281
      2         11           0        1.768843    0.746278    1.856646
      3         11           0       -1.300156   -1.861108   -0.318897
      4         11           0        1.473030    2.842814   -0.267151
      5         11           0       -1.529078    1.168612   -0.640546
      6         11           0        1.454918   -0.205698   -1.537603
      7         11           0        2.465887   -2.574079    0.277271
 ---------------------------------------------------------------------

 SCF Done:  E(UB3LYP) =  -1136.12780816     A.U. after   20 cycles

 The electronic state is 2-A.
 Alpha  occ. eigenvalues --  -38.44281 -38.44181 -38.44021 -38.43491 -38.43457
 Alpha  occ. eigenvalues --  -38.43360 -38.43200  -2.20090  -2.20043  -2.19911
 Alpha  occ. eigenvalues --   -2.19394  -2.19348  -2.19319  -2.19107  -1.13814
 Alpha  occ. eigenvalues --   -1.13757  -1.13744  -1.13727  -1.13710  -1.13606
 Alpha  occ. eigenvalues --   -1.13601  -1.13559  -1.13524  -1.13135  -1.13083
 Alpha  occ. eigenvalues --   -1.13063  -1.13037  -1.13000  -1.12980  -1.12964
 Alpha  occ. eigenvalues --   -1.12957  -1.12902  -1.12780  -1.12755  -1.12731
 Alpha  occ. eigenvalues --   -0.18404  -0.13751  -0.12321  -0.10662
 Alpha virt. eigenvalues --   -0.06251  -0.04960  -0.04483  -0.03502  -0.02871
 Alpha virt. eigenvalues --   -0.02313  -0.01915  -0.01298  -0.00477  -0.00310
 Alpha virt. eigenvalues --    0.00103   0.00200   0.00551   0.00733   0.00803

  Beta  occ. eigenvalues --  -38.44250 -38.44173 -38.43947 -38.43486 -38.43435
  Beta  occ. eigenvalues --  -38.43310 -38.43195  -2.20033  -2.20030  -2.19774
  Beta  occ. eigenvalues --   -2.19360  -2.19312  -2.19260  -2.19103  -1.13800
  Beta  occ. eigenvalues --   -1.13716  -1.13707  -1.13700  -1.13677  -1.13594
  Beta  occ. eigenvalues --   -1.13512  -1.13464  -1.13425  -1.13104  -1.13055
  Beta  occ. eigenvalues --   -1.13026  -1.12990  -1.12962  -1.12946  -1.12929
  Beta  occ. eigenvalues --   -1.12925  -1.12855  -1.12768  -1.12752  -1.12703
  Beta  occ. eigenvalues --   -0.17707  -0.13384  -0.12137
  Beta virt. eigenvalues --   -0.06971  -0.05886  -0.04825  -0.04407  -0.03020
  Beta virt. eigenvalues --   -0.02298  -0.01906  -0.01399  -0.01210  -0.00270
  Beta virt. eigenvalues --   -0.00158   0.00225   0.00284   0.00746   0.00811

 Mulliken charges and spin densities:
               1          2
     1  Na   0.578161   0.180918
     2  Na  -0.510197   0.439792
     3  Na  -0.221976  -0.053349
     4  Na   0.728472   0.046117
     5  Na  -0.725929   0.025406
     6  Na  -0.177086   0.351461
     7  Na   0.328555   0.009655
 Sum of Mulliken charges =  -0.00000   1.00000

 Dipole moment (field-independent basis, Debye):
    X=             -0.5966    Y=             -0.1784    Z=              0.0763  Tot=              0.6274
 Quadrupole moment (field-independent basis, Debye-Ang):
   XX=            -58.2203   YY=            -65.3288   ZZ=            -70.9972
   XY=             -0.4207   XZ=             -3.6793   YZ=             -2.1726

 Normal termination of Gaussian 16 at Tue Dec  5 17:23:31 2023.
