 Gaussian 16, Revision B.01,
 Gaussian 16:  ES64L-G16RevB.01 20-Dec-2017

 -------------------------
 #P B3LYP/6-311+g(d) force
 -------------------------

 -----
 DPGEN
 -----
 Symbolic Z-matrix:
 Charge =  0 Multiplicity = 2

                         Standard orientation:
 ---------------------------------------------------------------------
 Center     Atomic      Atomic             Coordinates (Angstroms)
 Number     Number       Type             X           Y           Z
 ---------------------------------------------------------------------
      1         11           0        1.998998    2.342226   -0.406819
      2         11           0       -0.276105   -0.603495   -1.658426
      3         11           0       -1.443556    2.566413    0.066157
      4         11           0       -0.318682   -2.801359    0.293846
      5         11           0       -3.076130   -0.395683   -0.206133
      6         11           0        2.774354   -1.181920   -0.304790
      7         11           0        0.341121    0.073818    2.216165
 ---------------------------------------------------------------------

 SCF Done:  E(UB3LYP) =  -1136.13660278     A.U. after   19 cycles

 The electronic state is 2-A.
 Alpha  occ. eigenvalues --  -38.43928 -38.43754 -38.43673 -38.43653 -38.43613
 Alpha  occ. eigenvalues --  -38.43497 -38.43438  -2.19788  -2.19596  -2.19526
 Alpha  occ. eigenvalues --   -2.19516  -2.19461  -2.19427  -2.19328  -1.13448
 Alpha  occ. eigenvalues --   -1.13415  -1.13410  -1.13359  -1.13289  -1.13257
 Alpha  occ. eigenvalues --   -1.13249  -1.13232  -1.13183  -1.13172  -1.13162
 Alpha  occ. eigenvalues --   -1.13136  -1.13121  -1.13109  -1.13105  -1.13064
 Alpha  occ. eigenvalues --   -1.13018  -1.13013  -1.13000  -1.12989  -1.12959
 Alpha  occ. eigenvalues --   -0.18586  -0.12814  -0.12647  -0.11005
 Alpha virt. eigenvalues --   -0.05372  -0.05153  -0.04842  -0.03236  -0.03135
 Alpha virt. eigenvalues --   -0.02751  -0.01310  -0.01052  -0.00336  -0.00305
 Alpha virt. eigenvalues --   -0.00046   0.00366   0.00836   0.00891   0.00912

  Beta  occ. eigenvalues --  -38.43826 -38.43746 -38.43670 -38.43647 -38.43603
  Beta  occ. eigenvalues --  -38.43496 -38.43383  -2.19600  -2.19585  -2.19523
  Beta  occ. eigenvalues --   -2.19500  -2.19453  -2.19330  -2.19325  -1.13342
  Beta  occ. eigenvalues --   -1.13314  -1.13288  -1.13273  -1.13269  -1.13237
  Beta  occ. eigenvalues --   -1.13230  -1.13223  -1.13172  -1.13162  -1.13130
  Beta  occ. eigenvalues --   -1.13126  -1.13109  -1.13104  -1.13098  -1.13005
  Beta  occ. eigenvalues --   -1.12991  -1.12982  -1.12961  -1.12950  -1.12949
  Beta  occ. eigenvalues --   -0.17858  -0.12586  -0.12445
  Beta virt. eigenvalues --   -0.07048  -0.05373  -0.05137  -0.04700  -0.02456
  Beta virt. eigenvalues --   -0.02370  -0.01709  -0.01233  -0.00989  -0.00359
  Beta virt. eigenvalues --   -0.00352   0.00114   0.00406   0.00875   0.00904

 Mulliken charges and spin densities:
               1          2
     1  Na  -0.069708  -0.028319
     2  Na  -0.167241   0.396682
     3  Na  -0.008256  -0.040622
     4  Na   0.353266   0.036602
     5  Na   0.236625  -0.036702
     6  Na   0.192752  -0.016637
     7  Na  -0.537437   0.688996
 Sum of Mulliken charges =  -0.00000   1.00000

 Dipole moment (field-independent basis, Debye):
    X=              0.0791    Y=             -0.0877    Z=              0.1657  Tot=              0.2035
 Quadrupole moment (field-independent basis, Debye-Ang):
   XX=            -59.4752   YY=            -62.7877   ZZ=            -72.7156
   XY=             -0.0162   XZ=             -1.2273   YZ=             -1.1945

 Normal termination of Gaussian 16 at Fri Dec  8 06:47:10 2023.
