 Gaussian 16, Revision B.01,
 Gaussian 16:  ES64L-G16RevB.01 20-Dec-2017

 -------------------------
 #P B3LYP/6-311+g(d) force
 -------------------------

 -----
 DPGEN
 -----
 Symbolic Z-matrix:
 Charge =  0 Multiplicity = 2

                         Standard orientation:
 ---------------------------------------------------------------------
 Center     Atomic      Atomic             Coordinates (Angstroms)
 Number     Number       Type             X           Y           Z
 ---------------------------------------------------------------------
      1         11           0       -1.901013   -1.564613   -1.284424
      2         11           0       -1.344767    2.222249   -0.369260
      3         11           0        3.529127   -1.267030    0.301932
      4         11           0        1.995260    2.085076   -0.005222
      5         11           0        0.190190   -0.652228    2.128134
      6         11           0        1.114679   -0.532440   -1.524342
      7         11           0       -3.583477   -0.291014    0.753182
 ---------------------------------------------------------------------

 SCF Done:  E(UB3LYP) =  -1136.12026919     A.U. after   25 cycles

 The electronic state is 2-A.
 Alpha  occ. eigenvalues --  -38.45203 -38.45027 -38.44547 -38.43896 -38.43647
 Alpha  occ. eigenvalues --  -38.43233 -38.42745  -2.20999  -2.20873  -2.20363
 Alpha  occ. eigenvalues --   -2.19797  -2.19621  -2.19108  -2.18581  -1.14670
 Alpha  occ. eigenvalues --   -1.14643  -1.14605  -1.14602  -1.14513  -1.14501
 Alpha  occ. eigenvalues --   -1.14068  -1.14017  -1.14004  -1.13516  -1.13437
 Alpha  occ. eigenvalues --   -1.13413  -1.13290  -1.13280  -1.13228  -1.12800
 Alpha  occ. eigenvalues --   -1.12770  -1.12720  -1.12258  -1.12255  -1.12213
 Alpha  occ. eigenvalues --   -0.18479  -0.14153  -0.11388  -0.11130
 Alpha virt. eigenvalues --   -0.07002  -0.05218  -0.04606  -0.03360  -0.02764
 Alpha virt. eigenvalues --   -0.02428  -0.02426  -0.00984  -0.00830  -0.00175
 Alpha virt. eigenvalues --    0.00127   0.00220   0.00270   0.00633   0.00785

  Beta  occ. eigenvalues --  -38.45120 -38.45025 -38.44560 -38.43853 -38.43586
  Beta  occ. eigenvalues --  -38.43228 -38.42741  -2.20871  -2.20843  -2.20388
  Beta  occ. eigenvalues --   -2.19721  -2.19511  -2.19100  -2.18576  -1.14603
  Beta  occ. eigenvalues --   -1.14564  -1.14535  -1.14510  -1.14496  -1.14484
  Beta  occ. eigenvalues --   -1.14081  -1.14033  -1.14011  -1.13446  -1.13387
  Beta  occ. eigenvalues --   -1.13355  -1.13216  -1.13194  -1.13153  -1.12786
  Beta  occ. eigenvalues --   -1.12758  -1.12719  -1.12255  -1.12236  -1.12214
  Beta  occ. eigenvalues --   -0.17732  -0.14111  -0.10960
  Beta virt. eigenvalues --   -0.07385  -0.06672  -0.05223  -0.03980  -0.03074
  Beta virt. eigenvalues --   -0.02361  -0.01852  -0.01793  -0.00911  -0.00489
  Beta virt. eigenvalues --   -0.00173   0.00173   0.00278   0.00415   0.00684

 Mulliken charges and spin densities:
               1          2
     1  Na  -0.079107   0.000555
     2  Na  -0.454447   0.016358
     3  Na   0.705650  -0.002243
     4  Na   0.187371   0.007334
     5  Na  -0.550869   0.509844
     6  Na  -0.445386   0.275430
     7  Na   0.636788   0.192723
 Sum of Mulliken charges =  -0.00000   1.00000

 Dipole moment (field-independent basis, Debye):
    X=             -0.0115    Y=             -0.2239    Z=              0.8274  Tot=              0.8573
 Quadrupole moment (field-independent basis, Debye-Ang):
   XX=            -48.2426   YY=            -77.1971   ZZ=            -70.2724
   XY=             -0.6663   XZ=             -0.6082   YZ=              0.2233

 Normal termination of Gaussian 16 at Thu Dec  7 21:23:25 2023.
