 Gaussian 16, Revision B.01,
 Gaussian 16:  ES64L-G16RevB.01 20-Dec-2017

 -------------------------
 #P B3LYP/6-311+g(d) force
 -------------------------

 -----
 DPGEN
 -----
 Symbolic Z-matrix:
 Charge =  0 Multiplicity = 2

                         Standard orientation:
 ---------------------------------------------------------------------
 Center     Atomic      Atomic             Coordinates (Angstroms)
 Number     Number       Type             X           Y           Z
 ---------------------------------------------------------------------
      1         11           0        0.397542    0.167827    1.747510
      2         11           0       -0.115523   -0.520945   -1.728277
      3         11           0       -2.089547    2.090331   -0.319061
      4         11           0       -2.938038   -1.105952    0.258696
      5         11           0        0.165329   -2.717930    0.232411
      6         11           0        3.355018   -0.523831   -0.284094
      7         11           0        1.225219    2.610500    0.092815
 ---------------------------------------------------------------------

 SCF Done:  E(UB3LYP) =  -1136.13466106     A.U. after   19 cycles

 The electronic state is 2-A.
 Alpha  occ. eigenvalues --  -38.44545 -38.44000 -38.43451 -38.43411 -38.43406
 Alpha  occ. eigenvalues --  -38.43314 -38.43146  -2.20329  -2.19844  -2.19328
 Alpha  occ. eigenvalues --   -2.19320  -2.19278  -2.19263  -2.19117  -1.14005
 Alpha  occ. eigenvalues --   -1.13977  -1.13970  -1.13514  -1.13508  -1.13492
 Alpha  occ. eigenvalues --   -1.13173  -1.13083  -1.13016  -1.12988  -1.12954
 Alpha  occ. eigenvalues --   -1.12946  -1.12927  -1.12920  -1.12913  -1.12882
 Alpha  occ. eigenvalues --   -1.12865  -1.12856  -1.12781  -1.12740  -1.12711
 Alpha  occ. eigenvalues --   -0.18808  -0.13022  -0.12625  -0.10514
 Alpha virt. eigenvalues --   -0.06009  -0.05007  -0.04638  -0.03112  -0.02898
 Alpha virt. eigenvalues --   -0.02226  -0.01879  -0.01025  -0.00312  -0.00284
 Alpha virt. eigenvalues --    0.00004   0.00335   0.00797   0.00876   0.00896

  Beta  occ. eigenvalues --  -38.44540 -38.43996 -38.43445 -38.43399 -38.43398
  Beta  occ. eigenvalues --  -38.43245 -38.43069  -2.20321  -2.19839  -2.19314
  Beta  occ. eigenvalues --   -2.19308  -2.19254  -2.19152  -2.18976  -1.13986
  Beta  occ. eigenvalues --   -1.13971  -1.13966  -1.13513  -1.13497  -1.13475
  Beta  occ. eigenvalues --   -1.13133  -1.13061  -1.12976  -1.12966  -1.12944
  Beta  occ. eigenvalues --   -1.12926  -1.12904  -1.12902  -1.12876  -1.12849
  Beta  occ. eigenvalues --   -1.12791  -1.12770  -1.12689  -1.12642  -1.12613
  Beta  occ. eigenvalues --   -0.18091  -0.12798  -0.12358
  Beta virt. eigenvalues --   -0.06647  -0.05962  -0.04983  -0.04592  -0.02379
  Beta virt. eigenvalues --   -0.02112  -0.01777  -0.01221  -0.00953  -0.00359
  Beta virt. eigenvalues --   -0.00317   0.00136   0.00363   0.00831   0.00880

 Mulliken charges and spin densities:
               1          2
     1  Na  -0.189015   0.570620
     2  Na  -0.378609   0.715156
     3  Na   0.018013  -0.039770
     4  Na   0.114598  -0.003749
     5  Na   0.297231  -0.076398
     6  Na   0.031916  -0.088782
     7  Na   0.105866  -0.077078
 Sum of Mulliken charges =  -0.00000   1.00000

 Dipole moment (field-independent basis, Debye):
    X=              0.2979    Y=             -0.1467    Z=             -0.0313  Tot=              0.3335
 Quadrupole moment (field-independent basis, Debye-Ang):
   XX=            -53.1224   YY=            -63.8929   ZZ=            -75.3469
   XY=              0.1649   XZ=             -1.3839   YZ=             -1.5473

 Normal termination of Gaussian 16 at Sat Dec  9 07:11:27 2023.
