 Gaussian 16, Revision B.01,
 Gaussian 16:  ES64L-G16RevB.01 20-Dec-2017

 -------------------------
 #P B3LYP/6-311+g(d) force
 -------------------------

 -----
 DPGEN
 -----
 Symbolic Z-matrix:
 Charge =  0 Multiplicity = 2

                         Standard orientation:
 ---------------------------------------------------------------------
 Center     Atomic      Atomic             Coordinates (Angstroms)
 Number     Number       Type             X           Y           Z
 ---------------------------------------------------------------------
      1         11           0       -0.087004   -0.823657   -1.271064
      2         11           0       -0.849189    2.002886    0.601642
      3         11           0       -3.637499    0.214733   -1.441608
      4         11           0        3.468664   -1.275810   -0.947082
      5         11           0        2.599504    1.918678   -0.028184
      6         11           0        0.948702   -0.922301    1.785211
      7         11           0       -2.443179   -1.114529    1.301086
 ---------------------------------------------------------------------

 SCF Done:  E(UB3LYP) =  -1136.12500564     A.U. after   31 cycles

 The electronic state is 2-A.
 Alpha  occ. eigenvalues --  -38.44570 -38.44566 -38.44412 -38.44351 -38.43916
 Alpha  occ. eigenvalues --  -38.43363 -38.42239  -2.20462  -2.20398  -2.20290
 Alpha  occ. eigenvalues --   -2.20260  -2.19748  -2.19182  -2.18113  -1.14161
 Alpha  occ. eigenvalues --   -1.14139  -1.14104  -1.14066  -1.14052  -1.14032
 Alpha  occ. eigenvalues --   -1.13999  -1.13969  -1.13939  -1.13884  -1.13865
 Alpha  occ. eigenvalues --   -1.13850  -1.13432  -1.13396  -1.13372  -1.12853
 Alpha  occ. eigenvalues --   -1.12847  -1.12816  -1.11824  -1.11784  -1.11721
 Alpha  occ. eigenvalues --   -0.18625  -0.14253  -0.11703  -0.10610
 Alpha virt. eigenvalues --   -0.06703  -0.05199  -0.04939  -0.03175  -0.02628
 Alpha virt. eigenvalues --   -0.02499  -0.02089  -0.01211  -0.00886  -0.00201
 Alpha virt. eigenvalues --    0.00081   0.00356   0.00371   0.00430   0.00670

  Beta  occ. eigenvalues --  -38.44532 -38.44519 -38.44402 -38.44275 -38.43895
  Beta  occ. eigenvalues --  -38.43360 -38.42231  -2.20398  -2.20309  -2.20276
  Beta  occ. eigenvalues --   -2.20126  -2.19708  -2.19179  -2.18101  -1.14108
  Beta  occ. eigenvalues --   -1.14078  -1.14058  -1.14020  -1.13986  -1.13969
  Beta  occ. eigenvalues --   -1.13950  -1.13940  -1.13881  -1.13846  -1.13770
  Beta  occ. eigenvalues --   -1.13754  -1.13401  -1.13371  -1.13343  -1.12847
  Beta  occ. eigenvalues --   -1.12841  -1.12816  -1.11818  -1.11755  -1.11715
  Beta  occ. eigenvalues --   -0.17887  -0.13955  -0.10464
  Beta virt. eigenvalues --   -0.07765  -0.06475  -0.04810  -0.04576  -0.02789
  Beta virt. eigenvalues --   -0.02489  -0.01869  -0.01624  -0.00826  -0.00705
  Beta virt. eigenvalues --   -0.00046   0.00125   0.00402   0.00460   0.00585

 Mulliken charges and spin densities:
               1          2
     1  Na  -1.378720   0.255300
     2  Na  -0.600204   0.161589
     3  Na   1.069851   0.155901
     4  Na   0.677159   0.064600
     5  Na  -0.096459   0.046433
     6  Na  -0.016575   0.240215
     7  Na   0.344947   0.075962
 Sum of Mulliken charges =  -0.00000   1.00000

 Dipole moment (field-independent basis, Debye):
    X=             -0.5741    Y=              0.0216    Z=              0.2899  Tot=              0.6435
 Quadrupole moment (field-independent basis, Debye-Ang):
   XX=            -50.4988   YY=            -76.9320   ZZ=            -68.0329
   XY=              1.0612   XZ=              0.3362   YZ=             -6.4918

 Normal termination of Gaussian 16 at Wed Nov 29 17:25:50 2023.
