 Gaussian 16, Revision B.01,
 Gaussian 16:  ES64L-G16RevB.01 20-Dec-2017

 -------------------------
 #P B3LYP/6-311+g(d) force
 -------------------------

 -----
 DPGEN
 -----
 Symbolic Z-matrix:
 Charge =  0 Multiplicity = 2

                         Standard orientation:
 ---------------------------------------------------------------------
 Center     Atomic      Atomic             Coordinates (Angstroms)
 Number     Number       Type             X           Y           Z
 ---------------------------------------------------------------------
      1         11           0       -3.300471    2.513314   -0.128252
      2         11           0       -1.665395   -3.181500    0.253958
      3         11           0       -4.821865   -0.531778   -0.032760
      4         11           0        0.619679    3.615738   -0.205616
      5         11           0        4.282355   -1.235665   -0.511280
      6         11           0        3.568815    2.236977    0.593673
      7         11           0        1.316881   -3.417086    0.030278
 ---------------------------------------------------------------------

 SCF Done:  E(UB3LYP) =  -1136.10491082     A.U. after   21 cycles

 The electronic state is 2-A.
 Alpha  occ. eigenvalues --  -38.45297 -38.44992 -38.44914 -38.44567 -38.44428
 Alpha  occ. eigenvalues --  -38.44255 -38.44173  -2.21037  -2.20747  -2.20683
 Alpha  occ. eigenvalues --   -2.20353  -2.20244  -2.20038  -2.19982  -1.14720
 Alpha  occ. eigenvalues --   -1.14708  -1.14677  -1.14431  -1.14424  -1.14396
 Alpha  occ. eigenvalues --   -1.14345  -1.14330  -1.14315  -1.14004  -1.13989
 Alpha  occ. eigenvalues --   -1.13979  -1.13972  -1.13889  -1.13870  -1.13694
 Alpha  occ. eigenvalues --   -1.13688  -1.13663  -1.13642  -1.13638  -1.13608
 Alpha  occ. eigenvalues --   -0.15290  -0.13841  -0.13544  -0.11094
 Alpha virt. eigenvalues --   -0.07857  -0.04821  -0.04660  -0.03524  -0.03473
 Alpha virt. eigenvalues --   -0.02504  -0.02306  -0.01921  -0.01400  -0.00832
 Alpha virt. eigenvalues --   -0.00728  -0.00334  -0.00064   0.00302   0.00387

  Beta  occ. eigenvalues --  -38.45294 -38.45003 -38.44881 -38.44481 -38.44378
  Beta  occ. eigenvalues --  -38.44196 -38.44164  -2.21035  -2.20772  -2.20622
  Beta  occ. eigenvalues --   -2.20193  -2.20155  -2.19974  -2.19929  -1.14722
  Beta  occ. eigenvalues --   -1.14710  -1.14652  -1.14454  -1.14444  -1.14377
  Beta  occ. eigenvalues --   -1.14305  -1.14291  -1.14268  -1.13913  -1.13894
  Beta  occ. eigenvalues --   -1.13882  -1.13869  -1.13830  -1.13809  -1.13642
  Beta  occ. eigenvalues --   -1.13635  -1.13619  -1.13615  -1.13593  -1.13558
  Beta  occ. eigenvalues --   -0.14712  -0.13135  -0.12811
  Beta virt. eigenvalues --   -0.08008  -0.07957  -0.04342  -0.04117  -0.03328
  Beta virt. eigenvalues --   -0.03214  -0.02301  -0.02103  -0.01779  -0.01256
  Beta virt. eigenvalues --   -0.00525  -0.00380  -0.00086   0.00155   0.00377

 Mulliken charges and spin densities:
               1          2
     1  Na  -0.066471   0.019927
     2  Na   0.170215   0.232070
     3  Na   0.348081   0.187199
     4  Na  -0.162493   0.308348
     5  Na  -0.090532   0.426296
     6  Na  -0.167981  -0.057885
     7  Na  -0.030820  -0.115954
 Sum of Mulliken charges =  -0.00000   1.00000

 Dipole moment (field-independent basis, Debye):
    X=             -0.6196    Y=              0.2584    Z=              0.0131  Tot=              0.6714
 Quadrupole moment (field-independent basis, Debye-Ang):
   XX=            -57.8542   YY=            -67.5197   ZZ=            -74.0040
   XY=              1.9397   XZ=              0.5516   YZ=              0.4011

 Normal termination of Gaussian 16 at Sun Dec  3 19:20:58 2023.
