 Gaussian 16, Revision B.01,
 Gaussian 16:  ES64L-G16RevB.01 20-Dec-2017

 -------------------------
 #P B3LYP/6-311+g(d) force
 -------------------------

 -----
 DPGEN
 -----
 Symbolic Z-matrix:
 Charge =  0 Multiplicity = 2

                         Standard orientation:
 ---------------------------------------------------------------------
 Center     Atomic      Atomic             Coordinates (Angstroms)
 Number     Number       Type             X           Y           Z
 ---------------------------------------------------------------------
      1         11           0        0.048717   -0.047720   -1.612707
      2         11           0       -3.229210    0.799103   -0.128205
      3         11           0       -1.951751   -2.134905   -0.471629
      4         11           0       -0.134085   -0.088655    2.164464
      5         11           0        0.165344    3.177625    0.186795
      6         11           0        3.241182    0.760472   -0.534694
      7         11           0        1.859802   -2.465920    0.395977
 ---------------------------------------------------------------------

 SCF Done:  E(UB3LYP) =  -1136.13358621     A.U. after   20 cycles

 The electronic state is 2-A.
 Alpha  occ. eigenvalues --  -38.44359 -38.44346 -38.43909 -38.43534 -38.43520
 Alpha  occ. eigenvalues --  -38.43503 -38.43485  -2.20169  -2.20136  -2.19758
 Alpha  occ. eigenvalues --   -2.19472  -2.19369  -2.19336  -2.19274  -1.13845
 Alpha  occ. eigenvalues --   -1.13838  -1.13819  -1.13805  -1.13787  -1.13764
 Alpha  occ. eigenvalues --   -1.13421  -1.13390  -1.13371  -1.13219  -1.13142
 Alpha  occ. eigenvalues --   -1.13093  -1.13019  -1.13011  -1.13010  -1.12993
 Alpha  occ. eigenvalues --   -1.12985  -1.12972  -1.12954  -1.12937  -1.12912
 Alpha  occ. eigenvalues --   -0.18153  -0.13061  -0.12000  -0.10851
 Alpha virt. eigenvalues --   -0.05983  -0.05072  -0.04777  -0.03236  -0.02848
 Alpha virt. eigenvalues --   -0.02708  -0.01783  -0.01154  -0.00590  -0.00415
 Alpha virt. eigenvalues --   -0.00047   0.00325   0.00733   0.00818   0.00859

  Beta  occ. eigenvalues --  -38.44358 -38.44332 -38.43807 -38.43513 -38.43504
  Beta  occ. eigenvalues --  -38.43482 -38.43472  -2.20169  -2.20112  -2.19570
  Beta  occ. eigenvalues --   -2.19378  -2.19349  -2.19325  -2.19277  -1.13849
  Beta  occ. eigenvalues --   -1.13826  -1.13800  -1.13790  -1.13772  -1.13751
  Beta  occ. eigenvalues --   -1.13296  -1.13263  -1.13231  -1.13167  -1.13074
  Beta  occ. eigenvalues --   -1.13034  -1.13001  -1.12991  -1.12981  -1.12971
  Beta  occ. eigenvalues --   -1.12965  -1.12954  -1.12945  -1.12939  -1.12911
  Beta  occ. eigenvalues --   -0.17446  -0.12802  -0.11792
  Beta virt. eigenvalues --   -0.06974  -0.05913  -0.05020  -0.04689  -0.02538
  Beta virt. eigenvalues --   -0.02130  -0.01687  -0.01670  -0.01061  -0.00609
  Beta virt. eigenvalues --   -0.00440   0.00096   0.00366   0.00807   0.00827

 Mulliken charges and spin densities:
               1          2
     1  Na   0.017148   0.262203
     2  Na  -0.000966  -0.052128
     3  Na   0.390624   0.067164
     4  Na  -0.376237   0.740517
     5  Na  -0.147112  -0.054613
     6  Na   0.035816  -0.007814
     7  Na   0.080726   0.044671
 Sum of Mulliken charges =  -0.00000   1.00000

 Dipole moment (field-independent basis, Debye):
    X=             -0.0349    Y=              0.0674    Z=              0.1025  Tot=              0.1275
 Quadrupole moment (field-independent basis, Debye-Ang):
   XX=            -55.1791   YY=            -64.3196   ZZ=            -74.1246
   XY=             -0.9214   XZ=             -0.1546   YZ=             -0.0623

 Normal termination of Gaussian 16 at Thu Dec  7 22:12:14 2023.
