 Gaussian 16, Revision B.01,
 Gaussian 16:  ES64L-G16RevB.01 20-Dec-2017

 -------------------------
 #P B3LYP/6-311+g(d) force
 -------------------------

 -----
 DPGEN
 -----
 Symbolic Z-matrix:
 Charge =  0 Multiplicity = 2

                         Standard orientation:
 ---------------------------------------------------------------------
 Center     Atomic      Atomic             Coordinates (Angstroms)
 Number     Number       Type             X           Y           Z
 ---------------------------------------------------------------------
      1         11           0        2.501565    2.675552    0.376531
      2         11           0        0.523086   -0.698021    1.794132
      3         11           0        2.863327   -0.791135   -0.463139
      4         11           0       -2.613546   -1.124907    0.333003
      5         11           0        0.024131    0.697706   -1.372090
      6         11           0       -3.453873    1.912230   -0.125502
      7         11           0        0.155310   -2.671424   -0.542935
 ---------------------------------------------------------------------

 SCF Done:  E(UB3LYP) =  -1136.12617357     A.U. after   21 cycles

 The electronic state is 2-A.
 Alpha  occ. eigenvalues --  -38.44372 -38.44358 -38.44021 -38.43723 -38.43604
 Alpha  occ. eigenvalues --  -38.43458 -38.42951  -2.20266  -2.20156  -2.19802
 Alpha  occ. eigenvalues --   -2.19619  -2.19517  -2.19415  -2.18907  -1.13964
 Alpha  occ. eigenvalues --   -1.13943  -1.13874  -1.13842  -1.13815  -1.13796
 Alpha  occ. eigenvalues --   -1.13472  -1.13464  -1.13436  -1.13307  -1.13297
 Alpha  occ. eigenvalues --   -1.13246  -1.13232  -1.13166  -1.13124  -1.13101
 Alpha  occ. eigenvalues --   -1.13068  -1.13014  -1.12572  -1.12566  -1.12538
 Alpha  occ. eigenvalues --   -0.18701  -0.13601  -0.12083  -0.10334
 Alpha virt. eigenvalues --   -0.06478  -0.05677  -0.04311  -0.03178  -0.02589
 Alpha virt. eigenvalues --   -0.02091  -0.01907  -0.01405  -0.00944  -0.00157
 Alpha virt. eigenvalues --   -0.00053   0.00269   0.00565   0.00701   0.00759

  Beta  occ. eigenvalues --  -38.44376 -38.44337 -38.44015 -38.43712 -38.43556
  Beta  occ. eigenvalues --  -38.43383 -38.42933  -2.20233  -2.20166  -2.19790
  Beta  occ. eigenvalues --   -2.19603  -2.19431  -2.19276  -2.18879  -1.13948
  Beta  occ. eigenvalues --   -1.13893  -1.13850  -1.13841  -1.13818  -1.13801
  Beta  occ. eigenvalues --   -1.13464  -1.13447  -1.13428  -1.13297  -1.13276
  Beta  occ. eigenvalues --   -1.13222  -1.13175  -1.13087  -1.13064  -1.13012
  Beta  occ. eigenvalues --   -1.12972  -1.12910  -1.12557  -1.12552  -1.12470
  Beta  occ. eigenvalues --   -0.17966  -0.13403  -0.11889
  Beta virt. eigenvalues --   -0.06515  -0.06310  -0.05527  -0.04233  -0.02554
  Beta virt. eigenvalues --   -0.02015  -0.01913  -0.01398  -0.00951  -0.00930
  Beta virt. eigenvalues --   -0.00152   0.00153   0.00316   0.00661   0.00745

 Mulliken charges and spin densities:
               1          2
     1  Na  -0.203418   0.012420
     2  Na  -0.358426   0.455509
     3  Na   0.493339   0.145203
     4  Na   0.253454   0.061769
     5  Na  -0.339308   0.219555
     6  Na   0.031250  -0.065928
     7  Na   0.123108   0.171472
 Sum of Mulliken charges =  -0.00000   1.00000

 Dipole moment (field-independent basis, Debye):
    X=              0.1301    Y=              0.3997    Z=              0.0261  Tot=              0.4212
 Quadrupole moment (field-independent basis, Debye-Ang):
   XX=            -55.4030   YY=            -61.4854   ZZ=            -75.9906
   XY=             -1.3058   XZ=             -0.5200   YZ=              2.2192

 Normal termination of Gaussian 16 at Tue Dec  5 22:35:03 2023.
