 Gaussian 16, Revision B.01,
 Gaussian 16:  ES64L-G16RevB.01 20-Dec-2017

 -------------------------
 #P B3LYP/6-311+g(d) force
 -------------------------

 -----
 DPGEN
 -----
 Symbolic Z-matrix:
 Charge =  0 Multiplicity = 2

                         Standard orientation:
 ---------------------------------------------------------------------
 Center     Atomic      Atomic             Coordinates (Angstroms)
 Number     Number       Type             X           Y           Z
 ---------------------------------------------------------------------
      1         11           0       -0.923995   -0.888351   -1.594700
      2         11           0        0.551162   -2.861320    0.312273
      3         11           0       -3.581723    0.125135    0.222546
      4         11           0        3.053957   -0.651347   -0.673769
      5         11           0        1.886103    2.507158    0.555097
      6         11           0       -0.224431   -0.352231    1.973654
      7         11           0       -0.761074    2.120957   -0.795102
 ---------------------------------------------------------------------

 SCF Done:  E(UB3LYP) =  -1136.12747024     A.U. after   20 cycles

 The electronic state is 2-A.
 Alpha  occ. eigenvalues --  -38.44766 -38.44733 -38.43704 -38.43557 -38.43461
 Alpha  occ. eigenvalues --  -38.43276 -38.43210  -2.20548  -2.20528  -2.19608
 Alpha  occ. eigenvalues --   -2.19510  -2.19380  -2.19175  -2.19062  -1.14224
 Alpha  occ. eigenvalues --   -1.14202  -1.14199  -1.14185  -1.14183  -1.14170
 Alpha  occ. eigenvalues --   -1.13306  -1.13268  -1.13251  -1.13215  -1.13187
 Alpha  occ. eigenvalues --   -1.13111  -1.13090  -1.13045  -1.12999  -1.12845
 Alpha  occ. eigenvalues --   -1.12832  -1.12785  -1.12715  -1.12704  -1.12693
 Alpha  occ. eigenvalues --   -0.18483  -0.13006  -0.12503  -0.10878
 Alpha virt. eigenvalues --   -0.06356  -0.04734  -0.04492  -0.03360  -0.03084
 Alpha virt. eigenvalues --   -0.02666  -0.02051  -0.00808  -0.00371  -0.00144
 Alpha virt. eigenvalues --    0.00127   0.00293   0.00656   0.00749   0.00878

  Beta  occ. eigenvalues --  -38.44752 -38.44735 -38.43610 -38.43503 -38.43444
  Beta  occ. eigenvalues --  -38.43267 -38.43207  -2.20533  -2.20524  -2.19436
  Beta  occ. eigenvalues --   -2.19412  -2.19353  -2.19164  -2.19058  -1.14202
  Beta  occ. eigenvalues --   -1.14197  -1.14185  -1.14177  -1.14171  -1.14170
  Beta  occ. eigenvalues --   -1.13207  -1.13196  -1.13134  -1.13115  -1.13092
  Beta  occ. eigenvalues --   -1.13071  -1.13039  -1.13001  -1.12977  -1.12830
  Beta  occ. eigenvalues --   -1.12804  -1.12766  -1.12711  -1.12694  -1.12685
  Beta  occ. eigenvalues --   -0.17756  -0.12797  -0.12295
  Beta virt. eigenvalues --   -0.07001  -0.06247  -0.04628  -0.04460  -0.02662
  Beta virt. eigenvalues --   -0.02367  -0.02004  -0.01580  -0.00766  -0.00336
  Beta virt. eigenvalues --   -0.00036   0.00172   0.00332   0.00761   0.00790

 Mulliken charges and spin densities:
               1          2
     1  Na   0.220527   0.284544
     2  Na   0.514330   0.126632
     3  Na   0.297599  -0.037969
     4  Na  -0.326587  -0.004031
     5  Na   0.404827  -0.008194
     6  Na  -0.612599   0.607573
     7  Na  -0.498097   0.031445
 Sum of Mulliken charges =  -0.00000   1.00000

 Dipole moment (field-independent basis, Debye):
    X=             -0.3392    Y=             -0.2658    Z=              0.0657  Tot=              0.4360
 Quadrupole moment (field-independent basis, Debye-Ang):
   XX=            -53.0459   YY=            -68.1883   ZZ=            -72.7300
   XY=             -0.6051   XZ=             -1.8893   YZ=              0.6340

 Normal termination of Gaussian 16 at Thu Dec  7 22:33:47 2023.
