 Gaussian 16, Revision B.01,
 Gaussian 16:  ES64L-G16RevB.01 20-Dec-2017

 -------------------------
 #P B3LYP/6-311+g(d) force
 -------------------------

 -----
 DPGEN
 -----
 Symbolic Z-matrix:
 Charge =  0 Multiplicity = 2

                         Standard orientation:
 ---------------------------------------------------------------------
 Center     Atomic      Atomic             Coordinates (Angstroms)
 Number     Number       Type             X           Y           Z
 ---------------------------------------------------------------------
      1         11           0        1.681181   -2.544451   -0.251896
      2         11           0       -0.313669   -0.450494   -1.710752
      3         11           0       -2.746162    1.643753   -0.229346
      4         11           0       -0.277816    0.112924    2.032269
      5         11           0        3.414701    0.431341    0.228161
      6         11           0       -2.616365   -1.875498    0.258663
      7         11           0        0.858131    2.682425   -0.327099
 ---------------------------------------------------------------------

 SCF Done:  E(UB3LYP) =  -1136.13442857     A.U. after   19 cycles

 The electronic state is 2-A.
 Alpha  occ. eigenvalues --  -38.44505 -38.44190 -38.44176 -38.43832 -38.43534
 Alpha  occ. eigenvalues --  -38.43309 -38.43095  -2.20296  -2.20011  -2.20001
 Alpha  occ. eigenvalues --   -2.19693  -2.19355  -2.19241  -2.18922  -1.13969
 Alpha  occ. eigenvalues --   -1.13950  -1.13944  -1.13693  -1.13684  -1.13673
 Alpha  occ. eigenvalues --   -1.13662  -1.13656  -1.13621  -1.13363  -1.13324
 Alpha  occ. eigenvalues --   -1.13309  -1.13073  -1.13012  -1.12985  -1.12913
 Alpha  occ. eigenvalues --   -1.12874  -1.12856  -1.12605  -1.12592  -1.12554
 Alpha  occ. eigenvalues --   -0.18254  -0.13262  -0.12003  -0.10645
 Alpha virt. eigenvalues --   -0.06100  -0.05648  -0.04279  -0.03313  -0.02749
 Alpha virt. eigenvalues --   -0.02528  -0.01844  -0.01323  -0.00637  -0.00277
 Alpha virt. eigenvalues --   -0.00052   0.00326   0.00690   0.00792   0.00814

  Beta  occ. eigenvalues --  -38.44506 -38.44183 -38.44168 -38.43744 -38.43530
  Beta  occ. eigenvalues --  -38.43241 -38.43089  -2.20299  -2.20001  -2.19990
  Beta  occ. eigenvalues --   -2.19530  -2.19350  -2.19119  -2.18915  -1.13965
  Beta  occ. eigenvalues --   -1.13950  -1.13947  -1.13688  -1.13659  -1.13657
  Beta  occ. eigenvalues --   -1.13648  -1.13636  -1.13615  -1.13254  -1.13210
  Beta  occ. eigenvalues --   -1.13189  -1.13055  -1.12997  -1.12984  -1.12832
  Beta  occ. eigenvalues --   -1.12789  -1.12767  -1.12599  -1.12573  -1.12547
  Beta  occ. eigenvalues --   -0.17533  -0.13082  -0.11761
  Beta virt. eigenvalues --   -0.06774  -0.05979  -0.05659  -0.04212  -0.02598
  Beta virt. eigenvalues --   -0.02021  -0.01736  -0.01497  -0.01248  -0.00672
  Beta virt. eigenvalues --   -0.00310   0.00104   0.00359   0.00769   0.00795

 Mulliken charges and spin densities:
               1          2
     1  Na   0.113240  -0.105723
     2  Na   0.024881   0.531263
     3  Na   0.173153  -0.022557
     4  Na  -0.339483   0.720836
     5  Na  -0.051185  -0.014447
     6  Na   0.174151  -0.065028
     7  Na  -0.094757  -0.044344
 Sum of Mulliken charges =  -0.00000   1.00000

 Dipole moment (field-independent basis, Debye):
    X=             -0.2218    Y=             -0.0974    Z=              0.1843  Tot=              0.3044
 Quadrupole moment (field-independent basis, Debye-Ang):
   XX=            -52.2406   YY=            -66.0317   ZZ=            -75.0018
   XY=              0.1243   XZ=              0.5699   YZ=             -1.2882

 Normal termination of Gaussian 16 at Thu Dec  7 16:43:59 2023.
