 Gaussian 16, Revision B.01,
 Gaussian 16:  ES64L-G16RevB.01 20-Dec-2017

 -------------------------
 #P B3LYP/6-311+g(d) force
 -------------------------

 -----
 DPGEN
 -----
 Symbolic Z-matrix:
 Charge =  0 Multiplicity = 2

                         Standard orientation:
 ---------------------------------------------------------------------
 Center     Atomic      Atomic             Coordinates (Angstroms)
 Number     Number       Type             X           Y           Z
 ---------------------------------------------------------------------
      1         11           0        1.181702   -0.687515    1.844316
      2         11           0       -0.773780    2.281288    0.452769
      3         11           0       -0.303862   -0.980446   -1.540235
      4         11           0        3.561807   -1.363897   -0.689828
      5         11           0        2.420934    1.846948   -0.373961
      6         11           0       -2.340618   -1.025143    1.575959
      7         11           0       -3.746184   -0.071236   -1.269019
 ---------------------------------------------------------------------

 SCF Done:  E(UB3LYP) =  -1136.12574023     A.U. after   26 cycles

 The electronic state is 2-A.
 Alpha  occ. eigenvalues --  -38.45010 -38.44625 -38.44592 -38.44307 -38.43751
 Alpha  occ. eigenvalues --  -38.43537 -38.42211  -2.20805  -2.20447  -2.20441
 Alpha  occ. eigenvalues --   -2.20179  -2.19610  -2.19349  -2.18051  -1.14518
 Alpha  occ. eigenvalues --   -1.14487  -1.14401  -1.14148  -1.14120  -1.14094
 Alpha  occ. eigenvalues --   -1.14087  -1.14079  -1.14029  -1.13873  -1.13815
 Alpha  occ. eigenvalues --   -1.13787  -1.13292  -1.13267  -1.13234  -1.13022
 Alpha  occ. eigenvalues --   -1.13012  -1.12982  -1.11743  -1.11711  -1.11682
 Alpha  occ. eigenvalues --   -0.18160  -0.14120  -0.11558  -0.10792
 Alpha virt. eigenvalues --   -0.06791  -0.05295  -0.04859  -0.03252  -0.02686
 Alpha virt. eigenvalues --   -0.02597  -0.02218  -0.01252  -0.00873  -0.00286
 Alpha virt. eigenvalues --    0.00098   0.00239   0.00358   0.00401   0.00656

  Beta  occ. eigenvalues --  -38.44990 -38.44597 -38.44543 -38.44239 -38.43729
  Beta  occ. eigenvalues --  -38.43538 -38.42204  -2.20772  -2.20390  -2.20359
  Beta  occ. eigenvalues --   -2.20056  -2.19569  -2.19352  -2.18041  -1.14482
  Beta  occ. eigenvalues --   -1.14460  -1.14376  -1.14098  -1.14061  -1.14050
  Beta  occ. eigenvalues --   -1.14044  -1.14028  -1.13967  -1.13791  -1.13720
  Beta  occ. eigenvalues --   -1.13693  -1.13258  -1.13244  -1.13206  -1.13017
  Beta  occ. eigenvalues --   -1.13015  -1.12985  -1.11735  -1.11691  -1.11678
  Beta  occ. eigenvalues --   -0.17460  -0.13930  -0.10621
  Beta virt. eigenvalues --   -0.07588  -0.06629  -0.04772  -0.04644  -0.02910
  Beta virt. eigenvalues --   -0.02507  -0.01966  -0.01722  -0.00880  -0.00654
  Beta virt. eigenvalues --   -0.00165   0.00132   0.00330   0.00428   0.00564

 Mulliken charges and spin densities:
               1          2
     1  Na  -0.245082   0.302924
     2  Na  -0.504503   0.134929
     3  Na  -0.995995   0.302414
     4  Na   0.713810   0.031404
     5  Na   0.065556   0.043632
     6  Na   0.118612   0.092551
     7  Na   0.847603   0.092146
 Sum of Mulliken charges =  -0.00000   1.00000

 Dipole moment (field-independent basis, Debye):
    X=             -0.6987    Y=             -0.1643    Z=             -0.0771  Tot=              0.7218
 Quadrupole moment (field-independent basis, Debye-Ang):
   XX=            -50.5451   YY=            -77.7457   ZZ=            -68.2161
   XY=             -0.0657   XZ=             -0.4634   YZ=             -4.2740

 Normal termination of Gaussian 16 at Thu Dec  7 18:32:13 2023.
