 Gaussian 16, Revision B.01,
 Gaussian 16:  ES64L-G16RevB.01 20-Dec-2017

 -------------------------
 #P B3LYP/6-311+g(d) force
 -------------------------

 -----
 DPGEN
 -----
 Symbolic Z-matrix:
 Charge =  0 Multiplicity = 2

                         Standard orientation:
 ---------------------------------------------------------------------
 Center     Atomic      Atomic             Coordinates (Angstroms)
 Number     Number       Type             X           Y           Z
 ---------------------------------------------------------------------
      1         11           0       -0.909729   -2.669522   -1.295925
      2         11           0       -3.033193   -1.726450    0.980323
      3         11           0        2.283869   -1.738287   -1.077674
      4         11           0        2.893495   -1.112521    1.729041
      5         11           0       -3.118779    1.442424    0.301337
      6         11           0        2.319119    2.377036   -0.030623
      7         11           0       -0.434781    3.427321   -0.606479
 ---------------------------------------------------------------------

 SCF Done:  E(UB3LYP) =  -1136.11190191     A.U. after   21 cycles

 The electronic state is 2-A.
 Alpha  occ. eigenvalues --  -38.45026 -38.44641 -38.44452 -38.44331 -38.44186
 Alpha  occ. eigenvalues --  -38.43789 -38.43574  -2.20832  -2.20442  -2.20310
 Alpha  occ. eigenvalues --   -2.20151  -2.20037  -2.19628  -2.19411  -1.14533
 Alpha  occ. eigenvalues --   -1.14502  -1.14452  -1.14117  -1.14102  -1.14088
 Alpha  occ. eigenvalues --   -1.14087  -1.13971  -1.13947  -1.13822  -1.13809
 Alpha  occ. eigenvalues --   -1.13799  -1.13669  -1.13657  -1.13637  -1.13282
 Alpha  occ. eigenvalues --   -1.13273  -1.13254  -1.13098  -1.13055  -1.13049
 Alpha  occ. eigenvalues --   -0.16502  -0.13882  -0.13436  -0.10456
 Alpha virt. eigenvalues --   -0.07062  -0.05348  -0.04092  -0.03852  -0.03346
 Alpha virt. eigenvalues --   -0.02057  -0.01671  -0.01489  -0.01163  -0.00955
 Alpha virt. eigenvalues --   -0.00144   0.00007   0.00193   0.00535   0.00653

  Beta  occ. eigenvalues --  -38.45005 -38.44612 -38.44437 -38.44327 -38.44118
  Beta  occ. eigenvalues --  -38.43725 -38.43560  -2.20797  -2.20389  -2.20291
  Beta  occ. eigenvalues --   -2.20147  -2.19910  -2.19510  -2.19387  -1.14502
  Beta  occ. eigenvalues --   -1.14480  -1.14413  -1.14077  -1.14069  -1.14047
  Beta  occ. eigenvalues --   -1.14047  -1.13954  -1.13916  -1.13817  -1.13808
  Beta  occ. eigenvalues --   -1.13777  -1.13588  -1.13571  -1.13553  -1.13201
  Beta  occ. eigenvalues --   -1.13196  -1.13171  -1.13072  -1.13040  -1.13033
  Beta  occ. eigenvalues --   -0.16015  -0.13334  -0.12894
  Beta virt. eigenvalues --   -0.07238  -0.06940  -0.04948  -0.03846  -0.03500
  Beta virt. eigenvalues --   -0.02902  -0.01728  -0.01384  -0.01303  -0.01101
  Beta virt. eigenvalues --   -0.00779   0.00060   0.00233   0.00457   0.00560

 Mulliken charges and spin densities:
               1          2
     1  Na  -0.353674   0.188591
     2  Na   0.023084   0.029279
     3  Na   0.291240   0.149264
     4  Na   0.035783   0.339388
     5  Na  -0.029508   0.175014
     6  Na  -0.299229   0.081201
     7  Na   0.332304   0.037261
 Sum of Mulliken charges =  -0.00000   1.00000

 Dipole moment (field-independent basis, Debye):
    X=              0.0903    Y=              0.0533    Z=              0.4189  Tot=              0.4319
 Quadrupole moment (field-independent basis, Debye-Ang):
   XX=            -65.4647   YY=            -69.0551   ZZ=            -68.3952
   XY=              1.1784   XZ=             -1.3032   YZ=             -2.4617

 Normal termination of Gaussian 16 at Mon Dec  4 04:22:12 2023.
