 Gaussian 16, Revision B.01,
 Gaussian 16:  ES64L-G16RevB.01 20-Dec-2017

 -------------------------
 #P B3LYP/6-311+g(d) force
 -------------------------

 -----
 DPGEN
 -----
 Symbolic Z-matrix:
 Charge =  0 Multiplicity = 2

                         Standard orientation:
 ---------------------------------------------------------------------
 Center     Atomic      Atomic             Coordinates (Angstroms)
 Number     Number       Type             X           Y           Z
 ---------------------------------------------------------------------
      1         11           0       -2.343870   -0.448111    0.976632
      2         11           0       -3.268311    2.468969   -0.407065
      3         11           0        3.056214    0.819411    0.086099
      4         11           0       -4.624044   -2.387675   -0.102455
      5         11           0        6.301503   -0.843760    0.136100
      6         11           0        0.030624    1.885168    0.062884
      7         11           0        0.847883   -1.494002   -0.752195
 ---------------------------------------------------------------------

 SCF Done:  E(UB3LYP) =  -1136.11200509     A.U. after   24 cycles

 The electronic state is 2-A.
 Alpha  occ. eigenvalues --  -38.45733 -38.45093 -38.44320 -38.44284 -38.43625
 Alpha  occ. eigenvalues --  -38.43421 -38.43174  -2.21545  -2.20879  -2.20170
 Alpha  occ. eigenvalues --   -2.20108  -2.19392  -2.19313  -2.19077  -1.15211
 Alpha  occ. eigenvalues --   -1.15191  -1.15159  -1.14514  -1.14513  -1.14485
 Alpha  occ. eigenvalues --   -1.13848  -1.13844  -1.13827  -1.13765  -1.13757
 Alpha  occ. eigenvalues --   -1.13727  -1.13106  -1.13059  -1.13052  -1.12999
 Alpha  occ. eigenvalues --   -1.12987  -1.12908  -1.12762  -1.12759  -1.12700
 Alpha  occ. eigenvalues --   -0.17293  -0.14194  -0.11833  -0.11265
 Alpha virt. eigenvalues --   -0.06783  -0.05659  -0.04517  -0.03439  -0.02934
 Alpha virt. eigenvalues --   -0.02737  -0.01812  -0.01486  -0.01375  -0.01120
 Alpha virt. eigenvalues --   -0.00239  -0.00045   0.00032   0.00310   0.00588

  Beta  occ. eigenvalues --  -38.45675 -38.44978 -38.44320 -38.44233 -38.43650
  Beta  occ. eigenvalues --  -38.43414 -38.43170  -2.21438  -2.20664  -2.20178
  Beta  occ. eigenvalues --   -2.20013  -2.19438  -2.19302  -2.19072  -1.15139
  Beta  occ. eigenvalues --   -1.15117  -1.15084  -1.14368  -1.14366  -1.14342
  Beta  occ. eigenvalues --   -1.13861  -1.13855  -1.13783  -1.13698  -1.13693
  Beta  occ. eigenvalues --   -1.13665  -1.13131  -1.13090  -1.13081  -1.12989
  Beta  occ. eigenvalues --   -1.12964  -1.12913  -1.12763  -1.12760  -1.12667
  Beta  occ. eigenvalues --   -0.16754  -0.13560  -0.11095
  Beta virt. eigenvalues --   -0.08186  -0.06438  -0.05358  -0.04099  -0.03228
  Beta virt. eigenvalues --   -0.02625  -0.02397  -0.01420  -0.01279  -0.01032
  Beta virt. eigenvalues --   -0.00686  -0.00157   0.00044   0.00148   0.00405

 Mulliken charges and spin densities:
               1          2
     1  Na  -0.144748  -0.144629
     2  Na   0.478766   0.259090
     3  Na  -0.322799   0.234931
     4  Na   0.040979  -0.063753
     5  Na   0.424692   0.398061
     6  Na  -0.471686   0.038861
     7  Na  -0.005204   0.277439
 Sum of Mulliken charges =  -0.00000   1.00000

 Dipole moment (field-independent basis, Debye):
    X=              0.6202    Y=             -0.0331    Z=             -0.8179  Tot=              1.0270
 Quadrupole moment (field-independent basis, Debye-Ang):
   XX=            -59.9636   YY=            -69.7339   ZZ=            -70.5776
   XY=             -4.8563   XZ=              3.5850   YZ=              1.9900

 Normal termination of Gaussian 16 at Tue Nov 28 22:58:08 2023.
