 Gaussian 16, Revision B.01,
 Gaussian 16:  ES64L-G16RevB.01 20-Dec-2017

 -------------------------
 #P B3LYP/6-311+g(d) force
 -------------------------

 -----
 DPGEN
 -----
 Symbolic Z-matrix:
 Charge =  0 Multiplicity = 2

                         Standard orientation:
 ---------------------------------------------------------------------
 Center     Atomic      Atomic             Coordinates (Angstroms)
 Number     Number       Type             X           Y           Z
 ---------------------------------------------------------------------
      1         11           0        2.186050   -0.936969   -0.787591
      2         11           0        4.708924   -1.775054    1.389842
      3         11           0        4.211240    1.830284    0.224615
      4         11           0        1.081432    1.878850   -0.716101
      5         11           0       -1.377155   -0.918867   -1.016606
      6         11           0       -4.746891   -0.814624   -0.684890
      7         11           0       -6.063600    0.736380    1.590731
 ---------------------------------------------------------------------

 SCF Done:  E(UB3LYP) =  -1136.11458582     A.U. after   22 cycles

 The electronic state is 2-A.
 Alpha  occ. eigenvalues --  -38.44527 -38.44423 -38.44291 -38.44176 -38.43983
 Alpha  occ. eigenvalues --  -38.43945 -38.43327  -2.20322  -2.20258  -2.20184
 Alpha  occ. eigenvalues --   -2.20083  -2.19788  -2.19773  -2.19146  -1.14006
 Alpha  occ. eigenvalues --   -1.14003  -1.13970  -1.13967  -1.13936  -1.13927
 Alpha  occ. eigenvalues --   -1.13868  -1.13843  -1.13776  -1.13767  -1.13729
 Alpha  occ. eigenvalues --   -1.13651  -1.13445  -1.13439  -1.13436  -1.13428
 Alpha  occ. eigenvalues --   -1.13424  -1.13393  -1.12821  -1.12812  -1.12763
 Alpha  occ. eigenvalues --   -0.16915  -0.14228  -0.11870  -0.11312
 Alpha virt. eigenvalues --   -0.06882  -0.04961  -0.04129  -0.03698  -0.03043
 Alpha virt. eigenvalues --   -0.02572  -0.02300  -0.01482  -0.00993  -0.00638
 Alpha virt. eigenvalues --   -0.00444  -0.00069   0.00089   0.00356   0.00625

  Beta  occ. eigenvalues --  -38.44509 -38.44382 -38.44245 -38.44157 -38.43949
  Beta  occ. eigenvalues --  -38.43920 -38.43303  -2.20287  -2.20187  -2.20103
  Beta  occ. eigenvalues --   -2.20050  -2.19783  -2.19672  -2.19100  -1.13984
  Beta  occ. eigenvalues --   -1.13951  -1.13945  -1.13943  -1.13888  -1.13874
  Beta  occ. eigenvalues --   -1.13803  -1.13795  -1.13749  -1.13695  -1.13674
  Beta  occ. eigenvalues --   -1.13621  -1.13440  -1.13436  -1.13420  -1.13362
  Beta  occ. eigenvalues --   -1.13355  -1.13323  -1.12788  -1.12779  -1.12740
  Beta  occ. eigenvalues --   -0.16237  -0.13983  -0.11441
  Beta virt. eigenvalues --   -0.07741  -0.06489  -0.04671  -0.03784  -0.03527
  Beta virt. eigenvalues --   -0.02571  -0.02448  -0.01846  -0.01322  -0.00721
  Beta virt. eigenvalues --   -0.00409  -0.00120   0.00069   0.00231   0.00403

 Mulliken charges and spin densities:
               1          2
     1  Na  -1.085397   0.266209
     2  Na   0.487087   0.223337
     3  Na   0.556183   0.113433
     4  Na  -0.150731   0.241027
     5  Na  -0.025573   0.062282
     6  Na   0.064172   0.014297
     7  Na   0.154259   0.079415
 Sum of Mulliken charges =  -0.00000   1.00000

 Dipole moment (field-independent basis, Debye):
    X=              0.3117    Y=              0.8650    Z=              0.6897  Tot=              1.1493
 Quadrupole moment (field-independent basis, Debye-Ang):
   XX=            -63.5297   YY=            -65.7055   ZZ=            -67.0691
   XY=             -0.9150   XZ=             -1.2006   YZ=              2.7954

 Normal termination of Gaussian 16 at Tue Nov 28 21:18:50 2023.
