 Gaussian 16, Revision B.01,
 Gaussian 16:  ES64L-G16RevB.01 20-Dec-2017

 -------------------------
 #P B3LYP/6-311+g(d) force
 -------------------------

 -----
 DPGEN
 -----
 Symbolic Z-matrix:
 Charge =  0 Multiplicity = 2

                         Standard orientation:
 ---------------------------------------------------------------------
 Center     Atomic      Atomic             Coordinates (Angstroms)
 Number     Number       Type             X           Y           Z
 ---------------------------------------------------------------------
      1         11           0       -1.447660   -2.836600   -0.099503
      2         11           0        0.016952   -0.031811   -1.426759
      3         11           0       -0.914788    3.076684   -0.294375
      4         11           0       -3.191176    0.132353   -0.003043
      5         11           0        2.542393   -2.013340   -0.103530
      6         11           0        0.040084    0.237409    2.000269
      7         11           0        2.954195    1.435304   -0.073058
 ---------------------------------------------------------------------

 SCF Done:  E(UB3LYP) =  -1136.13608875     A.U. after   19 cycles

 The electronic state is 2-A.
 Alpha  occ. eigenvalues --  -38.44393 -38.44277 -38.44097 -38.43602 -38.43591
 Alpha  occ. eigenvalues --  -38.43243 -38.42965  -2.20193  -2.20097  -2.19901
 Alpha  occ. eigenvalues --   -2.19406  -2.19403  -2.19117  -2.18933  -1.13869
 Alpha  occ. eigenvalues --   -1.13854  -1.13833  -1.13774  -1.13762  -1.13730
 Alpha  occ. eigenvalues --   -1.13578  -1.13560  -1.13536  -1.13086  -1.13083
 Alpha  occ. eigenvalues --   -1.13063  -1.13062  -1.13045  -1.13045  -1.12806
 Alpha  occ. eigenvalues --   -1.12732  -1.12730  -1.12636  -1.12562  -1.12560
 Alpha  occ. eigenvalues --   -0.18211  -0.13114  -0.12228  -0.10119
 Alpha virt. eigenvalues --   -0.05870  -0.05563  -0.04978  -0.03016  -0.02560
 Alpha virt. eigenvalues --   -0.02148  -0.01759  -0.01410  -0.00786  -0.00748
 Alpha virt. eigenvalues --    0.00006   0.00327   0.00736   0.00775   0.00812

  Beta  occ. eigenvalues --  -38.44390 -38.44273 -38.44094 -38.43596 -38.43589
  Beta  occ. eigenvalues --  -38.43144 -38.42915  -2.20191  -2.20093  -2.19898
  Beta  occ. eigenvalues --   -2.19403  -2.19396  -2.18933  -2.18843  -1.13858
  Beta  occ. eigenvalues --   -1.13842  -1.13835  -1.13766  -1.13744  -1.13733
  Beta  occ. eigenvalues --   -1.13568  -1.13547  -1.13538  -1.13078  -1.13071
  Beta  occ. eigenvalues --   -1.13049  -1.13048  -1.13045  -1.13041  -1.12685
  Beta  occ. eigenvalues --   -1.12604  -1.12599  -1.12559  -1.12496  -1.12493
  Beta  occ. eigenvalues --   -0.17518  -0.12915  -0.12010
  Beta virt. eigenvalues --   -0.06242  -0.05838  -0.05555  -0.04930  -0.02270
  Beta virt. eigenvalues --   -0.01872  -0.01662  -0.01328  -0.01111  -0.00836
  Beta virt. eigenvalues --   -0.00788   0.00167   0.00372   0.00769   0.00801

 Mulliken charges and spin densities:
               1          2
     1  Na   0.074690  -0.056210
     2  Na  -0.324775   0.409579
     3  Na   0.090709  -0.051707
     4  Na   0.250675   0.003096
     5  Na   0.116974  -0.043601
     6  Na  -0.397346   0.789234
     7  Na   0.189073  -0.050391
 Sum of Mulliken charges =  -0.00000   1.00000

 Dipole moment (field-independent basis, Debye):
    X=              0.1933    Y=              0.0557    Z=              0.0750  Tot=              0.2147
 Quadrupole moment (field-independent basis, Debye-Ang):
   XX=            -53.6266   YY=            -59.4084   ZZ=            -78.1303
   XY=              0.1245   XZ=             -0.1733   YZ=             -0.6105

 Normal termination of Gaussian 16 at Fri Dec  8 01:08:11 2023.
