 Gaussian 16, Revision B.01,
 Gaussian 16:  ES64L-G16RevB.01 20-Dec-2017

 -------------------------
 #P B3LYP/6-311+g(d) force
 -------------------------

 -----
 DPGEN
 -----
 Symbolic Z-matrix:
 Charge =  0 Multiplicity = 2

                         Standard orientation:
 ---------------------------------------------------------------------
 Center     Atomic      Atomic             Coordinates (Angstroms)
 Number     Number       Type             X           Y           Z
 ---------------------------------------------------------------------
      1         11           0       -0.634547   -2.105067    0.550336
      2         11           0       -3.931257   -2.584733   -0.103075
      3         11           0       -2.943352    0.225116   -0.402404
      4         11           0       -1.813372    3.720097    0.328296
      5         11           0        0.159786    1.236589   -0.818822
      6         11           0        2.866940    0.346627    0.968283
      7         11           0        6.295802   -0.838630   -0.522613
 ---------------------------------------------------------------------

 SCF Done:  E(UB3LYP) =  -1136.11734553     A.U. after   20 cycles

 The electronic state is 2-A.
 Alpha  occ. eigenvalues --  -38.44702 -38.44614 -38.44311 -38.44016 -38.43847
 Alpha  occ. eigenvalues --  -38.43751 -38.43693  -2.20530  -2.20388  -2.20175
 Alpha  occ. eigenvalues --   -2.19939  -2.19639  -2.19583  -2.19511  -1.14227
 Alpha  occ. eigenvalues --   -1.14218  -1.14118  -1.14024  -1.14024  -1.13987
 Alpha  occ. eigenvalues --   -1.13919  -1.13814  -1.13792  -1.13658  -1.13620
 Alpha  occ. eigenvalues --   -1.13495  -1.13317  -1.13304  -1.13296  -1.13272
 Alpha  occ. eigenvalues --   -1.13259  -1.13213  -1.13184  -1.13168  -1.13128
 Alpha  occ. eigenvalues --   -0.17220  -0.13523  -0.12534  -0.10919
 Alpha virt. eigenvalues --   -0.06052  -0.05869  -0.04790  -0.03584  -0.02613
 Alpha virt. eigenvalues --   -0.02234  -0.02192  -0.01332  -0.01289  -0.00908
 Alpha virt. eigenvalues --   -0.00350  -0.00052   0.00065   0.00389   0.00556

  Beta  occ. eigenvalues --  -38.44670 -38.44488 -38.44295 -38.44002 -38.43832
  Beta  occ. eigenvalues --  -38.43772 -38.43677  -2.20472  -2.20153  -2.20144
  Beta  occ. eigenvalues --   -2.19915  -2.19611  -2.19558  -2.19555  -1.14189
  Beta  occ. eigenvalues --   -1.14180  -1.14069  -1.13893  -1.13865  -1.13864
  Beta  occ. eigenvalues --   -1.13832  -1.13794  -1.13772  -1.13630  -1.13604
  Beta  occ. eigenvalues --   -1.13479  -1.13301  -1.13290  -1.13285  -1.13254
  Beta  occ. eigenvalues --   -1.13247  -1.13227  -1.13217  -1.13158  -1.13108
  Beta  occ. eigenvalues --   -0.16838  -0.13203  -0.11868
  Beta virt. eigenvalues --   -0.07434  -0.05795  -0.05394  -0.04625  -0.03311
  Beta virt. eigenvalues --   -0.02386  -0.02069  -0.01904  -0.01115  -0.00784
  Beta virt. eigenvalues --   -0.00466  -0.00179   0.00149   0.00285   0.00528

 Mulliken charges and spin densities:
               1          2
     1  Na  -0.198664   0.125681
     2  Na   0.742894   0.068727
     3  Na  -0.605915   0.209405
     4  Na   0.471070   0.084439
     5  Na  -0.598723  -0.017223
     6  Na   0.210220  -0.118411
     7  Na  -0.020882   0.647383
 Sum of Mulliken charges =  -0.00000   1.00000

 Dipole moment (field-independent basis, Debye):
    X=             -1.6895    Y=             -0.6402    Z=              0.3029  Tot=              1.8319
 Quadrupole moment (field-independent basis, Debye-Ang):
   XX=            -68.8754   YY=            -60.9959   ZZ=            -69.4241
   XY=              4.2375   XZ=             -1.5448   YZ=              2.3322

 Normal termination of Gaussian 16 at Tue Nov 28 21:06:59 2023.
