 Gaussian 16, Revision B.01,
 Gaussian 16:  ES64L-G16RevB.01 20-Dec-2017

 -------------------------
 #P B3LYP/6-311+g(d) force
 -------------------------

 -----
 DPGEN
 -----
 Symbolic Z-matrix:
 Charge =  0 Multiplicity = 2

                         Standard orientation:
 ---------------------------------------------------------------------
 Center     Atomic      Atomic             Coordinates (Angstroms)
 Number     Number       Type             X           Y           Z
 ---------------------------------------------------------------------
      1         11           0        2.311525   -2.342033    0.864247
      2         11           0        5.424074   -0.189043   -0.820774
      3         11           0        3.073843    1.697596    0.326998
      4         11           0       -0.054135    2.390226    0.026832
      5         11           0       -0.266283   -1.581155   -0.515355
      6         11           0       -3.709223    0.356532    0.688356
      7         11           0       -6.779801   -0.332123   -0.570305
 ---------------------------------------------------------------------

 SCF Done:  E(UB3LYP) =  -1136.10624115     A.U. after   27 cycles

 The electronic state is 2-A.
 Alpha  occ. eigenvalues --  -38.45886 -38.45382 -38.44178 -38.44085 -38.43928
 Alpha  occ. eigenvalues --  -38.43909 -38.43890  -2.21706  -2.21207  -2.20024
 Alpha  occ. eigenvalues --   -2.19843  -2.19729  -2.19690  -2.19681  -1.15370
 Alpha  occ. eigenvalues --   -1.15350  -1.15292  -1.14896  -1.14858  -1.14803
 Alpha  occ. eigenvalues --   -1.13702  -1.13695  -1.13668  -1.13506  -1.13505
 Alpha  occ. eigenvalues --   -1.13486  -1.13419  -1.13390  -1.13380  -1.13373
 Alpha  occ. eigenvalues --   -1.13354  -1.13343  -1.13334  -1.13316  -1.13294
 Alpha  occ. eigenvalues --   -0.16827  -0.13425  -0.12804  -0.11412
 Alpha virt. eigenvalues --   -0.06768  -0.05465  -0.04766  -0.03745  -0.03002
 Alpha virt. eigenvalues --   -0.02562  -0.02083  -0.01839  -0.01134  -0.00953
 Alpha virt. eigenvalues --   -0.00488  -0.00192   0.00005   0.00154   0.00518

  Beta  occ. eigenvalues --  -38.45777 -38.45317 -38.44147 -38.44070 -38.43931
  Beta  occ. eigenvalues --  -38.43899 -38.43880  -2.21506  -2.21088  -2.19973
  Beta  occ. eigenvalues --   -2.19816  -2.19713  -2.19697  -2.19663  -1.15225
  Beta  occ. eigenvalues --   -1.15217  -1.15156  -1.14814  -1.14780  -1.14717
  Beta  occ. eigenvalues --   -1.13672  -1.13650  -1.13613  -1.13488  -1.13487
  Beta  occ. eigenvalues --   -1.13468  -1.13399  -1.13385  -1.13381  -1.13378
  Beta  occ. eigenvalues --   -1.13336  -1.13331  -1.13320  -1.13303  -1.13295
  Beta  occ. eigenvalues --   -0.15903  -0.13223  -0.11151
  Beta virt. eigenvalues --   -0.08979  -0.06334  -0.05094  -0.04329  -0.03221
  Beta virt. eigenvalues --   -0.02815  -0.02463  -0.01808  -0.01382  -0.00923
  Beta virt. eigenvalues --   -0.00761  -0.00245  -0.00097   0.00145   0.00253

 Mulliken charges and spin densities:
               1          2
     1  Na   0.289534   0.279983
     2  Na   0.471014   0.064915
     3  Na  -0.408349   0.075758
     4  Na   0.151857   0.508651
     5  Na  -0.363288   0.090556
     6  Na  -0.376512  -0.070338
     7  Na   0.235745   0.050475
 Sum of Mulliken charges =  -0.00000   1.00000

 Dipole moment (field-independent basis, Debye):
    X=              0.8675    Y=             -0.2917    Z=             -0.1263  Tot=              0.9239
 Quadrupole moment (field-independent basis, Debye-Ang):
   XX=            -68.5313   YY=            -66.4660   ZZ=            -69.2151
   XY=             -5.0649   XZ=              3.1269   YZ=              0.6012

 Normal termination of Gaussian 16 at Wed Nov 29 02:20:57 2023.
