 Gaussian 16, Revision B.01,
 Gaussian 16:  ES64L-G16RevB.01 20-Dec-2017

 -------------------------
 #P B3LYP/6-311+g(d) force
 -------------------------

 -----
 DPGEN
 -----
 Symbolic Z-matrix:
 Charge =  0 Multiplicity = 2

                         Standard orientation:
 ---------------------------------------------------------------------
 Center     Atomic      Atomic             Coordinates (Angstroms)
 Number     Number       Type             X           Y           Z
 ---------------------------------------------------------------------
      1         11           0        1.998603    1.268570    1.355928
      2         11           0       -0.851925    0.385746   -1.061589
      3         11           0       -2.772484   -1.911067    0.837723
      4         11           0        1.543495   -2.216066   -0.687330
      5         11           0        4.382097   -1.003757   -0.027784
      6         11           0       -4.852905    0.297641   -0.022472
      7         11           0        0.553118    3.178933   -0.394475
 ---------------------------------------------------------------------

 SCF Done:  E(UB3LYP) =  -1136.11933123     A.U. after   20 cycles

 The electronic state is 2-A.
 Alpha  occ. eigenvalues --  -38.44726 -38.44415 -38.44369 -38.43835 -38.43478
 Alpha  occ. eigenvalues --  -38.43411 -38.43124  -2.20532  -2.20279  -2.20187
 Alpha  occ. eigenvalues --   -2.19718  -2.19311  -2.19250  -2.19003  -1.14212
 Alpha  occ. eigenvalues --   -1.14209  -1.14183  -1.13984  -1.13940  -1.13902
 Alpha  occ. eigenvalues --   -1.13832  -1.13827  -1.13800  -1.13407  -1.13382
 Alpha  occ. eigenvalues --   -1.13340  -1.13018  -1.12962  -1.12955  -1.12925
 Alpha  occ. eigenvalues --   -1.12910  -1.12835  -1.12683  -1.12652  -1.12632
 Alpha  occ. eigenvalues --   -0.17090  -0.14105  -0.12162  -0.10615
 Alpha virt. eigenvalues --   -0.06545  -0.04748  -0.04501  -0.03869  -0.03267
 Alpha virt. eigenvalues --   -0.02213  -0.01606  -0.01258  -0.01058  -0.00549
 Alpha virt. eigenvalues --   -0.00346  -0.00079   0.00462   0.00658   0.00663

  Beta  occ. eigenvalues --  -38.44729 -38.44387 -38.44306 -38.43789 -38.43446
  Beta  occ. eigenvalues --  -38.43383 -38.43123  -2.20543  -2.20230  -2.20069
  Beta  occ. eigenvalues --   -2.19635  -2.19251  -2.19201  -2.19002  -1.14222
  Beta  occ. eigenvalues --   -1.14218  -1.14154  -1.13952  -1.13894  -1.13865
  Beta  occ. eigenvalues --   -1.13750  -1.13746  -1.13728  -1.13351  -1.13306
  Beta  occ. eigenvalues --   -1.13290  -1.12983  -1.12922  -1.12907  -1.12892
  Beta  occ. eigenvalues --   -1.12874  -1.12783  -1.12679  -1.12645  -1.12632
  Beta  occ. eigenvalues --   -0.16467  -0.13543  -0.12016
  Beta virt. eigenvalues --   -0.07113  -0.06286  -0.04639  -0.03847  -0.03584
  Beta virt. eigenvalues --   -0.02931  -0.02094  -0.01242  -0.01090  -0.00672
  Beta virt. eigenvalues --   -0.00327  -0.00141   0.00081   0.00539   0.00703

 Mulliken charges and spin densities:
               1          2
     1  Na  -0.110968   0.199219
     2  Na  -0.923256   0.253112
     3  Na   0.260132   0.019209
     4  Na   0.047565   0.067817
     5  Na   0.126455   0.202597
     6  Na   0.103000   0.297620
     7  Na   0.497073  -0.039574
 Sum of Mulliken charges =  -0.00000   1.00000

 Dipole moment (field-independent basis, Debye):
    X=             -0.7729    Y=              0.1952    Z=              0.1172  Tot=              0.8057
 Quadrupole moment (field-independent basis, Debye-Ang):
   XX=            -66.1866   YY=            -66.9479   ZZ=            -67.0516
   XY=             -1.2238   XZ=              0.4520   YZ=             -3.5185

 Normal termination of Gaussian 16 at Tue Nov 28 20:47:54 2023.
