 Gaussian 16, Revision B.01,
 Gaussian 16:  ES64L-G16RevB.01 20-Dec-2017

 -------------------------
 #P B3LYP/6-311+g(d) force
 -------------------------

 -----
 DPGEN
 -----
 Symbolic Z-matrix:
 Charge =  0 Multiplicity = 2

                         Standard orientation:
 ---------------------------------------------------------------------
 Center     Atomic      Atomic             Coordinates (Angstroms)
 Number     Number       Type             X           Y           Z
 ---------------------------------------------------------------------
      1         11           0        1.882639   -2.437528   -0.597839
      2         11           0       -0.181170   -0.646488    1.955151
      3         11           0        0.913591    2.684665    0.085485
      4         11           0       -3.327503   -1.802844    0.138024
      5         11           0       -0.440772    0.019023   -1.672318
      6         11           0       -2.825455    1.860273   -0.111661
      7         11           0        3.978670    0.322899    0.203159
 ---------------------------------------------------------------------

 SCF Done:  E(UB3LYP) =  -1136.12110519     A.U. after   24 cycles

 The electronic state is 2-A.
 Alpha  occ. eigenvalues --  -38.45656 -38.44712 -38.44572 -38.44287 -38.43640
 Alpha  occ. eigenvalues --  -38.43481 -38.43016  -2.21394  -2.20468  -2.20369
 Alpha  occ. eigenvalues --   -2.20096  -2.19446  -2.19375  -2.18813  -1.15072
 Alpha  occ. eigenvalues --   -1.15049  -1.15031  -1.14141  -1.14135  -1.14112
 Alpha  occ. eigenvalues --   -1.14055  -1.14028  -1.13990  -1.13778  -1.13739
 Alpha  occ. eigenvalues --   -1.13701  -1.13126  -1.13106  -1.13079  -1.13064
 Alpha  occ. eigenvalues --   -1.13008  -1.12992  -1.12505  -1.12492  -1.12431
 Alpha  occ. eigenvalues --   -0.17598  -0.13359  -0.11543  -0.10222
 Alpha virt. eigenvalues --   -0.07220  -0.05830  -0.04203  -0.03226  -0.02730
 Alpha virt. eigenvalues --   -0.02442  -0.02241  -0.01747  -0.00940  -0.00295
 Alpha virt. eigenvalues --   -0.00267   0.00085   0.00476   0.00550   0.00643

  Beta  occ. eigenvalues --  -38.45655 -38.44718 -38.44566 -38.44211 -38.43616
  Beta  occ. eigenvalues --  -38.43412 -38.43014  -2.21393  -2.20481  -2.20360
  Beta  occ. eigenvalues --   -2.19957  -2.19405  -2.19249  -2.18812  -1.15066
  Beta  occ. eigenvalues --   -1.15045  -1.15031  -1.14148  -1.14133  -1.14120
  Beta  occ. eigenvalues --   -1.14035  -1.14020  -1.13989  -1.13681  -1.13640
  Beta  occ. eigenvalues --   -1.13600  -1.13091  -1.13064  -1.13052  -1.12978
  Beta  occ. eigenvalues --   -1.12924  -1.12894  -1.12504  -1.12481  -1.12426
  Beta  occ. eigenvalues --   -0.16933  -0.13228  -0.11289
  Beta virt. eigenvalues --   -0.07083  -0.06481  -0.05749  -0.04063  -0.02697
  Beta virt. eigenvalues --   -0.02491  -0.01868  -0.01739  -0.01220  -0.00925
  Beta virt. eigenvalues --   -0.00278  -0.00080   0.00137   0.00622   0.00642

 Mulliken charges and spin densities:
               1          2
     1  Na   0.091253   0.069278
     2  Na  -0.262129   0.621839
     3  Na  -0.305292  -0.001574
     4  Na   0.066790  -0.045374
     5  Na   0.306087   0.344042
     6  Na   0.099728   0.014531
     7  Na   0.003564  -0.002742
 Sum of Mulliken charges =  -0.00000   1.00000

 Dipole moment (field-independent basis, Debye):
    X=             -0.0267    Y=             -0.0518    Z=              0.1340  Tot=              0.1462
 Quadrupole moment (field-independent basis, Debye-Ang):
   XX=            -44.9820   YY=            -69.5215   ZZ=            -77.0869
   XY=              0.2671   XZ=              0.7674   YZ=              1.4263

 Normal termination of Gaussian 16 at Thu Dec  7 10:17:11 2023.
