 Gaussian 16, Revision B.01,
 Gaussian 16:  ES64L-G16RevB.01 20-Dec-2017

 -------------------------
 #P B3LYP/6-311+g(d) force
 -------------------------

 -----
 DPGEN
 -----
 Symbolic Z-matrix:
 Charge =  0 Multiplicity = 2

                         Standard orientation:
 ---------------------------------------------------------------------
 Center     Atomic      Atomic             Coordinates (Angstroms)
 Number     Number       Type             X           Y           Z
 ---------------------------------------------------------------------
      1         11           0        1.669805   -1.674931   -0.339592
      2         11           0        1.250348    2.291939    0.060429
      3         11           0       -1.631871    0.573548   -1.095589
      4         11           0       -0.989324   -3.343904   -0.624154
      5         11           0       -2.738058   -1.532249    1.486056
      6         11           0       -1.975202    3.584924    0.017032
      7         11           0        4.414302    0.100673    0.495818
 ---------------------------------------------------------------------

 SCF Done:  E(UB3LYP) =  -1136.12511577     A.U. after   21 cycles

 The electronic state is 2-A.
 Alpha  occ. eigenvalues --  -38.44824 -38.44788 -38.44703 -38.43733 -38.43405
 Alpha  occ. eigenvalues --  -38.43344 -38.43282  -2.20637  -2.20618  -2.20517
 Alpha  occ. eigenvalues --   -2.19604  -2.19211  -2.19206  -2.19137  -1.14359
 Alpha  occ. eigenvalues --   -1.14341  -1.14326  -1.14318  -1.14267  -1.14209
 Alpha  occ. eigenvalues --   -1.14171  -1.14158  -1.14118  -1.13306  -1.13268
 Alpha  occ. eigenvalues --   -1.13234  -1.12900  -1.12891  -1.12881  -1.12863
 Alpha  occ. eigenvalues --   -1.12839  -1.12789  -1.12781  -1.12774  -1.12751
 Alpha  occ. eigenvalues --   -0.17217  -0.13761  -0.13110  -0.09800
 Alpha virt. eigenvalues --   -0.06295  -0.05960  -0.04881  -0.03244  -0.02718
 Alpha virt. eigenvalues --   -0.02231  -0.01884  -0.01431  -0.01262  -0.00911
 Alpha virt. eigenvalues --    0.00008   0.00153   0.00380   0.00539   0.00602

  Beta  occ. eigenvalues --  -38.44822 -38.44783 -38.44704 -38.43703 -38.43373
  Beta  occ. eigenvalues --  -38.43308 -38.43192  -2.20630  -2.20615  -2.20521
  Beta  occ. eigenvalues --   -2.19557  -2.19151  -2.19145  -2.18968  -1.14356
  Beta  occ. eigenvalues --   -1.14326  -1.14319  -1.14318  -1.14259  -1.14204
  Beta  occ. eigenvalues --   -1.14170  -1.14157  -1.14118  -1.13264  -1.13221
  Beta  occ. eigenvalues --   -1.13186  -1.12860  -1.12855  -1.12838  -1.12821
  Beta  occ. eigenvalues --   -1.12792  -1.12726  -1.12664  -1.12657  -1.12643
  Beta  occ. eigenvalues --   -0.16831  -0.13342  -0.12647
  Beta virt. eigenvalues --   -0.06216  -0.06094  -0.05921  -0.04647  -0.02794
  Beta virt. eigenvalues --   -0.02425  -0.01983  -0.01763  -0.01185  -0.00982
  Beta virt. eigenvalues --   -0.00529   0.00297   0.00331   0.00509   0.00642

 Mulliken charges and spin densities:
               1          2
     1  Na  -1.259904   0.194449
     2  Na  -0.507992  -0.036599
     3  Na  -0.616974   0.318835
     4  Na   0.559053  -0.118392
     5  Na   0.061791   0.359082
     6  Na   0.668308  -0.105205
     7  Na   1.095719   0.387832
 Sum of Mulliken charges =  -0.00000   1.00000

 Dipole moment (field-independent basis, Debye):
    X=             -0.5794    Y=              1.5570    Z=             -0.1599  Tot=              1.6690
 Quadrupole moment (field-independent basis, Debye-Ang):
   XX=            -68.7519   YY=            -57.3091   ZZ=            -71.8017
   XY=             -4.4253   XZ=              3.3081   YZ=              1.9633

 Normal termination of Gaussian 16 at Tue Nov 28 18:59:17 2023.
