 Gaussian 16, Revision B.01,
 Gaussian 16:  ES64L-G16RevB.01 20-Dec-2017

 -------------------------
 #P B3LYP/6-311+g(d) force
 -------------------------

 -----
 DPGEN
 -----
 Symbolic Z-matrix:
 Charge =  0 Multiplicity = 2

                         Standard orientation:
 ---------------------------------------------------------------------
 Center     Atomic      Atomic             Coordinates (Angstroms)
 Number     Number       Type             X           Y           Z
 ---------------------------------------------------------------------
      1         11           0        3.303522    0.708674    0.487673
      2         11           0       -1.429770   -2.544217   -0.279689
      3         11           0       -3.460250    0.308252    0.008648
      4         11           0        0.570390    0.607972   -1.729862
      5         11           0        1.729877   -2.133656   -0.393951
      6         11           0       -0.509853    3.090192   -0.248681
      7         11           0       -0.203915   -0.037216    2.155862
 ---------------------------------------------------------------------

 SCF Done:  E(UB3LYP) =  -1136.12995514     A.U. after   19 cycles

 The electronic state is 2-A.
 Alpha  occ. eigenvalues --  -38.44848 -38.44648 -38.44201 -38.43598 -38.43428
 Alpha  occ. eigenvalues --  -38.43215 -38.43214  -2.20604  -2.20450  -2.20029
 Alpha  occ. eigenvalues --   -2.19410  -2.19353  -2.19118  -2.19061  -1.14286
 Alpha  occ. eigenvalues --   -1.14260  -1.14242  -1.14114  -1.14109  -1.14092
 Alpha  occ. eigenvalues --   -1.13694  -1.13666  -1.13640  -1.13186  -1.13064
 Alpha  occ. eigenvalues --   -1.13032  -1.13025  -1.12969  -1.12964  -1.12841
 Alpha  occ. eigenvalues --   -1.12781  -1.12763  -1.12722  -1.12711  -1.12674
 Alpha  occ. eigenvalues --   -0.18124  -0.12932  -0.12274  -0.10814
 Alpha virt. eigenvalues --   -0.06444  -0.04791  -0.04742  -0.03322  -0.02921
 Alpha virt. eigenvalues --   -0.02685  -0.01986  -0.00984  -0.00678  -0.00246
 Alpha virt. eigenvalues --   -0.00088   0.00324   0.00605   0.00751   0.00829

  Beta  occ. eigenvalues --  -38.44852 -38.44636 -38.44111 -38.43592 -38.43368
  Beta  occ. eigenvalues --  -38.43208 -38.43202  -2.20612  -2.20429  -2.19862
  Beta  occ. eigenvalues --   -2.19400  -2.19244  -2.19099  -2.19053  -1.14283
  Beta  occ. eigenvalues --   -1.14264  -1.14249  -1.14102  -1.14081  -1.14075
  Beta  occ. eigenvalues --   -1.13583  -1.13553  -1.13517  -1.13155  -1.13044
  Beta  occ. eigenvalues --   -1.13026  -1.12957  -1.12903  -1.12893  -1.12830
  Beta  occ. eigenvalues --   -1.12761  -1.12727  -1.12712  -1.12698  -1.12662
  Beta  occ. eigenvalues --   -0.17410  -0.12780  -0.12004
  Beta virt. eigenvalues --   -0.06982  -0.06319  -0.04790  -0.04588  -0.02651
  Beta virt. eigenvalues --   -0.02201  -0.01850  -0.01672  -0.00896  -0.00707
  Beta virt. eigenvalues --   -0.00282   0.00075   0.00364   0.00726   0.00827

 Mulliken charges and spin densities:
               1          2
     1  Na   0.151283   0.073682
     2  Na  -0.103846  -0.036606
     3  Na   0.015077  -0.067960
     4  Na   0.086877   0.353535
     5  Na   0.274046   0.114259
     6  Na  -0.035491  -0.136360
     7  Na  -0.387945   0.699449
 Sum of Mulliken charges =  -0.00000   1.00000

 Dipole moment (field-independent basis, Debye):
    X=             -0.0762    Y=              0.4067    Z=              0.3014  Tot=              0.5119
 Quadrupole moment (field-independent basis, Debye-Ang):
   XX=            -53.6468   YY=            -66.7949   ZZ=            -73.7720
   XY=              0.3141   XZ=              1.5705   YZ=              1.7047

 Normal termination of Gaussian 16 at Fri Dec  8 05:47:29 2023.
