 Gaussian 16, Revision B.01,
 Gaussian 16:  ES64L-G16RevB.01 20-Dec-2017

 -------------------------
 #P B3LYP/6-311+g(d) force
 -------------------------

 -----
 DPGEN
 -----
 Symbolic Z-matrix:
 Charge =  0 Multiplicity = 2

                         Standard orientation:
 ---------------------------------------------------------------------
 Center     Atomic      Atomic             Coordinates (Angstroms)
 Number     Number       Type             X           Y           Z
 ---------------------------------------------------------------------
      1         11           0        1.853937   -2.277556    1.739414
      2         11           0        1.154303    2.770229   -0.618075
      3         11           0       -2.236173    1.878149    0.596017
      4         11           0       -3.646346   -1.375476   -0.370683
      5         11           0       -0.583181   -1.180619   -1.118476
      6         11           0        2.365946   -0.534808   -2.301695
      7         11           0        1.091514    0.720081    2.073498
 ---------------------------------------------------------------------

 SCF Done:  E(UB3LYP) =  -1136.12369789     A.U. after   22 cycles

 The electronic state is 2-A.
 Alpha  occ. eigenvalues --  -38.44886 -38.44550 -38.44190 -38.43926 -38.43643
 Alpha  occ. eigenvalues --  -38.43433 -38.43207  -2.20700  -2.20372  -2.20062
 Alpha  occ. eigenvalues --   -2.19711  -2.19452  -2.19241  -2.19086  -1.14382
 Alpha  occ. eigenvalues --   -1.14323  -1.14304  -1.14092  -1.14011  -1.13967
 Alpha  occ. eigenvalues --   -1.13734  -1.13714  -1.13673  -1.13416  -1.13393
 Alpha  occ. eigenvalues --   -1.13307  -1.13129  -1.13114  -1.13073  -1.12957
 Alpha  occ. eigenvalues --   -1.12900  -1.12873  -1.12776  -1.12758  -1.12689
 Alpha  occ. eigenvalues --   -0.17525  -0.12834  -0.12415  -0.11782
 Alpha virt. eigenvalues --   -0.05466  -0.05191  -0.04711  -0.03432  -0.03366
 Alpha virt. eigenvalues --   -0.03019  -0.01469  -0.01107  -0.00814  -0.00064
 Alpha virt. eigenvalues --    0.00044   0.00289   0.00439   0.00544   0.00789

  Beta  occ. eigenvalues --  -38.44804 -38.44485 -38.44135 -38.43926 -38.43626
  Beta  occ. eigenvalues --  -38.43438 -38.43193  -2.20550  -2.20255  -2.19964
  Beta  occ. eigenvalues --   -2.19712  -2.19422  -2.19250  -2.19062  -1.14272
  Beta  occ. eigenvalues --   -1.14218  -1.14206  -1.13994  -1.13934  -1.13890
  Beta  occ. eigenvalues --   -1.13667  -1.13657  -1.13580  -1.13412  -1.13393
  Beta  occ. eigenvalues --   -1.13311  -1.13109  -1.13092  -1.13043  -1.12959
  Beta  occ. eigenvalues --   -1.12905  -1.12880  -1.12746  -1.12738  -1.12680
  Beta  occ. eigenvalues --   -0.16820  -0.12465  -0.11676
  Beta virt. eigenvalues --   -0.08338  -0.05328  -0.04926  -0.04237  -0.03180
  Beta virt. eigenvalues --   -0.02671  -0.02481  -0.01288  -0.01044  -0.00451
  Beta virt. eigenvalues --    0.00027   0.00177   0.00350   0.00586   0.00676

 Mulliken charges and spin densities:
               1          2
     1  Na  -0.010149   0.032794
     2  Na  -0.003425   0.145601
     3  Na  -0.124773  -0.136028
     4  Na   0.396725  -0.078096
     5  Na  -1.046466   0.529689
     6  Na   0.672047   0.115037
     7  Na   0.116041   0.391004
 Sum of Mulliken charges =  -0.00000   1.00000

 Dipole moment (field-independent basis, Debye):
    X=              0.5672    Y=             -0.0873    Z=              0.1109  Tot=              0.5845
 Quadrupole moment (field-independent basis, Debye-Ang):
   XX=            -60.6135   YY=            -68.1546   ZZ=            -66.5571
   XY=             -0.9997   XZ=             -3.9988   YZ=             -3.6474

 Normal termination of Gaussian 16 at Mon Dec  4 00:31:58 2023.
