 Gaussian 16, Revision B.01,
 Gaussian 16:  ES64L-G16RevB.01 20-Dec-2017

 -------------------------
 #P B3LYP/6-311+g(d) force
 -------------------------

 -----
 DPGEN
 -----
 Symbolic Z-matrix:
 Charge =  0 Multiplicity = 2

                         Standard orientation:
 ---------------------------------------------------------------------
 Center     Atomic      Atomic             Coordinates (Angstroms)
 Number     Number       Type             X           Y           Z
 ---------------------------------------------------------------------
      1         11           0       -2.015950    2.890808    0.147751
      2         11           0       -0.126012    0.016791    1.994186
      3         11           0       -2.901338   -0.465418   -0.489276
      4         11           0       -0.824124   -3.130403    0.065851
      5         11           0        2.607672    2.085856   -0.204543
      6         11           0        0.517366   -0.131814   -1.738920
      7         11           0        2.742386   -1.265820    0.224951
 ---------------------------------------------------------------------

 SCF Done:  E(UB3LYP) =  -1136.13338543     A.U. after   20 cycles

 The electronic state is 2-A.
 Alpha  occ. eigenvalues --  -38.44333 -38.44122 -38.43789 -38.43789 -38.43688
 Alpha  occ. eigenvalues --  -38.43636 -38.43455  -2.20138  -2.19984  -2.19625
 Alpha  occ. eigenvalues --   -2.19552  -2.19548  -2.19542  -2.19266  -1.13816
 Alpha  occ. eigenvalues --   -1.13801  -1.13783  -1.13692  -1.13648  -1.13591
 Alpha  occ. eigenvalues --   -1.13311  -1.13300  -1.13263  -1.13234  -1.13223
 Alpha  occ. eigenvalues --   -1.13211  -1.13205  -1.13191  -1.13190  -1.13176
 Alpha  occ. eigenvalues --   -1.13155  -1.13152  -1.12934  -1.12926  -1.12913
 Alpha  occ. eigenvalues --   -0.18107  -0.13191  -0.11998  -0.10569
 Alpha virt. eigenvalues --   -0.05818  -0.05375  -0.04980  -0.03324  -0.02695
 Alpha virt. eigenvalues --   -0.02510  -0.01607  -0.01370  -0.00714  -0.00496
 Alpha virt. eigenvalues --   -0.00040   0.00345   0.00726   0.00786   0.00823

  Beta  occ. eigenvalues --  -38.44329 -38.44112 -38.43792 -38.43778 -38.43598
  Beta  occ. eigenvalues --  -38.43572 -38.43455  -2.20133  -2.19970  -2.19607
  Beta  occ. eigenvalues --   -2.19558  -2.19430  -2.19378  -2.19268  -1.13805
  Beta  occ. eigenvalues --   -1.13796  -1.13773  -1.13679  -1.13617  -1.13580
  Beta  occ. eigenvalues --   -1.13294  -1.13277  -1.13255  -1.13217  -1.13211
  Beta  occ. eigenvalues --   -1.13193  -1.13150  -1.13112  -1.13102  -1.13066
  Beta  occ. eigenvalues --   -1.13061  -1.13032  -1.12935  -1.12918  -1.12905
  Beta  occ. eigenvalues --   -0.17377  -0.12974  -0.11827
  Beta virt. eigenvalues --   -0.06702  -0.05797  -0.05210  -0.04969  -0.02561
  Beta virt. eigenvalues --   -0.02037  -0.01554  -0.01490  -0.01255  -0.00753
  Beta virt. eigenvalues --   -0.00514   0.00111   0.00379   0.00739   0.00847

 Mulliken charges and spin densities:
               1          2
     1  Na  -0.110126  -0.105263
     2  Na  -0.263035   0.764311
     3  Na   0.051823   0.012889
     4  Na   0.039235  -0.054666
     5  Na   0.024034  -0.106465
     6  Na   0.039157   0.480852
     7  Na   0.218912   0.008342
 Sum of Mulliken charges =  -0.00000   1.00000

 Dipole moment (field-independent basis, Debye):
    X=              0.5390    Y=              0.1357    Z=              0.0275  Tot=              0.5565
 Quadrupole moment (field-independent basis, Debye-Ang):
   XX=            -58.8930   YY=            -59.5314   ZZ=            -75.3481
   XY=              1.1973   XZ=              1.3574   YZ=             -0.3769

 Normal termination of Gaussian 16 at Thu Dec  7 04:51:28 2023.
