 Gaussian 16, Revision B.01,
 Gaussian 16:  ES64L-G16RevB.01 20-Dec-2017

 -------------------------
 #P B3LYP/6-311+g(d) force
 -------------------------

 -----
 DPGEN
 -----
 Symbolic Z-matrix:
 Charge =  0 Multiplicity = 2

                         Standard orientation:
 ---------------------------------------------------------------------
 Center     Atomic      Atomic             Coordinates (Angstroms)
 Number     Number       Type             X           Y           Z
 ---------------------------------------------------------------------
      1         11           0       -0.397699    1.526939   -0.159704
      2         11           0        2.782810    3.219106    0.523250
      3         11           0        3.363935    0.389949   -0.417233
      4         11           0        3.259790   -2.750635   -0.223676
      5         11           0        0.051471   -2.120127    0.104889
      6         11           0       -3.661929   -1.162641    0.886141
      7         11           0       -5.398378    0.897409   -0.713668
 ---------------------------------------------------------------------

 SCF Done:  E(UB3LYP) =  -1136.12008442     A.U. after   21 cycles

 The electronic state is 2-A.
 Alpha  occ. eigenvalues --  -38.45225 -38.44562 -38.44464 -38.43927 -38.43745
 Alpha  occ. eigenvalues --  -38.43728 -38.43216  -2.20995  -2.20355  -2.20282
 Alpha  occ. eigenvalues --   -2.19823  -2.19573  -2.19553  -2.19073  -1.14693
 Alpha  occ. eigenvalues --   -1.14679  -1.14565  -1.14088  -1.14035  -1.13996
 Alpha  occ. eigenvalues --   -1.13915  -1.13911  -1.13875  -1.13544  -1.13496
 Alpha  occ. eigenvalues --   -1.13472  -1.13238  -1.13233  -1.13231  -1.13223
 Alpha  occ. eigenvalues --   -1.13186  -1.13170  -1.12744  -1.12716  -1.12699
 Alpha  occ. eigenvalues --   -0.16694  -0.14274  -0.12357  -0.11019
 Alpha virt. eigenvalues --   -0.06496  -0.05078  -0.04525  -0.03836  -0.03291
 Alpha virt. eigenvalues --   -0.02390  -0.01903  -0.01349  -0.00923  -0.00803
 Alpha virt. eigenvalues --   -0.00337  -0.00037   0.00246   0.00391   0.00691

  Beta  occ. eigenvalues --  -38.45181 -38.44564 -38.44383 -38.43892 -38.43743
  Beta  occ. eigenvalues --  -38.43692 -38.43193  -2.20916  -2.20367  -2.20131
  Beta  occ. eigenvalues --   -2.19760  -2.19572  -2.19489  -2.19030  -1.14641
  Beta  occ. eigenvalues --   -1.14620  -1.14510  -1.14065  -1.14049  -1.13977
  Beta  occ. eigenvalues --   -1.13813  -1.13806  -1.13791  -1.13503  -1.13452
  Beta  occ. eigenvalues --   -1.13425  -1.13224  -1.13217  -1.13196  -1.13186
  Beta  occ. eigenvalues --   -1.13183  -1.13116  -1.12704  -1.12688  -1.12675
  Beta  occ. eigenvalues --   -0.16065  -0.13537  -0.12240
  Beta virt. eigenvalues --   -0.07575  -0.06144  -0.04826  -0.04072  -0.03576
  Beta virt. eigenvalues --   -0.02933  -0.02140  -0.01752  -0.01074  -0.00868
  Beta virt. eigenvalues --   -0.00370  -0.00097   0.00168   0.00440   0.00516

 Mulliken charges and spin densities:
               1          2
     1  Na  -0.879005   0.015572
     2  Na   1.035109   0.085220
     3  Na  -0.829765   0.306388
     4  Na   1.098545   0.166707
     5  Na  -0.676510   0.008630
     6  Na   0.022163   0.049296
     7  Na   0.229464   0.368186
 Sum of Mulliken charges =  -0.00000   1.00000

 Dipole moment (field-independent basis, Debye):
    X=             -0.4602    Y=              0.6287    Z=              0.1135  Tot=              0.7874
 Quadrupole moment (field-independent basis, Debye-Ang):
   XX=            -67.0863   YY=            -62.5909   ZZ=            -70.3480
   XY=              0.4118   XZ=              1.7265   YZ=             -2.0054

 Normal termination of Gaussian 16 at Tue Nov 28 21:16:06 2023.
