 Gaussian 16, Revision B.01,
 Gaussian 16:  ES64L-G16RevB.01 20-Dec-2017

 -------------------------
 #P B3LYP/6-311+g(d) force
 -------------------------

 -----
 DPGEN
 -----
 Symbolic Z-matrix:
 Charge =  0 Multiplicity = 2

                         Standard orientation:
 ---------------------------------------------------------------------
 Center     Atomic      Atomic             Coordinates (Angstroms)
 Number     Number       Type             X           Y           Z
 ---------------------------------------------------------------------
      1         11           0       -0.835777   -2.254764   -0.177993
      2         11           0       -1.053615    2.368455    0.455101
      3         11           0        2.571599    1.774118   -0.127326
      4         11           0       -3.362698   -0.012621   -0.328432
      5         11           0        0.031183    0.150859   -1.727617
      6         11           0        2.757413   -1.471822   -0.065013
      7         11           0       -0.108106   -0.554225    1.971280
 ---------------------------------------------------------------------

 SCF Done:  E(UB3LYP) =  -1136.12986788     A.U. after   19 cycles

 The electronic state is 2-A.
 Alpha  occ. eigenvalues --  -38.44677 -38.44023 -38.43708 -38.43700 -38.43591
 Alpha  occ. eigenvalues --  -38.42960 -38.42954  -2.20506  -2.19870  -2.19671
 Alpha  occ. eigenvalues --   -2.19585  -2.19540  -2.18942  -2.18839  -1.14170
 Alpha  occ. eigenvalues --   -1.14163  -1.14151  -1.13556  -1.13541  -1.13509
 Alpha  occ. eigenvalues --   -1.13447  -1.13321  -1.13293  -1.13260  -1.13250
 Alpha  occ. eigenvalues --   -1.13213  -1.13199  -1.13178  -1.13159  -1.12629
 Alpha  occ. eigenvalues --   -1.12614  -1.12529  -1.12508  -1.12501  -1.12454
 Alpha  occ. eigenvalues --   -0.19108  -0.13498  -0.12014  -0.11040
 Alpha virt. eigenvalues --   -0.06205  -0.05059  -0.03817  -0.03399  -0.02847
 Alpha virt. eigenvalues --   -0.02595  -0.02065  -0.00965  -0.00160  -0.00026
 Alpha virt. eigenvalues --    0.00073   0.00318   0.00780   0.00878   0.00915

  Beta  occ. eigenvalues --  -38.44671 -38.44021 -38.43700 -38.43615 -38.43524
  Beta  occ. eigenvalues --  -38.42946 -38.42938  -2.20497  -2.19869  -2.19542
  Beta  occ. eigenvalues --   -2.19500  -2.19463  -2.18920  -2.18816  -1.14162
  Beta  occ. eigenvalues --   -1.14149  -1.14141  -1.13557  -1.13523  -1.13503
  Beta  occ. eigenvalues --   -1.13341  -1.13236  -1.13222  -1.13198  -1.13178
  Beta  occ. eigenvalues --   -1.13171  -1.13142  -1.13128  -1.13080  -1.12615
  Beta  occ. eigenvalues --   -1.12547  -1.12516  -1.12489  -1.12463  -1.12444
  Beta  occ. eigenvalues --   -0.18351  -0.13262  -0.11751
  Beta virt. eigenvalues --   -0.07071  -0.06134  -0.05068  -0.03789  -0.02644
  Beta virt. eigenvalues --   -0.02071  -0.01936  -0.01518  -0.00929  -0.00148
  Beta virt. eigenvalues --    0.00042   0.00090   0.00342   0.00832   0.00893

 Mulliken charges and spin densities:
               1          2
     1  Na   0.590726  -0.063399
     2  Na   0.103956   0.006997
     3  Na   0.045914  -0.056651
     4  Na   0.133463  -0.028223
     5  Na  -0.535700   0.563545
     6  Na   0.243464  -0.085963
     7  Na  -0.581822   0.663694
 Sum of Mulliken charges =  -0.00000   1.00000

 Dipole moment (field-independent basis, Debye):
    X=             -0.1182    Y=             -0.0040    Z=              0.0153  Tot=              0.1192
 Quadrupole moment (field-independent basis, Debye-Ang):
   XX=            -50.6600   YY=            -69.8102   ZZ=            -72.7116
   XY=             -0.4983   XZ=              0.7668   YZ=              1.2257

 Normal termination of Gaussian 16 at Thu Dec  7 09:31:22 2023.
