 Gaussian 16, Revision B.01,
 Gaussian 16:  ES64L-G16RevB.01 20-Dec-2017

 -------------------------
 #P B3LYP/6-311+g(d) force
 -------------------------

 -----
 DPGEN
 -----
 Symbolic Z-matrix:
 Charge =  0 Multiplicity = 2

                         Standard orientation:
 ---------------------------------------------------------------------
 Center     Atomic      Atomic             Coordinates (Angstroms)
 Number     Number       Type             X           Y           Z
 ---------------------------------------------------------------------
      1         11           0        0.204193   -1.604501   -0.716980
      2         11           0        2.773332   -3.560071    0.095998
      3         11           0        2.891029    0.064104    0.056271
      4         11           0        2.742844    3.564810   -0.250273
      5         11           0        0.047592    1.925709    0.478140
      6         11           0       -2.976578   -0.765105    0.848270
      7         11           0       -5.682413    0.375053   -0.511426
 ---------------------------------------------------------------------

 SCF Done:  E(UB3LYP) =  -1136.12509839     A.U. after   19 cycles

 The electronic state is 2-A.
 Alpha  occ. eigenvalues --  -38.44469 -38.44283 -38.44156 -38.44049 -38.43836
 Alpha  occ. eigenvalues --  -38.43799 -38.43197  -2.20336  -2.20136  -2.19983
 Alpha  occ. eigenvalues --   -2.19858  -2.19720  -2.19611  -2.19006  -1.14075
 Alpha  occ. eigenvalues --   -1.14042  -1.13910  -1.13828  -1.13818  -1.13759
 Alpha  occ. eigenvalues --   -1.13637  -1.13636  -1.13589  -1.13529  -1.13517
 Alpha  occ. eigenvalues --   -1.13485  -1.13426  -1.13391  -1.13299  -1.13249
 Alpha  occ. eigenvalues --   -1.13244  -1.13241  -1.12693  -1.12681  -1.12651
 Alpha  occ. eigenvalues --   -0.17177  -0.13516  -0.13048  -0.10473
 Alpha virt. eigenvalues --   -0.06019  -0.05471  -0.04977  -0.03565  -0.02439
 Alpha virt. eigenvalues --   -0.02375  -0.02088  -0.01776  -0.00994  -0.00701
 Alpha virt. eigenvalues --   -0.00315   0.00017   0.00313   0.00464   0.00550

  Beta  occ. eigenvalues --  -38.44458 -38.44258 -38.44138 -38.44025 -38.43806
  Beta  occ. eigenvalues --  -38.43703 -38.43201  -2.20316  -2.20092  -2.19949
  Beta  occ. eigenvalues --   -2.19813  -2.19668  -2.19433  -2.19022  -1.14048
  Beta  occ. eigenvalues --   -1.14029  -1.13894  -1.13800  -1.13788  -1.13719
  Beta  occ. eigenvalues --   -1.13613  -1.13607  -1.13565  -1.13498  -1.13486
  Beta  occ. eigenvalues --   -1.13455  -1.13396  -1.13357  -1.13241  -1.13134
  Beta  occ. eigenvalues --   -1.13123  -1.13120  -1.12711  -1.12695  -1.12606
  Beta  occ. eigenvalues --   -0.16658  -0.13013  -0.12587
  Beta virt. eigenvalues --   -0.07124  -0.05802  -0.05130  -0.04620  -0.03213
  Beta virt. eigenvalues --   -0.02268  -0.02140  -0.01978  -0.01463  -0.00631
  Beta virt. eigenvalues --   -0.00429   0.00007   0.00207   0.00449   0.00586

 Mulliken charges and spin densities:
               1          2
     1  Na  -1.008011  -0.120215
     2  Na   0.969270   0.182555
     3  Na  -0.750043   0.288594
     4  Na   1.034078   0.098558
     5  Na  -0.565797   0.066539
     6  Na   0.244291   0.025338
     7  Na   0.076213   0.458631
 Sum of Mulliken charges =  -0.00000   1.00000

 Dipole moment (field-independent basis, Debye):
    X=              1.8296    Y=              0.4206    Z=             -0.1086  Tot=              1.8805
 Quadrupole moment (field-independent basis, Debye-Ang):
   XX=            -72.4550   YY=            -56.8285   ZZ=            -70.0008
   XY=             -0.7722   XZ=              1.8315   YZ=             -2.0988

 Normal termination of Gaussian 16 at Tue Nov 28 21:27:47 2023.
