 Gaussian 16, Revision B.01,
 Gaussian 16:  ES64L-G16RevB.01 20-Dec-2017

 -------------------------
 #P B3LYP/6-311+g(d) force
 -------------------------

 -----
 DPGEN
 -----
 Symbolic Z-matrix:
 Charge =  0 Multiplicity = 2

                         Standard orientation:
 ---------------------------------------------------------------------
 Center     Atomic      Atomic             Coordinates (Angstroms)
 Number     Number       Type             X           Y           Z
 ---------------------------------------------------------------------
      1         11           0        2.029213   -2.775911   -0.149144
      2         11           0        1.159897    2.772961   -0.297637
      3         11           0       -2.970833   -1.903080   -0.534581
      4         11           0       -0.676294   -0.483100    2.303981
      5         11           0       -0.440563   -0.275237   -1.403488
      6         11           0        3.076162    0.402900    0.033436
      7         11           0       -2.177582    2.261467    0.047433
 ---------------------------------------------------------------------

 SCF Done:  E(UB3LYP) =  -1136.12658180     A.U. after   20 cycles

 The electronic state is 2-A.
 Alpha  occ. eigenvalues --  -38.44489 -38.44456 -38.44380 -38.43912 -38.43876
 Alpha  occ. eigenvalues --  -38.43327 -38.43298  -2.20300  -2.20257  -2.20156
 Alpha  occ. eigenvalues --   -2.19760  -2.19694  -2.19235  -2.19188  -1.13982
 Alpha  occ. eigenvalues --   -1.13965  -1.13953  -1.13930  -1.13898  -1.13887
 Alpha  occ. eigenvalues --   -1.13826  -1.13820  -1.13802  -1.13470  -1.13418
 Alpha  occ. eigenvalues --   -1.13395  -1.13344  -1.13318  -1.13311  -1.12923
 Alpha  occ. eigenvalues --   -1.12893  -1.12868  -1.12860  -1.12838  -1.12822
 Alpha  occ. eigenvalues --   -0.17898  -0.13088  -0.12364  -0.10522
 Alpha virt. eigenvalues --   -0.06485  -0.05423  -0.04588  -0.03142  -0.02791
 Alpha virt. eigenvalues --   -0.02525  -0.01801  -0.01645  -0.00720  -0.00462
 Alpha virt. eigenvalues --   -0.00052   0.00293   0.00652   0.00715   0.00798

  Beta  occ. eigenvalues --  -38.44484 -38.44437 -38.44383 -38.43912 -38.43766
  Beta  occ. eigenvalues --  -38.43325 -38.43256  -2.20293  -2.20225  -2.20162
  Beta  occ. eigenvalues --   -2.19761  -2.19489  -2.19187  -2.19159  -1.13976
  Beta  occ. eigenvalues --   -1.13940  -1.13929  -1.13922  -1.13873  -1.13861
  Beta  occ. eigenvalues --   -1.13827  -1.13820  -1.13806  -1.13473  -1.13407
  Beta  occ. eigenvalues --   -1.13397  -1.13205  -1.13178  -1.13167  -1.12870
  Beta  occ. eigenvalues --   -1.12862  -1.12846  -1.12820  -1.12814  -1.12809
  Beta  occ. eigenvalues --   -0.17288  -0.12876  -0.12187
  Beta virt. eigenvalues --   -0.06629  -0.06386  -0.05275  -0.04574  -0.02480
  Beta virt. eigenvalues --   -0.02121  -0.01712  -0.01617  -0.01415  -0.00758
  Beta virt. eigenvalues --   -0.00463   0.00152   0.00361   0.00670   0.00786

 Mulliken charges and spin densities:
               1          2
     1  Na   0.198341   0.027469
     2  Na   0.003007   0.022589
     3  Na   0.036480   0.052405
     4  Na  -0.492532   0.695575
     5  Na   0.008792   0.061281
     6  Na   0.042310   0.034233
     7  Na   0.203604   0.106448
 Sum of Mulliken charges =  -0.00000   1.00000

 Dipole moment (field-independent basis, Debye):
    X=             -0.4961    Y=             -0.3798    Z=              0.0715  Tot=              0.6289
 Quadrupole moment (field-independent basis, Debye-Ang):
   XX=            -57.1922   YY=            -60.5305   ZZ=            -76.5908
   XY=             -0.9769   XZ=              0.3684   YZ=              0.3364

 Normal termination of Gaussian 16 at Fri Dec  8 02:41:42 2023.
