 Gaussian 16, Revision B.01,
 Gaussian 16:  ES64L-G16RevB.01 20-Dec-2017

 -------------------------
 #P B3LYP/6-311+g(d) force
 -------------------------

 -----
 DPGEN
 -----
 Symbolic Z-matrix:
 Charge =  0 Multiplicity = 2

                         Standard orientation:
 ---------------------------------------------------------------------
 Center     Atomic      Atomic             Coordinates (Angstroms)
 Number     Number       Type             X           Y           Z
 ---------------------------------------------------------------------
      1         11           0       -2.401457    1.900867   -0.261647
      2         11           0        0.382058   -0.182863    2.168703
      3         11           0       -2.597229   -1.529846    0.180148
      4         11           0        0.674978   -2.545315   -0.280512
      5         11           0       -0.075253   -0.307557   -1.556303
      6         11           0        3.421484    0.272329   -0.271653
      7         11           0        0.595419    2.392385    0.021263
 ---------------------------------------------------------------------

 SCF Done:  E(UB3LYP) =  -1136.12806622     A.U. after   19 cycles

 The electronic state is 2-A.
 Alpha  occ. eigenvalues --  -38.44479 -38.43888 -38.43834 -38.43555 -38.43500
 Alpha  occ. eigenvalues --  -38.43399 -38.42996  -2.20265  -2.19746  -2.19725
 Alpha  occ. eigenvalues --   -2.19591  -2.19485  -2.19276  -2.18934  -1.13938
 Alpha  occ. eigenvalues --   -1.13924  -1.13901  -1.13657  -1.13436  -1.13411
 Alpha  occ. eigenvalues --   -1.13391  -1.13384  -1.13367  -1.13327  -1.13243
 Alpha  occ. eigenvalues --   -1.13154  -1.13111  -1.13037  -1.13006  -1.12984
 Alpha  occ. eigenvalues --   -1.12924  -1.12914  -1.12623  -1.12596  -1.12534
 Alpha  occ. eigenvalues --   -0.19049  -0.12985  -0.12566  -0.11021
 Alpha virt. eigenvalues --   -0.05949  -0.04854  -0.04277  -0.03184  -0.02959
 Alpha virt. eigenvalues --   -0.02736  -0.01894  -0.00924  -0.00116  -0.00063
 Alpha virt. eigenvalues --    0.00080   0.00313   0.00823   0.00873   0.00970

  Beta  occ. eigenvalues --  -38.44478 -38.43884 -38.43730 -38.43541 -38.43438
  Beta  occ. eigenvalues --  -38.43397 -38.42987  -2.20264  -2.19741  -2.19535
  Beta  occ. eigenvalues --   -2.19511  -2.19435  -2.19275  -2.18921  -1.13931
  Beta  occ. eigenvalues --   -1.13916  -1.13902  -1.13604  -1.13428  -1.13389
  Beta  occ. eigenvalues --   -1.13380  -1.13270  -1.13235  -1.13192  -1.13166
  Beta  occ. eigenvalues --   -1.13092  -1.13067  -1.13012  -1.12997  -1.12944
  Beta  occ. eigenvalues --   -1.12913  -1.12903  -1.12617  -1.12552  -1.12532
  Beta  occ. eigenvalues --   -0.18304  -0.12779  -0.12299
  Beta virt. eigenvalues --   -0.07026  -0.05906  -0.04833  -0.04265  -0.02428
  Beta virt. eigenvalues --   -0.02128  -0.01816  -0.01625  -0.00875  -0.00156
  Beta virt. eigenvalues --    0.00023   0.00115   0.00339   0.00866   0.00875

 Mulliken charges and spin densities:
               1          2
     1  Na   0.035496  -0.031828
     2  Na  -0.671320   0.653192
     3  Na   0.291885   0.068261
     4  Na   0.492792  -0.013027
     5  Na  -0.654383   0.306855
     6  Na   0.156462  -0.059984
     7  Na   0.349069   0.076531
 Sum of Mulliken charges =  -0.00000   1.00000

 Dipole moment (field-independent basis, Debye):
    X=              0.2794    Y=             -0.2002    Z=              0.3191  Tot=              0.4690
 Quadrupole moment (field-independent basis, Debye-Ang):
   XX=            -53.0412   YY=            -67.2569   ZZ=            -73.1094
   XY=              0.3789   XZ=             -1.1211   YZ=             -0.6698

 Normal termination of Gaussian 16 at Thu Dec  7 15:14:45 2023.
