 Gaussian 16, Revision B.01,
 Gaussian 16:  ES64L-G16RevB.01 20-Dec-2017

 -------------------------
 #P B3LYP/6-311+g(d) force
 -------------------------

 -----
 DPGEN
 -----
 Symbolic Z-matrix:
 Charge =  0 Multiplicity = 2

                         Standard orientation:
 ---------------------------------------------------------------------
 Center     Atomic      Atomic             Coordinates (Angstroms)
 Number     Number       Type             X           Y           Z
 ---------------------------------------------------------------------
      1         11           0       -0.276970    0.026917    2.150729
      2         11           0        3.389420   -0.115601    0.049038
      3         11           0        1.372191   -2.662190   -0.156104
      4         11           0        1.351899    2.659422   -0.471125
      5         11           0       -3.157844   -1.612301   -0.259807
      6         11           0       -0.325213   -0.307951   -1.296340
      7         11           0       -2.353482    2.011703   -0.016392
 ---------------------------------------------------------------------

 SCF Done:  E(UB3LYP) =  -1136.13025913     A.U. after   21 cycles

 The electronic state is 2-A.
 Alpha  occ. eigenvalues --  -38.44596 -38.44543 -38.44189 -38.43615 -38.43530
 Alpha  occ. eigenvalues --  -38.43179 -38.43139  -2.20388  -2.20356  -2.20015
 Alpha  occ. eigenvalues --   -2.19467  -2.19391  -2.19137  -2.18996  -1.14066
 Alpha  occ. eigenvalues --   -1.14035  -1.14028  -1.14024  -1.14020  -1.14006
 Alpha  occ. eigenvalues --   -1.13703  -1.13686  -1.13634  -1.13197  -1.13114
 Alpha  occ. eigenvalues --   -1.13096  -1.13062  -1.13006  -1.13004  -1.12830
 Alpha  occ. eigenvalues --   -1.12787  -1.12759  -1.12670  -1.12657  -1.12629
 Alpha  occ. eigenvalues --   -0.18278  -0.13389  -0.12021  -0.10359
 Alpha virt. eigenvalues --   -0.06284  -0.05710  -0.04332  -0.03181  -0.02486
 Alpha virt. eigenvalues --   -0.02331  -0.02075  -0.01423  -0.00721  -0.00384
 Alpha virt. eigenvalues --   -0.00045   0.00255   0.00669   0.00752   0.00842

  Beta  occ. eigenvalues --  -38.44588 -38.44543 -38.44183 -38.43612 -38.43419
  Beta  occ. eigenvalues --  -38.43170 -38.43100  -2.20375  -2.20358  -2.20009
  Beta  occ. eigenvalues --   -2.19464  -2.19186  -2.19068  -2.18982  -1.14048
  Beta  occ. eigenvalues --   -1.14027  -1.14024  -1.14019  -1.14010  -1.14007
  Beta  occ. eigenvalues --   -1.13698  -1.13657  -1.13634  -1.13190  -1.13100
  Beta  occ. eigenvalues --   -1.13091  -1.12927  -1.12865  -1.12857  -1.12765
  Beta  occ. eigenvalues --   -1.12741  -1.12711  -1.12651  -1.12642  -1.12618
  Beta  occ. eigenvalues --   -0.17602  -0.13192  -0.11796
  Beta virt. eigenvalues --   -0.06470  -0.06199  -0.05653  -0.04301  -0.02469
  Beta virt. eigenvalues --   -0.01986  -0.01807  -0.01363  -0.01248  -0.00740
  Beta virt. eigenvalues --   -0.00399   0.00136   0.00318   0.00742   0.00764

 Mulliken charges and spin densities:
               1          2
     1  Na  -0.461369   0.696679
     2  Na   0.057554   0.019674
     3  Na   0.348305   0.060167
     4  Na   0.044976   0.058384
     5  Na   0.190971   0.047247
     6  Na  -0.420774   0.049275
     7  Na   0.240337   0.068575
 Sum of Mulliken charges =  -0.00000   1.00000

 Dipole moment (field-independent basis, Debye):
    X=             -0.3539    Y=             -0.1903    Z=              0.2235  Tot=              0.4599
 Quadrupole moment (field-independent basis, Debye-Ang):
   XX=            -50.7011   YY=            -64.4219   ZZ=            -76.9473
   XY=             -0.0124   XZ=              0.2728   YZ=             -0.5342

 Normal termination of Gaussian 16 at Thu Dec  7 11:31:06 2023.
