 Gaussian 16, Revision B.01,
 Gaussian 16:  ES64L-G16RevB.01 20-Dec-2017

 -------------------------
 #P B3LYP/6-311+g(d) force
 -------------------------

 -----
 DPGEN
 -----
 Symbolic Z-matrix:
 Charge =  0 Multiplicity = 2

                         Standard orientation:
 ---------------------------------------------------------------------
 Center     Atomic      Atomic             Coordinates (Angstroms)
 Number     Number       Type             X           Y           Z
 ---------------------------------------------------------------------
      1         11           0        0.888091   -1.949471   -0.178905
      2         11           0        4.080568   -2.692922   -0.509203
      3         11           0        3.440693    0.630529    0.805475
      4         11           0        1.873388    3.726203   -0.650607
      5         11           0       -0.295311    1.209763    0.394063
      6         11           0       -3.450929   -0.684884    0.554283
      7         11           0       -6.536500   -0.239218   -0.415105
 ---------------------------------------------------------------------

 SCF Done:  E(UB3LYP) =  -1136.12253178     A.U. after   20 cycles

 The electronic state is 2-A.
 Alpha  occ. eigenvalues --  -38.45155 -38.44461 -38.44198 -38.44084 -38.44079
 Alpha  occ. eigenvalues --  -38.43800 -38.43367  -2.20948  -2.20297  -2.20002
 Alpha  occ. eigenvalues --   -2.19888  -2.19867  -2.19650  -2.19152  -1.14656
 Alpha  occ. eigenvalues --   -1.14627  -1.14527  -1.13989  -1.13982  -1.13901
 Alpha  occ. eigenvalues --   -1.13637  -1.13636  -1.13632  -1.13550  -1.13547
 Alpha  occ. eigenvalues --   -1.13535  -1.13533  -1.13514  -1.13489  -1.13348
 Alpha  occ. eigenvalues --   -1.13341  -1.13230  -1.12842  -1.12838  -1.12794
 Alpha  occ. eigenvalues --   -0.16782  -0.13596  -0.12508  -0.11213
 Alpha virt. eigenvalues --   -0.06255  -0.05444  -0.04599  -0.03825  -0.02497
 Alpha virt. eigenvalues --   -0.02392  -0.02027  -0.01991  -0.01094  -0.00901
 Alpha virt. eigenvalues --   -0.00372  -0.00201   0.00099   0.00419   0.00620

  Beta  occ. eigenvalues --  -38.45127 -38.44426 -38.44111 -38.44069 -38.44067
  Beta  occ. eigenvalues --  -38.43763 -38.43375  -2.20897  -2.20234  -2.19866
  Beta  occ. eigenvalues --   -2.19840  -2.19838  -2.19585  -2.19177  -1.14617
  Beta  occ. eigenvalues --   -1.14595  -1.14487  -1.13947  -1.13942  -1.13839
  Beta  occ. eigenvalues --   -1.13534  -1.13529  -1.13527  -1.13525  -1.13525
  Beta  occ. eigenvalues --   -1.13515  -1.13512  -1.13499  -1.13470  -1.13303
  Beta  occ. eigenvalues --   -1.13301  -1.13168  -1.12867  -1.12862  -1.12753
  Beta  occ. eigenvalues --   -0.16184  -0.12903  -0.12236
  Beta virt. eigenvalues --   -0.07828  -0.06100  -0.04922  -0.04217  -0.03631
  Beta virt. eigenvalues --   -0.02333  -0.02171  -0.01790  -0.01478  -0.00974
  Beta virt. eigenvalues --   -0.00606  -0.00121  -0.00030   0.00288   0.00529

 Mulliken charges and spin densities:
               1          2
     1  Na  -1.133258   0.128068
     2  Na   1.340695   0.227369
     3  Na  -0.028023   0.266603
     4  Na   0.682259   0.130819
     5  Na  -0.877367   0.108132
     6  Na  -0.242651  -0.294102
     7  Na   0.258344   0.433111
 Sum of Mulliken charges =  -0.00000   1.00000

 Dipole moment (field-independent basis, Debye):
    X=              1.7650    Y=              0.1268    Z=             -0.4436  Tot=              1.8243
 Quadrupole moment (field-independent basis, Debye-Ang):
   XX=            -59.7863   YY=            -63.7708   ZZ=            -70.3089
   XY=             -3.1213   XZ=              1.9501   YZ=             -0.6684

 Normal termination of Gaussian 16 at Wed Nov 29 03:21:13 2023.
