 Gaussian 16, Revision B.01,
 Gaussian 16:  ES64L-G16RevB.01 20-Dec-2017

 -------------------------
 #P B3LYP/6-311+g(d) force
 -------------------------

 -----
 DPGEN
 -----
 Symbolic Z-matrix:
 Charge =  0 Multiplicity = 2

                         Standard orientation:
 ---------------------------------------------------------------------
 Center     Atomic      Atomic             Coordinates (Angstroms)
 Number     Number       Type             X           Y           Z
 ---------------------------------------------------------------------
      1         11           0       -2.786229   -0.820611    1.354000
      2         11           0        2.295932   -1.432579   -1.311591
      3         11           0        3.036352    1.294926    0.841986
      4         11           0        0.728239   -0.775944    2.029742
      5         11           0       -0.826354   -1.598073   -1.407924
      6         11           0       -2.690989    1.531871   -0.665232
      7         11           0        0.243049    1.800410   -0.840980
 ---------------------------------------------------------------------

 SCF Done:  E(UB3LYP) =  -1136.12448052     A.U. after   24 cycles

 The electronic state is 2-A.
 Alpha  occ. eigenvalues --  -38.44507 -38.44497 -38.44175 -38.44052 -38.43546
 Alpha  occ. eigenvalues --  -38.43536 -38.43005  -2.20366  -2.20360  -2.20042
 Alpha  occ. eigenvalues --   -2.19911  -2.19452  -2.19436  -2.18918  -1.14049
 Alpha  occ. eigenvalues --   -1.14033  -1.14024  -1.14002  -1.13996  -1.13978
 Alpha  occ. eigenvalues --   -1.13753  -1.13679  -1.13666  -1.13582  -1.13562
 Alpha  occ. eigenvalues --   -1.13540  -1.13198  -1.13131  -1.13104  -1.13082
 Alpha  occ. eigenvalues --   -1.13069  -1.13050  -1.12586  -1.12576  -1.12547
 Alpha  occ. eigenvalues --   -0.18702  -0.14066  -0.12039  -0.11350
 Alpha virt. eigenvalues --   -0.06165  -0.04985  -0.04958  -0.03573  -0.02939
 Alpha virt. eigenvalues --   -0.02589  -0.01916  -0.00803  -0.00630   0.00069
 Alpha virt. eigenvalues --    0.00232   0.00268   0.00444   0.00544   0.00836

  Beta  occ. eigenvalues --  -38.44463 -38.44441 -38.44136 -38.44035 -38.43541
  Beta  occ. eigenvalues --  -38.43495 -38.42988  -2.20300  -2.20242  -2.19973
  Beta  occ. eigenvalues --   -2.19881  -2.19445  -2.19366  -2.18890  -1.13994
  Beta  occ. eigenvalues --   -1.13975  -1.13963  -1.13950  -1.13914  -1.13895
  Beta  occ. eigenvalues --   -1.13688  -1.13636  -1.13618  -1.13552  -1.13537
  Beta  occ. eigenvalues --   -1.13523  -1.13185  -1.13092  -1.13081  -1.13070
  Beta  occ. eigenvalues --   -1.13011  -1.13004  -1.12573  -1.12538  -1.12526
  Beta  occ. eigenvalues --   -0.17996  -0.13851  -0.11026
  Beta virt. eigenvalues --   -0.08098  -0.05945  -0.04966  -0.04232  -0.03190
  Beta virt. eigenvalues --   -0.02356  -0.01922  -0.01790  -0.00637  -0.00330
  Beta virt. eigenvalues --    0.00163   0.00281   0.00349   0.00537   0.00654

 Mulliken charges and spin densities:
               1          2
     1  Na   0.403783   0.261640
     2  Na   0.126721   0.044254
     3  Na   1.127273   0.111945
     4  Na  -0.665177   0.289909
     5  Na  -0.270038   0.255862
     6  Na   0.351428  -0.214996
     7  Na  -1.073990   0.251387
 Sum of Mulliken charges =  -0.00000   1.00000

 Dipole moment (field-independent basis, Debye):
    X=              0.3140    Y=             -0.4448    Z=              0.4970  Tot=              0.7372
 Quadrupole moment (field-independent basis, Debye-Ang):
   XX=            -51.8549   YY=            -78.2176   ZZ=            -66.7602
   XY=              0.8273   XZ=             -1.0581   YZ=              1.1494

 Normal termination of Gaussian 16 at Wed Nov 29 17:04:06 2023.
