 Gaussian 16, Revision B.01,
 Gaussian 16:  ES64L-G16RevB.01 20-Dec-2017

 -------------------------
 #P B3LYP/6-311+g(d) force
 -------------------------

 -----
 DPGEN
 -----
 Symbolic Z-matrix:
 Charge =  0 Multiplicity = 2

                         Standard orientation:
 ---------------------------------------------------------------------
 Center     Atomic      Atomic             Coordinates (Angstroms)
 Number     Number       Type             X           Y           Z
 ---------------------------------------------------------------------
      1         11           0        0.821385   -2.336130    0.981834
      2         11           0        0.632716    3.405823    0.702206
      3         11           0        4.118488   -1.742926   -0.530957
      4         11           0        2.658792    1.465934   -0.281357
      5         11           0       -2.018487   -2.164226   -0.248178
      6         11           0       -1.866814    1.870250   -0.615860
      7         11           0       -4.346080   -0.498724   -0.007688
 ---------------------------------------------------------------------

 SCF Done:  E(UB3LYP) =  -1136.11630167     A.U. after   20 cycles

 The electronic state is 2-A.
 Alpha  occ. eigenvalues --  -38.45153 -38.44777 -38.44121 -38.44052 -38.43737
 Alpha  occ. eigenvalues --  -38.43688 -38.43640  -2.20955  -2.20607  -2.20008
 Alpha  occ. eigenvalues --   -2.19961  -2.19574  -2.19565  -2.19443  -1.14659
 Alpha  occ. eigenvalues --   -1.14636  -1.14570  -1.14319  -1.14273  -1.14246
 Alpha  occ. eigenvalues --   -1.13889  -1.13653  -1.13632  -1.13610  -1.13588
 Alpha  occ. eigenvalues --   -1.13498  -1.13250  -1.13245  -1.13230  -1.13202
 Alpha  occ. eigenvalues --   -1.13188  -1.13180  -1.13101  -1.13091  -1.13064
 Alpha  occ. eigenvalues --   -0.16810  -0.14268  -0.13287  -0.10475
 Alpha virt. eigenvalues --   -0.06733  -0.05099  -0.04537  -0.03465  -0.02920
 Alpha virt. eigenvalues --   -0.02560  -0.02006  -0.01627  -0.00985  -0.00584
 Alpha virt. eigenvalues --   -0.00219   0.00077   0.00415   0.00643   0.00710

  Beta  occ. eigenvalues --  -38.45143 -38.44762 -38.44079 -38.44017 -38.43681
  Beta  occ. eigenvalues --  -38.43677 -38.43588  -2.20940  -2.20583  -2.19934
  Beta  occ. eigenvalues --   -2.19900  -2.19545  -2.19476  -2.19347  -1.14651
  Beta  occ. eigenvalues --   -1.14626  -1.14539  -1.14293  -1.14256  -1.14219
  Beta  occ. eigenvalues --   -1.13828  -1.13605  -1.13588  -1.13552  -1.13540
  Beta  occ. eigenvalues --   -1.13434  -1.13237  -1.13187  -1.13174  -1.13174
  Beta  occ. eigenvalues --   -1.13169  -1.13092  -1.13036  -1.13015  -1.13006
  Beta  occ. eigenvalues --   -0.16350  -0.13772  -0.12630
  Beta virt. eigenvalues --   -0.06905  -0.06758  -0.04926  -0.04271  -0.03014
  Beta virt. eigenvalues --   -0.02628  -0.02199  -0.01752  -0.01433  -0.00843
  Beta virt. eigenvalues --   -0.00303   0.00154   0.00314   0.00514   0.00703

 Mulliken charges and spin densities:
               1          2
     1  Na  -0.177274   0.064677
     2  Na   0.418525   0.062564
     3  Na   0.415897   0.222478
     4  Na  -0.520483   0.153919
     5  Na  -0.325033   0.127191
     6  Na  -0.312264   0.097032
     7  Na   0.500632   0.272139
 Sum of Mulliken charges =  -0.00000   1.00000

 Dipole moment (field-independent basis, Debye):
    X=             -0.6664    Y=              0.6551    Z=              0.1035  Tot=              0.9402
 Quadrupole moment (field-independent basis, Debye-Ang):
   XX=            -64.6597   YY=            -65.9799   ZZ=            -69.8510
   XY=              0.7119   XZ=             -0.4603   YZ=              1.7521

 Normal termination of Gaussian 16 at Sun Dec  3 13:45:36 2023.
