 Gaussian 16, Revision B.01,
 Gaussian 16:  ES64L-G16RevB.01 20-Dec-2017

 -------------------------
 #P B3LYP/6-311+g(d) force
 -------------------------

 -----
 DPGEN
 -----
 Symbolic Z-matrix:
 Charge =  0 Multiplicity = 2

                         Standard orientation:
 ---------------------------------------------------------------------
 Center     Atomic      Atomic             Coordinates (Angstroms)
 Number     Number       Type             X           Y           Z
 ---------------------------------------------------------------------
      1         11           0       -2.736431   -0.693534   -0.228023
      2         11           0        1.942937    2.144192    0.013816
      3         11           0        2.693330   -1.278261   -0.169491
      4         11           0       -0.435589   -2.698571    0.208451
      5         11           0       -0.026082    0.204618    1.774284
      6         11           0        0.161578   -0.043886   -1.484846
      7         11           0       -1.599744    2.365442   -0.114191
 ---------------------------------------------------------------------

 SCF Done:  E(UB3LYP) =  -1136.13518307     A.U. after   19 cycles

 The electronic state is 2-A.
 Alpha  occ. eigenvalues --  -38.43674 -38.43613 -38.43453 -38.43412 -38.43242
 Alpha  occ. eigenvalues --  -38.42979 -38.42758  -2.19559  -2.19510  -2.19397
 Alpha  occ. eigenvalues --   -2.19324  -2.19185  -2.19007  -2.18884  -1.13280
 Alpha  occ. eigenvalues --   -1.13224  -1.13208  -1.13189  -1.13185  -1.13132
 Alpha  occ. eigenvalues --   -1.13119  -1.13100  -1.13047  -1.12997  -1.12991
 Alpha  occ. eigenvalues --   -1.12933  -1.12879  -1.12843  -1.12797  -1.12707
 Alpha  occ. eigenvalues --   -1.12617  -1.12611  -1.12548  -1.12504  -1.12495
 Alpha  occ. eigenvalues --   -0.19661  -0.13227  -0.12943  -0.10677
 Alpha virt. eigenvalues --   -0.05264  -0.05086  -0.04707  -0.03021  -0.02882
 Alpha virt. eigenvalues --   -0.02146  -0.01320  -0.01157  -0.00095  -0.00041
 Alpha virt. eigenvalues --    0.00074   0.00366   0.00893   0.00930   0.00970

  Beta  occ. eigenvalues --  -38.43668 -38.43606 -38.43444 -38.43404 -38.43233
  Beta  occ. eigenvalues --  -38.42892 -38.42692  -2.19551  -2.19502  -2.19384
  Beta  occ. eigenvalues --   -2.19314  -2.19172  -2.18847  -2.18764  -1.13269
  Beta  occ. eigenvalues --   -1.13217  -1.13187  -1.13184  -1.13149  -1.13127
  Beta  occ. eigenvalues --   -1.13117  -1.13095  -1.13005  -1.12992  -1.12953
  Beta  occ. eigenvalues --   -1.12928  -1.12869  -1.12797  -1.12793  -1.12609
  Beta  occ. eigenvalues --   -1.12502  -1.12499  -1.12458  -1.12416  -1.12410
  Beta  occ. eigenvalues --   -0.18926  -0.12931  -0.12659
  Beta virt. eigenvalues --   -0.06710  -0.05257  -0.05072  -0.04707  -0.02191
  Beta virt. eigenvalues --   -0.02064  -0.01246  -0.01101  -0.01095  -0.00143
  Beta virt. eigenvalues --   -0.00071   0.00177   0.00397   0.00924   0.00938

 Mulliken charges and spin densities:
               1          2
     1  Na   0.220629   0.011122
     2  Na   0.195858  -0.095807
     3  Na   0.208375  -0.057456
     4  Na   0.301475   0.026230
     5  Na  -0.491131   0.708001
     6  Na  -0.691327   0.458931
     7  Na   0.256122  -0.051021
 Sum of Mulliken charges =  -0.00000   1.00000

 Dipole moment (field-independent basis, Debye):
    X=              0.2217    Y=              0.1466    Z=              0.1392  Tot=              0.3000
 Quadrupole moment (field-independent basis, Debye-Ang):
   XX=            -57.3649   YY=            -60.0467   ZZ=            -75.0814
   XY=             -0.2450   XZ=              0.4457   YZ=             -0.5521

 Normal termination of Gaussian 16 at Sat Dec  9 07:14:19 2023.
