 Gaussian 16, Revision B.01,
 Gaussian 16:  ES64L-G16RevB.01 20-Dec-2017

 -------------------------
 #P B3LYP/6-311+g(d) force
 -------------------------

 -----
 DPGEN
 -----
 Symbolic Z-matrix:
 Charge =  0 Multiplicity = 2

                         Standard orientation:
 ---------------------------------------------------------------------
 Center     Atomic      Atomic             Coordinates (Angstroms)
 Number     Number       Type             X           Y           Z
 ---------------------------------------------------------------------
      1         11           0        3.061084   -2.423947    0.203954
      2         11           0       -1.433631    3.228103   -0.582444
      3         11           0        1.400495    1.666905   -0.680491
      4         11           0        5.017034    1.073274    0.684239
      5         11           0       -4.116794   -2.016748   -0.145851
      6         11           0        0.100241   -2.453004   -0.591575
      7         11           0       -4.028429    0.925417    1.112168
 ---------------------------------------------------------------------

 SCF Done:  E(UB3LYP) =  -1136.10946739     A.U. after   21 cycles

 The electronic state is 2-A.
 Alpha  occ. eigenvalues --  -38.45119 -38.44958 -38.44766 -38.44369 -38.44328
 Alpha  occ. eigenvalues --  -38.44271 -38.43508  -2.20905  -2.20735  -2.20563
 Alpha  occ. eigenvalues --   -2.20175  -2.20108  -2.20044  -2.19303  -1.14544
 Alpha  occ. eigenvalues --   -1.14537  -1.14510  -1.14408  -1.14401  -1.14372
 Alpha  occ. eigenvalues --   -1.14281  -1.14232  -1.14190  -1.13834  -1.13821
 Alpha  occ. eigenvalues --   -1.13793  -1.13770  -1.13763  -1.13751  -1.13736
 Alpha  occ. eigenvalues --   -1.13727  -1.13676  -1.12965  -1.12961  -1.12942
 Alpha  occ. eigenvalues --   -0.15858  -0.14011  -0.12502  -0.11421
 Alpha virt. eigenvalues --   -0.07021  -0.05075  -0.04582  -0.03710  -0.03433
 Alpha virt. eigenvalues --   -0.02406  -0.02091  -0.01516  -0.01440  -0.00880
 Alpha virt. eigenvalues --   -0.00664  -0.00260   0.00068   0.00415   0.00578

  Beta  occ. eigenvalues --  -38.44999 -38.44941 -38.44758 -38.44325 -38.44313
  Beta  occ. eigenvalues --  -38.44265 -38.43487  -2.20706  -2.20681  -2.20554
  Beta  occ. eigenvalues --   -2.20096  -2.20084  -2.20036  -2.19267  -1.14392
  Beta  occ. eigenvalues --   -1.14389  -1.14384  -1.14382  -1.14362  -1.14344
  Beta  occ. eigenvalues --   -1.14250  -1.14231  -1.14175  -1.13782  -1.13769
  Beta  occ. eigenvalues --   -1.13754  -1.13746  -1.13738  -1.13734  -1.13729
  Beta  occ. eigenvalues --   -1.13713  -1.13655  -1.12939  -1.12934  -1.12919
  Beta  occ. eigenvalues --   -0.15308  -0.13330  -0.11899
  Beta virt. eigenvalues --   -0.08032  -0.07120  -0.04655  -0.04132  -0.03513
  Beta virt. eigenvalues --   -0.03049  -0.02156  -0.01797  -0.01398  -0.00958
  Beta virt. eigenvalues --   -0.00653  -0.00449  -0.00046   0.00245   0.00459

 Mulliken charges and spin densities:
               1          2
     1  Na   0.495137   0.025831
     2  Na   0.101975  -0.000575
     3  Na  -0.752386   0.090065
     4  Na   0.512507   0.599571
     5  Na   0.080106   0.117730
     6  Na  -0.352166   0.091350
     7  Na  -0.085173   0.076028
 Sum of Mulliken charges =  -0.00000   1.00000

 Dipole moment (field-independent basis, Debye):
    X=              0.1817    Y=             -0.4336    Z=              0.3609  Tot=              0.5927
 Quadrupole moment (field-independent basis, Debye-Ang):
   XX=            -57.8102   YY=            -68.3531   ZZ=            -71.5629
   XY=             -3.6202   XZ=              1.3805   YZ=              2.4661

 Normal termination of Gaussian 16 at Sun Dec  3 21:02:53 2023.
