 Gaussian 16, Revision B.01,
 Gaussian 16:  ES64L-G16RevB.01 20-Dec-2017

 -------------------------
 #P B3LYP/6-311+g(d) force
 -------------------------

 -----
 DPGEN
 -----
 Symbolic Z-matrix:
 Charge =  0 Multiplicity = 2

                         Standard orientation:
 ---------------------------------------------------------------------
 Center     Atomic      Atomic             Coordinates (Angstroms)
 Number     Number       Type             X           Y           Z
 ---------------------------------------------------------------------
      1         11           0       -3.498365   -0.163499   -0.287921
      2         11           0       -0.125067   -0.011945   -1.813184
      3         11           0       -1.004224    2.516551    0.422497
      4         11           0        0.461290    0.094873    2.055976
      5         11           0        2.473509    1.747145   -0.509266
      6         11           0        2.307306   -1.705123   -0.142867
      7         11           0       -0.614449   -2.478002    0.274765
 ---------------------------------------------------------------------

 SCF Done:  E(UB3LYP) =  -1136.13601439     A.U. after   19 cycles

 The electronic state is 2-A.
 Alpha  occ. eigenvalues --  -38.44216 -38.43780 -38.43647 -38.43583 -38.43408
 Alpha  occ. eigenvalues --  -38.43383 -38.43004  -2.19992  -2.19716  -2.19599
 Alpha  occ. eigenvalues --   -2.19434  -2.19334  -2.19236  -2.18931  -1.13667
 Alpha  occ. eigenvalues --   -1.13647  -1.13632  -1.13389  -1.13360  -1.13338
 Alpha  occ. eigenvalues --   -1.13294  -1.13253  -1.13222  -1.13102  -1.13097
 Alpha  occ. eigenvalues --   -1.13067  -1.13041  -1.12987  -1.12965  -1.12931
 Alpha  occ. eigenvalues --   -1.12903  -1.12838  -1.12616  -1.12596  -1.12534
 Alpha  occ. eigenvalues --   -0.18919  -0.12879  -0.12416  -0.11287
 Alpha virt. eigenvalues --   -0.05765  -0.04833  -0.04304  -0.03244  -0.03127
 Alpha virt. eigenvalues --   -0.02897  -0.01663  -0.00925  -0.00218  -0.00018
 Alpha virt. eigenvalues --    0.00076   0.00334   0.00800   0.00906   0.00926

  Beta  occ. eigenvalues --  -38.44217 -38.43685 -38.43578 -38.43571 -38.43400
  Beta  occ. eigenvalues --  -38.43372 -38.42994  -2.19995  -2.19542  -2.19474
  Beta  occ. eigenvalues --   -2.19415  -2.19325  -2.19218  -2.18918  -1.13661
  Beta  occ. eigenvalues --   -1.13650  -1.13635  -1.13279  -1.13235  -1.13217
  Beta  occ. eigenvalues --   -1.13212  -1.13170  -1.13132  -1.13085  -1.13064
  Beta  occ. eigenvalues --   -1.13047  -1.13034  -1.12968  -1.12938  -1.12909
  Beta  occ. eigenvalues --   -1.12873  -1.12831  -1.12610  -1.12560  -1.12522
  Beta  occ. eigenvalues --   -0.18145  -0.12651  -0.12143
  Beta virt. eigenvalues --   -0.07316  -0.05689  -0.04823  -0.04266  -0.02528
  Beta virt. eigenvalues --   -0.02313  -0.01851  -0.01544  -0.00876  -0.00160
  Beta virt. eigenvalues --    0.00029   0.00074   0.00359   0.00874   0.00911

 Mulliken charges and spin densities:
               1          2
     1  Na  -0.007053  -0.083619
     2  Na  -0.473901   0.632384
     3  Na   0.096976  -0.032839
     4  Na  -0.315591   0.510203
     5  Na   0.188207  -0.017931
     6  Na   0.326224  -0.010522
     7  Na   0.185138   0.002325
 Sum of Mulliken charges =  -0.00000   1.00000

 Dipole moment (field-independent basis, Debye):
    X=             -0.1615    Y=              0.1782    Z=             -0.0047  Tot=              0.2405
 Quadrupole moment (field-independent basis, Debye-Ang):
   XX=            -55.8274   YY=            -67.0522   ZZ=            -71.3812
   XY=              0.2644   XZ=             -0.8710   YZ=             -0.2654

 Normal termination of Gaussian 16 at Tue Dec  5 11:33:07 2023.
