 Gaussian 16, Revision B.01,
 Gaussian 16:  ES64L-G16RevB.01 20-Dec-2017

 -------------------------
 #P B3LYP/6-311+g(d) force
 -------------------------

 -----
 DPGEN
 -----
 Symbolic Z-matrix:
 Charge =  0 Multiplicity = 2

                         Standard orientation:
 ---------------------------------------------------------------------
 Center     Atomic      Atomic             Coordinates (Angstroms)
 Number     Number       Type             X           Y           Z
 ---------------------------------------------------------------------
      1         11           0        2.482748    2.436978   -0.802303
      2         11           0        3.397007   -0.578422    0.301777
      3         11           0        0.252331    0.104830    2.280036
      4         11           0        0.859669   -2.480390   -0.249611
      5         11           0       -2.933424   -1.360944   -0.623896
      6         11           0       -0.416961    0.268712   -1.402801
      7         11           0       -3.641370    1.609235    0.496798
 ---------------------------------------------------------------------

 SCF Done:  E(UB3LYP) =  -1136.11779688     A.U. after   26 cycles

 The electronic state is 2-A.
 Alpha  occ. eigenvalues --  -38.45137 -38.44939 -38.44766 -38.44525 -38.44150
 Alpha  occ. eigenvalues --  -38.42920 -38.42544  -2.20971  -2.20744  -2.20550
 Alpha  occ. eigenvalues --   -2.20386  -2.20069  -2.18727  -2.18423  -1.14656
 Alpha  occ. eigenvalues --   -1.14630  -1.14608  -1.14409  -1.14373  -1.14349
 Alpha  occ. eigenvalues --   -1.14237  -1.14205  -1.14192  -1.14114  -1.14035
 Alpha  occ. eigenvalues --   -1.13985  -1.13761  -1.13712  -1.13685  -1.12390
 Alpha  occ. eigenvalues --   -1.12388  -1.12373  -1.12121  -1.12079  -1.12064
 Alpha  occ. eigenvalues --   -0.18021  -0.14026  -0.11199  -0.10922
 Alpha virt. eigenvalues --   -0.07085  -0.05582  -0.04309  -0.03290  -0.02787
 Alpha virt. eigenvalues --   -0.02541  -0.02379  -0.01472  -0.00638  -0.00349
 Alpha virt. eigenvalues --   -0.00140   0.00159   0.00310   0.00539   0.00705

  Beta  occ. eigenvalues --  -38.45140 -38.44840 -38.44753 -38.44512 -38.44102
  Beta  occ. eigenvalues --  -38.42906 -38.42544  -2.20977  -2.20561  -2.20526
  Beta  occ. eigenvalues --   -2.20364  -2.19983  -2.18704  -2.18427  -1.14663
  Beta  occ. eigenvalues --   -1.14629  -1.14605  -1.14284  -1.14250  -1.14223
  Beta  occ. eigenvalues --   -1.14216  -1.14182  -1.14174  -1.14087  -1.14016
  Beta  occ. eigenvalues --   -1.13966  -1.13700  -1.13642  -1.13623  -1.12376
  Beta  occ. eigenvalues --   -1.12365  -1.12358  -1.12125  -1.12085  -1.12041
  Beta  occ. eigenvalues --   -0.17356  -0.13859  -0.10934
  Beta virt. eigenvalues --   -0.07245  -0.06753  -0.05405  -0.03966  -0.02942
  Beta virt. eigenvalues --   -0.02456  -0.01954  -0.01723  -0.01253  -0.00564
  Beta virt. eigenvalues --   -0.00176  -0.00101   0.00196   0.00507   0.00645

 Mulliken charges and spin densities:
               1          2
     1  Na   0.180420   0.030605
     2  Na   0.310861   0.058832
     3  Na  -0.463326   0.599793
     4  Na   0.091789  -0.063205
     5  Na   0.551504  -0.048664
     6  Na  -0.683160   0.284890
     7  Na   0.011913   0.137749
 Sum of Mulliken charges =  -0.00000   1.00000

 Dipole moment (field-independent basis, Debye):
    X=             -0.7295    Y=             -0.3600    Z=              0.5061  Tot=              0.9581
 Quadrupole moment (field-independent basis, Debye-Ang):
   XX=            -51.7691   YY=            -70.6850   ZZ=            -73.6663
   XY=             -3.6082   XZ=              0.9111   YZ=              1.4062

 Normal termination of Gaussian 16 at Fri Dec  8 07:35:41 2023.
