 Gaussian 16, Revision B.01,
 Gaussian 16:  ES64L-G16RevB.01 20-Dec-2017

 -------------------------
 #P B3LYP/6-311+g(d) force
 -------------------------

 -----
 DPGEN
 -----
 Symbolic Z-matrix:
 Charge =  0 Multiplicity = 2

                         Standard orientation:
 ---------------------------------------------------------------------
 Center     Atomic      Atomic             Coordinates (Angstroms)
 Number     Number       Type             X           Y           Z
 ---------------------------------------------------------------------
      1         11           0       -2.001012    2.151822   -0.193251
      2         11           0        1.563999    2.277175    0.200505
      3         11           0        2.936250   -0.422526   -0.108612
      4         11           0        0.018947    0.086960   -1.536435
      5         11           0        0.671515   -2.617087   -0.013469
      6         11           0       -0.459120   -0.127913    1.833923
      7         11           0       -2.730579   -1.348432   -0.182661
 ---------------------------------------------------------------------

 SCF Done:  E(UB3LYP) =  -1136.13501668     A.U. after   19 cycles

 The electronic state is 2-A.
 Alpha  occ. eigenvalues --  -38.43967 -38.43748 -38.43607 -38.43333 -38.43166
 Alpha  occ. eigenvalues --  -38.43112 -38.42865  -2.19836  -2.19674  -2.19488
 Alpha  occ. eigenvalues --   -2.19253  -2.19099  -2.19093  -2.18953  -1.13518
 Alpha  occ. eigenvalues --   -1.13509  -1.13462  -1.13390  -1.13356  -1.13312
 Alpha  occ. eigenvalues --   -1.13194  -1.13154  -1.13108  -1.12951  -1.12904
 Alpha  occ. eigenvalues --   -1.12877  -1.12844  -1.12785  -1.12758  -1.12720
 Alpha  occ. eigenvalues --   -1.12711  -1.12685  -1.12620  -1.12568  -1.12562
 Alpha  occ. eigenvalues --   -0.19475  -0.13424  -0.12642  -0.10694
 Alpha virt. eigenvalues --   -0.05545  -0.05208  -0.04425  -0.03207  -0.02787
 Alpha virt. eigenvalues --   -0.02239  -0.01496  -0.01095  -0.00113  -0.00069
 Alpha virt. eigenvalues --    0.00042   0.00363   0.00834   0.00915   0.00961

  Beta  occ. eigenvalues --  -38.43960 -38.43744 -38.43599 -38.43326 -38.43158
  Beta  occ. eigenvalues --  -38.43026 -38.42797  -2.19827  -2.19670  -2.19478
  Beta  occ. eigenvalues --   -2.19243  -2.19083  -2.18941  -2.18831  -1.13513
  Beta  occ. eigenvalues --   -1.13477  -1.13458  -1.13392  -1.13353  -1.13283
  Beta  occ. eigenvalues --   -1.13183  -1.13122  -1.13104  -1.12943  -1.12878
  Beta  occ. eigenvalues --   -1.12864  -1.12817  -1.12727  -1.12713  -1.12669
  Beta  occ. eigenvalues --   -1.12602  -1.12589  -1.12534  -1.12482  -1.12476
  Beta  occ. eigenvalues --   -0.18739  -0.13154  -0.12366
  Beta virt. eigenvalues --   -0.06740  -0.05523  -0.05196  -0.04427  -0.02383
  Beta virt. eigenvalues --   -0.01978  -0.01417  -0.01188  -0.01040  -0.00151
  Beta virt. eigenvalues --   -0.00122   0.00163   0.00390   0.00875   0.00916

 Mulliken charges and spin densities:
               1          2
     1  Na   0.200955  -0.060962
     2  Na   0.312318   0.007720
     3  Na   0.122670   0.007907
     4  Na  -0.668436   0.455770
     5  Na   0.376797  -0.041381
     6  Na  -0.586311   0.721630
     7  Na   0.242006  -0.090684
 Sum of Mulliken charges =  -0.00000   1.00000

 Dipole moment (field-independent basis, Debye):
    X=             -0.3603    Y=             -0.0083    Z=              0.1202  Tot=              0.3799
 Quadrupole moment (field-independent basis, Debye-Ang):
   XX=            -55.3420   YY=            -62.6823   ZZ=            -74.8363
   XY=              0.1020   XZ=              0.9756   YZ=              0.5422

 Normal termination of Gaussian 16 at Tue Nov 28 22:31:14 2023.
