 Gaussian 16, Revision B.01,
 Gaussian 16:  ES64L-G16RevB.01 20-Dec-2017

 -------------------------
 #P B3LYP/6-311+g(d) force
 -------------------------

 -----
 DPGEN
 -----
 Symbolic Z-matrix:
 Charge =  0 Multiplicity = 2

                         Standard orientation:
 ---------------------------------------------------------------------
 Center     Atomic      Atomic             Coordinates (Angstroms)
 Number     Number       Type             X           Y           Z
 ---------------------------------------------------------------------
      1         11           0       -0.689852   -2.082004    1.328290
      2         11           0       -1.176276    2.755380   -0.839549
      3         11           0       -2.847242    0.100113   -1.137607
      4         11           0       -0.378514   -1.849971   -1.988313
      5         11           0       -1.998112    0.661485    2.364174
      6         11           0        2.206406   -0.255740    0.251091
      7         11           0        4.883591    0.670737    0.021913
 ---------------------------------------------------------------------

 SCF Done:  E(UB3LYP) =  -1136.11401433     A.U. after   25 cycles

 The electronic state is 2-A.
 Alpha  occ. eigenvalues --  -38.45217 -38.44604 -38.44107 -38.44070 -38.43896
 Alpha  occ. eigenvalues --  -38.43792 -38.43120  -2.21060  -2.20496  -2.19969
 Alpha  occ. eigenvalues --   -2.19871  -2.19715  -2.19677  -2.18994  -1.14735
 Alpha  occ. eigenvalues --   -1.14715  -1.14643  -1.14202  -1.14140  -1.14127
 Alpha  occ. eigenvalues --   -1.13633  -1.13614  -1.13592  -1.13547  -1.13524
 Alpha  occ. eigenvalues --   -1.13491  -1.13486  -1.13362  -1.13349  -1.13346
 Alpha  occ. eigenvalues --   -1.13335  -1.13292  -1.12660  -1.12647  -1.12614
 Alpha  occ. eigenvalues --   -0.18016  -0.13020  -0.12542  -0.11640
 Alpha virt. eigenvalues --   -0.06734  -0.04787  -0.04075  -0.03678  -0.03394
 Alpha virt. eigenvalues --   -0.02883  -0.02141  -0.00832  -0.00709  -0.00457
 Alpha virt. eigenvalues --   -0.00385   0.00050   0.00341   0.00629   0.00724

  Beta  occ. eigenvalues --  -38.45128 -38.44567 -38.44056 -38.44054 -38.43906
  Beta  occ. eigenvalues --  -38.43756 -38.43118  -2.20898  -2.20433  -2.19875
  Beta  occ. eigenvalues --   -2.19843  -2.19734  -2.19616  -2.18989  -1.14618
  Beta  occ. eigenvalues --   -1.14607  -1.14523  -1.14145  -1.14093  -1.14075
  Beta  occ. eigenvalues --   -1.13564  -1.13548  -1.13530  -1.13520  -1.13502
  Beta  occ. eigenvalues --   -1.13498  -1.13475  -1.13361  -1.13359  -1.13314
  Beta  occ. eigenvalues --   -1.13295  -1.13228  -1.12649  -1.12646  -1.12618
  Beta  occ. eigenvalues --   -0.17156  -0.12985  -0.11515
  Beta virt. eigenvalues --   -0.08293  -0.06539  -0.04104  -0.03893  -0.03371
  Beta virt. eigenvalues --   -0.02720  -0.02392  -0.01987  -0.00703  -0.00527
  Beta virt. eigenvalues --   -0.00350  -0.00109   0.00097   0.00351   0.00739

 Mulliken charges and spin densities:
               1          2
     1  Na   1.727538   0.076368
     2  Na   0.053122  -0.017452
     3  Na   0.036238   0.304445
     4  Na   0.654048   0.230817
     5  Na   0.409018   0.334124
     6  Na  -1.113841  -0.072537
     7  Na  -1.766122   0.144236
 Sum of Mulliken charges =  -0.00000   1.00000

 Dipole moment (field-independent basis, Debye):
    X=             -1.0142    Y=              0.0483    Z=             -0.0370  Tot=              1.0160
 Quadrupole moment (field-independent basis, Debye-Ang):
   XX=            -62.8149   YY=            -71.6325   ZZ=            -64.0584
   XY=              3.7416   XZ=             -2.2891   YZ=              0.5508

 Normal termination of Gaussian 16 at Thu Dec  7 08:52:51 2023.
