 Gaussian 16, Revision B.01,
 Gaussian 16:  ES64L-G16RevB.01 20-Dec-2017

 -------------------------
 #P B3LYP/6-311+g(d) force
 -------------------------

 -----
 DPGEN
 -----
 Symbolic Z-matrix:
 Charge =  0 Multiplicity = 2

                         Standard orientation:
 ---------------------------------------------------------------------
 Center     Atomic      Atomic             Coordinates (Angstroms)
 Number     Number       Type             X           Y           Z
 ---------------------------------------------------------------------
      1         11           0        2.323330    1.810231   -0.053800
      2         11           0        2.818026   -1.529367    0.054770
      3         11           0       -0.118026   -0.191487    2.018370
      4         11           0       -0.780751    2.848875   -0.132642
      5         11           0       -0.621974   -2.774665   -0.349523
      6         11           0       -3.465014   -0.167543    0.106138
      7         11           0       -0.155592    0.003955   -1.643314
 ---------------------------------------------------------------------

 SCF Done:  E(UB3LYP) =  -1136.13660403     A.U. after   19 cycles

 The electronic state is 2-A.
 Alpha  occ. eigenvalues --  -38.44611 -38.43827 -38.43596 -38.43582 -38.43474
 Alpha  occ. eigenvalues --  -38.43392 -38.43139  -2.20374  -2.19647  -2.19473
 Alpha  occ. eigenvalues --   -2.19442  -2.19346  -2.19245  -2.19117  -1.14051
 Alpha  occ. eigenvalues --   -1.14027  -1.14016  -1.13324  -1.13313  -1.13291
 Alpha  occ. eigenvalues --   -1.13188  -1.13151  -1.13123  -1.13083  -1.13081
 Alpha  occ. eigenvalues --   -1.13041  -1.13041  -1.13014  -1.12995  -1.12942
 Alpha  occ. eigenvalues --   -1.12899  -1.12860  -1.12790  -1.12747  -1.12719
 Alpha  occ. eigenvalues --   -0.18522  -0.12830  -0.12520  -0.10602
 Alpha virt. eigenvalues --   -0.06031  -0.04933  -0.04781  -0.03058  -0.02870
 Alpha virt. eigenvalues --   -0.02496  -0.01843  -0.01113  -0.00436  -0.00353
 Alpha virt. eigenvalues --   -0.00022   0.00333   0.00770   0.00861   0.00883

  Beta  occ. eigenvalues --  -38.44611 -38.43825 -38.43569 -38.43505 -38.43470
  Beta  occ. eigenvalues --  -38.43388 -38.43071  -2.20376  -2.19647  -2.19422
  Beta  occ. eigenvalues --   -2.19342  -2.19304  -2.19240  -2.18993  -1.14037
  Beta  occ. eigenvalues --   -1.14030  -1.14019  -1.13326  -1.13296  -1.13289
  Beta  occ. eigenvalues --   -1.13162  -1.13077  -1.13047  -1.13033  -1.13024
  Beta  occ. eigenvalues --   -1.13007  -1.12986  -1.12975  -1.12956  -1.12927
  Beta  occ. eigenvalues --   -1.12881  -1.12858  -1.12707  -1.12658  -1.12633
  Beta  occ. eigenvalues --   -0.17794  -0.12621  -0.12273
  Beta virt. eigenvalues --   -0.06699  -0.05988  -0.04956  -0.04721  -0.02318
  Beta virt. eigenvalues --   -0.02097  -0.01744  -0.01419  -0.01042  -0.00484
  Beta virt. eigenvalues --   -0.00407   0.00118   0.00354   0.00796   0.00867

 Mulliken charges and spin densities:
               1          2
     1  Na   0.126888  -0.024769
     2  Na   0.148141  -0.028362
     3  Na  -0.515189   0.843362
     4  Na   0.135053  -0.084404
     5  Na   0.214596  -0.087033
     6  Na   0.046873  -0.094849
     7  Na  -0.156361   0.476054
 Sum of Mulliken charges =  -0.00000   1.00000

 Dipole moment (field-independent basis, Debye):
    X=             -0.4060    Y=             -0.1368    Z=              0.1594  Tot=              0.4571
 Quadrupole moment (field-independent basis, Debye-Ang):
   XX=            -54.1275   YY=            -63.0120   ZZ=            -75.3815
   XY=             -0.7197   XZ=             -0.1252   YZ=              0.3426

 Normal termination of Gaussian 16 at Tue Dec  5 15:16:43 2023.
