 Gaussian 16, Revision B.01,
 Gaussian 16:  ES64L-G16RevB.01 20-Dec-2017

 -------------------------
 #P B3LYP/6-311+g(d) force
 -------------------------

 -----
 DPGEN
 -----
 Symbolic Z-matrix:
 Charge =  0 Multiplicity = 2

                         Standard orientation:
 ---------------------------------------------------------------------
 Center     Atomic      Atomic             Coordinates (Angstroms)
 Number     Number       Type             X           Y           Z
 ---------------------------------------------------------------------
      1         11           0       -0.557204    0.286027   -0.980571
      2         11           0       -6.128025   -0.274656   -0.954168
      3         11           0       -3.629113    0.118123    0.936219
      4         11           0       -0.537277   -1.642193    1.195573
      5         11           0        3.092492   -0.496962   -0.455514
      6         11           0        1.473086    2.716275    0.533886
      7         11           0        6.286040   -0.706615   -0.275425
 ---------------------------------------------------------------------

 SCF Done:  E(UB3LYP) =  -1136.10889561     A.U. after   21 cycles

 The electronic state is 2-A.
 Alpha  occ. eigenvalues --  -38.45532 -38.45242 -38.45193 -38.43897 -38.43790
 Alpha  occ. eigenvalues --  -38.43331 -38.43224  -2.21340  -2.21139  -2.21072
 Alpha  occ. eigenvalues --   -2.19687  -2.19631  -2.19112  -2.19054  -1.14991
 Alpha  occ. eigenvalues --   -1.14982  -1.14966  -1.14952  -1.14806  -1.14749
 Alpha  occ. eigenvalues --   -1.14701  -1.14671  -1.14630  -1.13399  -1.13342
 Alpha  occ. eigenvalues --   -1.13339  -1.13311  -1.13289  -1.13220  -1.12806
 Alpha  occ. eigenvalues --   -1.12772  -1.12769  -1.12746  -1.12735  -1.12632
 Alpha  occ. eigenvalues --   -0.17538  -0.13881  -0.11559  -0.11508
 Alpha virt. eigenvalues --   -0.06829  -0.06258  -0.04162  -0.03712  -0.02833
 Alpha virt. eigenvalues --   -0.02649  -0.01884  -0.01701  -0.01491  -0.00812
 Alpha virt. eigenvalues --   -0.00629  -0.00051   0.00017   0.00320   0.00428

  Beta  occ. eigenvalues --  -38.45421 -38.45240 -38.45124 -38.43876 -38.43792
  Beta  occ. eigenvalues --  -38.43325 -38.43221  -2.21142  -2.21134  -2.20946
  Beta  occ. eigenvalues --   -2.19648  -2.19637  -2.19102  -2.19050  -1.14945
  Beta  occ. eigenvalues --   -1.14841  -1.14829  -1.14819  -1.14803  -1.14736
  Beta  occ. eigenvalues --   -1.14612  -1.14586  -1.14567  -1.13381  -1.13327
  Beta  occ. eigenvalues --   -1.13314  -1.13305  -1.13287  -1.13205  -1.12801
  Beta  occ. eigenvalues --   -1.12765  -1.12761  -1.12743  -1.12717  -1.12632
  Beta  occ. eigenvalues --   -0.16943  -0.13477  -0.11167
  Beta virt. eigenvalues --   -0.08025  -0.06479  -0.05888  -0.03831  -0.03350
  Beta virt. eigenvalues --   -0.02442  -0.02266  -0.01628  -0.01484  -0.01183
  Beta virt. eigenvalues --   -0.00683  -0.00457   0.00159   0.00271   0.00384

 Mulliken charges and spin densities:
               1          2
     1  Na  -0.300398   0.397769
     2  Na  -0.174558   0.111769
     3  Na   0.273742  -0.077201
     4  Na   0.545380   0.301459
     5  Na  -0.652197  -0.089537
     6  Na   0.333382   0.441819
     7  Na  -0.025352  -0.086078
 Sum of Mulliken charges =  -0.00000   1.00000

 Dipole moment (field-independent basis, Debye):
    X=             -0.7145    Y=              0.4359    Z=              0.6115  Tot=              1.0365
 Quadrupole moment (field-independent basis, Debye-Ang):
   XX=            -77.9455   YY=            -69.0246   ZZ=            -64.5783
   XY=              4.0820   XZ=              5.5907   YZ=              0.7580

 Normal termination of Gaussian 16 at Wed Nov 29 03:16:33 2023.
