 Gaussian 16, Revision B.01,
 Gaussian 16:  ES64L-G16RevB.01 20-Dec-2017

 -------------------------
 #P B3LYP/6-311+g(d) force
 -------------------------

 -----
 DPGEN
 -----
 Symbolic Z-matrix:
 Charge =  0 Multiplicity = 2

                         Standard orientation:
 ---------------------------------------------------------------------
 Center     Atomic      Atomic             Coordinates (Angstroms)
 Number     Number       Type             X           Y           Z
 ---------------------------------------------------------------------
      1         11           0       -3.497813    2.109709    0.371739
      2         11           0        2.710381    2.230927    0.868098
      3         11           0       -3.764002   -0.984113   -0.505363
      4         11           0       -1.815041   -3.204279    0.128635
      5         11           0        1.692164   -2.929920    0.482569
      6         11           0        4.338464   -1.039910   -0.770984
      7         11           0        0.335846    3.817586   -0.574694
 ---------------------------------------------------------------------

 SCF Done:  E(UB3LYP) =  -1136.10750228     A.U. after   21 cycles

 The electronic state is 2-A.
 Alpha  occ. eigenvalues --  -38.44886 -38.44862 -38.44747 -38.44455 -38.44422
 Alpha  occ. eigenvalues --  -38.44285 -38.43840  -2.20640  -2.20638  -2.20543
 Alpha  occ. eigenvalues --   -2.20291  -2.20208  -2.20067  -2.19682  -1.14332
 Alpha  occ. eigenvalues --   -1.14322  -1.14316  -1.14310  -1.14278  -1.14269
 Alpha  occ. eigenvalues --   -1.14213  -1.14191  -1.14166  -1.14002  -1.13948
 Alpha  occ. eigenvalues --   -1.13938  -1.13862  -1.13846  -1.13834  -1.13727
 Alpha  occ. eigenvalues --   -1.13723  -1.13704  -1.13334  -1.13317  -1.13310
 Alpha  occ. eigenvalues --   -0.15596  -0.14017  -0.13346  -0.10914
 Alpha virt. eigenvalues --   -0.07329  -0.05270  -0.03964  -0.03537  -0.03142
 Alpha virt. eigenvalues --   -0.02708  -0.02496  -0.01950  -0.01409  -0.00630
 Alpha virt. eigenvalues --   -0.00187  -0.00144   0.00146   0.00400   0.00584

  Beta  occ. eigenvalues --  -38.44889 -38.44841 -38.44676 -38.44453 -38.44360
  Beta  occ. eigenvalues --  -38.44259 -38.43787  -2.20651  -2.20603  -2.20414
  Beta  occ. eigenvalues --   -2.20295  -2.20093  -2.20024  -2.19582  -1.14344
  Beta  occ. eigenvalues --   -1.14334  -1.14291  -1.14288  -1.14246  -1.14227
  Beta  occ. eigenvalues --   -1.14126  -1.14104  -1.14077  -1.13985  -1.13956
  Beta  occ. eigenvalues --   -1.13912  -1.13784  -1.13768  -1.13759  -1.13699
  Beta  occ. eigenvalues --   -1.13693  -1.13664  -1.13275  -1.13249  -1.13242
  Beta  occ. eigenvalues --   -0.15063  -0.13297  -0.12538
  Beta virt. eigenvalues --   -0.07830  -0.07402  -0.04891  -0.03518  -0.03316
  Beta virt. eigenvalues --   -0.02755  -0.02436  -0.02250  -0.01748  -0.01273
  Beta virt. eigenvalues --   -0.00339  -0.00007   0.00050   0.00277   0.00421

 Mulliken charges and spin densities:
               1          2
     1  Na  -0.034590   0.300766
     2  Na  -0.120263   0.073064
     3  Na  -0.347379   0.025502
     4  Na   0.360922   0.238105
     5  Na  -0.169226   0.012845
     6  Na   0.328904   0.274656
     7  Na  -0.018367   0.075063
 Sum of Mulliken charges =  -0.00000   1.00000

 Dipole moment (field-independent basis, Debye):
    X=              0.3741    Y=              0.4552    Z=             -0.0063  Tot=              0.5892
 Quadrupole moment (field-independent basis, Debye-Ang):
   XX=            -63.6101   YY=            -68.0969   ZZ=            -69.6056
   XY=             -0.7922   XZ=              0.5081   YZ=             -0.8573

 Normal termination of Gaussian 16 at Sun Dec  3 16:29:44 2023.
