 Gaussian 16, Revision B.01,
 Gaussian 16:  ES64L-G16RevB.01 20-Dec-2017

 -------------------------
 #P B3LYP/6-311+g(d) force
 -------------------------

 -----
 DPGEN
 -----
 Symbolic Z-matrix:
 Charge =  0 Multiplicity = 2

                         Standard orientation:
 ---------------------------------------------------------------------
 Center     Atomic      Atomic             Coordinates (Angstroms)
 Number     Number       Type             X           Y           Z
 ---------------------------------------------------------------------
      1         11           0        2.479366   -2.364012    0.278078
      2         11           0       -0.409871    0.498224    1.529987
      3         11           0        1.027535    2.909203   -0.317990
      4         11           0        4.087703    0.365239   -0.271012
      5         11           0       -3.567839   -1.301498    0.297256
      6         11           0       -1.167321   -2.591430   -0.999470
      7         11           0       -2.449572    2.484273   -0.516849
 ---------------------------------------------------------------------

 SCF Done:  E(UB3LYP) =  -1136.11534651     A.U. after   26 cycles

 The electronic state is 2-A.
 Alpha  occ. eigenvalues --  -38.45281 -38.44752 -38.44613 -38.44590 -38.44123
 Alpha  occ. eigenvalues --  -38.43486 -38.43121  -2.21062  -2.20546  -2.20431
 Alpha  occ. eigenvalues --   -2.20423  -2.19911  -2.19339  -2.18943  -1.14752
 Alpha  occ. eigenvalues --   -1.14724  -1.14685  -1.14247  -1.14230  -1.14158
 Alpha  occ. eigenvalues --   -1.14128  -1.14105  -1.14093  -1.14086  -1.14055
 Alpha  occ. eigenvalues --   -1.14027  -1.13592  -1.13586  -1.13554  -1.13016
 Alpha  occ. eigenvalues --   -1.12981  -1.12961  -1.12593  -1.12591  -1.12571
 Alpha  occ. eigenvalues --   -0.17083  -0.13507  -0.13060  -0.09472
 Alpha virt. eigenvalues --   -0.06838  -0.06772  -0.04191  -0.03229  -0.02920
 Alpha virt. eigenvalues --   -0.02641  -0.02291  -0.01543  -0.01120  -0.00854
 Alpha virt. eigenvalues --    0.00012   0.00089   0.00441   0.00457   0.00534

  Beta  occ. eigenvalues --  -38.45277 -38.44750 -38.44606 -38.44539 -38.44118
  Beta  occ. eigenvalues --  -38.43446 -38.43054  -2.21057  -2.20544  -2.20416
  Beta  occ. eigenvalues --   -2.20336  -2.19906  -2.19264  -2.18818  -1.14751
  Beta  occ. eigenvalues --   -1.14722  -1.14667  -1.14238  -1.14231  -1.14141
  Beta  occ. eigenvalues --   -1.14123  -1.14091  -1.14045  -1.14027  -1.14020
  Beta  occ. eigenvalues --   -1.13956  -1.13591  -1.13582  -1.13523  -1.12967
  Beta  occ. eigenvalues --   -1.12923  -1.12909  -1.12510  -1.12506  -1.12486
  Beta  occ. eigenvalues --   -0.16634  -0.12898  -0.12843
  Beta virt. eigenvalues --   -0.06702  -0.06512  -0.06171  -0.04056  -0.02838
  Beta virt. eigenvalues --   -0.02562  -0.02156  -0.01979  -0.01343  -0.00897
  Beta virt. eigenvalues --   -0.00766   0.00215   0.00313   0.00534   0.00586

 Mulliken charges and spin densities:
               1          2
     1  Na  -0.049321   0.150832
     2  Na   0.261527  -0.113861
     3  Na  -0.122870   0.130614
     4  Na  -0.060710   0.341818
     5  Na   0.139564   0.452304
     6  Na  -0.209226  -0.006218
     7  Na   0.041035   0.044511
 Sum of Mulliken charges =  -0.00000   1.00000

 Dipole moment (field-independent basis, Debye):
    X=             -1.2591    Y=              0.7920    Z=             -0.0386  Tot=              1.4879
 Quadrupole moment (field-independent basis, Debye-Ang):
   XX=            -76.5215   YY=            -61.6454   ZZ=            -68.0192
   XY=             -6.0745   XZ=              0.3412   YZ=             -0.8184

 Normal termination of Gaussian 16 at Mon Dec  4 03:46:00 2023.
