 Gaussian 16, Revision B.01,
 Gaussian 16:  ES64L-G16RevB.01 20-Dec-2017

 -------------------------
 #P B3LYP/6-311+g(d) force
 -------------------------

 -----
 DPGEN
 -----
 Symbolic Z-matrix:
 Charge =  0 Multiplicity = 2

                         Standard orientation:
 ---------------------------------------------------------------------
 Center     Atomic      Atomic             Coordinates (Angstroms)
 Number     Number       Type             X           Y           Z
 ---------------------------------------------------------------------
      1         11           0       -2.129284    2.016928   -0.004001
      2         11           0        3.239533   -0.004017    0.431110
      3         11           0        0.094239   -0.589323    2.049116
      4         11           0        1.288109    2.546293   -0.327046
      5         11           0       -3.263839   -1.376941    0.259554
      6         11           0        1.390382   -2.496238   -0.906262
      7         11           0       -0.619141   -0.096701   -1.502471
 ---------------------------------------------------------------------

 SCF Done:  E(UB3LYP) =  -1136.13035253     A.U. after   21 cycles

 The electronic state is 2-A.
 Alpha  occ. eigenvalues --  -38.44597 -38.44360 -38.44147 -38.43788 -38.43464
 Alpha  occ. eigenvalues --  -38.43199 -38.42912  -2.20390  -2.20199  -2.19988
 Alpha  occ. eigenvalues --   -2.19667  -2.19321  -2.19204  -2.18761  -1.14062
 Alpha  occ. eigenvalues --   -1.14041  -1.14035  -1.13868  -1.13866  -1.13844
 Alpha  occ. eigenvalues --   -1.13662  -1.13626  -1.13597  -1.13428  -1.13325
 Alpha  occ. eigenvalues --   -1.13264  -1.13046  -1.12955  -1.12948  -1.12873
 Alpha  occ. eigenvalues --   -1.12834  -1.12808  -1.12440  -1.12420  -1.12407
 Alpha  occ. eigenvalues --   -0.18447  -0.13492  -0.11969  -0.10820
 Alpha virt. eigenvalues --   -0.06296  -0.05277  -0.04293  -0.03405  -0.02715
 Alpha virt. eigenvalues --   -0.02509  -0.02002  -0.01111  -0.00536  -0.00097
 Alpha virt. eigenvalues --   -0.00037   0.00314   0.00622   0.00754   0.00814

  Beta  occ. eigenvalues --  -38.44594 -38.44354 -38.44067 -38.43783 -38.43431
  Beta  occ. eigenvalues --  -38.43139 -38.42910  -2.20386  -2.20190  -2.19841
  Beta  occ. eigenvalues --   -2.19661  -2.19262  -2.19095  -2.18761  -1.14049
  Beta  occ. eigenvalues --   -1.14041  -1.14028  -1.13864  -1.13844  -1.13835
  Beta  occ. eigenvalues --   -1.13564  -1.13525  -1.13488  -1.13414  -1.13311
  Beta  occ. eigenvalues --   -1.13259  -1.12991  -1.12916  -1.12901  -1.12797
  Beta  occ. eigenvalues --   -1.12755  -1.12733  -1.12440  -1.12417  -1.12395
  Beta  occ. eigenvalues --   -0.17766  -0.13298  -0.11693
  Beta virt. eigenvalues --   -0.06975  -0.06139  -0.05258  -0.04102  -0.02789
  Beta virt. eigenvalues --   -0.02100  -0.01839  -0.01491  -0.01054  -0.00494
  Beta virt. eigenvalues --   -0.00092   0.00103   0.00346   0.00765   0.00794

 Mulliken charges and spin densities:
               1          2
     1  Na   0.235626   0.124188
     2  Na   0.291590   0.150468
     3  Na  -0.425371   0.560801
     4  Na  -0.249497  -0.014969
     5  Na   0.063859   0.048415
     6  Na  -0.040242   0.051409
     7  Na   0.124035   0.079688
 Sum of Mulliken charges =  -0.00000   1.00000

 Dipole moment (field-independent basis, Debye):
    X=             -0.4183    Y=             -0.3439    Z=              0.4239  Tot=              0.6877
 Quadrupole moment (field-independent basis, Debye-Ang):
   XX=            -51.9879   YY=            -67.6427   ZZ=            -73.8980
   XY=              0.7709   XZ=             -0.8042   YZ=              0.8727

 Normal termination of Gaussian 16 at Fri Dec  8 04:07:27 2023.
