 Gaussian 16, Revision B.01,
 Gaussian 16:  ES64L-G16RevB.01 20-Dec-2017

 -------------------------
 #P B3LYP/6-311+g(d) force
 -------------------------

 -----
 DPGEN
 -----
 Symbolic Z-matrix:
 Charge =  0 Multiplicity = 2

                         Standard orientation:
 ---------------------------------------------------------------------
 Center     Atomic      Atomic             Coordinates (Angstroms)
 Number     Number       Type             X           Y           Z
 ---------------------------------------------------------------------
      1         11           0        1.499749    2.206785   -0.616200
      2         11           0       -3.586418   -2.595078   -1.213641
      3         11           0       -1.934317    3.940199    0.023601
      4         11           0        3.236436   -2.702939    0.646242
      5         11           0       -0.568480   -2.465430    0.235783
      6         11           0       -2.850417    0.629930    1.307822
      7         11           0        4.203447    0.986533   -0.383607
 ---------------------------------------------------------------------

 SCF Done:  E(UB3LYP) =  -1136.11140650     A.U. after   20 cycles

 The electronic state is 2-A.
 Alpha  occ. eigenvalues --  -38.45539 -38.44577 -38.44503 -38.44384 -38.44361
 Alpha  occ. eigenvalues --  -38.43946 -38.43913  -2.21272  -2.20369  -2.20280
 Alpha  occ. eigenvalues --   -2.20198  -2.20136  -2.19774  -2.19671  -1.14978
 Alpha  occ. eigenvalues --   -1.14949  -1.14866  -1.14039  -1.14023  -1.13993
 Alpha  occ. eigenvalues --   -1.13975  -1.13972  -1.13905  -1.13872  -1.13861
 Alpha  occ. eigenvalues --   -1.13851  -1.13793  -1.13773  -1.13752  -1.13436
 Alpha  occ. eigenvalues --   -1.13420  -1.13382  -1.13345  -1.13329  -1.13308
 Alpha  occ. eigenvalues --   -0.15706  -0.13755  -0.12902  -0.10796
 Alpha virt. eigenvalues --   -0.06561  -0.06195  -0.03900  -0.03579  -0.02999
 Alpha virt. eigenvalues --   -0.02648  -0.02193  -0.01896  -0.01137  -0.00894
 Alpha virt. eigenvalues --   -0.00652  -0.00188   0.00124   0.00288   0.00572

  Beta  occ. eigenvalues --  -38.45528 -38.44527 -38.44496 -38.44347 -38.44280
  Beta  occ. eigenvalues --  -38.43915 -38.43906  -2.21254  -2.20274  -2.20271
  Beta  occ. eigenvalues --   -2.20134  -2.19987  -2.19722  -2.19659  -1.14966
  Beta  occ. eigenvalues --   -1.14938  -1.14845  -1.13992  -1.13974  -1.13960
  Beta  occ. eigenvalues --   -1.13955  -1.13928  -1.13853  -1.13827  -1.13822
  Beta  occ. eigenvalues --   -1.13794  -1.13693  -1.13667  -1.13654  -1.13391
  Beta  occ. eigenvalues --   -1.13386  -1.13339  -1.13337  -1.13321  -1.13297
  Beta  occ. eigenvalues --   -0.15310  -0.13101  -0.12242
  Beta virt. eigenvalues --   -0.07493  -0.06556  -0.05829  -0.03684  -0.03282
  Beta virt. eigenvalues --   -0.02648  -0.02408  -0.01942  -0.01537  -0.00988
  Beta virt. eigenvalues --   -0.00673  -0.00297   0.00045   0.00244   0.00344

 Mulliken charges and spin densities:
               1          2
     1  Na  -0.918942   0.325914
     2  Na   0.721817   0.261167
     3  Na   0.521661   0.166207
     4  Na  -0.289599   0.296952
     5  Na  -0.503376   0.171666
     6  Na  -0.100116   0.006948
     7  Na   0.568554  -0.228853
 Sum of Mulliken charges =  -0.00000   1.00000

 Dipole moment (field-independent basis, Debye):
    X=             -1.0873    Y=             -0.2210    Z=             -0.1337  Tot=              1.1176
 Quadrupole moment (field-independent basis, Debye-Ang):
   XX=            -56.9752   YY=            -69.9667   ZZ=            -70.2194
   XY=             -0.7115   XZ=              1.6804   YZ=              0.1051

 Normal termination of Gaussian 16 at Sun Dec  3 21:07:33 2023.
