 Gaussian 16, Revision B.01,
 Gaussian 16:  ES64L-G16RevB.01 20-Dec-2017

 -------------------------
 #P B3LYP/6-311+g(d) force
 -------------------------

 -----
 DPGEN
 -----
 Symbolic Z-matrix:
 Charge =  0 Multiplicity = 2

                         Standard orientation:
 ---------------------------------------------------------------------
 Center     Atomic      Atomic             Coordinates (Angstroms)
 Number     Number       Type             X           Y           Z
 ---------------------------------------------------------------------
      1         11           0       -0.457136   -0.270928   -1.642243
      2         11           0        2.821866    1.135741   -0.189003
      3         11           0       -1.472780   -2.287126    0.215798
      4         11           0       -3.252373    0.591031   -0.017110
      5         11           0       -0.366895    2.572907   -0.011009
      6         11           0        0.402204   -0.113643    1.966151
      7         11           0        2.325114   -1.627982   -0.322584
 ---------------------------------------------------------------------

 SCF Done:  E(UB3LYP) =  -1136.12867916     A.U. after   19 cycles

 The electronic state is 2-A.
 Alpha  occ. eigenvalues --  -38.44657 -38.44175 -38.43793 -38.43478 -38.43437
 Alpha  occ. eigenvalues --  -38.43213 -38.42734  -2.20494  -2.20091  -2.19730
 Alpha  occ. eigenvalues --   -2.19464  -2.19429  -2.19133  -2.18617  -1.14170
 Alpha  occ. eigenvalues --   -1.14150  -1.14134  -1.13934  -1.13726  -1.13712
 Alpha  occ. eigenvalues --   -1.13382  -1.13369  -1.13334  -1.13231  -1.13129
 Alpha  occ. eigenvalues --   -1.13093  -1.13066  -1.13053  -1.13050  -1.12793
 Alpha  occ. eigenvalues --   -1.12784  -1.12731  -1.12314  -1.12287  -1.12234
 Alpha  occ. eigenvalues --   -0.19291  -0.13824  -0.12060  -0.10950
 Alpha virt. eigenvalues --   -0.06243  -0.04993  -0.03976  -0.03584  -0.02640
 Alpha virt. eigenvalues --   -0.02535  -0.01957  -0.00883  -0.00106  -0.00026
 Alpha virt. eigenvalues --   -0.00021   0.00347   0.00791   0.00920   0.00931

  Beta  occ. eigenvalues --  -38.44656 -38.44168 -38.43780 -38.43383 -38.43376
  Beta  occ. eigenvalues --  -38.43204 -38.42728  -2.20495  -2.20082  -2.19711
  Beta  occ. eigenvalues --   -2.19352  -2.19254  -2.19120  -2.18609  -1.14162
  Beta  occ. eigenvalues --   -1.14145  -1.14138  -1.13930  -1.13710  -1.13690
  Beta  occ. eigenvalues --   -1.13370  -1.13331  -1.13314  -1.13165  -1.13049
  Beta  occ. eigenvalues --   -1.12983  -1.12982  -1.12930  -1.12925  -1.12776
  Beta  occ. eigenvalues --   -1.12739  -1.12725  -1.12310  -1.12254  -1.12232
  Beta  occ. eigenvalues --   -0.18545  -0.13575  -0.11797
  Beta virt. eigenvalues --   -0.06997  -0.06164  -0.05000  -0.03953  -0.02780
  Beta virt. eigenvalues --   -0.01874  -0.01846  -0.01455  -0.00838  -0.00124
  Beta virt. eigenvalues --   -0.00060   0.00119   0.00377   0.00856   0.00916

 Mulliken charges and spin densities:
               1          2
     1  Na  -0.553136   0.462820
     2  Na  -0.000425  -0.000885
     3  Na   0.385468  -0.056416
     4  Na   0.097481  -0.069626
     5  Na   0.149735  -0.084573
     6  Na  -0.645225   0.681709
     7  Na   0.566101   0.066970
 Sum of Mulliken charges =  -0.00000   1.00000

 Dipole moment (field-independent basis, Debye):
    X=             -0.3960    Y=              0.0477    Z=              0.1607  Tot=              0.4300
 Quadrupole moment (field-independent basis, Debye-Ang):
   XX=            -52.0365   YY=            -68.7438   ZZ=            -73.2575
   XY=             -0.0231   XZ=             -1.5075   YZ=             -0.3254

 Normal termination of Gaussian 16 at Thu Dec  7 06:00:56 2023.
