 Gaussian 16, Revision B.01,
 Gaussian 16:  ES64L-G16RevB.01 20-Dec-2017

 -------------------------
 #P B3LYP/6-311+g(d) force
 -------------------------

 -----
 DPGEN
 -----
 Symbolic Z-matrix:
 Charge =  0 Multiplicity = 2

                         Standard orientation:
 ---------------------------------------------------------------------
 Center     Atomic      Atomic             Coordinates (Angstroms)
 Number     Number       Type             X           Y           Z
 ---------------------------------------------------------------------
      1         11           0       -2.068547   -2.023050    0.687545
      2         11           0        2.980493    1.578336   -1.096643
      3         11           0       -0.624284   -0.139167   -1.207419
      4         11           0        2.595922   -1.891548   -0.786109
      5         11           0       -4.091857    0.467544   -0.821209
      6         11           0       -0.297684    2.869880    1.240582
      7         11           0        1.505956   -0.861995    1.983253
 ---------------------------------------------------------------------

 SCF Done:  E(UB3LYP) =  -1136.11802557     A.U. after   21 cycles

 The electronic state is 2-A.
 Alpha  occ. eigenvalues --  -38.44994 -38.44334 -38.44292 -38.44231 -38.44077
 Alpha  occ. eigenvalues --  -38.43804 -38.43369  -2.20773  -2.20215  -2.20121
 Alpha  occ. eigenvalues --   -2.20008  -2.19919  -2.19656  -2.19127  -1.14447
 Alpha  occ. eigenvalues --   -1.14420  -1.14398  -1.14017  -1.13886  -1.13838
 Alpha  occ. eigenvalues --   -1.13783  -1.13764  -1.13706  -1.13688  -1.13663
 Alpha  occ. eigenvalues --   -1.13633  -1.13614  -1.13573  -1.13532  -1.13331
 Alpha  occ. eigenvalues --   -1.13306  -1.13273  -1.12789  -1.12778  -1.12756
 Alpha  occ. eigenvalues --   -0.17505  -0.13746  -0.11140  -0.10820
 Alpha virt. eigenvalues --   -0.06506  -0.05631  -0.04518  -0.03304  -0.02872
 Alpha virt. eigenvalues --   -0.02474  -0.02307  -0.01271  -0.00724  -0.00479
 Alpha virt. eigenvalues --   -0.00045   0.00169   0.00383   0.00433   0.00659

  Beta  occ. eigenvalues --  -38.44975 -38.44325 -38.44285 -38.44204 -38.44021
  Beta  occ. eigenvalues --  -38.43788 -38.43326  -2.20737  -2.20200  -2.20111
  Beta  occ. eigenvalues --   -2.19960  -2.19815  -2.19629  -2.19046  -1.14420
  Beta  occ. eigenvalues --   -1.14395  -1.14375  -1.14004  -1.13867  -1.13828
  Beta  occ. eigenvalues --   -1.13772  -1.13757  -1.13685  -1.13655  -1.13630
  Beta  occ. eigenvalues --   -1.13589  -1.13547  -1.13498  -1.13458  -1.13309
  Beta  occ. eigenvalues --   -1.13289  -1.13233  -1.12729  -1.12721  -1.12705
  Beta  occ. eigenvalues --   -0.16933  -0.13389  -0.10873
  Beta virt. eigenvalues --   -0.07243  -0.06269  -0.05500  -0.04077  -0.02976
  Beta virt. eigenvalues --   -0.02424  -0.02321  -0.01534  -0.01205  -0.00495
  Beta virt. eigenvalues --   -0.00276   0.00013   0.00255   0.00479   0.00549

 Mulliken charges and spin densities:
               1          2
     1  Na  -0.188411   0.099244
     2  Na  -0.075411   0.105485
     3  Na  -0.402912  -0.139161
     4  Na   0.363243   0.184609
     5  Na   0.524917   0.115014
     6  Na  -0.365423   0.214466
     7  Na   0.143997   0.420343
 Sum of Mulliken charges =  -0.00000   1.00000

 Dipole moment (field-independent basis, Debye):
    X=             -0.9794    Y=             -0.4527    Z=             -0.0897  Tot=              1.0826
 Quadrupole moment (field-independent basis, Debye-Ang):
   XX=            -51.5010   YY=            -72.8519   ZZ=            -69.5605
   XY=             -1.6587   XZ=             -0.4273   YZ=             -0.3990

 Normal termination of Gaussian 16 at Tue Dec  5 11:39:45 2023.
