 Gaussian 16, Revision B.01,
 Gaussian 16:  ES64L-G16RevB.01 20-Dec-2017

 -------------------------
 #P B3LYP/6-311+g(d) force
 -------------------------

 -----
 DPGEN
 -----
 Symbolic Z-matrix:
 Charge =  0 Multiplicity = 2

                         Standard orientation:
 ---------------------------------------------------------------------
 Center     Atomic      Atomic             Coordinates (Angstroms)
 Number     Number       Type             X           Y           Z
 ---------------------------------------------------------------------
      1         11           0        2.023236   -0.339666   -1.798656
      2         11           0       -2.767714    1.531505    0.361593
      3         11           0       -2.760697   -2.010159   -0.259195
      4         11           0       -0.606983   -0.189568   -0.150505
      5         11           0        0.702232    2.606887   -0.615439
      6         11           0        1.758249    0.674459    1.861591
      7         11           0        1.651677   -2.273458    0.600611
 ---------------------------------------------------------------------

 SCF Done:  E(UB3LYP) =  -1136.11738221     A.U. after   20 cycles

 The electronic state is 2-A.
 Alpha  occ. eigenvalues --  -38.44484 -38.44202 -38.43828 -38.43804 -38.43433
 Alpha  occ. eigenvalues --  -38.42954 -38.42521  -2.20343  -2.20046  -2.19759
 Alpha  occ. eigenvalues --   -2.19748  -2.19357  -2.18860  -2.18801  -1.14136
 Alpha  occ. eigenvalues --   -1.13991  -1.13920  -1.13825  -1.13684  -1.13637
 Alpha  occ. eigenvalues --   -1.13467  -1.13447  -1.13401  -1.13386  -1.13376
 Alpha  occ. eigenvalues --   -1.13345  -1.13045  -1.13004  -1.12972  -1.12609
 Alpha  occ. eigenvalues --   -1.12517  -1.12486  -1.12472  -1.12451  -1.12391
 Alpha  occ. eigenvalues --   -0.19044  -0.13502  -0.12182  -0.11041
 Alpha virt. eigenvalues --   -0.05658  -0.05141  -0.04178  -0.03141  -0.02758
 Alpha virt. eigenvalues --   -0.02526  -0.01380  -0.01104  -0.00390   0.00043
 Alpha virt. eigenvalues --    0.00139   0.00358   0.00799   0.00835   0.00954

  Beta  occ. eigenvalues --  -38.44485 -38.44205 -38.43748 -38.43729 -38.43417
  Beta  occ. eigenvalues --  -38.42940 -38.42501  -2.20345  -2.20053  -2.19614
  Beta  occ. eigenvalues --   -2.19607  -2.19332  -2.18839  -2.18771  -1.14137
  Beta  occ. eigenvalues --   -1.13986  -1.13925  -1.13828  -1.13685  -1.13643
  Beta  occ. eigenvalues --   -1.13380  -1.13348  -1.13299  -1.13277  -1.13275
  Beta  occ. eigenvalues --   -1.13250  -1.13029  -1.12968  -1.12934  -1.12598
  Beta  occ. eigenvalues --   -1.12493  -1.12456  -1.12446  -1.12389  -1.12368
  Beta  occ. eigenvalues --   -0.18321  -0.13309  -0.11980
  Beta virt. eigenvalues --   -0.06933  -0.05602  -0.04883  -0.04152  -0.02598
  Beta virt. eigenvalues --   -0.02086  -0.01689  -0.01178  -0.01039  -0.00100
  Beta virt. eigenvalues --    0.00104   0.00186   0.00433   0.00810   0.00908

 Mulliken charges and spin densities:
               1          2
     1  Na   0.142150   0.013075
     2  Na   0.398532  -0.063185
     3  Na  -0.053728  -0.441247
     4  Na  -2.167976   0.935373
     5  Na   1.025587   0.225909
     6  Na   0.105507   0.236279
     7  Na   0.549928   0.093796
 Sum of Mulliken charges =  -0.00000   1.00000

 Dipole moment (field-independent basis, Debye):
    X=             -0.3686    Y=              0.0401    Z=              0.1278  Tot=              0.3921
 Quadrupole moment (field-independent basis, Debye-Ang):
   XX=            -57.8584   YY=            -62.3723   ZZ=            -70.8617
   XY=             -0.6050   XZ=             -0.8326   YZ=              0.3305

 Normal termination of Gaussian 16 at Thu Dec  7 13:39:13 2023.
