 Gaussian 16, Revision B.01,
 Gaussian 16:  ES64L-G16RevB.01 20-Dec-2017

 -------------------------
 #P B3LYP/6-311+g(d) force
 -------------------------

 -----
 DPGEN
 -----
 Symbolic Z-matrix:
 Charge =  0 Multiplicity = 2

                         Standard orientation:
 ---------------------------------------------------------------------
 Center     Atomic      Atomic             Coordinates (Angstroms)
 Number     Number       Type             X           Y           Z
 ---------------------------------------------------------------------
      1         11           0       -2.503074    1.738898    0.061325
      2         11           0       -2.954967   -1.380319   -0.279342
      3         11           0        0.076839    0.546304    1.604731
      4         11           0        3.294980   -0.664951   -0.183045
      5         11           0        1.449354    2.660677   -0.232416
      6         11           0        0.093182   -0.318696   -1.493412
      7         11           0        0.543685   -2.581912    0.522159
 ---------------------------------------------------------------------

 SCF Done:  E(UB3LYP) =  -1136.13171667     A.U. after   23 cycles

 The electronic state is 2-A.
 Alpha  occ. eigenvalues --  -38.44683 -38.44057 -38.44000 -38.43470 -38.43136
 Alpha  occ. eigenvalues --  -38.43052 -38.42738  -2.20499  -2.19922  -2.19846
 Alpha  occ. eigenvalues --   -2.19318  -2.19151  -2.18960  -2.18754  -1.14173
 Alpha  occ. eigenvalues --   -1.14152  -1.14139  -1.13644  -1.13598  -1.13568
 Alpha  occ. eigenvalues --   -1.13508  -1.13482  -1.13464  -1.13033  -1.12988
 Alpha  occ. eigenvalues --   -1.12935  -1.12920  -1.12817  -1.12745  -1.12641
 Alpha  occ. eigenvalues --   -1.12606  -1.12565  -1.12440  -1.12369  -1.12362
 Alpha  occ. eigenvalues --   -0.18919  -0.13486  -0.12325  -0.10173
 Alpha virt. eigenvalues --   -0.06198  -0.05345  -0.04351  -0.03091  -0.02636
 Alpha virt. eigenvalues --   -0.02070  -0.01818  -0.01241  -0.00435  -0.00278
 Alpha virt. eigenvalues --    0.00035   0.00312   0.00735   0.00812   0.00886

  Beta  occ. eigenvalues --  -38.44676 -38.44051 -38.43993 -38.43464 -38.43083
  Beta  occ. eigenvalues --  -38.43032 -38.42660  -2.20490  -2.19915  -2.19835
  Beta  occ. eigenvalues --   -2.19311  -2.19054  -2.18928  -2.18614  -1.14157
  Beta  occ. eigenvalues --   -1.14140  -1.14132  -1.13642  -1.13574  -1.13558
  Beta  occ. eigenvalues --   -1.13490  -1.13466  -1.13459  -1.13024  -1.12967
  Beta  occ. eigenvalues --   -1.12927  -1.12852  -1.12756  -1.12671  -1.12604
  Beta  occ. eigenvalues --   -1.12553  -1.12548  -1.12345  -1.12273  -1.12255
  Beta  occ. eigenvalues --   -0.18230  -0.13210  -0.12078
  Beta virt. eigenvalues --   -0.06373  -0.06100  -0.05306  -0.04317  -0.02364
  Beta virt. eigenvalues --   -0.01967  -0.01898  -0.01199  -0.00884  -0.00463
  Beta virt. eigenvalues --   -0.00256   0.00168   0.00361   0.00782   0.00815

 Mulliken charges and spin densities:
               1          2
     1  Na   0.221129  -0.058149
     2  Na   0.159049   0.042878
     3  Na  -0.079004   0.458322
     4  Na   0.133269  -0.016438
     5  Na  -0.069933  -0.080524
     6  Na  -0.496006   0.586741
     7  Na   0.131496   0.067170
 Sum of Mulliken charges =  -0.00000   1.00000

 Dipole moment (field-independent basis, Debye):
    X=              0.2302    Y=              0.0554    Z=             -0.0094  Tot=              0.2369
 Quadrupole moment (field-independent basis, Debye-Ang):
   XX=            -50.3059   YY=            -63.4582   ZZ=            -76.9790
   XY=             -0.0281   XZ=             -0.1039   YZ=             -1.5972

 Normal termination of Gaussian 16 at Tue Nov 28 23:17:12 2023.
