 Gaussian 16, Revision B.01,
 Gaussian 16:  ES64L-G16RevB.01 20-Dec-2017

 -------------------------
 #P B3LYP/6-311+g(d) force
 -------------------------

 -----
 DPGEN
 -----
 Symbolic Z-matrix:
 Charge =  0 Multiplicity = 2

                         Standard orientation:
 ---------------------------------------------------------------------
 Center     Atomic      Atomic             Coordinates (Angstroms)
 Number     Number       Type             X           Y           Z
 ---------------------------------------------------------------------
      1         11           0        3.513872    0.782515   -0.604280
      2         11           0       -2.261178   -2.206155   -0.103269
      3         11           0       -0.087691    2.999304    0.273443
      4         11           0       -2.978969    0.750783   -0.788048
      5         11           0        2.136763   -2.402340    0.307990
      6         11           0        0.085409   -0.150695   -1.455948
      7         11           0       -0.408206    0.226587    2.370111
 ---------------------------------------------------------------------

 SCF Done:  E(UB3LYP) =  -1136.12975683     A.U. after   20 cycles

 The electronic state is 2-A.
 Alpha  occ. eigenvalues --  -38.44702 -38.44130 -38.44110 -38.43984 -38.43606
 Alpha  occ. eigenvalues --  -38.43575 -38.42944  -2.20470  -2.19986  -2.19962
 Alpha  occ. eigenvalues --   -2.19765  -2.19536  -2.19422  -2.18751  -1.14148
 Alpha  occ. eigenvalues --   -1.14112  -1.14103  -1.13685  -1.13657  -1.13610
 Alpha  occ. eigenvalues --   -1.13600  -1.13592  -1.13573  -1.13445  -1.13435
 Alpha  occ. eigenvalues --   -1.13396  -1.13239  -1.13185  -1.13173  -1.13086
 Alpha  occ. eigenvalues --   -1.13077  -1.13059  -1.12428  -1.12418  -1.12392
 Alpha  occ. eigenvalues --   -0.17957  -0.13203  -0.11777  -0.10991
 Alpha virt. eigenvalues --   -0.06032  -0.05351  -0.04488  -0.03218  -0.02945
 Alpha virt. eigenvalues --   -0.02787  -0.01938  -0.01140  -0.00517  -0.00489
 Alpha virt. eigenvalues --   -0.00086   0.00287   0.00650   0.00788   0.00848

  Beta  occ. eigenvalues --  -38.44688 -38.44087 -38.44019 -38.43982 -38.43574
  Beta  occ. eigenvalues --  -38.43572 -38.42944  -2.20443  -2.19945  -2.19763
  Beta  occ. eigenvalues --   -2.19756  -2.19476  -2.19423  -2.18752  -1.14123
  Beta  occ. eigenvalues --   -1.14096  -1.14087  -1.13656  -1.13624  -1.13567
  Beta  occ. eigenvalues --   -1.13473  -1.13456  -1.13441  -1.13430  -1.13422
  Beta  occ. eigenvalues --   -1.13388  -1.13192  -1.13150  -1.13125  -1.13090
  Beta  occ. eigenvalues --   -1.13065  -1.13041  -1.12427  -1.12403  -1.12394
  Beta  occ. eigenvalues --   -0.17280  -0.12955  -0.11581
  Beta virt. eigenvalues --   -0.07127  -0.05854  -0.05260  -0.04378  -0.02649
  Beta virt. eigenvalues --   -0.02175  -0.01858  -0.01805  -0.01055  -0.00535
  Beta virt. eigenvalues --   -0.00428   0.00080   0.00346   0.00757   0.00819

 Mulliken charges and spin densities:
               1          2
     1  Na   0.108571   0.039284
     2  Na  -0.003750   0.090698
     3  Na  -0.059672   0.021754
     4  Na   0.485905   0.091568
     5  Na  -0.112153   0.114889
     6  Na   0.013147  -0.027801
     7  Na  -0.432048   0.669608
 Sum of Mulliken charges =  -0.00000   1.00000

 Dipole moment (field-independent basis, Debye):
    X=              0.3432    Y=             -0.0793    Z=              0.0895  Tot=              0.3635
 Quadrupole moment (field-independent basis, Debye-Ang):
   XX=            -55.4295   YY=            -65.8097   ZZ=            -73.0330
   XY=              0.8213   XZ=              0.4437   YZ=             -2.3284

 Normal termination of Gaussian 16 at Tue Dec  5 15:48:37 2023.
