 Gaussian 16, Revision B.01,
 Gaussian 16:  ES64L-G16RevB.01 20-Dec-2017

 -------------------------
 #P B3LYP/6-311+g(d) force
 -------------------------

 -----
 DPGEN
 -----
 Symbolic Z-matrix:
 Charge =  0 Multiplicity = 2

                         Standard orientation:
 ---------------------------------------------------------------------
 Center     Atomic      Atomic             Coordinates (Angstroms)
 Number     Number       Type             X           Y           Z
 ---------------------------------------------------------------------
      1         11           0        0.934864    2.051081    1.551913
      2         11           0       -3.090843   -1.087978   -1.273939
      3         11           0       -0.020549   -1.498312    0.292658
      4         11           0        3.635691   -1.725213    0.220227
      5         11           0       -1.324204    1.608210   -1.231038
      6         11           0       -2.591899   -0.294812    1.761727
      7         11           0        2.456939    0.947024   -1.321548
 ---------------------------------------------------------------------

 SCF Done:  E(UB3LYP) =  -1136.12604494     A.U. after   22 cycles

 The electronic state is 2-A.
 Alpha  occ. eigenvalues --  -38.44545 -38.44251 -38.44172 -38.43920 -38.43518
 Alpha  occ. eigenvalues --  -38.43410 -38.43349  -2.20435  -2.20094  -2.20072
 Alpha  occ. eigenvalues --   -2.19799  -2.19336  -2.19232  -2.19208  -1.14127
 Alpha  occ. eigenvalues --   -1.14091  -1.14049  -1.13788  -1.13763  -1.13743
 Alpha  occ. eigenvalues --   -1.13727  -1.13701  -1.13690  -1.13514  -1.13477
 Alpha  occ. eigenvalues --   -1.13397  -1.13004  -1.12990  -1.12968  -1.12923
 Alpha  occ. eigenvalues --   -1.12888  -1.12880  -1.12870  -1.12848  -1.12839
 Alpha  occ. eigenvalues --   -0.18327  -0.14081  -0.11233  -0.11117
 Alpha virt. eigenvalues --   -0.06200  -0.05394  -0.05091  -0.03107  -0.02637
 Alpha virt. eigenvalues --   -0.02484  -0.02150  -0.01033  -0.00923  -0.00114
 Alpha virt. eigenvalues --    0.00172   0.00281   0.00303   0.00391   0.00662

  Beta  occ. eigenvalues --  -38.44492 -38.44239 -38.44135 -38.43899 -38.43493
  Beta  occ. eigenvalues --  -38.43417 -38.43305  -2.20339  -2.20071  -2.20006
  Beta  occ. eigenvalues --   -2.19765  -2.19289  -2.19221  -2.19155  -1.14058
  Beta  occ. eigenvalues --   -1.14019  -1.13979  -1.13767  -1.13749  -1.13690
  Beta  occ. eigenvalues --   -1.13688  -1.13684  -1.13631  -1.13462  -1.13448
  Beta  occ. eigenvalues --   -1.13380  -1.12972  -1.12953  -1.12933  -1.12886
  Beta  occ. eigenvalues --   -1.12879  -1.12872  -1.12857  -1.12834  -1.12768
  Beta  occ. eigenvalues --   -0.17609  -0.13907  -0.11015
  Beta virt. eigenvalues --   -0.07302  -0.06015  -0.05165  -0.04522  -0.02922
  Beta virt. eigenvalues --   -0.02237  -0.02082  -0.01608  -0.00904  -0.00425
  Beta virt. eigenvalues --   -0.00067   0.00244   0.00356   0.00474   0.00515

 Mulliken charges and spin densities:
               1          2
     1  Na  -0.098707   0.177559
     2  Na   0.675168   0.023159
     3  Na  -0.758957   0.281623
     4  Na   0.030696  -0.029587
     5  Na  -0.233114   0.374680
     6  Na   0.180476   0.207120
     7  Na   0.204438  -0.034555
 Sum of Mulliken charges =  -0.00000   1.00000

 Dipole moment (field-independent basis, Debye):
    X=             -0.5638    Y=              0.2888    Z=              0.2141  Tot=              0.6687
 Quadrupole moment (field-independent basis, Debye-Ang):
   XX=            -54.7596   YY=            -75.2239   ZZ=            -66.0583
   XY=              2.8104   XZ=             -0.1039   YZ=              0.9174

 Normal termination of Gaussian 16 at Tue Dec  5 20:45:54 2023.
