 Gaussian 16, Revision B.01,
 Gaussian 16:  ES64L-G16RevB.01 20-Dec-2017

 -------------------------
 #P B3LYP/6-311+g(d) force
 -------------------------

 -----
 DPGEN
 -----
 Symbolic Z-matrix:
 Charge =  0 Multiplicity = 2

                         Standard orientation:
 ---------------------------------------------------------------------
 Center     Atomic      Atomic             Coordinates (Angstroms)
 Number     Number       Type             X           Y           Z
 ---------------------------------------------------------------------
      1         11           0        0.173007    0.132754   -1.662790
      2         11           0        0.088753   -0.054164    2.053660
      3         11           0       -3.195095    0.222965    0.244916
      4         11           0       -1.499435   -2.351415   -0.239674
      5         11           0        2.253684   -2.147683   -0.295288
      6         11           0       -0.446397    2.933689   -0.474875
      7         11           0        2.625482    1.263855    0.374051
 ---------------------------------------------------------------------

 SCF Done:  E(UB3LYP) =  -1136.13734974     A.U. after   19 cycles

 The electronic state is 2-A.
 Alpha  occ. eigenvalues --  -38.44037 -38.43852 -38.43810 -38.43510 -38.43372
 Alpha  occ. eigenvalues --  -38.43260 -38.43192  -2.19868  -2.19744  -2.19686
 Alpha  occ. eigenvalues --   -2.19347  -2.19257  -2.19192  -2.19108  -1.13564
 Alpha  occ. eigenvalues --   -1.13530  -1.13501  -1.13442  -1.13395  -1.13363
 Alpha  occ. eigenvalues --   -1.13359  -1.13326  -1.13303  -1.13037  -1.13002
 Alpha  occ. eigenvalues --   -1.12990  -1.12965  -1.12927  -1.12914  -1.12882
 Alpha  occ. eigenvalues --   -1.12844  -1.12809  -1.12753  -1.12731  -1.12726
 Alpha  occ. eigenvalues --   -0.18753  -0.13124  -0.12345  -0.10997
 Alpha virt. eigenvalues --   -0.05540  -0.05085  -0.04575  -0.03351  -0.02882
 Alpha virt. eigenvalues --   -0.02707  -0.01479  -0.01107  -0.00315  -0.00146
 Alpha virt. eigenvalues --    0.00004   0.00363   0.00813   0.00893   0.00919

  Beta  occ. eigenvalues --  -38.44035 -38.43798 -38.43760 -38.43505 -38.43365
  Beta  occ. eigenvalues --  -38.43250 -38.43124  -2.19866  -2.19668  -2.19575
  Beta  occ. eigenvalues --   -2.19341  -2.19249  -2.19093  -2.19066  -1.13566
  Beta  occ. eigenvalues --   -1.13514  -1.13498  -1.13384  -1.13328  -1.13297
  Beta  occ. eigenvalues --   -1.13289  -1.13250  -1.13226  -1.13021  -1.12995
  Beta  occ. eigenvalues --   -1.12977  -1.12950  -1.12894  -1.12878  -1.12867
  Beta  occ. eigenvalues --   -1.12768  -1.12735  -1.12727  -1.12713  -1.12669
  Beta  occ. eigenvalues --   -0.18022  -0.12895  -0.12068
  Beta virt. eigenvalues --   -0.07073  -0.05465  -0.05078  -0.04539  -0.02552
  Beta virt. eigenvalues --   -0.02150  -0.01645  -0.01382  -0.01023  -0.00326
  Beta virt. eigenvalues --   -0.00187   0.00120   0.00387   0.00871   0.00889

 Mulliken charges and spin densities:
               1          2
     1  Na  -0.170407   0.487822
     2  Na  -0.390874   0.647041
     3  Na   0.029496  -0.013779
     4  Na   0.098773  -0.054751
     5  Na   0.074196  -0.078533
     6  Na   0.079610  -0.048200
     7  Na   0.279205   0.060399
 Sum of Mulliken charges =  -0.00000   1.00000

 Dipole moment (field-independent basis, Debye):
    X=             -0.0135    Y=              0.0269    Z=              0.2599  Tot=              0.2617
 Quadrupole moment (field-independent basis, Debye-Ang):
   XX=            -57.0961   YY=            -63.5761   ZZ=            -73.3225
   XY=             -1.0690   XZ=             -0.0599   YZ=              0.7173

 Normal termination of Gaussian 16 at Thu Dec  7 01:52:46 2023.
