 Gaussian 16, Revision B.01,
 Gaussian 16:  ES64L-G16RevB.01 20-Dec-2017

 -------------------------
 #P B3LYP/6-311+g(d) force
 -------------------------

 -----
 DPGEN
 -----
 Symbolic Z-matrix:
 Charge =  0 Multiplicity = 2

                         Standard orientation:
 ---------------------------------------------------------------------
 Center     Atomic      Atomic             Coordinates (Angstroms)
 Number     Number       Type             X           Y           Z
 ---------------------------------------------------------------------
      1         11           0        1.927841    1.849770   -0.638654
      2         11           0       -1.292424   -1.359517    1.954825
      3         11           0        4.228850    0.126695    0.795208
      4         11           0        1.901588   -1.961042   -0.587980
      5         11           0       -1.199881    2.542131   -0.023976
      6         11           0       -4.145468    0.286748    0.236973
      7         11           0       -1.420506   -1.484785   -1.736396
 ---------------------------------------------------------------------

 SCF Done:  E(UB3LYP) =  -1136.11784155     A.U. after   22 cycles

 The electronic state is 2-A.
 Alpha  occ. eigenvalues --  -38.45851 -38.44903 -38.44308 -38.44136 -38.43659
 Alpha  occ. eigenvalues --  -38.43277 -38.43115  -2.21595  -2.20690  -2.20122
 Alpha  occ. eigenvalues --   -2.19976  -2.19476  -2.19125  -2.18922  -1.15285
 Alpha  occ. eigenvalues --   -1.15245  -1.15221  -1.14366  -1.14329  -1.14320
 Alpha  occ. eigenvalues --   -1.13787  -1.13758  -1.13753  -1.13633  -1.13620
 Alpha  occ. eigenvalues --   -1.13611  -1.13165  -1.13154  -1.13095  -1.12822
 Alpha  occ. eigenvalues --   -1.12799  -1.12765  -1.12601  -1.12585  -1.12539
 Alpha  occ. eigenvalues --   -0.17106  -0.14128  -0.11668  -0.10553
 Alpha virt. eigenvalues --   -0.07287  -0.05422  -0.04433  -0.03434  -0.02969
 Alpha virt. eigenvalues --   -0.02546  -0.02180  -0.01474  -0.01127  -0.00436
 Alpha virt. eigenvalues --   -0.00102  -0.00031   0.00180   0.00579   0.00638

  Beta  occ. eigenvalues --  -38.45842 -38.44875 -38.44251 -38.44084 -38.43645
  Beta  occ. eigenvalues --  -38.43262 -38.43091  -2.21580  -2.20638  -2.20019
  Beta  occ. eigenvalues --   -2.19879  -2.19454  -2.19102  -2.18881  -1.15276
  Beta  occ. eigenvalues --   -1.15235  -1.15201  -1.14327  -1.14296  -1.14285
  Beta  occ. eigenvalues --   -1.13709  -1.13692  -1.13675  -1.13572  -1.13553
  Beta  occ. eigenvalues --   -1.13546  -1.13147  -1.13143  -1.13055  -1.12801
  Beta  occ. eigenvalues --   -1.12771  -1.12736  -1.12576  -1.12550  -1.12502
  Beta  occ. eigenvalues --   -0.16577  -0.13657  -0.11221
  Beta virt. eigenvalues --   -0.07173  -0.07037  -0.05428  -0.03835  -0.03221
  Beta virt. eigenvalues --   -0.02685  -0.02109  -0.01764  -0.01298  -0.00629
  Beta virt. eigenvalues --   -0.00384  -0.00051   0.00081   0.00342   0.00684

 Mulliken charges and spin densities:
               1          2
     1  Na  -0.419916  -0.001177
     2  Na  -0.038226   0.056945
     3  Na   0.525349   0.291610
     4  Na  -0.162119   0.070587
     5  Na  -0.330527   0.013873
     6  Na   0.447758   0.253206
     7  Na  -0.022320   0.314956
 Sum of Mulliken charges =  -0.00000   1.00000

 Dipole moment (field-independent basis, Debye):
    X=             -0.8765    Y=             -0.8858    Z=              0.5700  Tot=              1.3704
 Quadrupole moment (field-independent basis, Debye-Ang):
   XX=            -55.6414   YY=            -78.0919   ZZ=            -65.5641
   XY=             -0.3709   XZ=              4.4562   YZ=             -0.0756

 Normal termination of Gaussian 16 at Fri Dec  8 16:59:46 2023.
