 Gaussian 16, Revision B.01,
 Gaussian 16:  ES64L-G16RevB.01 20-Dec-2017

 -------------------------
 #P B3LYP/6-311+g(d) force
 -------------------------

 -----
 DPGEN
 -----
 Symbolic Z-matrix:
 Charge =  0 Multiplicity = 2

                         Standard orientation:
 ---------------------------------------------------------------------
 Center     Atomic      Atomic             Coordinates (Angstroms)
 Number     Number       Type             X           Y           Z
 ---------------------------------------------------------------------
      1         11           0       -0.824375    2.066943   -1.397894
      2         11           0       -0.760996   -2.006381    1.443922
      3         11           0        4.985356    0.030974    0.022270
      4         11           0        1.478771    0.028968    0.002422
      5         11           0       -1.025553    1.735442    1.642758
      6         11           0       -3.024370   -0.100821   -0.043895
      7         11           0       -0.828833   -1.755125   -1.669583
 ---------------------------------------------------------------------

 SCF Done:  E(UB3LYP) =  -1136.11556713     A.U. after   24 cycles

 The electronic state is 2-A.
 Alpha  occ. eigenvalues --  -38.45266 -38.44869 -38.43510 -38.43482 -38.43469
 Alpha  occ. eigenvalues --  -38.43439 -38.43047  -2.20975  -2.20814  -2.19448
 Alpha  occ. eigenvalues --   -2.19413  -2.19407  -2.19361  -2.18966  -1.14655
 Alpha  occ. eigenvalues --   -1.14652  -1.14625  -1.14513  -1.14491  -1.14424
 Alpha  occ. eigenvalues --   -1.13179  -1.13157  -1.13107  -1.13094  -1.13078
 Alpha  occ. eigenvalues --   -1.13070  -1.13057  -1.13040  -1.13020  -1.12997
 Alpha  occ. eigenvalues --   -1.12973  -1.12924  -1.12669  -1.12609  -1.12590
 Alpha  occ. eigenvalues --   -0.19316  -0.12404  -0.12029  -0.11784
 Alpha virt. eigenvalues --   -0.07579  -0.03944  -0.03824  -0.03188  -0.02956
 Alpha virt. eigenvalues --   -0.02889  -0.02778  -0.00652  -0.00633  -0.00221
 Alpha virt. eigenvalues --   -0.00216  -0.00126   0.00343   0.00708   0.01068

  Beta  occ. eigenvalues --  -38.45311 -38.44833 -38.43460 -38.43440 -38.43422
  Beta  occ. eigenvalues --  -38.43400 -38.43017  -2.21059  -2.20755  -2.19360
  Beta  occ. eigenvalues --   -2.19333  -2.19328  -2.19290  -2.18914  -1.14712
  Beta  occ. eigenvalues --   -1.14709  -1.14680  -1.14461  -1.14415  -1.14387
  Beta  occ. eigenvalues --   -1.13133  -1.13112  -1.13038  -1.13023  -1.13010
  Beta  occ. eigenvalues --   -1.13004  -1.12992  -1.12975  -1.12963  -1.12938
  Beta  occ. eigenvalues --   -1.12909  -1.12864  -1.12592  -1.12578  -1.12571
  Beta  occ. eigenvalues --   -0.18248  -0.12546  -0.11879
  Beta virt. eigenvalues --   -0.07486  -0.07405  -0.03743  -0.03216  -0.03011
  Beta virt. eigenvalues --   -0.02896  -0.02352  -0.01678  -0.00751  -0.00353
  Beta virt. eigenvalues --   -0.00227  -0.00167   0.00131   0.00346   0.00760

 Mulliken charges and spin densities:
               1          2
     1  Na   0.374262   0.203179
     2  Na   0.368585   0.217933
     3  Na  -0.034689  -0.261839
     4  Na  -1.554331   0.166492
     5  Na   0.449649   0.256370
     6  Na  -0.044681   0.150754
     7  Na   0.441205   0.267112
 Sum of Mulliken charges =  -0.00000   1.00000

 Dipole moment (field-independent basis, Debye):
    X=             -0.0298    Y=             -0.0579    Z=             -0.0181  Tot=              0.0676
 Quadrupole moment (field-independent basis, Debye-Ang):
   XX=            -52.0858   YY=            -73.3667   ZZ=            -66.0173
   XY=              0.1062   XZ=              0.0556   YZ=             -0.8173

 Normal termination of Gaussian 16 at Fri Dec  8 20:11:33 2023.
