 Gaussian 16, Revision B.01,
 Gaussian 16:  ES64L-G16RevB.01 20-Dec-2017

 -------------------------
 #P B3LYP/6-311+g(d) force
 -------------------------

 -----
 DPGEN
 -----
 Symbolic Z-matrix:
 Charge =  0 Multiplicity = 2

                         Standard orientation:
 ---------------------------------------------------------------------
 Center     Atomic      Atomic             Coordinates (Angstroms)
 Number     Number       Type             X           Y           Z
 ---------------------------------------------------------------------
      1         11           0       -2.665736    1.667434   -0.058456
      2         11           0        0.491814    2.727243   -0.186335
      3         11           0        0.145370   -0.531517    2.106537
      4         11           0        1.674824   -2.319604   -0.729542
      5         11           0       -2.658774   -1.944302    0.138435
      6         11           0       -0.400935   -0.138544   -1.456794
      7         11           0        3.413438    0.539290    0.186155
 ---------------------------------------------------------------------

 SCF Done:  E(UB3LYP) =  -1136.13209900     A.U. after   20 cycles

 The electronic state is 2-A.
 Alpha  occ. eigenvalues --  -38.44642 -38.44088 -38.43940 -38.43843 -38.43678
 Alpha  occ. eigenvalues --  -38.43055 -38.42968  -2.20426  -2.19902  -2.19795
 Alpha  occ. eigenvalues --   -2.19691  -2.19536  -2.19078  -2.18823  -1.14097
 Alpha  occ. eigenvalues --   -1.14084  -1.14070  -1.13584  -1.13562  -1.13544
 Alpha  occ. eigenvalues --   -1.13491  -1.13456  -1.13419  -1.13361  -1.13328
 Alpha  occ. eigenvalues --   -1.13297  -1.13266  -1.13176  -1.13148  -1.12760
 Alpha  occ. eigenvalues --   -1.12724  -1.12709  -1.12508  -1.12485  -1.12445
 Alpha  occ. eigenvalues --   -0.18427  -0.13264  -0.12141  -0.10631
 Alpha virt. eigenvalues --   -0.06167  -0.05434  -0.04276  -0.03264  -0.02694
 Alpha virt. eigenvalues --   -0.02483  -0.01925  -0.01280  -0.00532  -0.00205
 Alpha virt. eigenvalues --   -0.00041   0.00302   0.00703   0.00785   0.00830

  Beta  occ. eigenvalues --  -38.44641 -38.44086 -38.43937 -38.43750 -38.43652
  Beta  occ. eigenvalues --  -38.42998 -38.42965  -2.20427  -2.19901  -2.19792
  Beta  occ. eigenvalues --   -2.19519  -2.19491  -2.18976  -2.18820  -1.14090
  Beta  occ. eigenvalues --   -1.14080  -1.14072  -1.13580  -1.13548  -1.13543
  Beta  occ. eigenvalues --   -1.13484  -1.13447  -1.13416  -1.13249  -1.13225
  Beta  occ. eigenvalues --   -1.13207  -1.13172  -1.13129  -1.13121  -1.12686
  Beta  occ. eigenvalues --   -1.12652  -1.12638  -1.12497  -1.12474  -1.12439
  Beta  occ. eigenvalues --   -0.17739  -0.13073  -0.11890
  Beta virt. eigenvalues --   -0.06734  -0.06058  -0.05425  -0.04208  -0.02569
  Beta virt. eigenvalues --   -0.02000  -0.01803  -0.01430  -0.01199  -0.00552
  Beta virt. eigenvalues --   -0.00217   0.00122   0.00338   0.00773   0.00797

 Mulliken charges and spin densities:
               1          2
     1  Na   0.179628   0.040384
     2  Na   0.012259   0.002489
     3  Na  -0.581157   0.735168
     4  Na   0.269383   0.031631
     5  Na   0.219209   0.012719
     6  Na  -0.135574   0.141888
     7  Na   0.036252   0.035722
 Sum of Mulliken charges =  -0.00000   1.00000

 Dipole moment (field-independent basis, Debye):
    X=              0.0274    Y=             -0.1897    Z=              0.3155  Tot=              0.3692
 Quadrupole moment (field-independent basis, Debye-Ang):
   XX=            -51.3241   YY=            -65.9819   ZZ=            -75.3137
   XY=              0.9861   XZ=             -0.5431   YZ=              0.8664

 Normal termination of Gaussian 16 at Thu Dec  7 14:47:26 2023.
