 Gaussian 16, Revision B.01,
 Gaussian 16:  ES64L-G16RevB.01 20-Dec-2017

 -------------------------
 #P B3LYP/6-311+g(d) force
 -------------------------

 -----
 DPGEN
 -----
 Symbolic Z-matrix:
 Charge =  0 Multiplicity = 2

                         Standard orientation:
 ---------------------------------------------------------------------
 Center     Atomic      Atomic             Coordinates (Angstroms)
 Number     Number       Type             X           Y           Z
 ---------------------------------------------------------------------
      1         11           0       -3.739111    0.966323   -0.946482
      2         11           0        2.554998    2.584573    0.571148
      3         11           0        3.137251   -0.984170   -1.104146
      4         11           0        1.178836   -1.088732    1.393888
      5         11           0       -1.120025    1.885127    0.077417
      6         11           0       -0.207215   -1.613447   -1.925490
      7         11           0       -1.804734   -1.749673    1.933664
 ---------------------------------------------------------------------

 SCF Done:  E(UB3LYP) =  -1136.11909980     A.U. after   22 cycles

 The electronic state is 2-A.
 Alpha  occ. eigenvalues --  -38.44785 -38.44744 -38.44463 -38.44273 -38.43690
 Alpha  occ. eigenvalues --  -38.43438 -38.43411  -2.20584  -2.20570  -2.20281
 Alpha  occ. eigenvalues --   -2.20102  -2.19605  -2.19252  -2.19202  -1.14275
 Alpha  occ. eigenvalues --   -1.14268  -1.14234  -1.14219  -1.14195  -1.14166
 Alpha  occ. eigenvalues --   -1.14001  -1.13921  -1.13898  -1.13814  -1.13731
 Alpha  occ. eigenvalues --   -1.13708  -1.13304  -1.13268  -1.13205  -1.12935
 Alpha  occ. eigenvalues --   -1.12921  -1.12891  -1.12878  -1.12854  -1.12837
 Alpha  occ. eigenvalues --   -0.17578  -0.13393  -0.11815  -0.11496
 Alpha virt. eigenvalues --   -0.06348  -0.05281  -0.04538  -0.03576  -0.02849
 Alpha virt. eigenvalues --   -0.02647  -0.02067  -0.01270  -0.00858  -0.00349
 Alpha virt. eigenvalues --    0.00087   0.00179   0.00270   0.00536   0.00710

  Beta  occ. eigenvalues --  -38.44730 -38.44719 -38.44443 -38.44206 -38.43657
  Beta  occ. eigenvalues --  -38.43428 -38.43409  -2.20524  -2.20481  -2.20245
  Beta  occ. eigenvalues --   -2.19983  -2.19549  -2.19251  -2.19184  -1.14245
  Beta  occ. eigenvalues --   -1.14210  -1.14182  -1.14152  -1.14140  -1.14106
  Beta  occ. eigenvalues --   -1.13978  -1.13892  -1.13875  -1.13718  -1.13654
  Beta  occ. eigenvalues --   -1.13626  -1.13257  -1.13208  -1.13167  -1.12930
  Beta  occ. eigenvalues --   -1.12911  -1.12889  -1.12864  -1.12842  -1.12827
  Beta  occ. eigenvalues --   -0.16938  -0.13110  -0.11293
  Beta virt. eigenvalues --   -0.07916  -0.06093  -0.05155  -0.03989  -0.03352
  Beta virt. eigenvalues --   -0.02377  -0.01968  -0.01895  -0.01071  -0.00575
  Beta virt. eigenvalues --   -0.00197   0.00131   0.00250   0.00310   0.00646

 Mulliken charges and spin densities:
               1          2
     1  Na   0.885209   0.139304
     2  Na   0.148813  -0.150037
     3  Na   0.574414   0.159195
     4  Na  -0.291507   0.399074
     5  Na  -1.163366   0.089232
     6  Na  -0.323957   0.266261
     7  Na   0.170394   0.096971
 Sum of Mulliken charges =  -0.00000   1.00000

 Dipole moment (field-independent basis, Debye):
    X=             -0.3846    Y=             -0.9392    Z=             -0.6439  Tot=              1.2019
 Quadrupole moment (field-independent basis, Debye-Ang):
   XX=            -52.7465   YY=            -74.9248   ZZ=            -68.1541
   XY=              1.5050   XZ=             -0.7539   YZ=              0.9950

 Normal termination of Gaussian 16 at Sun Dec  3 13:00:47 2023.
