 Gaussian 16, Revision B.01,
 Gaussian 16:  ES64L-G16RevB.01 20-Dec-2017

 -------------------------
 #P B3LYP/6-311+g(d) force
 -------------------------

 -----
 DPGEN
 -----
 Symbolic Z-matrix:
 Charge =  0 Multiplicity = 2

                         Standard orientation:
 ---------------------------------------------------------------------
 Center     Atomic      Atomic             Coordinates (Angstroms)
 Number     Number       Type             X           Y           Z
 ---------------------------------------------------------------------
      1         11           0       -2.465618   -1.136094   -1.167571
      2         11           0       -1.085187    2.264007   -1.068222
      3         11           0       -0.336634   -2.284773    1.063014
      4         11           0       -2.067627    1.331156    2.067283
      5         11           0        2.490858    1.974361   -0.502856
      6         11           0        2.377761   -0.731465    1.759649
      7         11           0        1.086448   -1.417191   -2.151297
 ---------------------------------------------------------------------

 SCF Done:  E(UB3LYP) =  -1136.12578826     A.U. after   20 cycles

 The electronic state is 2-A.
 Alpha  occ. eigenvalues --  -38.45132 -38.44907 -38.44074 -38.43966 -38.43438
 Alpha  occ. eigenvalues --  -38.43431 -38.43291  -2.20920  -2.20683  -2.19894
 Alpha  occ. eigenvalues --   -2.19790  -2.19241  -2.19212  -2.19160  -1.14587
 Alpha  occ. eigenvalues --   -1.14562  -1.14538  -1.14339  -1.14325  -1.14309
 Alpha  occ. eigenvalues --   -1.13583  -1.13541  -1.13518  -1.13474  -1.13466
 Alpha  occ. eigenvalues --   -1.13406  -1.12920  -1.12918  -1.12891  -1.12884
 Alpha  occ. eigenvalues --   -1.12865  -1.12847  -1.12840  -1.12814  -1.12798
 Alpha  occ. eigenvalues --   -0.17544  -0.12557  -0.11938  -0.11935
 Alpha virt. eigenvalues --   -0.05774  -0.05118  -0.04774  -0.03657  -0.03387
 Alpha virt. eigenvalues --   -0.03277  -0.01114  -0.00895  -0.00558  -0.00133
 Alpha virt. eigenvalues --    0.00123   0.00255   0.00359   0.00425   0.00590

  Beta  occ. eigenvalues --  -38.45073 -38.44856 -38.44035 -38.43952 -38.43437
  Beta  occ. eigenvalues --  -38.43427 -38.43271  -2.20812  -2.20586  -2.19823
  Beta  occ. eigenvalues --   -2.19766  -2.19241  -2.19207  -2.19126  -1.14509
  Beta  occ. eigenvalues --   -1.14489  -1.14458  -1.14271  -1.14256  -1.14247
  Beta  occ. eigenvalues --   -1.13528  -1.13494  -1.13467  -1.13461  -1.13443
  Beta  occ. eigenvalues --   -1.13382  -1.12921  -1.12907  -1.12884  -1.12875
  Beta  occ. eigenvalues --   -1.12862  -1.12845  -1.12816  -1.12786  -1.12758
  Beta  occ. eigenvalues --   -0.16797  -0.12330  -0.11759
  Beta virt. eigenvalues --   -0.08213  -0.05305  -0.04732  -0.04545  -0.03461
  Beta virt. eigenvalues --   -0.02850  -0.02491  -0.00969  -0.00692  -0.00344
  Beta virt. eigenvalues --   -0.00020   0.00164   0.00331   0.00514   0.00565

 Mulliken charges and spin densities:
               1          2
     1  Na   0.493105   0.083536
     2  Na  -0.236098   0.088509
     3  Na   0.026547   0.165277
     4  Na  -0.022746   0.183875
     5  Na   0.063752  -0.046088
     6  Na   0.024821   0.133209
     7  Na  -0.349382   0.391681
 Sum of Mulliken charges =  -0.00000   1.00000

 Dipole moment (field-independent basis, Debye):
    X=             -0.2032    Y=             -0.2214    Z=             -0.0189  Tot=              0.3011
 Quadrupole moment (field-independent basis, Debye-Ang):
   XX=            -65.3608   YY=            -72.8815   ZZ=            -60.1708
   XY=              0.0256   XZ=             -1.2795   YZ=              1.9247

 Normal termination of Gaussian 16 at Sun Dec  3 22:33:12 2023.
