 Gaussian 16, Revision B.01,
 Gaussian 16:  ES64L-G16RevB.01 20-Dec-2017

 -------------------------
 #P B3LYP/6-311+g(d) force
 -------------------------

 -----
 DPGEN
 -----
 Symbolic Z-matrix:
 Charge =  0 Multiplicity = 2

                         Standard orientation:
 ---------------------------------------------------------------------
 Center     Atomic      Atomic             Coordinates (Angstroms)
 Number     Number       Type             X           Y           Z
 ---------------------------------------------------------------------
      1         11           0        1.031609   -0.313474    2.169974
      2         11           0        3.133862    1.534117   -0.561508
      3         11           0       -0.426960    2.377002    0.556918
      4         11           0       -4.655910    0.261317   -0.710576
      5         11           0       -2.366602   -1.637779    0.577434
      6         11           0        0.386042   -0.122674   -1.475542
      7         11           0        2.897958   -2.098508   -0.556700
 ---------------------------------------------------------------------

 SCF Done:  E(UB3LYP) =  -1136.11736785     A.U. after   27 cycles

 The electronic state is 2-A.
 Alpha  occ. eigenvalues --  -38.44945 -38.44929 -38.44904 -38.44284 -38.44172
 Alpha  occ. eigenvalues --  -38.42783 -38.42510  -2.20801  -2.20756  -2.20722
 Alpha  occ. eigenvalues --   -2.20145  -2.19970  -2.18610  -2.18349  -1.14498
 Alpha  occ. eigenvalues --   -1.14493  -1.14438  -1.14434  -1.14384  -1.14383
 Alpha  occ. eigenvalues --   -1.14371  -1.14353  -1.14347  -1.13811  -1.13781
 Alpha  occ. eigenvalues --   -1.13752  -1.13656  -1.13627  -1.13610  -1.12289
 Alpha  occ. eigenvalues --   -1.12270  -1.12255  -1.12050  -1.12019  -1.11960
 Alpha  occ. eigenvalues --   -0.17932  -0.13674  -0.11095  -0.10971
 Alpha virt. eigenvalues --   -0.07202  -0.05417  -0.04009  -0.03068  -0.02903
 Alpha virt. eigenvalues --   -0.02656  -0.02330  -0.01609  -0.00849  -0.00489
 Alpha virt. eigenvalues --   -0.00138   0.00086   0.00320   0.00591   0.00666

  Beta  occ. eigenvalues --  -38.44910 -38.44891 -38.44887 -38.44192 -38.44168
  Beta  occ. eigenvalues --  -38.42782 -38.42507  -2.20774  -2.20687  -2.20657
  Beta  occ. eigenvalues --   -2.19975  -2.19965  -2.18611  -2.18346  -1.14472
  Beta  occ. eigenvalues --   -1.14448  -1.14421  -1.14382  -1.14347  -1.14340
  Beta  occ. eigenvalues --   -1.14327  -1.14310  -1.14298  -1.13691  -1.13665
  Beta  occ. eigenvalues --   -1.13659  -1.13629  -1.13626  -1.13576  -1.12291
  Beta  occ. eigenvalues --   -1.12273  -1.12238  -1.12050  -1.11998  -1.11960
  Beta  occ. eigenvalues --   -0.17265  -0.13288  -0.10839
  Beta virt. eigenvalues --   -0.07428  -0.06840  -0.05120  -0.03851  -0.02826
  Beta virt. eigenvalues --   -0.02560  -0.02009  -0.01789  -0.01281  -0.00622
  Beta virt. eigenvalues --   -0.00385  -0.00041   0.00170   0.00440   0.00660

 Mulliken charges and spin densities:
               1          2
     1  Na   0.109003   0.573143
     2  Na   0.241130   0.098443
     3  Na  -0.291648  -0.114353
     4  Na   0.014220   0.184786
     5  Na   0.008838  -0.005545
     6  Na  -0.027590   0.308065
     7  Na  -0.053953  -0.044539
 Sum of Mulliken charges =  -0.00000   1.00000

 Dipole moment (field-independent basis, Debye):
    X=             -0.1225    Y=              0.7427    Z=              0.1188  Tot=              0.7620
 Quadrupole moment (field-independent basis, Debye-Ang):
   XX=            -53.3317   YY=            -73.3020   ZZ=            -69.4491
   XY=              0.1822   XZ=              3.6286   YZ=             -2.7517

 Normal termination of Gaussian 16 at Fri Dec  8 01:54:52 2023.
