 Gaussian 16, Revision B.01,
 Gaussian 16:  ES64L-G16RevB.01 20-Dec-2017

 -------------------------
 #P B3LYP/6-311+g(d) force
 -------------------------

 -----
 DPGEN
 -----
 Symbolic Z-matrix:
 Charge =  0 Multiplicity = 2

                         Standard orientation:
 ---------------------------------------------------------------------
 Center     Atomic      Atomic             Coordinates (Angstroms)
 Number     Number       Type             X           Y           Z
 ---------------------------------------------------------------------
      1         11           0        3.071480   -0.474007   -1.202313
      2         11           0       -2.588040    0.879700    1.213639
      3         11           0       -2.811223   -2.024680   -0.543056
      4         11           0        2.071656    0.778068    1.992766
      5         11           0       -0.335263    0.276653   -1.112057
      6         11           0        0.949099   -2.507269    0.521261
      7         11           0       -0.357709    3.071534   -0.870240
 ---------------------------------------------------------------------

 SCF Done:  E(UB3LYP) =  -1136.12468156     A.U. after   19 cycles

 The electronic state is 2-A.
 Alpha  occ. eigenvalues --  -38.44505 -38.44419 -38.44111 -38.44107 -38.43600
 Alpha  occ. eigenvalues --  -38.43459 -38.42768  -2.20328  -2.20244  -2.19924
 Alpha  occ. eigenvalues --   -2.19921  -2.19411  -2.19316  -2.18818  -1.14013
 Alpha  occ. eigenvalues --   -1.13989  -1.13942  -1.13917  -1.13895  -1.13884
 Alpha  occ. eigenvalues --   -1.13617  -1.13601  -1.13583  -1.13552  -1.13541
 Alpha  occ. eigenvalues --   -1.13525  -1.13160  -1.13093  -1.13067  -1.13050
 Alpha  occ. eigenvalues --   -1.12932  -1.12918  -1.12492  -1.12446  -1.12431
 Alpha  occ. eigenvalues --   -0.17924  -0.13362  -0.11964  -0.10543
 Alpha virt. eigenvalues --   -0.05912  -0.05487  -0.04606  -0.03537  -0.02782
 Alpha virt. eigenvalues --   -0.02335  -0.01676  -0.01081  -0.00787  -0.00181
 Alpha virt. eigenvalues --    0.00048   0.00318   0.00499   0.00513   0.00767

  Beta  occ. eigenvalues --  -38.44487 -38.44400 -38.44101 -38.44029 -38.43603
  Beta  occ. eigenvalues --  -38.43446 -38.42727  -2.20294  -2.20212  -2.19915
  Beta  occ. eigenvalues --   -2.19769  -2.19418  -2.19295  -2.18747  -1.13991
  Beta  occ. eigenvalues --   -1.13958  -1.13921  -1.13885  -1.13874  -1.13852
  Beta  occ. eigenvalues --   -1.13614  -1.13570  -1.13529  -1.13474  -1.13448
  Beta  occ. eigenvalues --   -1.13431  -1.13136  -1.13092  -1.13069  -1.13056
  Beta  occ. eigenvalues --   -1.12915  -1.12899  -1.12426  -1.12399  -1.12377
  Beta  occ. eigenvalues --   -0.17317  -0.13129  -0.11783
  Beta virt. eigenvalues --   -0.06826  -0.05743  -0.05136  -0.04493  -0.03103
  Beta virt. eigenvalues --   -0.02203  -0.01663  -0.01457  -0.00984  -0.00418
  Beta virt. eigenvalues --   -0.00147   0.00160   0.00405   0.00602   0.00651

 Mulliken charges and spin densities:
               1          2
     1  Na   0.106292   0.045297
     2  Na  -0.259074   0.206071
     3  Na   0.272818  -0.082928
     4  Na  -0.317029   0.520706
     5  Na   0.339053   0.156342
     6  Na  -0.120898   0.179476
     7  Na  -0.021162  -0.024965
 Sum of Mulliken charges =  -0.00000   1.00000

 Dipole moment (field-independent basis, Debye):
    X=              0.1597    Y=             -0.2071    Z=              0.2295  Tot=              0.3480
 Quadrupole moment (field-independent basis, Debye-Ang):
   XX=            -57.1892   YY=            -64.9280   ZZ=            -71.1711
   XY=              0.1892   XZ=             -3.6426   YZ=              1.0631

 Normal termination of Gaussian 16 at Wed Dec  6 00:42:59 2023.
