 Gaussian 16, Revision B.01,
 Gaussian 16:  ES64L-G16RevB.01 20-Dec-2017

 -------------------------
 #P B3LYP/6-311+g(d) force
 -------------------------

 -----
 DPGEN
 -----
 Symbolic Z-matrix:
 Charge =  0 Multiplicity = 2

                         Standard orientation:
 ---------------------------------------------------------------------
 Center     Atomic      Atomic             Coordinates (Angstroms)
 Number     Number       Type             X           Y           Z
 ---------------------------------------------------------------------
      1         11           0       -0.145523   -0.480071   -1.607062
      2         11           0       -0.941478   -1.843242    1.022179
      3         11           0       -3.302401   -0.066453   -0.324378
      4         11           0       -1.039497    1.971882    0.321924
      5         11           0        2.162724   -2.033579   -0.528000
      6         11           0        1.363443    0.447494    1.832707
      7         11           0        1.902732    2.003969   -0.717371
 ---------------------------------------------------------------------

 SCF Done:  E(UB3LYP) =  -1136.12983727     A.U. after   19 cycles

 The electronic state is 2-A.
 Alpha  occ. eigenvalues --  -38.43821 -38.43606 -38.43432 -38.43414 -38.43330
 Alpha  occ. eigenvalues --  -38.43328 -38.42948  -2.19709  -2.19589  -2.19406
 Alpha  occ. eigenvalues --   -2.19350  -2.19323  -2.19286  -2.18941  -1.13397
 Alpha  occ. eigenvalues --   -1.13371  -1.13360  -1.13306  -1.13283  -1.13213
 Alpha  occ. eigenvalues --   -1.13186  -1.13130  -1.13093  -1.13008  -1.12983
 Alpha  occ. eigenvalues --   -1.12963  -1.12961  -1.12952  -1.12942  -1.12914
 Alpha  occ. eigenvalues --   -1.12906  -1.12866  -1.12630  -1.12604  -1.12546
 Alpha  occ. eigenvalues --   -0.19631  -0.13378  -0.12385  -0.11506
 Alpha virt. eigenvalues --   -0.05431  -0.04775  -0.04010  -0.03487  -0.03109
 Alpha virt. eigenvalues --   -0.02771  -0.01443  -0.00819  -0.00294   0.00314
 Alpha virt. eigenvalues --    0.00413   0.00439   0.00881   0.00955   0.00971

  Beta  occ. eigenvalues --  -38.43821 -38.43535 -38.43421 -38.43399 -38.43298
  Beta  occ. eigenvalues --  -38.43264 -38.42937  -2.19709  -2.19460  -2.19326
  Beta  occ. eigenvalues --   -2.19310  -2.19283  -2.19232  -2.18924  -1.13398
  Beta  occ. eigenvalues --   -1.13371  -1.13347  -1.13237  -1.13184  -1.13155
  Beta  occ. eigenvalues --   -1.13103  -1.13062  -1.13040  -1.12972  -1.12946
  Beta  occ. eigenvalues --   -1.12937  -1.12926  -1.12921  -1.12895  -1.12854
  Beta  occ. eigenvalues --   -1.12843  -1.12835  -1.12622  -1.12550  -1.12542
  Beta  occ. eigenvalues --   -0.18847  -0.13177  -0.12145
  Beta virt. eigenvalues --   -0.07391  -0.05334  -0.04745  -0.03912  -0.02880
  Beta virt. eigenvalues --   -0.02341  -0.01672  -0.01371  -0.00785  -0.00025
  Beta virt. eigenvalues --    0.00336   0.00399   0.00470   0.00949   0.00970

 Mulliken charges and spin densities:
               1          2
     1  Na  -0.274103   0.482713
     2  Na  -0.325199   0.249501
     3  Na   0.637305  -0.090318
     4  Na  -0.386430   0.182790
     5  Na  -0.042587  -0.101057
     6  Na   0.236152   0.290554
     7  Na   0.154862  -0.014182
 Sum of Mulliken charges =  -0.00000   1.00000

 Dipole moment (field-independent basis, Debye):
    X=             -0.0297    Y=             -0.1328    Z=              0.0287  Tot=              0.1391
 Quadrupole moment (field-independent basis, Debye-Ang):
   XX=            -55.7223   YY=            -69.2018   ZZ=            -69.2975
   XY=              0.0642   XZ=             -0.6571   YZ=             -1.3382

 Normal termination of Gaussian 16 at Tue Dec  5 21:09:33 2023.
