 Gaussian 16, Revision B.01,
 Gaussian 16:  ES64L-G16RevB.01 20-Dec-2017

 -------------------------
 #P B3LYP/6-311+g(d) force
 -------------------------

 -----
 DPGEN
 -----
 Symbolic Z-matrix:
 Charge =  0 Multiplicity = 2

                         Standard orientation:
 ---------------------------------------------------------------------
 Center     Atomic      Atomic             Coordinates (Angstroms)
 Number     Number       Type             X           Y           Z
 ---------------------------------------------------------------------
      1         11           0       -3.226195    0.617753   -0.205860
      2         11           0       -1.700671   -2.489443   -1.022805
      3         11           0       -1.218077   -0.840503    2.057443
      4         11           0        0.345014   -0.013168   -1.369022
      5         11           0        2.560802   -0.038508    1.812171
      6         11           0        4.235045   -0.078147   -1.019409
      7         11           0       -0.995919    2.842015   -0.252519
 ---------------------------------------------------------------------

 SCF Done:  E(UB3LYP) =  -1136.11999688     A.U. after   24 cycles

 The electronic state is 2-A.
 Alpha  occ. eigenvalues --  -38.45076 -38.44705 -38.44630 -38.44295 -38.44107
 Alpha  occ. eigenvalues --  -38.42952 -38.42331  -2.20853  -2.20584  -2.20432
 Alpha  occ. eigenvalues --   -2.20180  -2.19958  -2.18818  -2.18178  -1.14523
 Alpha  occ. eigenvalues --   -1.14512  -1.14489  -1.14287  -1.14243  -1.14196
 Alpha  occ. eigenvalues --   -1.14097  -1.14094  -1.14054  -1.13878  -1.13855
 Alpha  occ. eigenvalues --   -1.13790  -1.13629  -1.13613  -1.13562  -1.12506
 Alpha  occ. eigenvalues --   -1.12468  -1.12433  -1.11857  -1.11839  -1.11824
 Alpha  occ. eigenvalues --   -0.17938  -0.13781  -0.11349  -0.11212
 Alpha virt. eigenvalues --   -0.07074  -0.05403  -0.03841  -0.03397  -0.02944
 Alpha virt. eigenvalues --   -0.02637  -0.02349  -0.01238  -0.00712  -0.00298
 Alpha virt. eigenvalues --   -0.00161   0.00098   0.00144   0.00748   0.00803

  Beta  occ. eigenvalues --  -38.45070 -38.44697 -38.44595 -38.44251 -38.44041
  Beta  occ. eigenvalues --  -38.42922 -38.42337  -2.20840  -2.20571  -2.20368
  Beta  occ. eigenvalues --   -2.20101  -2.19834  -2.18764  -2.18191  -1.14513
  Beta  occ. eigenvalues --   -1.14504  -1.14479  -1.14264  -1.14232  -1.14193
  Beta  occ. eigenvalues --   -1.14055  -1.14052  -1.13994  -1.13814  -1.13792
  Beta  occ. eigenvalues --   -1.13734  -1.13542  -1.13526  -1.13474  -1.12459
  Beta  occ. eigenvalues --   -1.12429  -1.12397  -1.11867  -1.11846  -1.11825
  Beta  occ. eigenvalues --   -0.17270  -0.13663  -0.11058
  Beta virt. eigenvalues --   -0.07461  -0.06796  -0.04744  -0.03798  -0.03225
  Beta virt. eigenvalues --   -0.02552  -0.02131  -0.01789  -0.00680  -0.00623
  Beta virt. eigenvalues --   -0.00283   0.00032   0.00153   0.00289   0.00816

 Mulliken charges and spin densities:
               1          2
     1  Na   0.836834   0.110676
     2  Na  -0.060103   0.126741
     3  Na  -0.074411   0.349180
     4  Na  -0.512799   0.156250
     5  Na  -0.216600   0.193412
     6  Na   0.318085   0.063281
     7  Na  -0.291007   0.000461
 Sum of Mulliken charges =  -0.00000   1.00000

 Dipole moment (field-independent basis, Debye):
    X=              0.9001    Y=             -0.2790    Z=             -0.0372  Tot=              0.9431
 Quadrupole moment (field-independent basis, Debye-Ang):
   XX=            -49.2692   YY=            -76.9172   ZZ=            -68.1587
   XY=              2.0074   XZ=             -2.7089   YZ=              2.3641

 Normal termination of Gaussian 16 at Tue Dec  5 17:26:49 2023.
