 Gaussian 16, Revision B.01,
 Gaussian 16:  ES64L-G16RevB.01 20-Dec-2017

 -------------------------
 #P B3LYP/6-311+g(d) force
 -------------------------

 -----
 DPGEN
 -----
 Symbolic Z-matrix:
 Charge =  0 Multiplicity = 2

                         Standard orientation:
 ---------------------------------------------------------------------
 Center     Atomic      Atomic             Coordinates (Angstroms)
 Number     Number       Type             X           Y           Z
 ---------------------------------------------------------------------
      1         11           0        0.145078   -0.138410   -1.770350
      2         11           0        2.325287    2.509803   -0.302817
      3         11           0       -1.500808    2.125139    0.614462
      4         11           0       -3.701650   -0.233949   -0.712967
      5         11           0        2.465975   -2.165444   -0.786899
      6         11           0       -1.248311   -1.818265    1.193042
      7         11           0        1.514430   -0.278874    1.765528
 ---------------------------------------------------------------------

 SCF Done:  E(UB3LYP) =  -1136.13133374     A.U. after   20 cycles

 The electronic state is 2-A.
 Alpha  occ. eigenvalues --  -38.44304 -38.44021 -38.43951 -38.43878 -38.43688
 Alpha  occ. eigenvalues --  -38.43492 -38.43491  -2.20107  -2.19841  -2.19820
 Alpha  occ. eigenvalues --   -2.19713  -2.19548  -2.19406  -2.19273  -1.13771
 Alpha  occ. eigenvalues --   -1.13771  -1.13746  -1.13534  -1.13525  -1.13508
 Alpha  occ. eigenvalues --   -1.13493  -1.13464  -1.13423  -1.13383  -1.13358
 Alpha  occ. eigenvalues --   -1.13334  -1.13280  -1.13205  -1.13154  -1.13080
 Alpha  occ. eigenvalues --   -1.13046  -1.13007  -1.12949  -1.12929  -1.12906
 Alpha  occ. eigenvalues --   -0.18163  -0.13295  -0.11646  -0.11137
 Alpha virt. eigenvalues --   -0.05937  -0.05532  -0.04338  -0.03330  -0.02806
 Alpha virt. eigenvalues --   -0.02714  -0.01847  -0.01242  -0.00735  -0.00001
 Alpha virt. eigenvalues --    0.00092   0.00266   0.00521   0.00665   0.00724

  Beta  occ. eigenvalues --  -38.44297 -38.44015 -38.43885 -38.43858 -38.43650
  Beta  occ. eigenvalues --  -38.43492 -38.43431  -2.20096  -2.19811  -2.19721
  Beta  occ. eigenvalues --   -2.19679  -2.19480  -2.19298  -2.19275  -1.13764
  Beta  occ. eigenvalues --   -1.13757  -1.13739  -1.13508  -1.13484  -1.13461
  Beta  occ. eigenvalues --   -1.13420  -1.13416  -1.13382  -1.13355  -1.13312
  Beta  occ. eigenvalues --   -1.13306  -1.13219  -1.13143  -1.13111  -1.13006
  Beta  occ. eigenvalues --   -1.12970  -1.12953  -1.12933  -1.12918  -1.12900
  Beta  occ. eigenvalues --   -0.17432  -0.13111  -0.11440
  Beta virt. eigenvalues --   -0.07190  -0.05764  -0.05506  -0.04003  -0.02969
  Beta virt. eigenvalues --   -0.02184  -0.01792  -0.01713  -0.01170  -0.00400
  Beta virt. eigenvalues --    0.00027   0.00133   0.00307   0.00661   0.00729

 Mulliken charges and spin densities:
               1          2
     1  Na  -0.391649   0.620112
     2  Na   0.044768  -0.099276
     3  Na  -0.265303  -0.004212
     4  Na   0.427200   0.016218
     5  Na   0.148520  -0.049200
     6  Na  -0.171677   0.098633
     7  Na   0.208140   0.417723
 Sum of Mulliken charges =  -0.00000   1.00000

 Dipole moment (field-independent basis, Debye):
    X=             -0.4306    Y=             -0.1136    Z=             -0.2223  Tot=              0.4978
 Quadrupole moment (field-independent basis, Debye-Ang):
   XX=            -53.2469   YY=            -69.5992   ZZ=            -70.8260
   XY=             -0.5777   XZ=              0.5399   YZ=              0.8187

 Normal termination of Gaussian 16 at Thu Dec  7 19:21:56 2023.
