 Gaussian 16, Revision B.01,
 Gaussian 16:  ES64L-G16RevB.01 20-Dec-2017

 -------------------------
 #P B3LYP/6-311+g(d) force
 -------------------------

 -----
 DPGEN
 -----
 Symbolic Z-matrix:
 Charge =  0 Multiplicity = 2

                         Standard orientation:
 ---------------------------------------------------------------------
 Center     Atomic      Atomic             Coordinates (Angstroms)
 Number     Number       Type             X           Y           Z
 ---------------------------------------------------------------------
      1         11           0        2.671920   -1.540736   -1.488650
      2         11           0       -0.222263    0.872974   -0.310014
      3         11           0        0.307878   -2.568364    0.029005
      4         11           0        2.261470    2.772179   -0.342817
      5         11           0        2.591455    0.033785    2.000902
      6         11           0       -3.682735    1.772729   -0.294015
      7         11           0       -3.927724   -1.342568    0.405589
 ---------------------------------------------------------------------

 SCF Done:  E(UB3LYP) =  -1136.11452463     A.U. after   23 cycles

 The electronic state is 2-A.
 Alpha  occ. eigenvalues --  -38.45115 -38.45091 -38.44663 -38.43694 -38.43576
 Alpha  occ. eigenvalues --  -38.43572 -38.43503  -2.20909  -2.20872  -2.20509
 Alpha  occ. eigenvalues --   -2.19587  -2.19413  -2.19389  -2.19352  -1.14615
 Alpha  occ. eigenvalues --   -1.14575  -1.14568  -1.14535  -1.14513  -1.14465
 Alpha  occ. eigenvalues --   -1.14204  -1.14156  -1.14126  -1.13297  -1.13272
 Alpha  occ. eigenvalues --   -1.13231  -1.13085  -1.13048  -1.13045  -1.13043
 Alpha  occ. eigenvalues --   -1.13034  -1.13030  -1.13019  -1.12999  -1.12984
 Alpha  occ. eigenvalues --   -0.17362  -0.14143  -0.11911  -0.09886
 Alpha virt. eigenvalues --   -0.06783  -0.06573  -0.04175  -0.03249  -0.02847
 Alpha virt. eigenvalues --   -0.02342  -0.02187  -0.01592  -0.01244  -0.00680
 Alpha virt. eigenvalues --   -0.00360   0.00102   0.00391   0.00419   0.00558

  Beta  occ. eigenvalues --  -38.45118 -38.45072 -38.44626 -38.43669 -38.43580
  Beta  occ. eigenvalues --  -38.43503 -38.43473  -2.20915  -2.20835  -2.20443
  Beta  occ. eigenvalues --   -2.19543  -2.19401  -2.19357  -2.19227  -1.14608
  Beta  occ. eigenvalues --   -1.14579  -1.14565  -1.14509  -1.14489  -1.14450
  Beta  occ. eigenvalues --   -1.14162  -1.14094  -1.14083  -1.13267  -1.13226
  Beta  occ. eigenvalues --   -1.13206  -1.13057  -1.13042  -1.13033  -1.13019
  Beta  occ. eigenvalues --   -1.13008  -1.12979  -1.12957  -1.12912  -1.12886
  Beta  occ. eigenvalues --   -0.16845  -0.13894  -0.11650
  Beta virt. eigenvalues --   -0.06728  -0.06466  -0.05878  -0.04136  -0.02995
  Beta virt. eigenvalues --   -0.02564  -0.01986  -0.01772  -0.01255  -0.00839
  Beta virt. eigenvalues --   -0.00353  -0.00187   0.00213   0.00501   0.00525

 Mulliken charges and spin densities:
               1          2
     1  Na   0.569181  -0.036976
     2  Na  -1.871910   0.423595
     3  Na   0.402659   0.221007
     4  Na   0.539862  -0.172745
     5  Na   0.007736   0.471193
     6  Na   0.197386  -0.024096
     7  Na   0.155086   0.118023
 Sum of Mulliken charges =  -0.00000   1.00000

 Dipole moment (field-independent basis, Debye):
    X=             -1.1924    Y=              0.0727    Z=             -0.6671  Tot=              1.3683
 Quadrupole moment (field-independent basis, Debye-Ang):
   XX=            -51.3579   YY=            -66.9167   ZZ=            -76.0228
   XY=             -0.0401   XZ=             -5.5672   YZ=             -2.4333

 Normal termination of Gaussian 16 at Tue Dec  5 22:36:08 2023.
