 Gaussian 16, Revision B.01,
 Gaussian 16:  ES64L-G16RevB.01 20-Dec-2017

 -------------------------
 #P B3LYP/6-311+g(d) force
 -------------------------

 -----
 DPGEN
 -----
 Symbolic Z-matrix:
 Charge =  0 Multiplicity = 2

                         Standard orientation:
 ---------------------------------------------------------------------
 Center     Atomic      Atomic             Coordinates (Angstroms)
 Number     Number       Type             X           Y           Z
 ---------------------------------------------------------------------
      1         11           0        2.179070   -0.421279    1.777900
      2         11           0       -0.686376   -1.548342   -0.069977
      3         11           0       -1.714596    1.542541   -1.253336
      4         11           0        1.900035    1.669192   -1.335790
      5         11           0        2.672220   -1.889803   -0.781110
      6         11           0       -3.675613   -1.604719    0.108032
      7         11           0       -0.674740    2.252409    1.554280
 ---------------------------------------------------------------------

 SCF Done:  E(UB3LYP) =  -1136.12597771     A.U. after   20 cycles

 The electronic state is 2-A.
 Alpha  occ. eigenvalues --  -38.44171 -38.44079 -38.44061 -38.43955 -38.43918
 Alpha  occ. eigenvalues --  -38.43750 -38.43150  -2.19990  -2.19970  -2.19933
 Alpha  occ. eigenvalues --   -2.19787  -2.19767  -2.19590  -2.19064  -1.13761
 Alpha  occ. eigenvalues --   -1.13671  -1.13648  -1.13634  -1.13608  -1.13594
 Alpha  occ. eigenvalues --   -1.13584  -1.13552  -1.13528  -1.13492  -1.13488
 Alpha  occ. eigenvalues --   -1.13474  -1.13417  -1.13399  -1.13372  -1.13241
 Alpha  occ. eigenvalues --   -1.13232  -1.13203  -1.12753  -1.12730  -1.12688
 Alpha  occ. eigenvalues --   -0.18107  -0.13563  -0.12017  -0.10875
 Alpha virt. eigenvalues --   -0.06027  -0.05385  -0.04711  -0.03513  -0.02782
 Alpha virt. eigenvalues --   -0.02484  -0.01833  -0.01154  -0.00569  -0.00161
 Alpha virt. eigenvalues --    0.00163   0.00224   0.00317   0.00575   0.00781

  Beta  occ. eigenvalues --  -38.44120 -38.44050 -38.44027 -38.43962 -38.43905
  Beta  occ. eigenvalues --  -38.43711 -38.43141  -2.19920  -2.19897  -2.19871
  Beta  occ. eigenvalues --   -2.19781  -2.19762  -2.19518  -2.19050  -1.13722
  Beta  occ. eigenvalues --   -1.13600  -1.13588  -1.13584  -1.13553  -1.13545
  Beta  occ. eigenvalues --   -1.13532  -1.13515  -1.13506  -1.13497  -1.13452
  Beta  occ. eigenvalues --   -1.13443  -1.13423  -1.13407  -1.13353  -1.13196
  Beta  occ. eigenvalues --   -1.13174  -1.13153  -1.12731  -1.12714  -1.12681
  Beta  occ. eigenvalues --   -0.17443  -0.13438  -0.11857
  Beta virt. eigenvalues --   -0.07003  -0.05877  -0.05255  -0.04134  -0.03232
  Beta virt. eigenvalues --   -0.02274  -0.01932  -0.01487  -0.01028  -0.00316
  Beta virt. eigenvalues --   -0.00020   0.00253   0.00345   0.00377   0.00672

 Mulliken charges and spin densities:
               1          2
     1  Na   0.235413   0.153199
     2  Na  -1.909086   0.170627
     3  Na   0.491912   0.095803
     4  Na  -0.362215   0.347446
     5  Na   1.587849   0.147191
     6  Na   0.119111  -0.097749
     7  Na  -0.162984   0.183484
 Sum of Mulliken charges =  -0.00000   1.00000

 Dipole moment (field-independent basis, Debye):
    X=              0.1168    Y=              0.1886    Z=             -0.0579  Tot=              0.2292
 Quadrupole moment (field-independent basis, Debye-Ang):
   XX=            -54.8868   YY=            -70.4490   ZZ=            -69.4408
   XY=             -2.1885   XZ=             -1.3959   YZ=              0.9407

 Normal termination of Gaussian 16 at Mon Dec  4 04:06:00 2023.
