 Gaussian 16, Revision B.01,
 Gaussian 16:  ES64L-G16RevB.01 20-Dec-2017

 -------------------------
 #P B3LYP/6-311+g(d) force
 -------------------------

 -----
 DPGEN
 -----
 Symbolic Z-matrix:
 Charge =  0 Multiplicity = 2

                         Standard orientation:
 ---------------------------------------------------------------------
 Center     Atomic      Atomic             Coordinates (Angstroms)
 Number     Number       Type             X           Y           Z
 ---------------------------------------------------------------------
      1         11           0       -0.133899    0.054900    1.646986
      2         11           0        0.837584    2.034499    0.004386
      3         11           0       -2.170391    1.449282   -0.004414
      4         11           0       -0.126599    0.052200   -1.646414
      5         11           0       -1.925014   -1.634415   -0.002414
      6         11           0        0.825818   -1.916191    0.005786
      7         11           0        2.692502   -0.040275   -0.003914
 ---------------------------------------------------------------------

 SCF Done:  E(UB3LYP) =  -1136.07449082     A.U. after   19 cycles

 The electronic state is 2-A.
 Alpha  occ. eigenvalues --  -38.44266 -38.43970 -38.43961 -38.43842 -38.43566
 Alpha  occ. eigenvalues --  -38.43543 -38.43540  -2.20371  -2.20294  -2.20274
 Alpha  occ. eigenvalues --   -2.20089  -2.19723  -2.19674  -2.19600  -1.14431
 Alpha  occ. eigenvalues --   -1.14305  -1.14183  -1.14129  -1.14092  -1.14028
 Alpha  occ. eigenvalues --   -1.13923  -1.13912  -1.13863  -1.13695  -1.13567
 Alpha  occ. eigenvalues --   -1.13538  -1.13357  -1.13348  -1.13315  -1.13307
 Alpha  occ. eigenvalues --   -1.13266  -1.13264  -1.13237  -1.13206  -1.13128
 Alpha  occ. eigenvalues --   -0.21766  -0.14081  -0.13028  -0.11975
 Alpha virt. eigenvalues --   -0.05281  -0.04479  -0.04059  -0.03572  -0.03055
 Alpha virt. eigenvalues --   -0.02485  -0.01239  -0.00574  -0.00019   0.00342
 Alpha virt. eigenvalues --    0.00705   0.00762   0.00986   0.01124   0.01160

  Beta  occ. eigenvalues --  -38.44258 -38.43878 -38.43869 -38.43821 -38.43554
  Beta  occ. eigenvalues --  -38.43530 -38.43526  -2.20360  -2.20146  -2.20109
  Beta  occ. eigenvalues --   -2.20047  -2.19699  -2.19659  -2.19587  -1.14407
  Beta  occ. eigenvalues --   -1.14268  -1.14136  -1.14030  -1.14015  -1.13928
  Beta  occ. eigenvalues --   -1.13844  -1.13816  -1.13754  -1.13665  -1.13505
  Beta  occ. eigenvalues --   -1.13466  -1.13347  -1.13325  -1.13290  -1.13257
  Beta  occ. eigenvalues --   -1.13240  -1.13201  -1.13192  -1.13181  -1.13125
  Beta  occ. eigenvalues --   -0.20956  -0.13703  -0.12647
  Beta virt. eigenvalues --   -0.07763  -0.05321  -0.04463  -0.04035  -0.02603
  Beta virt. eigenvalues --   -0.02116  -0.01414  -0.01161  -0.00531   0.00115
  Beta virt. eigenvalues --    0.00377   0.00671   0.00747   0.01008   0.01130

 Mulliken charges and spin densities:
               1          2
     1  Na  -0.468990   0.455398
     2  Na   0.337777   0.056279
     3  Na   0.153022  -0.034423
     4  Na  -0.470667   0.457540
     5  Na   0.180869  -0.020593
     6  Na   0.423833   0.148063
     7  Na  -0.155846  -0.062264
 Sum of Mulliken charges =  -0.00000   1.00000

 Dipole moment (field-independent basis, Debye):
    X=             -0.1828    Y=              0.2017    Z=             -0.0029  Tot=              0.2722
 Quadrupole moment (field-independent basis, Debye-Ang):
   XX=            -57.5583   YY=            -68.6737   ZZ=            -70.6401
   XY=              0.0219   XZ=              0.0101   YZ=             -0.0044

 Normal termination of Gaussian 16 at Thu Dec  7 23:30:25 2023.
