 Gaussian 16, Revision B.01,
 Gaussian 16:  ES64L-G16RevB.01 20-Dec-2017

 -------------------------
 #P B3LYP/6-311+g(d) force
 -------------------------

 -----
 DPGEN
 -----
 Symbolic Z-matrix:
 Charge =  0 Multiplicity = 2

                         Standard orientation:
 ---------------------------------------------------------------------
 Center     Atomic      Atomic             Coordinates (Angstroms)
 Number     Number       Type             X           Y           Z
 ---------------------------------------------------------------------
      1         11           0       -2.843925   -1.113676   -0.463499
      2         11           0        1.852396    2.703336    0.028166
      3         11           0       -2.624778    1.920972   -0.116538
      4         11           0        0.512695   -2.860162    0.545312
      5         11           0        0.007405   -0.342319   -1.572867
      6         11           0       -0.156693    0.193988    2.077042
      7         11           0        3.252900   -0.502139   -0.497615
 ---------------------------------------------------------------------

 SCF Done:  E(UB3LYP) =  -1136.13244946     A.U. after   20 cycles

 The electronic state is 2-A.
 Alpha  occ. eigenvalues --  -38.44388 -38.44037 -38.43992 -38.43730 -38.43660
 Alpha  occ. eigenvalues --  -38.43575 -38.43034  -2.20198  -2.19887  -2.19867
 Alpha  occ. eigenvalues --   -2.19599  -2.19522  -2.19436  -2.18881  -1.13883
 Alpha  occ. eigenvalues --   -1.13850  -1.13823  -1.13666  -1.13587  -1.13532
 Alpha  occ. eigenvalues --   -1.13516  -1.13499  -1.13439  -1.13270  -1.13225
 Alpha  occ. eigenvalues --   -1.13215  -1.13206  -1.13159  -1.13147  -1.13114
 Alpha  occ. eigenvalues --   -1.13093  -1.13082  -1.12556  -1.12541  -1.12515
 Alpha  occ. eigenvalues --   -0.18308  -0.13389  -0.11913  -0.10826
 Alpha virt. eigenvalues --   -0.05898  -0.05348  -0.04540  -0.03323  -0.02859
 Alpha virt. eigenvalues --   -0.02552  -0.01805  -0.01129  -0.00585  -0.00398
 Alpha virt. eigenvalues --   -0.00012   0.00327   0.00714   0.00818   0.00885

  Beta  occ. eigenvalues --  -38.44374 -38.44036 -38.43977 -38.43662 -38.43629
  Beta  occ. eigenvalues --  -38.43528 -38.43021  -2.20174  -2.19873  -2.19856
  Beta  occ. eigenvalues --   -2.19444  -2.19436  -2.19412  -2.18860  -1.13855
  Beta  occ. eigenvalues --   -1.13833  -1.13810  -1.13659  -1.13564  -1.13516
  Beta  occ. eigenvalues --   -1.13505  -1.13476  -1.13429  -1.13164  -1.13128
  Beta  occ. eigenvalues --   -1.13115  -1.13109  -1.13097  -1.13090  -1.13087
  Beta  occ. eigenvalues --   -1.13081  -1.13069  -1.12543  -1.12510  -1.12498
  Beta  occ. eigenvalues --   -0.17605  -0.13112  -0.11710
  Beta virt. eigenvalues --   -0.06955  -0.05801  -0.05297  -0.04461  -0.02631
  Beta virt. eigenvalues --   -0.02115  -0.01674  -0.01581  -0.01047  -0.00616
  Beta virt. eigenvalues --   -0.00379   0.00116   0.00378   0.00796   0.00827

 Mulliken charges and spin densities:
               1          2
     1  Na   0.486835   0.110112
     2  Na  -0.159525  -0.062216
     3  Na  -0.108607  -0.051860
     4  Na  -0.026129   0.050147
     5  Na  -0.005779   0.251235
     6  Na  -0.305885   0.696709
     7  Na   0.119090   0.005872
 Sum of Mulliken charges =  -0.00000   1.00000

 Dipole moment (field-independent basis, Debye):
    X=              0.0233    Y=              0.0351    Z=              0.0190  Tot=              0.0462
 Quadrupole moment (field-independent basis, Debye-Ang):
   XX=            -56.1337   YY=            -63.9275   ZZ=            -74.1462
   XY=             -1.2500   XZ=             -0.0341   YZ=             -0.7528

 Normal termination of Gaussian 16 at Fri Dec  8 02:13:38 2023.
