 Gaussian 16, Revision B.01,
 Gaussian 16:  ES64L-G16RevB.01 20-Dec-2017

 -------------------------
 #P B3LYP/6-311+g(d) force
 -------------------------

 -----
 DPGEN
 -----
 Symbolic Z-matrix:
 Charge =  0 Multiplicity = 2

                         Standard orientation:
 ---------------------------------------------------------------------
 Center     Atomic      Atomic             Coordinates (Angstroms)
 Number     Number       Type             X           Y           Z
 ---------------------------------------------------------------------
      1         11           0        1.179023   -1.705948   -0.614731
      2         11           0        4.468199   -0.555730   -0.794854
      3         11           0        2.252011    2.121098   -0.224473
      4         11           0       -0.881865    2.213909    0.509820
      5         11           0       -1.857104   -0.702559   -0.773999
      6         11           0        0.573581   -1.188189    2.327138
      7         11           0       -5.733845   -0.182582   -0.428902
 ---------------------------------------------------------------------

 SCF Done:  E(UB3LYP) =  -1136.10699600     A.U. after   30 cycles

 The electronic state is 2-A.
 Alpha  occ. eigenvalues --  -38.45634 -38.45557 -38.44380 -38.44176 -38.43562
 Alpha  occ. eigenvalues --  -38.43523 -38.42966  -2.21418  -2.21327  -2.20213
 Alpha  occ. eigenvalues --   -2.19984  -2.19443  -2.19407  -2.18787  -1.15119
 Alpha  occ. eigenvalues --   -1.15074  -1.15051  -1.14963  -1.14960  -1.14925
 Alpha  occ. eigenvalues --   -1.13919  -1.13899  -1.13837  -1.13645  -1.13623
 Alpha  occ. eigenvalues --   -1.13609  -1.13139  -1.13116  -1.13080  -1.13065
 Alpha  occ. eigenvalues --   -1.13042  -1.13038  -1.12471  -1.12469  -1.12415
 Alpha  occ. eigenvalues --   -0.17455  -0.13603  -0.11832  -0.11408
 Alpha virt. eigenvalues --   -0.07341  -0.05184  -0.04424  -0.03321  -0.02900
 Alpha virt. eigenvalues --   -0.02430  -0.02100  -0.01818  -0.01503  -0.00936
 Alpha virt. eigenvalues --   -0.00373   0.00138   0.00335   0.00518   0.00568

  Beta  occ. eigenvalues --  -38.45657 -38.45432 -38.44385 -38.44120 -38.43530
  Beta  occ. eigenvalues --  -38.43503 -38.42963  -2.21461  -2.21093  -2.20226
  Beta  occ. eigenvalues --   -2.19880  -2.19408  -2.19349  -2.18785  -1.15152
  Beta  occ. eigenvalues --   -1.15099  -1.15078  -1.14803  -1.14800  -1.14769
  Beta  occ. eigenvalues --   -1.13923  -1.13904  -1.13834  -1.13570  -1.13552
  Beta  occ. eigenvalues --   -1.13543  -1.13131  -1.13082  -1.13045  -1.13017
  Beta  occ. eigenvalues --   -1.13004  -1.13003  -1.12474  -1.12466  -1.12390
  Beta  occ. eigenvalues --   -0.17127  -0.12607  -0.11204
  Beta virt. eigenvalues --   -0.08359  -0.07005  -0.04708  -0.04062  -0.03141
  Beta virt. eigenvalues --   -0.02748  -0.02282  -0.01752  -0.01275  -0.01031
  Beta virt. eigenvalues --   -0.00608  -0.00116   0.00221   0.00430   0.00643

 Mulliken charges and spin densities:
               1          2
     1  Na   0.203356   0.055176
     2  Na   0.332603   0.194761
     3  Na  -0.155254   0.005139
     4  Na  -0.165144   0.135840
     5  Na  -0.610235   0.243610
     6  Na   0.170170  -0.024449
     7  Na   0.224503   0.389923
 Sum of Mulliken charges =  -0.00000   1.00000

 Dipole moment (field-independent basis, Debye):
    X=             -0.4688    Y=             -0.8073    Z=              1.1676  Tot=              1.4949
 Quadrupole moment (field-independent basis, Debye-Ang):
   XX=            -57.9234   YY=            -79.0093   ZZ=            -62.2898
   XY=             -3.5656   XZ=             -0.1302   YZ=              2.7194

 Normal termination of Gaussian 16 at Tue Nov 28 19:57:07 2023.
