 Gaussian 16, Revision B.01,
 Gaussian 16:  ES64L-G16RevB.01 20-Dec-2017

 -------------------------
 #P B3LYP/6-311+g(d) force
 -------------------------

 -----
 DPGEN
 -----
 Symbolic Z-matrix:
 Charge =  0 Multiplicity = 2

                         Standard orientation:
 ---------------------------------------------------------------------
 Center     Atomic      Atomic             Coordinates (Angstroms)
 Number     Number       Type             X           Y           Z
 ---------------------------------------------------------------------
      1         11           0       -1.696940   -2.432358   -0.677607
      2         11           0       -0.200206   -0.345650    1.811142
      3         11           0       -1.170383    0.904583   -1.408691
      4         11           0       -3.486770    0.745006    0.916778
      5         11           0        1.288174    2.720360   -0.308748
      6         11           0        3.651966   -0.723837    0.832101
      7         11           0        1.614158   -0.868105   -1.164975
 ---------------------------------------------------------------------

 SCF Done:  E(UB3LYP) =  -1136.12210020     A.U. after   22 cycles

 The electronic state is 2-A.
 Alpha  occ. eigenvalues --  -38.45020 -38.44765 -38.44666 -38.43504 -38.43447
 Alpha  occ. eigenvalues --  -38.42922 -38.42822  -2.20833  -2.20615  -2.20501
 Alpha  occ. eigenvalues --   -2.19413  -2.19338  -2.18796  -2.18736  -1.14507
 Alpha  occ. eigenvalues --   -1.14482  -1.14447  -1.14318  -1.14265  -1.14261
 Alpha  occ. eigenvalues --   -1.14224  -1.14122  -1.14111  -1.13127  -1.13082
 Alpha  occ. eigenvalues --   -1.13016  -1.13004  -1.12990  -1.12961  -1.12515
 Alpha  occ. eigenvalues --   -1.12461  -1.12445  -1.12403  -1.12374  -1.12346
 Alpha  occ. eigenvalues --   -0.18490  -0.13695  -0.11330  -0.11155
 Alpha virt. eigenvalues --   -0.06778  -0.04938  -0.04370  -0.03165  -0.02621
 Alpha virt. eigenvalues --   -0.02524  -0.02291  -0.01098  -0.00830  -0.00085
 Alpha virt. eigenvalues --    0.00130   0.00185   0.00267   0.00754   0.00776

  Beta  occ. eigenvalues --  -38.44980 -38.44722 -38.44648 -38.43476 -38.43420
  Beta  occ. eigenvalues --  -38.42924 -38.42781  -2.20760  -2.20535  -2.20467
  Beta  occ. eigenvalues --   -2.19368  -2.19289  -2.18741  -2.18726  -1.14454
  Beta  occ. eigenvalues --   -1.14426  -1.14401  -1.14259  -1.14246  -1.14208
  Beta  occ. eigenvalues --   -1.14159  -1.14093  -1.14088  -1.13076  -1.13036
  Beta  occ. eigenvalues --   -1.12978  -1.12965  -1.12961  -1.12920  -1.12479
  Beta  occ. eigenvalues --   -1.12416  -1.12404  -1.12383  -1.12377  -1.12315
  Beta  occ. eigenvalues --   -0.17762  -0.13397  -0.11007
  Beta virt. eigenvalues --   -0.07463  -0.06530  -0.04833  -0.03796  -0.03080
  Beta virt. eigenvalues --   -0.02275  -0.01872  -0.01633  -0.00936  -0.00554
  Beta virt. eigenvalues --   -0.00062   0.00186   0.00236   0.00386   0.00810

 Mulliken charges and spin densities:
               1          2
     1  Na  -0.010274   0.092973
     2  Na  -0.283069   0.459915
     3  Na   0.310315   0.148877
     4  Na   0.108030   0.121574
     5  Na  -0.300315   0.002893
     6  Na   0.278427   0.185366
     7  Na  -0.103113  -0.011598
 Sum of Mulliken charges =  -0.00000   1.00000

 Dipole moment (field-independent basis, Debye):
    X=             -0.4053    Y=             -0.0829    Z=              0.7588  Tot=              0.8643
 Quadrupole moment (field-independent basis, Debye-Ang):
   XX=            -50.6649   YY=            -73.3108   ZZ=            -69.2133
   XY=              0.8486   XZ=              1.2575   YZ=              2.7926

 Normal termination of Gaussian 16 at Thu Dec  7 17:51:38 2023.
