 Gaussian 16, Revision B.01,
 Gaussian 16:  ES64L-G16RevB.01 20-Dec-2017

 -------------------------
 #P B3LYP/6-311+g(d) force
 -------------------------

 -----
 DPGEN
 -----
 Symbolic Z-matrix:
 Charge =  0 Multiplicity = 2

                         Standard orientation:
 ---------------------------------------------------------------------
 Center     Atomic      Atomic             Coordinates (Angstroms)
 Number     Number       Type             X           Y           Z
 ---------------------------------------------------------------------
      1         11           0        3.028518    0.619589   -0.155068
      2         11           0       -0.170269    0.067561   -1.647562
      3         11           0        1.601884   -2.395861   -0.324634
      4         11           0       -1.846213   -2.188705    0.151765
      5         11           0       -3.183622    0.663607    0.108115
      6         11           0       -0.039948    2.965945   -0.300276
      7         11           0        0.609651    0.267864    2.167660
 ---------------------------------------------------------------------

 SCF Done:  E(UB3LYP) =  -1136.13650347     A.U. after   19 cycles

 The electronic state is 2-A.
 Alpha  occ. eigenvalues --  -38.44218 -38.44201 -38.43874 -38.43389 -38.43320
 Alpha  occ. eigenvalues --  -38.43241 -38.43193  -2.20050  -2.20042  -2.19737
 Alpha  occ. eigenvalues --   -2.19219  -2.19197  -2.19179  -2.19115  -1.13733
 Alpha  occ. eigenvalues --   -1.13732  -1.13720  -1.13706  -1.13683  -1.13674
 Alpha  occ. eigenvalues --   -1.13389  -1.13366  -1.13356  -1.12965  -1.12918
 Alpha  occ. eigenvalues --   -1.12879  -1.12864  -1.12854  -1.12842  -1.12837
 Alpha  occ. eigenvalues --   -1.12817  -1.12783  -1.12764  -1.12755  -1.12746
 Alpha  occ. eigenvalues --   -0.18612  -0.13197  -0.12317  -0.10865
 Alpha virt. eigenvalues --   -0.05908  -0.04894  -0.04641  -0.03367  -0.02888
 Alpha virt. eigenvalues --   -0.02679  -0.01597  -0.00994  -0.00424  -0.00213
 Alpha virt. eigenvalues --   -0.00041   0.00365   0.00809   0.00861   0.00902

  Beta  occ. eigenvalues --  -38.44217 -38.44196 -38.43778 -38.43382 -38.43316
  Beta  occ. eigenvalues --  -38.43232 -38.43129  -2.20045  -2.20043  -2.19559
  Beta  occ. eigenvalues --   -2.19209  -2.19192  -2.19103  -2.19063  -1.13735
  Beta  occ. eigenvalues --   -1.13727  -1.13692  -1.13689  -1.13683  -1.13677
  Beta  occ. eigenvalues --   -1.13272  -1.13239  -1.13232  -1.12936  -1.12896
  Beta  occ. eigenvalues --   -1.12857  -1.12853  -1.12836  -1.12830  -1.12811
  Beta  occ. eigenvalues --   -1.12758  -1.12744  -1.12740  -1.12710  -1.12691
  Beta  occ. eigenvalues --   -0.17892  -0.12983  -0.12073
  Beta virt. eigenvalues --   -0.06948  -0.05835  -0.04906  -0.04572  -0.02588
  Beta virt. eigenvalues --   -0.02118  -0.01622  -0.01511  -0.00927  -0.00477
  Beta virt. eigenvalues --   -0.00251   0.00125   0.00394   0.00848   0.00882

 Mulliken charges and spin densities:
               1          2
     1  Na   0.388439  -0.011162
     2  Na  -0.121156   0.368234
     3  Na   0.192654   0.029421
     4  Na   0.051287   0.021076
     5  Na   0.049097  -0.042129
     6  Na   0.080227  -0.102968
     7  Na  -0.640548   0.737528
 Sum of Mulliken charges =  -0.00000   1.00000

 Dipole moment (field-independent basis, Debye):
    X=              0.0453    Y=              0.2631    Z=              0.1988  Tot=              0.3329
 Quadrupole moment (field-independent basis, Debye-Ang):
   XX=            -56.2129   YY=            -64.4428   ZZ=            -73.5988
   XY=             -0.5436   XZ=             -1.7049   YZ=             -0.2600

 Normal termination of Gaussian 16 at Tue Dec  5 18:39:31 2023.
