 Gaussian 16, Revision B.01,
 Gaussian 16:  ES64L-G16RevB.01 20-Dec-2017

 -------------------------
 #P B3LYP/6-311+g(d) force
 -------------------------

 -----
 DPGEN
 -----
 Symbolic Z-matrix:
 Charge =  0 Multiplicity = 2

                         Standard orientation:
 ---------------------------------------------------------------------
 Center     Atomic      Atomic             Coordinates (Angstroms)
 Number     Number       Type             X           Y           Z
 ---------------------------------------------------------------------
      1         11           0        2.032347    1.800189    0.228158
      2         11           0        0.148502   -0.479711    2.112995
      3         11           0       -0.074915   -0.100645   -1.586115
      4         11           0       -0.922099    2.867985   -0.532563
      5         11           0       -1.378777   -2.892359   -0.564465
      6         11           0       -3.028798    0.173435    0.522691
      7         11           0        3.223740   -1.368895   -0.180699
 ---------------------------------------------------------------------

 SCF Done:  E(UB3LYP) =  -1136.13411370     A.U. after   20 cycles

 The electronic state is 2-A.
 Alpha  occ. eigenvalues --  -38.44303 -38.44247 -38.43956 -38.43791 -38.43462
 Alpha  occ. eigenvalues --  -38.43218 -38.42941  -2.20082  -2.20068  -2.19811
 Alpha  occ. eigenvalues --   -2.19606  -2.19360  -2.19187  -2.18812  -1.13755
 Alpha  occ. eigenvalues --   -1.13746  -1.13743  -1.13731  -1.13725  -1.13697
 Alpha  occ. eigenvalues --   -1.13484  -1.13444  -1.13420  -1.13306  -1.13253
 Alpha  occ. eigenvalues --   -1.13234  -1.13063  -1.13034  -1.12985  -1.12871
 Alpha  occ. eigenvalues --   -1.12832  -1.12808  -1.12484  -1.12467  -1.12447
 Alpha  occ. eigenvalues --   -0.18380  -0.12998  -0.12239  -0.10868
 Alpha virt. eigenvalues --   -0.06002  -0.05071  -0.04513  -0.03334  -0.02883
 Alpha virt. eigenvalues --   -0.02606  -0.01726  -0.01199  -0.00472  -0.00232
 Alpha virt. eigenvalues --    0.00021   0.00344   0.00758   0.00794   0.00842

  Beta  occ. eigenvalues --  -38.44306 -38.44235 -38.43865 -38.43777 -38.43455
  Beta  occ. eigenvalues --  -38.43157 -38.42935  -2.20091  -2.20047  -2.19643
  Beta  occ. eigenvalues --   -2.19582  -2.19351  -2.19076  -2.18803  -1.13758
  Beta  occ. eigenvalues --   -1.13740  -1.13731  -1.13724  -1.13701  -1.13688
  Beta  occ. eigenvalues --   -1.13373  -1.13328  -1.13296  -1.13277  -1.13234
  Beta  occ. eigenvalues --   -1.13215  -1.13056  -1.13006  -1.12978  -1.12794
  Beta  occ. eigenvalues --   -1.12749  -1.12733  -1.12471  -1.12461  -1.12432
  Beta  occ. eigenvalues --   -0.17665  -0.12797  -0.11999
  Beta virt. eigenvalues --   -0.06970  -0.05916  -0.04979  -0.04481  -0.02584
  Beta virt. eigenvalues --   -0.02210  -0.01710  -0.01520  -0.01092  -0.00493
  Beta virt. eigenvalues --   -0.00188   0.00126   0.00373   0.00786   0.00879

 Mulliken charges and spin densities:
               1          2
     1  Na   0.189430   0.116804
     2  Na  -0.269217   0.517983
     3  Na  -0.006686   0.328741
     4  Na   0.110805   0.012174
     5  Na  -0.052857  -0.032552
     6  Na   0.060452   0.132275
     7  Na  -0.031928  -0.075425
 Sum of Mulliken charges =  -0.00000   1.00000

 Dipole moment (field-independent basis, Debye):
    X=              0.0474    Y=             -0.5205    Z=              0.2271  Tot=              0.5699
 Quadrupole moment (field-independent basis, Debye-Ang):
   XX=            -56.7878   YY=            -62.7606   ZZ=            -73.8205
   XY=             -1.6322   XZ=             -0.9108   YZ=              0.8798

 Normal termination of Gaussian 16 at Thu Dec  7 06:11:25 2023.
