 Gaussian 16, Revision B.01,
 Gaussian 16:  ES64L-G16RevB.01 20-Dec-2017

 -------------------------
 #P B3LYP/6-311+g(d) force
 -------------------------

 -----
 DPGEN
 -----
 Symbolic Z-matrix:
 Charge =  0 Multiplicity = 2

                         Standard orientation:
 ---------------------------------------------------------------------
 Center     Atomic      Atomic             Coordinates (Angstroms)
 Number     Number       Type             X           Y           Z
 ---------------------------------------------------------------------
      1         11           0        3.952439   -1.298819   -0.562477
      2         11           0        1.734012   -0.481287    1.626235
      3         11           0        1.626268    2.460689   -0.505528
      4         11           0       -2.160204   -1.325191    1.452908
      5         11           0       -1.349756    1.935114    0.718077
      6         11           0       -4.013054   -0.470469   -1.161902
      7         11           0        0.210295   -0.820039   -1.567314
 ---------------------------------------------------------------------

 SCF Done:  E(UB3LYP) =  -1136.12297424     A.U. after   23 cycles

 The electronic state is 2-A.
 Alpha  occ. eigenvalues --  -38.45521 -38.44621 -38.44044 -38.44007 -38.43979
 Alpha  occ. eigenvalues --  -38.43121 -38.43002  -2.21310  -2.20413  -2.19861
 Alpha  occ. eigenvalues --   -2.19852  -2.19838  -2.18975  -2.18843  -1.15022
 Alpha  occ. eigenvalues --   -1.14969  -1.14907  -1.14076  -1.14072  -1.14043
 Alpha  occ. eigenvalues --   -1.13570  -1.13548  -1.13532  -1.13528  -1.13502
 Alpha  occ. eigenvalues --   -1.13493  -1.13477  -1.13476  -1.13418  -1.12662
 Alpha  occ. eigenvalues --   -1.12656  -1.12619  -1.12513  -1.12490  -1.12462
 Alpha  occ. eigenvalues --   -0.17936  -0.13901  -0.11130  -0.10859
 Alpha virt. eigenvalues --   -0.06985  -0.05239  -0.04926  -0.03142  -0.02800
 Alpha virt. eigenvalues --   -0.02349  -0.02290  -0.01473  -0.00972  -0.00287
 Alpha virt. eigenvalues --    0.00026   0.00170   0.00333   0.00429   0.00602

  Beta  occ. eigenvalues --  -38.45485 -38.44594 -38.44046 -38.43967 -38.43935
  Beta  occ. eigenvalues --  -38.43113 -38.42989  -2.21246  -2.20362  -2.19844
  Beta  occ. eigenvalues --   -2.19788  -2.19771  -2.18964  -2.18820  -1.14965
  Beta  occ. eigenvalues --   -1.14922  -1.14861  -1.14039  -1.14035  -1.14009
  Beta  occ. eigenvalues --   -1.13553  -1.13503  -1.13495  -1.13485  -1.13482
  Beta  occ. eigenvalues --   -1.13474  -1.13435  -1.13401  -1.13372  -1.12657
  Beta  occ. eigenvalues --   -1.12623  -1.12612  -1.12489  -1.12477  -1.12449
  Beta  occ. eigenvalues --   -0.17241  -0.13748  -0.11008
  Beta virt. eigenvalues --   -0.07107  -0.06708  -0.05023  -0.04419  -0.02976
  Beta virt. eigenvalues --   -0.02584  -0.01861  -0.01640  -0.01155  -0.00693
  Beta virt. eigenvalues --   -0.00218   0.00066   0.00326   0.00407   0.00564

 Mulliken charges and spin densities:
               1          2
     1  Na   0.413341  -0.006374
     2  Na  -0.173549   0.190199
     3  Na  -0.003815  -0.008347
     4  Na   0.235560   0.150457
     5  Na  -0.159291   0.136535
     6  Na   0.227782   0.137481
     7  Na  -0.540027   0.400050
 Sum of Mulliken charges =  -0.00000   1.00000

 Dipole moment (field-independent basis, Debye):
    X=             -0.1903    Y=             -0.0724    Z=             -0.4705  Tot=              0.5127
 Quadrupole moment (field-independent basis, Debye-Ang):
   XX=            -51.9924   YY=            -75.7721   ZZ=            -68.6895
   XY=              0.5854   XZ=             -0.4015   YZ=             -0.0065

 Normal termination of Gaussian 16 at Tue Dec  5 10:27:31 2023.
