 Gaussian 16, Revision B.01,
 Gaussian 16:  ES64L-G16RevB.01 20-Dec-2017

 -------------------------
 #P B3LYP/6-311+g(d) force
 -------------------------

 -----
 DPGEN
 -----
 Symbolic Z-matrix:
 Charge =  0 Multiplicity = 2

                         Standard orientation:
 ---------------------------------------------------------------------
 Center     Atomic      Atomic             Coordinates (Angstroms)
 Number     Number       Type             X           Y           Z
 ---------------------------------------------------------------------
      1         11           0        2.786522   -1.559614    0.246665
      2         11           0        2.003193    0.594912   -1.845321
      3         11           0        1.189452    2.433348    1.631042
      4         11           0       -0.475575   -0.861945    1.864599
      5         11           0       -1.644743    2.084869   -1.149951
      6         11           0       -0.326614   -1.942925   -0.803016
      7         11           0       -3.532234   -0.748645    0.055982
 ---------------------------------------------------------------------

 SCF Done:  E(UB3LYP) =  -1136.12625569     A.U. after   20 cycles

 The electronic state is 2-A.
 Alpha  occ. eigenvalues --  -38.44137 -38.44034 -38.44012 -38.43961 -38.43932
 Alpha  occ. eigenvalues --  -38.43750 -38.43562  -2.19945  -2.19929  -2.19884
 Alpha  occ. eigenvalues --   -2.19824  -2.19711  -2.19520  -2.19500  -1.13736
 Alpha  occ. eigenvalues --   -1.13633  -1.13624  -1.13596  -1.13591  -1.13560
 Alpha  occ. eigenvalues --   -1.13551  -1.13520  -1.13499  -1.13472  -1.13462
 Alpha  occ. eigenvalues --   -1.13431  -1.13379  -1.13357  -1.13330  -1.13202
 Alpha  occ. eigenvalues --   -1.13196  -1.13181  -1.13149  -1.13148  -1.13070
 Alpha  occ. eigenvalues --   -0.18110  -0.13189  -0.11774  -0.11441
 Alpha virt. eigenvalues --   -0.05817  -0.05211  -0.04428  -0.03462  -0.03275
 Alpha virt. eigenvalues --   -0.02876  -0.01770  -0.00846  -0.00518  -0.00095
 Alpha virt. eigenvalues --    0.00171   0.00318   0.00487   0.00738   0.00842

  Beta  occ. eigenvalues --  -38.44136 -38.43990 -38.43960 -38.43947 -38.43877
  Beta  occ. eigenvalues --  -38.43736 -38.43550  -2.19944  -2.19828  -2.19811
  Beta  occ. eigenvalues --   -2.19802  -2.19611  -2.19494  -2.19479  -1.13664
  Beta  occ. eigenvalues --   -1.13618  -1.13602  -1.13593  -1.13586  -1.13503
  Beta  occ. eigenvalues --   -1.13476  -1.13465  -1.13461  -1.13441  -1.13429
  Beta  occ. eigenvalues --   -1.13396  -1.13301  -1.13290  -1.13262  -1.13178
  Beta  occ. eigenvalues --   -1.13172  -1.13164  -1.13130  -1.13113  -1.13058
  Beta  occ. eigenvalues --   -0.17412  -0.12969  -0.11487
  Beta virt. eigenvalues --   -0.07638  -0.05681  -0.05020  -0.03950  -0.03168
  Beta virt. eigenvalues --   -0.02734  -0.01955  -0.01725  -0.00753  -0.00210
  Beta virt. eigenvalues --   -0.00025   0.00207   0.00365   0.00630   0.00818

 Mulliken charges and spin densities:
               1          2
     1  Na   0.624424  -0.059050
     2  Na  -0.294621   0.160983
     3  Na  -0.161327   0.207996
     4  Na  -0.202936   0.259642
     5  Na  -0.424523   0.046198
     6  Na   0.016347   0.385867
     7  Na   0.442636  -0.001636
 Sum of Mulliken charges =  -0.00000   1.00000

 Dipole moment (field-independent basis, Debye):
    X=             -0.0918    Y=             -0.2608    Z=              0.0226  Tot=              0.2775
 Quadrupole moment (field-independent basis, Debye-Ang):
   XX=            -55.4234   YY=            -72.5246   ZZ=            -67.6132
   XY=             -0.2161   XZ=              1.3711   YZ=              0.4948

 Normal termination of Gaussian 16 at Sat Dec  9 07:11:47 2023.
