 Gaussian 16, Revision B.01,
 Gaussian 16:  ES64L-G16RevB.01 20-Dec-2017

 -------------------------
 #P B3LYP/6-311+g(d) force
 -------------------------

 -----
 DPGEN
 -----
 Symbolic Z-matrix:
 Charge =  0 Multiplicity = 2

                         Standard orientation:
 ---------------------------------------------------------------------
 Center     Atomic      Atomic             Coordinates (Angstroms)
 Number     Number       Type             X           Y           Z
 ---------------------------------------------------------------------
      1         11           0       -1.278681    2.048220   -0.189627
      2         11           0        5.612560    0.093819    0.307557
      3         11           0        2.653871    1.621717   -0.527805
      4         11           0        2.826509   -2.100401   -0.092934
      5         11           0       -0.406965   -1.253402   -0.127985
      6         11           0       -3.400657    0.288907    1.316822
      7         11           0       -6.006637   -0.698862   -0.686028
 ---------------------------------------------------------------------

 SCF Done:  E(UB3LYP) =  -1136.11558242     A.U. after   22 cycles

 The electronic state is 2-A.
 Alpha  occ. eigenvalues --  -38.44927 -38.44536 -38.44267 -38.44137 -38.44055
 Alpha  occ. eigenvalues --  -38.43957 -38.43791  -2.20726  -2.20376  -2.20120
 Alpha  occ. eigenvalues --   -2.19987  -2.19863  -2.19811  -2.19525  -1.14423
 Alpha  occ. eigenvalues --   -1.14393  -1.14323  -1.14055  -1.14048  -1.13979
 Alpha  occ. eigenvalues --   -1.13803  -1.13774  -1.13751  -1.13694  -1.13642
 Alpha  occ. eigenvalues --   -1.13604  -1.13523  -1.13521  -1.13496  -1.13485
 Alpha  occ. eigenvalues --   -1.13463  -1.13403  -1.13206  -1.13205  -1.13171
 Alpha  occ. eigenvalues --   -0.16989  -0.14485  -0.11731  -0.11050
 Alpha virt. eigenvalues --   -0.06824  -0.05509  -0.04548  -0.03744  -0.03198
 Alpha virt. eigenvalues --   -0.02462  -0.02065  -0.01563  -0.00883  -0.00696
 Alpha virt. eigenvalues --   -0.00348  -0.00046   0.00160   0.00296   0.00565

  Beta  occ. eigenvalues --  -38.44879 -38.44470 -38.44215 -38.44109 -38.44025
  Beta  occ. eigenvalues --  -38.43945 -38.43831  -2.20638  -2.20260  -2.20029
  Beta  occ. eigenvalues --   -2.19934  -2.19807  -2.19785  -2.19601  -1.14365
  Beta  occ. eigenvalues --   -1.14332  -1.14244  -1.13974  -1.13970  -1.13874
  Beta  occ. eigenvalues --   -1.13745  -1.13708  -1.13678  -1.13647  -1.13600
  Beta  occ. eigenvalues --   -1.13567  -1.13484  -1.13475  -1.13468  -1.13453
  Beta  occ. eigenvalues --   -1.13443  -1.13404  -1.13258  -1.13257  -1.13217
  Beta  occ. eigenvalues --   -0.16284  -0.14231  -0.11093
  Beta virt. eigenvalues --   -0.07639  -0.06671  -0.04911  -0.04354  -0.03555
  Beta virt. eigenvalues --   -0.02464  -0.02078  -0.01790  -0.01501  -0.00676
  Beta virt. eigenvalues --   -0.00411  -0.00225   0.00052   0.00321   0.00425

 Mulliken charges and spin densities:
               1          2
     1  Na   0.063532   0.296146
     2  Na   0.580624   0.117010
     3  Na  -0.421385   0.199597
     4  Na  -0.137957  -0.034864
     5  Na  -0.412358   0.470449
     6  Na   0.206864   0.164278
     7  Na   0.120680  -0.212616
 Sum of Mulliken charges =  -0.00000   1.00000

 Dipole moment (field-independent basis, Debye):
    X=              1.4816    Y=              0.2126    Z=             -0.1433  Tot=              1.5036
 Quadrupole moment (field-independent basis, Debye-Ang):
   XX=            -67.0722   YY=            -67.2866   ZZ=            -68.9066
   XY=             -1.8487   XZ=              3.9814   YZ=              0.3117

 Normal termination of Gaussian 16 at Wed Nov 29 00:32:56 2023.
