 Gaussian 16, Revision B.01,
 Gaussian 16:  ES64L-G16RevB.01 20-Dec-2017

 -------------------------
 #P B3LYP/6-311+g(d) force
 -------------------------

 -----
 DPGEN
 -----
 Symbolic Z-matrix:
 Charge =  0 Multiplicity = 2

                         Standard orientation:
 ---------------------------------------------------------------------
 Center     Atomic      Atomic             Coordinates (Angstroms)
 Number     Number       Type             X           Y           Z
 ---------------------------------------------------------------------
      1         11           0        0.149490    0.155696    2.354541
      2         11           0        1.209855   -2.403418    0.359588
      3         11           0       -2.730745   -1.939069   -0.067257
      4         11           0        3.445861   -0.138561   -0.701198
      5         11           0       -2.488523    1.312413   -0.508315
      6         11           0        0.440785    3.023167    0.304112
      7         11           0       -0.026723   -0.010228   -1.741471
 ---------------------------------------------------------------------

 SCF Done:  E(UB3LYP) =  -1136.13239787     A.U. after   21 cycles

 The electronic state is 2-A.
 Alpha  occ. eigenvalues --  -38.44392 -38.44385 -38.43918 -38.43616 -38.43590
 Alpha  occ. eigenvalues --  -38.43428 -38.43106  -2.20236  -2.20179  -2.19849
 Alpha  occ. eigenvalues --   -2.19512  -2.19395  -2.19286  -2.18922  -1.13889
 Alpha  occ. eigenvalues --   -1.13864  -1.13853  -1.13847  -1.13831  -1.13818
 Alpha  occ. eigenvalues --   -1.13568  -1.13521  -1.13458  -1.13203  -1.13179
 Alpha  occ. eigenvalues --   -1.13131  -1.13064  -1.13037  -1.13032  -1.12976
 Alpha  occ. eigenvalues --   -1.12962  -1.12899  -1.12595  -1.12579  -1.12569
 Alpha  occ. eigenvalues --   -0.18222  -0.13026  -0.11991  -0.11390
 Alpha virt. eigenvalues --   -0.05766  -0.04882  -0.04573  -0.03404  -0.03107
 Alpha virt. eigenvalues --   -0.03019  -0.01732  -0.01040  -0.00312  -0.00109
 Alpha virt. eigenvalues --   -0.00053   0.00321   0.00736   0.00853   0.00884

  Beta  occ. eigenvalues --  -38.44367 -38.44283 -38.43865 -38.43605 -38.43594
  Beta  occ. eigenvalues --  -38.43418 -38.43103  -2.20147  -2.20036  -2.19751
  Beta  occ. eigenvalues --   -2.19495  -2.19405  -2.19271  -2.18920  -1.13815
  Beta  occ. eigenvalues --   -1.13809  -1.13798  -1.13756  -1.13729  -1.13705
  Beta  occ. eigenvalues --   -1.13502  -1.13452  -1.13389  -1.13180  -1.13165
  Beta  occ. eigenvalues --   -1.13119  -1.13066  -1.13042  -1.13030  -1.12967
  Beta  occ. eigenvalues --   -1.12930  -1.12884  -1.12587  -1.12571  -1.12566
  Beta  occ. eigenvalues --   -0.17499  -0.12763  -0.11800
  Beta virt. eigenvalues --   -0.07458  -0.05631  -0.04848  -0.04417  -0.02708
  Beta virt. eigenvalues --   -0.02323  -0.02130  -0.01594  -0.00976  -0.00289
  Beta virt. eigenvalues --   -0.00090   0.00052   0.00364   0.00826   0.00885

 Mulliken charges and spin densities:
               1          2
     1  Na  -0.383200   0.564091
     2  Na   0.077619   0.099527
     3  Na  -0.062482  -0.034231
     4  Na   0.139960   0.029996
     5  Na   0.371762   0.038974
     6  Na  -0.004905   0.002587
     7  Na  -0.138755   0.299055
 Sum of Mulliken charges =  -0.00000   1.00000

 Dipole moment (field-independent basis, Debye):
    X=              0.3732    Y=             -0.0183    Z=              0.1167  Tot=              0.3915
 Quadrupole moment (field-independent basis, Debye-Ang):
   XX=            -57.8745   YY=            -66.5178   ZZ=            -70.9402
   XY=              1.7410   XZ=             -1.2302   YZ=             -0.8733

 Normal termination of Gaussian 16 at Tue Dec  5 19:59:40 2023.
