 Gaussian 16, Revision B.01,
 Gaussian 16:  ES64L-G16RevB.01 20-Dec-2017

 -------------------------
 #P B3LYP/6-311+g(d) force
 -------------------------

 -----
 DPGEN
 -----
 Symbolic Z-matrix:
 Charge =  0 Multiplicity = 2

                         Standard orientation:
 ---------------------------------------------------------------------
 Center     Atomic      Atomic             Coordinates (Angstroms)
 Number     Number       Type             X           Y           Z
 ---------------------------------------------------------------------
      1         11           0       -1.273725   -1.991663   -0.144533
      2         11           0        2.670951    2.178730   -0.440810
      3         11           0       -0.274524    0.472945   -1.407543
      4         11           0        2.426153   -1.261016   -1.084326
      5         11           0       -0.695987    1.287631    1.909234
      6         11           0       -4.226625    0.594143   -0.528876
      7         11           0        1.373757   -1.280769    1.696854
 ---------------------------------------------------------------------

 SCF Done:  E(UB3LYP) =  -1136.11860437     A.U. after   25 cycles

 The electronic state is 2-A.
 Alpha  occ. eigenvalues --  -38.45203 -38.44619 -38.44105 -38.44016 -38.43499
 Alpha  occ. eigenvalues --  -38.43319 -38.42950  -2.20934  -2.20465  -2.20029
 Alpha  occ. eigenvalues --   -2.19978  -2.19446  -2.19222  -2.18752  -1.14611
 Alpha  occ. eigenvalues --   -1.14603  -1.14547  -1.14154  -1.14103  -1.14060
 Alpha  occ. eigenvalues --   -1.13772  -1.13760  -1.13705  -1.13649  -1.13598
 Alpha  occ. eigenvalues --   -1.13550  -1.13132  -1.13096  -1.13051  -1.12958
 Alpha  occ. eigenvalues --   -1.12881  -1.12774  -1.12424  -1.12414  -1.12399
 Alpha  occ. eigenvalues --   -0.18741  -0.13193  -0.11869  -0.11146
 Alpha virt. eigenvalues --   -0.06790  -0.04774  -0.04028  -0.03218  -0.02856
 Alpha virt. eigenvalues --   -0.02710  -0.02489  -0.01038  -0.00700  -0.00055
 Alpha virt. eigenvalues --    0.00132   0.00236   0.00436   0.00673   0.00835

  Beta  occ. eigenvalues --  -38.45197 -38.44528 -38.44076 -38.43980 -38.43456
  Beta  occ. eigenvalues --  -38.43306 -38.42954  -2.20923  -2.20301  -2.19977
  Beta  occ. eigenvalues --   -2.19917  -2.19370  -2.19202  -2.18761  -1.14603
  Beta  occ. eigenvalues --   -1.14593  -1.14541  -1.14043  -1.13973  -1.13948
  Beta  occ. eigenvalues --   -1.13739  -1.13712  -1.13664  -1.13585  -1.13562
  Beta  occ. eigenvalues --   -1.13505  -1.13065  -1.13048  -1.12989  -1.12939
  Beta  occ. eigenvalues --   -1.12845  -1.12763  -1.12431  -1.12412  -1.12401
  Beta  occ. eigenvalues --   -0.17927  -0.12981  -0.11014
  Beta virt. eigenvalues --   -0.07729  -0.06613  -0.04670  -0.03505  -0.02889
  Beta virt. eigenvalues --   -0.02388  -0.02175  -0.01938  -0.00944  -0.00382
  Beta virt. eigenvalues --   -0.00012   0.00152   0.00271   0.00554   0.00745

 Mulliken charges and spin densities:
               1          2
     1  Na  -0.040130  -0.043913
     2  Na  -0.295678  -0.054378
     3  Na  -0.429381   0.380625
     4  Na   0.438485   0.073431
     5  Na  -0.319635   0.332396
     6  Na   0.183034   0.027118
     7  Na   0.463305   0.284721
 Sum of Mulliken charges =  -0.00000   1.00000

 Dipole moment (field-independent basis, Debye):
    X=             -0.9617    Y=             -0.0884    Z=              0.1938  Tot=              0.9850
 Quadrupole moment (field-independent basis, Debye-Ang):
   XX=            -50.9003   YY=            -73.7782   ZZ=            -68.2181
   XY=             -2.5469   XZ=              0.4767   YZ=              2.8581

 Normal termination of Gaussian 16 at Thu Dec  7 14:47:50 2023.
