 Gaussian 16, Revision B.01,
 Gaussian 16:  ES64L-G16RevB.01 20-Dec-2017

 -------------------------
 #P B3LYP/6-311+g(d) force
 -------------------------

 -----
 DPGEN
 -----
 Symbolic Z-matrix:
 Charge =  0 Multiplicity = 2

                         Standard orientation:
 ---------------------------------------------------------------------
 Center     Atomic      Atomic             Coordinates (Angstroms)
 Number     Number       Type             X           Y           Z
 ---------------------------------------------------------------------
      1         11           0       -4.539276    1.073146    0.964872
      2         11           0       -4.439266   -1.624114   -0.780300
      3         11           0       -0.209214   -1.205337   -0.655028
      4         11           0       -0.571945    2.345466    0.175237
      5         11           0        2.494768    1.635685   -0.838417
      6         11           0        2.286156   -2.134388    0.992868
      7         11           0        4.978778   -0.090459    0.140767
 ---------------------------------------------------------------------

 SCF Done:  E(UB3LYP) =  -1136.11140138     A.U. after   24 cycles

 The electronic state is 2-A.
 Alpha  occ. eigenvalues --  -38.45276 -38.44910 -38.44559 -38.44249 -38.43905
 Alpha  occ. eigenvalues --  -38.43872 -38.42556  -2.21054  -2.20757  -2.20330
 Alpha  occ. eigenvalues --   -2.20078  -2.19768  -2.19717  -2.18368  -1.14717
 Alpha  occ. eigenvalues --   -1.14702  -1.14691  -1.14458  -1.14401  -1.14350
 Alpha  occ. eigenvalues --   -1.13997  -1.13992  -1.13978  -1.13764  -1.13740
 Alpha  occ. eigenvalues --   -1.13695  -1.13485  -1.13451  -1.13415  -1.13359
 Alpha  occ. eigenvalues --   -1.13328  -1.13316  -1.12040  -1.12024  -1.12018
 Alpha  occ. eigenvalues --   -0.16815  -0.14207  -0.11856  -0.11168
 Alpha virt. eigenvalues --   -0.07087  -0.04796  -0.04652  -0.03752  -0.03300
 Alpha virt. eigenvalues --   -0.02231  -0.02000  -0.01601  -0.01199  -0.00735
 Alpha virt. eigenvalues --   -0.00203  -0.00032   0.00288   0.00497   0.00565

  Beta  occ. eigenvalues --  -38.45248 -38.44825 -38.44568 -38.44218 -38.43866
  Beta  occ. eigenvalues --  -38.43812 -38.42554  -2.21000  -2.20603  -2.20348
  Beta  occ. eigenvalues --   -2.20026  -2.19701  -2.19606  -2.18364  -1.14680
  Beta  occ. eigenvalues --   -1.14667  -1.14654  -1.14343  -1.14301  -1.14234
  Beta  occ. eigenvalues --   -1.14010  -1.13999  -1.13987  -1.13713  -1.13710
  Beta  occ. eigenvalues --   -1.13644  -1.13418  -1.13404  -1.13361  -1.13285
  Beta  occ. eigenvalues --   -1.13255  -1.13246  -1.12037  -1.12019  -1.12015
  Beta  occ. eigenvalues --   -0.16009  -0.13819  -0.11076
  Beta virt. eigenvalues --   -0.07983  -0.06833  -0.04495  -0.04265  -0.03462
  Beta virt. eigenvalues --   -0.02800  -0.01928  -0.01888  -0.01282  -0.00815
  Beta virt. eigenvalues --   -0.00483  -0.00160   0.00063   0.00397   0.00545

 Mulliken charges and spin densities:
               1          2
     1  Na   0.086355   0.118836
     2  Na   0.046190  -0.012723
     3  Na  -1.215453   0.301903
     4  Na   0.011630  -0.113448
     5  Na   0.206066   0.491997
     6  Na   0.851508   0.092412
     7  Na   0.013705   0.121023
 Sum of Mulliken charges =  -0.00000   1.00000

 Dipole moment (field-independent basis, Debye):
    X=             -0.9235    Y=             -0.3110    Z=              0.2645  Tot=              1.0097
 Quadrupole moment (field-independent basis, Debye-Ang):
   XX=            -63.2029   YY=            -69.5140   ZZ=            -67.0097
   XY=             -1.2780   XZ=             -1.3934   YZ=              4.2552

 Normal termination of Gaussian 16 at Mon Dec  4 03:26:54 2023.
