 Gaussian 16, Revision B.01,
 Gaussian 16:  ES64L-G16RevB.01 20-Dec-2017

 -------------------------
 #P B3LYP/6-311+g(d) force
 -------------------------

 -----
 DPGEN
 -----
 Symbolic Z-matrix:
 Charge =  0 Multiplicity = 2

                         Standard orientation:
 ---------------------------------------------------------------------
 Center     Atomic      Atomic             Coordinates (Angstroms)
 Number     Number       Type             X           Y           Z
 ---------------------------------------------------------------------
      1         11           0       -0.699828   -0.892096   -1.486697
      2         11           0        0.827273    1.994615   -0.834013
      3         11           0       -3.197173   -1.470250    0.481862
      4         11           0        2.071713   -2.279489   -0.604662
      5         11           0       -2.476337    2.044186   -0.208601
      6         11           0       -0.092057   -0.180084    2.058860
      7         11           0        3.566408    0.783118    0.593251
 ---------------------------------------------------------------------

 SCF Done:  E(UB3LYP) =  -1136.12568843     A.U. after   22 cycles

 The electronic state is 2-A.
 Alpha  occ. eigenvalues --  -38.44898 -38.44789 -38.44556 -38.43839 -38.43711
 Alpha  occ. eigenvalues --  -38.43159 -38.42750  -2.20694  -2.20607  -2.20372
 Alpha  occ. eigenvalues --   -2.19663  -2.19528  -2.19117  -2.18639  -1.14368
 Alpha  occ. eigenvalues --   -1.14348  -1.14326  -1.14290  -1.14248  -1.14215
 Alpha  occ. eigenvalues --   -1.14056  -1.14019  -1.14010  -1.13335  -1.13329
 Alpha  occ. eigenvalues --   -1.13302  -1.13229  -1.13180  -1.13156  -1.12811
 Alpha  occ. eigenvalues --   -1.12766  -1.12727  -1.12335  -1.12300  -1.12263
 Alpha  occ. eigenvalues --   -0.18300  -0.13656  -0.11485  -0.10946
 Alpha virt. eigenvalues --   -0.06763  -0.05624  -0.04038  -0.03282  -0.02643
 Alpha virt. eigenvalues --   -0.02549  -0.02349  -0.01399  -0.00595  -0.00253
 Alpha virt. eigenvalues --    0.00122   0.00196   0.00361   0.00632   0.00699

  Beta  occ. eigenvalues --  -38.44885 -38.44716 -38.44549 -38.43836 -38.43692
  Beta  occ. eigenvalues --  -38.43100 -38.42732  -2.20671  -2.20472  -2.20360
  Beta  occ. eigenvalues --   -2.19661  -2.19497  -2.19011  -2.18609  -1.14352
  Beta  occ. eigenvalues --   -1.14326  -1.14311  -1.14197  -1.14158  -1.14112
  Beta  occ. eigenvalues --   -1.14044  -1.14009  -1.13995  -1.13332  -1.13319
  Beta  occ. eigenvalues --   -1.13297  -1.13195  -1.13155  -1.13134  -1.12743
  Beta  occ. eigenvalues --   -1.12682  -1.12644  -1.12314  -1.12262  -1.12238
  Beta  occ. eigenvalues --   -0.17600  -0.13456  -0.11191
  Beta virt. eigenvalues --   -0.07182  -0.06492  -0.05639  -0.03574  -0.03007
  Beta virt. eigenvalues --   -0.02242  -0.01898  -0.01601  -0.01318  -0.00505
  Beta virt. eigenvalues --   -0.00114   0.00128   0.00233   0.00516   0.00709

 Mulliken charges and spin densities:
               1          2
     1  Na   0.200891   0.265753
     2  Na  -0.434850  -0.066344
     3  Na   0.256240   0.078324
     4  Na  -0.221073   0.018711
     5  Na   0.157573   0.010492
     6  Na  -0.363196   0.522516
     7  Na   0.404416   0.170548
 Sum of Mulliken charges =  -0.00000   1.00000

 Dipole moment (field-independent basis, Debye):
    X=             -0.0740    Y=             -0.1082    Z=              0.6438  Tot=              0.6570
 Quadrupole moment (field-independent basis, Debye-Ang):
   XX=            -47.6057   YY=            -72.9966   ZZ=            -72.5660
   XY=              0.0485   XZ=              0.3766   YZ=             -0.0771

 Normal termination of Gaussian 16 at Fri Dec  8 00:20:24 2023.
