 Gaussian 16, Revision B.01,
 Gaussian 16:  ES64L-G16RevB.01 20-Dec-2017

 -------------------------
 #P B3LYP/6-311+g(d) force
 -------------------------

 -----
 DPGEN
 -----
 Symbolic Z-matrix:
 Charge =  0 Multiplicity = 2

                         Standard orientation:
 ---------------------------------------------------------------------
 Center     Atomic      Atomic             Coordinates (Angstroms)
 Number     Number       Type             X           Y           Z
 ---------------------------------------------------------------------
      1         11           0       -0.226718    0.910380    0.961650
      2         11           0        6.554759    0.118347    0.954261
      3         11           0        4.064708    0.144408   -0.904292
      4         11           0        0.985855   -2.300337   -0.531157
      5         11           0       -2.926814   -1.022607   -0.557145
      6         11           0       -2.189870    2.843883   -0.733805
      7         11           0       -6.261920   -0.694074    0.810487
 ---------------------------------------------------------------------

 SCF Done:  E(UB3LYP) =  -1136.10491974     A.U. after   24 cycles

 The electronic state is 2-A.
 Alpha  occ. eigenvalues --  -38.45887 -38.45035 -38.44771 -38.44358 -38.43762
 Alpha  occ. eigenvalues --  -38.43761 -38.43754  -2.21697  -2.20846  -2.20553
 Alpha  occ. eigenvalues --   -2.20146  -2.19559  -2.19542  -2.19510  -1.15351
 Alpha  occ. eigenvalues --   -1.15335  -1.15301  -1.14534  -1.14513  -1.14477
 Alpha  occ. eigenvalues --   -1.14218  -1.14191  -1.14171  -1.13855  -1.13823
 Alpha  occ. eigenvalues --   -1.13738  -1.13306  -1.13237  -1.13216  -1.13192
 Alpha  occ. eigenvalues --   -1.13189  -1.13177  -1.13173  -1.13135  -1.13111
 Alpha  occ. eigenvalues --   -0.16537  -0.13558  -0.11989  -0.11344
 Alpha virt. eigenvalues --   -0.06419  -0.06107  -0.04756  -0.03383  -0.03012
 Alpha virt. eigenvalues --   -0.02683  -0.02140  -0.01763  -0.01201  -0.00933
 Alpha virt. eigenvalues --   -0.00797  -0.00523  -0.00040   0.00300   0.00457

  Beta  occ. eigenvalues --  -38.45792 -38.45028 -38.44708 -38.44341 -38.43762
  Beta  occ. eigenvalues --  -38.43745 -38.43740  -2.21521  -2.20840  -2.20437
  Beta  occ. eigenvalues --   -2.20114  -2.19561  -2.19526  -2.19468  -1.15224
  Beta  occ. eigenvalues --   -1.15218  -1.15183  -1.14525  -1.14517  -1.14439
  Beta  occ. eigenvalues --   -1.14138  -1.14109  -1.14095  -1.13834  -1.13795
  Beta  occ. eigenvalues --   -1.13713  -1.13300  -1.13238  -1.13215  -1.13182
  Beta  occ. eigenvalues --   -1.13180  -1.13149  -1.13144  -1.13106  -1.13104
  Beta  occ. eigenvalues --   -0.15828  -0.13216  -0.10833
  Beta virt. eigenvalues --   -0.08559  -0.06110  -0.05769  -0.04362  -0.03162
  Beta virt. eigenvalues --   -0.02589  -0.02443  -0.01767  -0.01428  -0.01127
  Beta virt. eigenvalues --   -0.00742  -0.00471  -0.00389   0.00125   0.00362

 Mulliken charges and spin densities:
               1          2
     1  Na  -0.432202   0.147500
     2  Na   0.161568   0.029393
     3  Na  -0.302792  -0.020999
     4  Na   0.238566   0.297032
     5  Na  -0.277315   0.232374
     6  Na   0.409354   0.293275
     7  Na   0.202822   0.021425
 Sum of Mulliken charges =  -0.00000   1.00000

 Dipole moment (field-independent basis, Debye):
    X=             -0.1398    Y=              0.9838    Z=             -0.0344  Tot=              0.9942
 Quadrupole moment (field-independent basis, Debye-Ang):
   XX=            -78.2994   YY=            -64.5768   ZZ=            -66.3435
   XY=             -7.0510   XZ=              3.6978   YZ=             -0.6250

 Normal termination of Gaussian 16 at Tue Nov 28 22:22:12 2023.
