 Gaussian 16, Revision B.01,
 Gaussian 16:  ES64L-G16RevB.01 20-Dec-2017

 -------------------------
 #P B3LYP/6-311+g(d) force
 -------------------------

 -----
 DPGEN
 -----
 Symbolic Z-matrix:
 Charge =  0 Multiplicity = 2

                         Standard orientation:
 ---------------------------------------------------------------------
 Center     Atomic      Atomic             Coordinates (Angstroms)
 Number     Number       Type             X           Y           Z
 ---------------------------------------------------------------------
      1         11           0        0.612768    2.814512   -0.332624
      2         11           0        1.262844   -2.446083   -0.169995
      3         11           0        0.008616    0.045714    1.738882
      4         11           0        0.151696   -0.207679   -1.738134
      5         11           0        3.087890    0.252836    0.346199
      6         11           0       -2.387959   -1.844860    0.069135
      7         11           0       -2.735855    1.385560    0.086536
 ---------------------------------------------------------------------

 SCF Done:  E(UB3LYP) =  -1136.13775353     A.U. after   20 cycles

 The electronic state is 2-A.
 Alpha  occ. eigenvalues --  -38.44050 -38.43877 -38.43615 -38.43240 -38.43222
 Alpha  occ. eigenvalues --  -38.43158 -38.43157  -2.19915  -2.19727  -2.19480
 Alpha  occ. eigenvalues --   -2.19202  -2.19181  -2.19157  -2.19009  -1.13594
 Alpha  occ. eigenvalues --   -1.13575  -1.13553  -1.13413  -1.13398  -1.13367
 Alpha  occ. eigenvalues --   -1.13150  -1.13148  -1.13114  -1.13035  -1.12909
 Alpha  occ. eigenvalues --   -1.12854  -1.12823  -1.12818  -1.12790  -1.12788
 Alpha  occ. eigenvalues --   -1.12754  -1.12727  -1.12673  -1.12668  -1.12636
 Alpha  occ. eigenvalues --   -0.19104  -0.13331  -0.12432  -0.10717
 Alpha virt. eigenvalues --   -0.05671  -0.05114  -0.04508  -0.03241  -0.02800
 Alpha virt. eigenvalues --   -0.02340  -0.01613  -0.01046  -0.00268  -0.00177
 Alpha virt. eigenvalues --    0.00029   0.00359   0.00818   0.00911   0.00918

  Beta  occ. eigenvalues --  -38.44039 -38.43875 -38.43611 -38.43229 -38.43149
  Beta  occ. eigenvalues --  -38.43149 -38.43076  -2.19899  -2.19725  -2.19476
  Beta  occ. eigenvalues --   -2.19159  -2.19068  -2.19015  -2.18997  -1.13580
  Beta  occ. eigenvalues --   -1.13553  -1.13537  -1.13414  -1.13385  -1.13359
  Beta  occ. eigenvalues --   -1.13148  -1.13131  -1.13104  -1.12984  -1.12829
  Beta  occ. eigenvalues --   -1.12787  -1.12774  -1.12737  -1.12719  -1.12712
  Beta  occ. eigenvalues --   -1.12683  -1.12651  -1.12644  -1.12631  -1.12616
  Beta  occ. eigenvalues --   -0.18378  -0.13065  -0.12155
  Beta virt. eigenvalues --   -0.06802  -0.05621  -0.05127  -0.04488  -0.02441
  Beta virt. eigenvalues --   -0.02014  -0.01512  -0.01293  -0.00991  -0.00303
  Beta virt. eigenvalues --   -0.00226   0.00146   0.00384   0.00869   0.00900

 Mulliken charges and spin densities:
               1          2
     1  Na  -0.025613  -0.082444
     2  Na   0.367892  -0.059644
     3  Na  -0.321775   0.638857
     4  Na  -0.303985   0.672504
     5  Na   0.161804   0.009549
     6  Na   0.111338  -0.096586
     7  Na   0.010339  -0.082236
 Sum of Mulliken charges =  -0.00000   1.00000

 Dipole moment (field-independent basis, Debye):
    X=             -0.0247    Y=              0.0748    Z=              0.0954  Tot=              0.1238
 Quadrupole moment (field-independent basis, Debye-Ang):
   XX=            -54.8050   YY=            -63.3704   ZZ=            -74.7108
   XY=              0.2585   XZ=              0.5216   YZ=             -0.5442

 Normal termination of Gaussian 16 at Fri Dec  8 00:48:05 2023.
