 Gaussian 16, Revision B.01,
 Gaussian 16:  ES64L-G16RevB.01 20-Dec-2017

 -------------------------
 #P B3LYP/6-311+g(d) force
 -------------------------

 -----
 DPGEN
 -----
 Symbolic Z-matrix:
 Charge =  0 Multiplicity = 2

                         Standard orientation:
 ---------------------------------------------------------------------
 Center     Atomic      Atomic             Coordinates (Angstroms)
 Number     Number       Type             X           Y           Z
 ---------------------------------------------------------------------
      1         11           0       -2.577568   -1.685772   -0.010758
      2         11           0        1.391422    2.730668   -0.285526
      3         11           0        0.767540   -2.691971   -0.396842
      4         11           0        0.111027    0.035358   -1.409068
      5         11           0       -0.073560   -0.023711    1.917346
      6         11           0       -2.683154    1.930528   -0.070503
      7         11           0        3.064292   -0.295100    0.255350
 ---------------------------------------------------------------------

 SCF Done:  E(UB3LYP) =  -1136.13568821     A.U. after   20 cycles

 The electronic state is 2-A.
 Alpha  occ. eigenvalues --  -38.44195 -38.43940 -38.43891 -38.43665 -38.43267
 Alpha  occ. eigenvalues --  -38.43129 -38.42809  -2.19979  -2.19808  -2.19731
 Alpha  occ. eigenvalues --   -2.19501  -2.19187  -2.19045  -2.18870  -1.13658
 Alpha  occ. eigenvalues --   -1.13634  -1.13622  -1.13482  -1.13471  -1.13451
 Alpha  occ. eigenvalues --   -1.13406  -1.13402  -1.13362  -1.13207  -1.13154
 Alpha  occ. eigenvalues --   -1.13124  -1.12892  -1.12835  -1.12805  -1.12795
 Alpha  occ. eigenvalues --   -1.12681  -1.12661  -1.12548  -1.12483  -1.12467
 Alpha  occ. eigenvalues --   -0.18824  -0.13126  -0.12454  -0.10393
 Alpha virt. eigenvalues --   -0.05755  -0.05407  -0.04597  -0.03059  -0.02658
 Alpha virt. eigenvalues --   -0.02175  -0.01651  -0.01294  -0.00527  -0.00336
 Alpha virt. eigenvalues --    0.00035   0.00340   0.00784   0.00833   0.00884

  Beta  occ. eigenvalues --  -38.44195 -38.43933 -38.43887 -38.43658 -38.43176
  Beta  occ. eigenvalues --  -38.43115 -38.42750  -2.19982  -2.19797  -2.19727
  Beta  occ. eigenvalues --   -2.19490  -2.19026  -2.19018  -2.18766  -1.13648
  Beta  occ. eigenvalues --   -1.13635  -1.13624  -1.13478  -1.13449  -1.13433
  Beta  occ. eigenvalues --   -1.13402  -1.13382  -1.13359  -1.13193  -1.13133
  Beta  occ. eigenvalues --   -1.13120  -1.12817  -1.12768  -1.12691  -1.12672
  Beta  occ. eigenvalues --   -1.12652  -1.12639  -1.12467  -1.12409  -1.12396
  Beta  occ. eigenvalues --   -0.18108  -0.12902  -0.12183
  Beta virt. eigenvalues --   -0.06485  -0.05742  -0.05376  -0.04570  -0.02287
  Beta virt. eigenvalues --   -0.01926  -0.01570  -0.01245  -0.01102  -0.00570
  Beta virt. eigenvalues --   -0.00369   0.00169   0.00374   0.00804   0.00857

 Mulliken charges and spin densities:
               1          2
     1  Na   0.163026  -0.030757
     2  Na   0.036061  -0.074711
     3  Na   0.369667   0.052795
     4  Na  -0.461711   0.320772
     5  Na  -0.367705   0.735908
     6  Na  -0.052049  -0.097684
     7  Na   0.312711   0.093677
 Sum of Mulliken charges =  -0.00000   1.00000

 Dipole moment (field-independent basis, Debye):
    X=             -0.2156    Y=              0.2352    Z=              0.2253  Tot=              0.3906
 Quadrupole moment (field-independent basis, Debye-Ang):
   XX=            -53.9405   YY=            -60.8171   ZZ=            -76.5256
   XY=             -0.1775   XZ=              0.5692   YZ=              0.0334

 Normal termination of Gaussian 16 at Tue Dec  5 19:07:56 2023.
