 Gaussian 16, Revision B.01,
 Gaussian 16:  ES64L-G16RevB.01 20-Dec-2017

 -------------------------
 #P B3LYP/6-311+g(d) force
 -------------------------

 -----
 DPGEN
 -----
 Symbolic Z-matrix:
 Charge =  0 Multiplicity = 2

                         Standard orientation:
 ---------------------------------------------------------------------
 Center     Atomic      Atomic             Coordinates (Angstroms)
 Number     Number       Type             X           Y           Z
 ---------------------------------------------------------------------
      1         11           0       -1.940620   -1.379461    0.974618
      2         11           0       -5.554878   -1.057374   -0.555878
      3         11           0       -4.765567    1.769109    0.346771
      4         11           0       -0.808043    1.444148   -0.700412
      5         11           0        1.159453   -1.283301   -0.539448
      6         11           0        4.677889    0.442682    1.141322
      7         11           0        7.231764    0.064198   -0.666972
 ---------------------------------------------------------------------

 SCF Done:  E(UB3LYP) =  -1136.11211387     A.U. after   19 cycles

 The electronic state is 2-A.
 Alpha  occ. eigenvalues --  -38.44663 -38.44530 -38.44442 -38.44299 -38.44086
 Alpha  occ. eigenvalues --  -38.44062 -38.43961  -2.20478  -2.20304  -2.20221
 Alpha  occ. eigenvalues --   -2.20107  -2.19900  -2.19875  -2.19796  -1.14169
 Alpha  occ. eigenvalues --   -1.14155  -1.14073  -1.14006  -1.13964  -1.13963
 Alpha  occ. eigenvalues --   -1.13886  -1.13877  -1.13818  -1.13786  -1.13771
 Alpha  occ. eigenvalues --   -1.13734  -1.13665  -1.13559  -1.13545  -1.13529
 Alpha  occ. eigenvalues --   -1.13509  -1.13469  -1.13456  -1.13450  -1.13390
 Alpha  occ. eigenvalues --   -0.16348  -0.13781  -0.12373  -0.10253
 Alpha virt. eigenvalues --   -0.06677  -0.05565  -0.05138  -0.03395  -0.02810
 Alpha virt. eigenvalues --   -0.02542  -0.02421  -0.01858  -0.01024  -0.00934
 Alpha virt. eigenvalues --   -0.00393  -0.00223   0.00161   0.00264   0.00404

  Beta  occ. eigenvalues --  -38.44618 -38.44532 -38.44441 -38.44293 -38.44064
  Beta  occ. eigenvalues --  -38.44039 -38.43894  -2.20395  -2.20307  -2.20220
  Beta  occ. eigenvalues --   -2.20097  -2.19860  -2.19834  -2.19671  -1.14110
  Beta  occ. eigenvalues --   -1.14087  -1.14013  -1.14007  -1.13966  -1.13965
  Beta  occ. eigenvalues --   -1.13884  -1.13876  -1.13818  -1.13775  -1.13759
  Beta  occ. eigenvalues --   -1.13725  -1.13638  -1.13532  -1.13517  -1.13496
  Beta  occ. eigenvalues --   -1.13474  -1.13417  -1.13385  -1.13373  -1.13294
  Beta  occ. eigenvalues --   -0.15711  -0.13700  -0.12297
  Beta virt. eigenvalues --   -0.06553  -0.06491  -0.05345  -0.04604  -0.03130
  Beta virt. eigenvalues --   -0.02681  -0.02392  -0.01798  -0.01698  -0.00947
  Beta virt. eigenvalues --   -0.00495  -0.00176  -0.00022   0.00305   0.00395

 Mulliken charges and spin densities:
               1          2
     1  Na  -0.170953   0.404880
     2  Na   0.158539   0.080343
     3  Na   0.103305   0.064538
     4  Na  -0.066082   0.393948
     5  Na  -0.067591   0.077566
     6  Na  -0.164520  -0.022410
     7  Na   0.207302   0.001135
 Sum of Mulliken charges =  -0.00000   1.00000

 Dipole moment (field-independent basis, Debye):
    X=              0.7563    Y=             -0.3559    Z=             -0.3275  Tot=              0.8977
 Quadrupole moment (field-independent basis, Debye-Ang):
   XX=            -57.0188   YY=            -72.9782   ZZ=            -66.7916
   XY=             -1.3506   XZ=             -4.8193   YZ=              3.7459

 Normal termination of Gaussian 16 at Wed Nov 29 00:35:34 2023.
