 Gaussian 16, Revision B.01,
 Gaussian 16:  ES64L-G16RevB.01 20-Dec-2017

 -------------------------
 #P B3LYP/6-311+g(d) force
 -------------------------

 -----
 DPGEN
 -----
 Symbolic Z-matrix:
 Charge =  0 Multiplicity = 2

                         Standard orientation:
 ---------------------------------------------------------------------
 Center     Atomic      Atomic             Coordinates (Angstroms)
 Number     Number       Type             X           Y           Z
 ---------------------------------------------------------------------
      1         11           0        4.204049   -0.509681    0.306650
      2         11           0       -2.096156   -1.881043    0.730554
      3         11           0        1.192874   -1.993043   -1.730204
      4         11           0        2.149635    2.239295   -0.717687
      5         11           0        0.688595    0.085847    2.073109
      6         11           0       -4.495266    0.319737   -0.467287
      7         11           0       -1.643732    1.738888   -0.195136
 ---------------------------------------------------------------------

 SCF Done:  E(UB3LYP) =  -1136.11243000     A.U. after   25 cycles

 The electronic state is 2-A.
 Alpha  occ. eigenvalues --  -38.45284 -38.44745 -38.44638 -38.44307 -38.43877
 Alpha  occ. eigenvalues --  -38.43826 -38.43507  -2.21056  -2.20469  -2.20467
 Alpha  occ. eigenvalues --   -2.20148  -2.19656  -2.19631  -2.19337  -1.14733
 Alpha  occ. eigenvalues --   -1.14696  -1.14681  -1.14167  -1.14138  -1.14119
 Alpha  occ. eigenvalues --   -1.14104  -1.14097  -1.14075  -1.13809  -1.13788
 Alpha  occ. eigenvalues --   -1.13774  -1.13353  -1.13312  -1.13311  -1.13305
 Alpha  occ. eigenvalues --   -1.13289  -1.13261  -1.13039  -1.13018  -1.12958
 Alpha  occ. eigenvalues --   -0.17209  -0.14204  -0.11003  -0.10821
 Alpha virt. eigenvalues --   -0.07494  -0.05680  -0.04299  -0.03490  -0.03059
 Alpha virt. eigenvalues --   -0.02576  -0.02154  -0.01640  -0.00977  -0.00648
 Alpha virt. eigenvalues --   -0.00547   0.00037   0.00174   0.00531   0.00632

  Beta  occ. eigenvalues --  -38.45251 -38.44741 -38.44550 -38.44244 -38.43878
  Beta  occ. eigenvalues --  -38.43811 -38.43505  -2.20994  -2.20462  -2.20307
  Beta  occ. eigenvalues --   -2.20031  -2.19659  -2.19608  -2.19337  -1.14685
  Beta  occ. eigenvalues --   -1.14653  -1.14641  -1.14165  -1.14114  -1.14087
  Beta  occ. eigenvalues --   -1.14025  -1.13997  -1.13955  -1.13729  -1.13708
  Beta  occ. eigenvalues --   -1.13698  -1.13357  -1.13314  -1.13295  -1.13279
  Beta  occ. eigenvalues --   -1.13279  -1.13233  -1.13044  -1.13001  -1.12943
  Beta  occ. eigenvalues --   -0.16569  -0.13615  -0.10763
  Beta virt. eigenvalues --   -0.07443  -0.07234  -0.05494  -0.03670  -0.03150
  Beta virt. eigenvalues --   -0.02978  -0.02240  -0.01652  -0.01382  -0.00580
  Beta virt. eigenvalues --   -0.00550  -0.00332   0.00082   0.00277   0.00630

 Mulliken charges and spin densities:
               1          2
     1  Na   0.307543   0.251513
     2  Na  -0.076159   0.135175
     3  Na  -0.233647  -0.028262
     4  Na  -0.045003   0.034120
     5  Na  -0.017881   0.346778
     6  Na   0.633552   0.221922
     7  Na  -0.568405   0.038753
 Sum of Mulliken charges =  -0.00000   1.00000

 Dipole moment (field-independent basis, Debye):
    X=              0.6708    Y=             -0.2742    Z=              0.3831  Tot=              0.8197
 Quadrupole moment (field-independent basis, Debye-Ang):
   XX=            -54.4762   YY=            -79.2385   ZZ=            -65.2505
   XY=              2.3074   XZ=              3.3744   YZ=             -2.9650

 Normal termination of Gaussian 16 at Mon Dec  4 03:29:19 2023.
