 Gaussian 16, Revision B.01,
 Gaussian 16:  ES64L-G16RevB.01 20-Dec-2017

 -------------------------
 #P B3LYP/6-311+g(d) force
 -------------------------

 -----
 DPGEN
 -----
 Symbolic Z-matrix:
 Charge =  0 Multiplicity = 2

                         Standard orientation:
 ---------------------------------------------------------------------
 Center     Atomic      Atomic             Coordinates (Angstroms)
 Number     Number       Type             X           Y           Z
 ---------------------------------------------------------------------
      1         11           0       -4.829128   -0.779919   -0.625428
      2         11           0        4.086107   -1.859316   -0.232325
      3         11           0       -2.127857   -1.572087    1.341381
      4         11           0        3.712996    1.477230   -0.135162
      5         11           0        0.613398   -3.502134   -0.260868
      6         11           0        0.520375    3.794151    0.509596
      7         11           0       -1.975889    2.442075   -0.597194
 ---------------------------------------------------------------------

 SCF Done:  E(UB3LYP) =  -1136.10896159     A.U. after   20 cycles

 The electronic state is 2-A.
 Alpha  occ. eigenvalues --  -38.45007 -38.44932 -38.44775 -38.44465 -38.44350
 Alpha  occ. eigenvalues --  -38.44342 -38.43619  -2.20762  -2.20722  -2.20546
 Alpha  occ. eigenvalues --   -2.20256  -2.20125  -2.20104  -2.19432  -1.14447
 Alpha  occ. eigenvalues --   -1.14441  -1.14411  -1.14398  -1.14389  -1.14350
 Alpha  occ. eigenvalues --   -1.14215  -1.14203  -1.14167  -1.13906  -1.13901
 Alpha  occ. eigenvalues --   -1.13870  -1.13785  -1.13782  -1.13773  -1.13768
 Alpha  occ. eigenvalues --   -1.13754  -1.13732  -1.13111  -1.13084  -1.13067
 Alpha  occ. eigenvalues --   -0.15470  -0.13674  -0.13174  -0.10866
 Alpha virt. eigenvalues --   -0.07041  -0.05570  -0.04493  -0.03278  -0.03031
 Alpha virt. eigenvalues --   -0.02516  -0.02284  -0.01855  -0.01478  -0.01000
 Alpha virt. eigenvalues --   -0.00432  -0.00204   0.00136   0.00496   0.00533

  Beta  occ. eigenvalues --  -38.45012 -38.44913 -38.44723 -38.44394 -38.44344
  Beta  occ. eigenvalues --  -38.44275 -38.43606  -2.20775  -2.20690  -2.20453
  Beta  occ. eigenvalues --   -2.20123  -2.20113  -2.19985  -2.19412  -1.14459
  Beta  occ. eigenvalues --   -1.14454  -1.14383  -1.14373  -1.14370  -1.14318
  Beta  occ. eigenvalues --   -1.14153  -1.14143  -1.14095  -1.13815  -1.13811
  Beta  occ. eigenvalues --   -1.13794  -1.13785  -1.13779  -1.13728  -1.13687
  Beta  occ. eigenvalues --   -1.13674  -1.13648  -1.13088  -1.13071  -1.13053
  Beta  occ. eigenvalues --   -0.14991  -0.12978  -0.12542
  Beta virt. eigenvalues --   -0.07678  -0.07056  -0.05058  -0.04287  -0.03003
  Beta virt. eigenvalues --   -0.02675  -0.02199  -0.02081  -0.01677  -0.01271
  Beta virt. eigenvalues --   -0.00747  -0.00225   0.00091   0.00288   0.00521

 Mulliken charges and spin densities:
               1          2
     1  Na   0.175303   0.361810
     2  Na   0.183317  -0.027412
     3  Na  -0.168928  -0.064414
     4  Na  -0.058901   0.245940
     5  Na  -0.049831   0.349136
     6  Na   0.074863   0.003818
     7  Na  -0.155823   0.131123
 Sum of Mulliken charges =  -0.00000   1.00000

 Dipole moment (field-independent basis, Debye):
    X=             -0.5319    Y=             -0.0853    Z=             -0.1405  Tot=              0.5567
 Quadrupole moment (field-independent basis, Debye-Ang):
   XX=            -63.5970   YY=            -68.0334   ZZ=            -69.2032
   XY=              0.1032   XZ=              3.0664   YZ=              1.4022

 Normal termination of Gaussian 16 at Mon Dec  4 01:20:51 2023.
