 Gaussian 16, Revision B.01,
 Gaussian 16:  ES64L-G16RevB.01 20-Dec-2017

 -------------------------
 #P B3LYP/6-311+g(d) force
 -------------------------

 -----
 DPGEN
 -----
 Symbolic Z-matrix:
 Charge =  0 Multiplicity = 2

                         Standard orientation:
 ---------------------------------------------------------------------
 Center     Atomic      Atomic             Coordinates (Angstroms)
 Number     Number       Type             X           Y           Z
 ---------------------------------------------------------------------
      1         11           0       -1.335645    1.748019    1.531853
      2         11           0        1.757869   -0.635283    1.707783
      3         11           0       -1.243908   -2.086545    1.030940
      4         11           0        2.370646   -1.705540   -1.238707
      5         11           0       -0.107312    0.635584   -1.752308
      6         11           0       -3.548454   -0.116994   -1.020400
      7         11           0        2.106805    2.160759   -0.259161
 ---------------------------------------------------------------------

 SCF Done:  E(UB3LYP) =  -1136.12980719     A.U. after   21 cycles

 The electronic state is 2-A.
 Alpha  occ. eigenvalues --  -38.44475 -38.44418 -38.44107 -38.43610 -38.43595
 Alpha  occ. eigenvalues --  -38.43376 -38.43196  -2.20277  -2.20207  -2.19945
 Alpha  occ. eigenvalues --   -2.19513  -2.19507  -2.19184  -2.19055  -1.13957
 Alpha  occ. eigenvalues --   -1.13928  -1.13893  -1.13880  -1.13857  -1.13833
 Alpha  occ. eigenvalues --   -1.13628  -1.13615  -1.13556  -1.13211  -1.13186
 Alpha  occ. eigenvalues --   -1.13167  -1.13162  -1.13142  -1.13135  -1.12880
 Alpha  occ. eigenvalues --   -1.12855  -1.12796  -1.12739  -1.12717  -1.12669
 Alpha  occ. eigenvalues --   -0.18267  -0.13248  -0.11705  -0.11353
 Alpha virt. eigenvalues --   -0.05804  -0.05284  -0.04549  -0.03277  -0.02989
 Alpha virt. eigenvalues --   -0.02976  -0.01647  -0.00949  -0.00650   0.00023
 Alpha virt. eigenvalues --    0.00252   0.00341   0.00372   0.00534   0.00746

  Beta  occ. eigenvalues --  -38.44430 -38.44399 -38.44076 -38.43574 -38.43545
  Beta  occ. eigenvalues --  -38.43364 -38.43196  -2.20195  -2.20173  -2.19888
  Beta  occ. eigenvalues --   -2.19445  -2.19422  -2.19166  -2.19058  -1.13898
  Beta  occ. eigenvalues --   -1.13864  -1.13848  -1.13839  -1.13833  -1.13811
  Beta  occ. eigenvalues --   -1.13586  -1.13573  -1.13514  -1.13152  -1.13139
  Beta  occ. eigenvalues --   -1.13115  -1.13109  -1.13081  -1.13067  -1.12860
  Beta  occ. eigenvalues --   -1.12830  -1.12787  -1.12731  -1.12716  -1.12660
  Beta  occ. eigenvalues --   -0.17494  -0.13027  -0.11177
  Beta virt. eigenvalues --   -0.07844  -0.05520  -0.05048  -0.04131  -0.03112
  Beta virt. eigenvalues --   -0.02416  -0.02069  -0.01537  -0.00705  -0.00465
  Beta virt. eigenvalues --    0.00141   0.00293   0.00389   0.00521   0.00603

 Mulliken charges and spin densities:
               1          2
     1  Na  -0.201986   0.184957
     2  Na   0.152587   0.375126
     3  Na  -0.265544   0.049838
     4  Na   0.109310  -0.049836
     5  Na  -0.407118   0.497933
     6  Na   0.281552  -0.042623
     7  Na   0.331201  -0.015394
 Sum of Mulliken charges =  -0.00000   1.00000

 Dipole moment (field-independent basis, Debye):
    X=             -0.4832    Y=              0.1052    Z=             -0.0827  Tot=              0.5014
 Quadrupole moment (field-independent basis, Debye-Ang):
   XX=            -55.5485   YY=            -73.1411   ZZ=            -66.0046
   XY=             -0.1640   XZ=              0.0785   YZ=              4.6985

 Normal termination of Gaussian 16 at Thu Dec  7 18:04:10 2023.
