 Gaussian 16, Revision B.01,
 Gaussian 16:  ES64L-G16RevB.01 20-Dec-2017

 -------------------------
 #P B3LYP/6-311+g(d) force
 -------------------------

 -----
 DPGEN
 -----
 Symbolic Z-matrix:
 Charge =  0 Multiplicity = 2

                         Standard orientation:
 ---------------------------------------------------------------------
 Center     Atomic      Atomic             Coordinates (Angstroms)
 Number     Number       Type             X           Y           Z
 ---------------------------------------------------------------------
      1         11           0        2.358255   -2.851338    0.205754
      2         11           0       -1.518065   -1.641134   -1.252202
      3         11           0        1.376204    0.393202   -1.152579
      4         11           0        3.849268    0.494530    1.107194
      5         11           0        0.272574    3.140534    0.282816
      6         11           0       -2.086228    1.341742   -0.784470
      7         11           0       -4.252009   -0.877534    1.593486
 ---------------------------------------------------------------------

 SCF Done:  E(UB3LYP) =  -1136.12111879     A.U. after   21 cycles

 The electronic state is 2-A.
 Alpha  occ. eigenvalues --  -38.44682 -38.44606 -38.44402 -38.43787 -38.43709
 Alpha  occ. eigenvalues --  -38.43658 -38.43379  -2.20430  -2.20400  -2.20186
 Alpha  occ. eigenvalues --   -2.19686  -2.19578  -2.19548  -2.19215  -1.14118
 Alpha  occ. eigenvalues --   -1.14089  -1.14072  -1.14069  -1.14052  -1.14005
 Alpha  occ. eigenvalues --   -1.13831  -1.13830  -1.13780  -1.13454  -1.13378
 Alpha  occ. eigenvalues --   -1.13313  -1.13283  -1.13265  -1.13209  -1.13206
 Alpha  occ. eigenvalues --   -1.13195  -1.13146  -1.12883  -1.12867  -1.12854
 Alpha  occ. eigenvalues --   -0.17243  -0.13754  -0.12032  -0.10868
 Alpha virt. eigenvalues --   -0.06273  -0.05450  -0.04676  -0.03842  -0.02546
 Alpha virt. eigenvalues --   -0.02254  -0.01729  -0.01375  -0.00884  -0.00637
 Alpha virt. eigenvalues --   -0.00445   0.00197   0.00264   0.00309   0.00656

  Beta  occ. eigenvalues --  -38.44687 -38.44558 -38.44294 -38.43785 -38.43691
  Beta  occ. eigenvalues --  -38.43636 -38.43384  -2.20440  -2.20308  -2.19984
  Beta  occ. eigenvalues --   -2.19685  -2.19544  -2.19518  -2.19225  -1.14126
  Beta  occ. eigenvalues --   -1.14093  -1.14066  -1.14009  -1.13992  -1.13944
  Beta  occ. eigenvalues --   -1.13693  -1.13691  -1.13649  -1.13449  -1.13380
  Beta  occ. eigenvalues --   -1.13290  -1.13265  -1.13211  -1.13187  -1.13183
  Beta  occ. eigenvalues --   -1.13172  -1.13109  -1.12890  -1.12872  -1.12858
  Beta  occ. eigenvalues --   -0.16738  -0.13224  -0.11796
  Beta virt. eigenvalues --   -0.07309  -0.06090  -0.04962  -0.04314  -0.03726
  Beta virt. eigenvalues --   -0.02203  -0.01618  -0.01490  -0.01154  -0.00803
  Beta virt. eigenvalues --   -0.00574  -0.00090   0.00370   0.00447   0.00529

 Mulliken charges and spin densities:
               1          2
     1  Na   0.010238   0.017013
     2  Na  -0.091862   0.000584
     3  Na  -0.039754  -0.061646
     4  Na   0.031341   0.324792
     5  Na   0.037992   0.012528
     6  Na   0.083798   0.141641
     7  Na  -0.031754   0.565089
 Sum of Mulliken charges =  -0.00000   1.00000

 Dipole moment (field-independent basis, Debye):
    X=              0.9573    Y=             -0.3855    Z=              0.6524  Tot=              1.2209
 Quadrupole moment (field-independent basis, Debye-Ang):
   XX=            -65.2854   YY=            -63.9638   ZZ=            -68.2154
   XY=             -2.0653   XZ=              2.6412   YZ=              0.1536

 Normal termination of Gaussian 16 at Thu Dec  7 02:56:26 2023.
