 Gaussian 16, Revision B.01,
 Gaussian 16:  ES64L-G16RevB.01 20-Dec-2017

 -------------------------
 #P B3LYP/6-311+g(d) force
 -------------------------

 -----
 DPGEN
 -----
 Symbolic Z-matrix:
 Charge =  0 Multiplicity = 2

                         Standard orientation:
 ---------------------------------------------------------------------
 Center     Atomic      Atomic             Coordinates (Angstroms)
 Number     Number       Type             X           Y           Z
 ---------------------------------------------------------------------
      1         11           0        0.000625   -1.219528   -0.446519
      2         11           0       -0.046369   -0.184277    2.116618
      3         11           0       -2.918754   -1.176612   -0.377622
      4         11           0       -1.584574    1.303286    0.399145
      5         11           0        0.044120    1.183028   -1.804329
      6         11           0        1.586826    1.279705    0.466143
      7         11           0        2.918126   -1.185602   -0.353435
 ---------------------------------------------------------------------

 SCF Done:  E(UB3LYP) =  -1136.07321370     A.U. after   25 cycles

 The electronic state is 2-A.
 Alpha  occ. eigenvalues --  -38.45052 -38.44364 -38.44337 -38.43594 -38.43540
 Alpha  occ. eigenvalues --  -38.43445 -38.43374  -2.21181  -2.20298  -2.20271
 Alpha  occ. eigenvalues --   -2.19844  -2.19801  -2.19779  -2.19502  -1.15059
 Alpha  occ. eigenvalues --   -1.14804  -1.14796  -1.14095  -1.14031  -1.13998
 Alpha  occ. eigenvalues --   -1.13973  -1.13882  -1.13859  -1.13838  -1.13594
 Alpha  occ. eigenvalues --   -1.13549  -1.13544  -1.13484  -1.13469  -1.13348
 Alpha  occ. eigenvalues --   -1.13319  -1.13288  -1.13044  -1.13003  -1.12987
 Alpha  occ. eigenvalues --   -0.21232  -0.14162  -0.12825  -0.11467
 Alpha virt. eigenvalues --   -0.05856  -0.04529  -0.03658  -0.03633  -0.02760
 Alpha virt. eigenvalues --   -0.02425  -0.01784  -0.00636  -0.00219   0.00287
 Alpha virt. eigenvalues --    0.00544   0.00655   0.00969   0.01019   0.01085

  Beta  occ. eigenvalues --  -38.44952 -38.44348 -38.44323 -38.43561 -38.43509
  Beta  occ. eigenvalues --  -38.43400 -38.43338  -2.21003  -2.20271  -2.20246
  Beta  occ. eigenvalues --   -2.19791  -2.19742  -2.19717  -2.19439  -1.14939
  Beta  occ. eigenvalues --   -1.14677  -1.14652  -1.14070  -1.14015  -1.13977
  Beta  occ. eigenvalues --   -1.13948  -1.13855  -1.13833  -1.13809  -1.13546
  Beta  occ. eigenvalues --   -1.13491  -1.13461  -1.13415  -1.13386  -1.13309
  Beta  occ. eigenvalues --   -1.13274  -1.13244  -1.12996  -1.12950  -1.12939
  Beta  occ. eigenvalues --   -0.20317  -0.13863  -0.11306
  Beta virt. eigenvalues --   -0.08390  -0.05766  -0.04135  -0.03177  -0.03075
  Beta virt. eigenvalues --   -0.02131  -0.01696  -0.01676  -0.00470  -0.00103
  Beta virt. eigenvalues --    0.00314   0.00599   0.00704   0.01023   0.01097

 Mulliken charges and spin densities:
               1          2
     1  Na  -0.860210   0.242533
     2  Na   0.390294   0.465656
     3  Na   0.015708   0.046468
     4  Na   0.074544  -0.009979
     5  Na   0.295415   0.243615
     6  Na   0.071550  -0.034081
     7  Na   0.012699   0.045788
 Sum of Mulliken charges =  -0.00000   1.00000

 Dipole moment (field-independent basis, Debye):
    X=             -0.0110    Y=             -0.2637    Z=             -0.1621  Tot=              0.3098
 Quadrupole moment (field-independent basis, Debye-Ang):
   XX=            -53.3766   YY=            -74.8707   ZZ=            -66.1538
   XY=              0.0319   XZ=              0.0430   YZ=              4.9957

 Normal termination of Gaussian 16 at Fri Dec  8 19:31:00 2023.
