 Gaussian 16, Revision B.01,
 Gaussian 16:  ES64L-G16RevB.01 20-Dec-2017

 -------------------------
 #P B3LYP/6-311+g(d) force
 -------------------------

 -----
 DPGEN
 -----
 Symbolic Z-matrix:
 Charge =  0 Multiplicity = 2

                         Standard orientation:
 ---------------------------------------------------------------------
 Center     Atomic      Atomic             Coordinates (Angstroms)
 Number     Number       Type             X           Y           Z
 ---------------------------------------------------------------------
      1         11           0       -0.077563   -0.679016   -0.394569
      2         11           0       -1.324549    1.879364    0.979912
      3         11           0       -5.257261    0.622403    0.131552
      4         11           0        2.927310   -2.333060    1.287550
      5         11           0        4.944408   -0.181924   -0.810691
      6         11           0       -3.684526   -1.904679   -0.836397
      7         11           0        2.472181    2.596912   -0.357358
 ---------------------------------------------------------------------

 SCF Done:  E(UB3LYP) =  -1136.10635169     A.U. after   23 cycles

 The electronic state is 2-A.
 Alpha  occ. eigenvalues --  -38.44837 -38.44781 -38.44690 -38.44317 -38.44255
 Alpha  occ. eigenvalues --  -38.44074 -38.43807  -2.20618  -2.20588  -2.20450
 Alpha  occ. eigenvalues --   -2.20095  -2.20079  -2.19842  -2.19596  -1.14357
 Alpha  occ. eigenvalues --   -1.14292  -1.14274  -1.14234  -1.14222  -1.14169
 Alpha  occ. eigenvalues --   -1.14134  -1.14103  -1.14045  -1.13787  -1.13749
 Alpha  occ. eigenvalues --   -1.13747  -1.13726  -1.13718  -1.13706  -1.13517
 Alpha  occ. eigenvalues --   -1.13498  -1.13468  -1.13287  -1.13267  -1.13209
 Alpha  occ. eigenvalues --   -0.16211  -0.14145  -0.11210  -0.11082
 Alpha virt. eigenvalues --   -0.07335  -0.05531  -0.04462  -0.03687  -0.03111
 Alpha virt. eigenvalues --   -0.02671  -0.02030  -0.01481  -0.01273  -0.00896
 Alpha virt. eigenvalues --   -0.00238  -0.00163   0.00266   0.00332   0.00507

  Beta  occ. eigenvalues --  -38.44858 -38.44733 -38.44627 -38.44285 -38.44197
  Beta  occ. eigenvalues --  -38.44046 -38.43819  -2.20660  -2.20497  -2.20333
  Beta  occ. eigenvalues --   -2.20020  -2.19986  -2.19791  -2.19620  -1.14352
  Beta  occ. eigenvalues --   -1.14324  -1.14294  -1.14172  -1.14160  -1.14132
  Beta  occ. eigenvalues --   -1.14057  -1.14027  -1.13954  -1.13716  -1.13709
  Beta  occ. eigenvalues --   -1.13692  -1.13665  -1.13654  -1.13645  -1.13484
  Beta  occ. eigenvalues --   -1.13457  -1.13427  -1.13293  -1.13282  -1.13227
  Beta  occ. eigenvalues --   -0.15667  -0.13555  -0.11106
  Beta virt. eigenvalues --   -0.07702  -0.06928  -0.04955  -0.04253  -0.03412
  Beta virt. eigenvalues --   -0.02624  -0.02543  -0.01787  -0.01240  -0.00905
  Beta virt. eigenvalues --   -0.00673  -0.00194  -0.00036   0.00344   0.00452

 Mulliken charges and spin densities:
               1          2
     1  Na  -1.685736   0.368964
     2  Na   0.692227  -0.139942
     3  Na  -0.233772   0.265848
     4  Na   0.301681   0.142745
     5  Na   0.174337   0.159813
     6  Na   0.441883  -0.188221
     7  Na   0.309381   0.390793
 Sum of Mulliken charges =  -0.00000   1.00000

 Dipole moment (field-independent basis, Debye):
    X=             -0.9739    Y=              0.2442    Z=              0.1669  Tot=              1.0178
 Quadrupole moment (field-independent basis, Debye-Ang):
   XX=            -66.4861   YY=            -66.3665   ZZ=            -68.4965
   XY=             -2.8525   XZ=             -3.3789   YZ=              1.7896

 Normal termination of Gaussian 16 at Sun Dec  3 18:59:59 2023.
