 Gaussian 16, Revision B.01,
 Gaussian 16:  ES64L-G16RevB.01 20-Dec-2017

 -------------------------
 #P B3LYP/6-311+g(d) force
 -------------------------

 -----
 DPGEN
 -----
 Symbolic Z-matrix:
 Charge =  0 Multiplicity = 2

                         Standard orientation:
 ---------------------------------------------------------------------
 Center     Atomic      Atomic             Coordinates (Angstroms)
 Number     Number       Type             X           Y           Z
 ---------------------------------------------------------------------
      1         11           0        4.674713    0.582165    0.813208
      2         11           0       -1.602661    2.312373   -0.055502
      3         11           0        0.072248   -3.093355   -0.171892
      4         11           0        3.210738   -2.302222   -0.113354
      5         11           0        2.129925    3.245041   -0.766899
      6         11           0       -3.679043   -1.674976   -0.413184
      7         11           0       -4.805921    0.930974    0.707623
 ---------------------------------------------------------------------

 SCF Done:  E(UB3LYP) =  -1136.10653712     A.U. after   24 cycles

 The electronic state is 2-A.
 Alpha  occ. eigenvalues --  -38.45781 -38.45295 -38.44653 -38.44508 -38.44502
 Alpha  occ. eigenvalues --  -38.44207 -38.43346  -2.21574  -2.21045  -2.20499
 Alpha  occ. eigenvalues --   -2.20297  -2.20224  -2.20004  -2.19142  -1.15259
 Alpha  occ. eigenvalues --   -1.15233  -1.15221  -1.14734  -1.14725  -1.14636
 Alpha  occ. eigenvalues --   -1.14168  -1.14139  -1.14122  -1.13956  -1.13953
 Alpha  occ. eigenvalues --   -1.13915  -1.13912  -1.13891  -1.13858  -1.13684
 Alpha  occ. eigenvalues --   -1.13681  -1.13654  -1.12799  -1.12797  -1.12774
 Alpha  occ. eigenvalues --   -0.15894  -0.14269  -0.12539  -0.10921
 Alpha virt. eigenvalues --   -0.07555  -0.05415  -0.04468  -0.03557  -0.03343
 Alpha virt. eigenvalues --   -0.02665  -0.02149  -0.01703  -0.01211  -0.00978
 Alpha virt. eigenvalues --   -0.00441  -0.00166  -0.00095   0.00429   0.00566

  Beta  occ. eigenvalues --  -38.45760 -38.45249 -38.44616 -38.44505 -38.44442
  Beta  occ. eigenvalues --  -38.44213 -38.43303  -2.21540  -2.20962  -2.20431
  Beta  occ. eigenvalues --   -2.20232  -2.20175  -2.20019  -2.19060  -1.15232
  Beta  occ. eigenvalues --   -1.15213  -1.15171  -1.14680  -1.14669  -1.14565
  Beta  occ. eigenvalues --   -1.14115  -1.14093  -1.14080  -1.13920  -1.13899
  Beta  occ. eigenvalues --   -1.13873  -1.13870  -1.13850  -1.13832  -1.13699
  Beta  occ. eigenvalues --   -1.13693  -1.13630  -1.12745  -1.12742  -1.12723
  Beta  occ. eigenvalues --   -0.15343  -0.13738  -0.11930
  Beta virt. eigenvalues --   -0.07699  -0.07585  -0.04875  -0.04089  -0.03223
  Beta virt. eigenvalues --   -0.03011  -0.02463  -0.02089  -0.01527  -0.00798
  Beta virt. eigenvalues --   -0.00765  -0.00268   0.00032   0.00131   0.00459

 Mulliken charges and spin densities:
               1          2
     1  Na   0.075082   0.243674
     2  Na  -0.716430   0.334408
     3  Na   0.142968   0.217987
     4  Na  -0.323001   0.062828
     5  Na  -0.006681  -0.306752
     6  Na  -0.122957   0.091816
     7  Na   0.951020   0.356039
 Sum of Mulliken charges =  -0.00000   1.00000

 Dipole moment (field-independent basis, Debye):
    X=             -1.6326    Y=              0.5556    Z=              0.1945  Tot=              1.7355
 Quadrupole moment (field-independent basis, Debye-Ang):
   XX=            -54.5411   YY=            -70.8072   ZZ=            -72.0476
   XY=              2.1124   XZ=             -0.6511   YZ=              1.7538

 Normal termination of Gaussian 16 at Sun Dec  3 17:18:21 2023.
