 Gaussian 16, Revision B.01,
 Gaussian 16:  ES64L-G16RevB.01 20-Dec-2017

 -------------------------
 #P B3LYP/6-311+g(d) force
 -------------------------

 -----
 DPGEN
 -----
 Symbolic Z-matrix:
 Charge =  0 Multiplicity = 2

                         Standard orientation:
 ---------------------------------------------------------------------
 Center     Atomic      Atomic             Coordinates (Angstroms)
 Number     Number       Type             X           Y           Z
 ---------------------------------------------------------------------
      1         11           0        1.311561    2.465007    0.814253
      2         11           0       -1.697360    1.779523   -1.364463
      3         11           0        2.545848   -1.946978    0.770780
      4         11           0       -0.225046   -2.117627   -1.252545
      5         11           0       -3.410497   -0.967875    0.516718
      6         11           0        2.111310    0.534263   -1.287973
      7         11           0       -0.635816    0.253687    1.803231
 ---------------------------------------------------------------------

 SCF Done:  E(UB3LYP) =  -1136.13047742     A.U. after   19 cycles

 The electronic state is 2-A.
 Alpha  occ. eigenvalues --  -38.44354 -38.44049 -38.43907 -38.43796 -38.43672
 Alpha  occ. eigenvalues --  -38.43557 -38.43131  -2.20156  -2.19855  -2.19732
 Alpha  occ. eigenvalues --   -2.19717  -2.19498  -2.19478  -2.19035  -1.13830
 Alpha  occ. eigenvalues --   -1.13813  -1.13771  -1.13546  -1.13505  -1.13492
 Alpha  occ. eigenvalues --   -1.13451  -1.13431  -1.13398  -1.13379  -1.13370
 Alpha  occ. eigenvalues --   -1.13303  -1.13188  -1.13170  -1.13169  -1.13123
 Alpha  occ. eigenvalues --   -1.13100  -1.13100  -1.12708  -1.12700  -1.12630
 Alpha  occ. eigenvalues --   -0.18300  -0.13128  -0.12090  -0.11091
 Alpha virt. eigenvalues --   -0.05672  -0.05444  -0.04268  -0.03574  -0.03143
 Alpha virt. eigenvalues --   -0.02682  -0.01538  -0.01103  -0.00451   0.00047
 Alpha virt. eigenvalues --    0.00137   0.00363   0.00562   0.00613   0.00808

  Beta  occ. eigenvalues --  -38.44311 -38.44045 -38.43900 -38.43772 -38.43651
  Beta  occ. eigenvalues --  -38.43486 -38.43119  -2.20077  -2.19850  -2.19720
  Beta  occ. eigenvalues --   -2.19675  -2.19461  -2.19350  -2.19018  -1.13772
  Beta  occ. eigenvalues --   -1.13753  -1.13717  -1.13530  -1.13503  -1.13486
  Beta  occ. eigenvalues --   -1.13432  -1.13409  -1.13385  -1.13355  -1.13342
  Beta  occ. eigenvalues --   -1.13274  -1.13162  -1.13128  -1.13082  -1.13078
  Beta  occ. eigenvalues --   -1.13032  -1.13007  -1.12696  -1.12674  -1.12607
  Beta  occ. eigenvalues --   -0.17567  -0.12961  -0.11891
  Beta virt. eigenvalues --   -0.07263  -0.05541  -0.05210  -0.04061  -0.03081
  Beta virt. eigenvalues --   -0.02535  -0.01776  -0.01467  -0.00919  -0.00213
  Beta virt. eigenvalues --    0.00037   0.00214   0.00409   0.00678   0.00747

 Mulliken charges and spin densities:
               1          2
     1  Na   0.340009  -0.077974
     2  Na  -0.297219   0.263842
     3  Na   0.141480  -0.049732
     4  Na  -0.366494   0.115155
     5  Na   0.456158  -0.022759
     6  Na   0.197063   0.348021
     7  Na  -0.470997   0.423447
 Sum of Mulliken charges =  -0.00000   1.00000

 Dipole moment (field-independent basis, Debye):
    X=             -0.3998    Y=             -0.2282    Z=             -0.1549  Tot=              0.4857
 Quadrupole moment (field-independent basis, Debye-Ang):
   XX=            -57.3474   YY=            -68.4699   ZZ=            -69.0156
   XY=              0.1840   XZ=              2.3778   YZ=             -2.1840

 Normal termination of Gaussian 16 at Fri Dec  8 05:59:44 2023.
