 Gaussian 16, Revision B.01,
 Gaussian 16:  ES64L-G16RevB.01 20-Dec-2017

 -------------------------
 #P B3LYP/6-311+g(d) force
 -------------------------

 -----
 DPGEN
 -----
 Symbolic Z-matrix:
 Charge =  0 Multiplicity = 2

                         Standard orientation:
 ---------------------------------------------------------------------
 Center     Atomic      Atomic             Coordinates (Angstroms)
 Number     Number       Type             X           Y           Z
 ---------------------------------------------------------------------
      1         11           0        0.142262   -2.407363   -1.403569
      2         11           0        3.310836    2.380068   -0.402412
      3         11           0        2.624674   -1.540063    0.250674
      4         11           0       -3.068091    2.142286   -0.159504
      5         11           0       -0.141846   -0.612231    2.482209
      6         11           0        0.429513    0.835424   -0.481263
      7         11           0       -3.297349   -0.798122   -0.286134
 ---------------------------------------------------------------------

 SCF Done:  E(UB3LYP) =  -1136.11748611     A.U. after   22 cycles

 The electronic state is 2-A.
 Alpha  occ. eigenvalues --  -38.44804 -38.44707 -38.44681 -38.44355 -38.43371
 Alpha  occ. eigenvalues --  -38.43322 -38.43195  -2.20635  -2.20570  -2.20502
 Alpha  occ. eigenvalues --   -2.20198  -2.19269  -2.19155  -2.19064  -1.14424
 Alpha  occ. eigenvalues --   -1.14293  -1.14275  -1.14267  -1.14241  -1.14184
 Alpha  occ. eigenvalues --   -1.14147  -1.14137  -1.14099  -1.13860  -1.13812
 Alpha  occ. eigenvalues --   -1.13795  -1.12996  -1.12948  -1.12915  -1.12815
 Alpha  occ. eigenvalues --   -1.12810  -1.12777  -1.12734  -1.12715  -1.12680
 Alpha  occ. eigenvalues --   -0.18001  -0.13779  -0.11478  -0.11007
 Alpha virt. eigenvalues --   -0.06365  -0.06135  -0.04164  -0.03405  -0.02661
 Alpha virt. eigenvalues --   -0.02328  -0.02144  -0.01659  -0.00850  -0.00290
 Alpha virt. eigenvalues --   -0.00169   0.00205   0.00385   0.00600   0.00691

  Beta  occ. eigenvalues --  -38.44798 -38.44703 -38.44682 -38.44227 -38.43370
  Beta  occ. eigenvalues --  -38.43309 -38.43156  -2.20625  -2.20567  -2.20504
  Beta  occ. eigenvalues --   -2.19960  -2.19250  -2.19152  -2.18992  -1.14421
  Beta  occ. eigenvalues --   -1.14274  -1.14271  -1.14262  -1.14213  -1.14185
  Beta  occ. eigenvalues --   -1.14146  -1.14134  -1.14099  -1.13698  -1.13648
  Beta  occ. eigenvalues --   -1.13635  -1.12947  -1.12937  -1.12907  -1.12811
  Beta  occ. eigenvalues --   -1.12808  -1.12773  -1.12687  -1.12665  -1.12630
  Beta  occ. eigenvalues --   -0.17330  -0.13626  -0.11287
  Beta virt. eigenvalues --   -0.06989  -0.06233  -0.06010  -0.03840  -0.02801
  Beta virt. eigenvalues --   -0.02164  -0.01850  -0.01711  -0.01577  -0.00761
  Beta virt. eigenvalues --   -0.00154   0.00029   0.00269   0.00575   0.00643

 Mulliken charges and spin densities:
               1          2
     1  Na   0.039163   0.053152
     2  Na   0.008903  -0.109570
     3  Na   0.931579   0.157795
     4  Na   0.084918  -0.032278
     5  Na  -0.282580   0.462055
     6  Na  -1.451629   0.350631
     7  Na   0.669645   0.118215
 Sum of Mulliken charges =  -0.00000   1.00000

 Dipole moment (field-independent basis, Debye):
    X=             -0.7156    Y=             -0.3934    Z=              0.4108  Tot=              0.9141
 Quadrupole moment (field-independent basis, Debye-Ang):
   XX=            -54.3307   YY=            -67.3276   ZZ=            -73.6214
   XY=             -3.1641   XZ=              1.3910   YZ=             -0.1655

 Normal termination of Gaussian 16 at Tue Dec  5 22:43:39 2023.
