 Gaussian 16, Revision B.01,
 Gaussian 16:  ES64L-G16RevB.01 20-Dec-2017

 -------------------------
 #P B3LYP/6-311+g(d) force
 -------------------------

 -----
 DPGEN
 -----
 Symbolic Z-matrix:
 Charge =  0 Multiplicity = 2

                         Standard orientation:
 ---------------------------------------------------------------------
 Center     Atomic      Atomic             Coordinates (Angstroms)
 Number     Number       Type             X           Y           Z
 ---------------------------------------------------------------------
      1         11           0        0.155354    1.467141   -0.283175
      2         11           0        2.624716    3.307360    0.545952
      3         11           0        3.172124    0.220028   -0.519118
      4         11           0        2.804905   -3.131717   -0.072791
      5         11           0       -0.428451   -1.782609    0.188050
      6         11           0       -3.198477   -1.034229    0.655510
      7         11           0       -5.130172    0.954026   -0.514428
 ---------------------------------------------------------------------

 SCF Done:  E(UB3LYP) =  -1136.11832884     A.U. after   21 cycles

 The electronic state is 2-A.
 Alpha  occ. eigenvalues --  -38.44809 -38.44352 -38.44198 -38.44175 -38.43881
 Alpha  occ. eigenvalues --  -38.43476 -38.43313  -2.20687  -2.20191  -2.20076
 Alpha  occ. eigenvalues --   -2.20020  -2.19786  -2.19402  -2.19127  -1.14393
 Alpha  occ. eigenvalues --   -1.14368  -1.14293  -1.13867  -1.13846  -1.13829
 Alpha  occ. eigenvalues --   -1.13780  -1.13760  -1.13754  -1.13653  -1.13639
 Alpha  occ. eigenvalues --   -1.13634  -1.13533  -1.13421  -1.13402  -1.13073
 Alpha  occ. eigenvalues --   -1.13047  -1.12994  -1.12787  -1.12784  -1.12756
 Alpha  occ. eigenvalues --   -0.17335  -0.14512  -0.12575  -0.10794
 Alpha virt. eigenvalues --   -0.06354  -0.05407  -0.04252  -0.03864  -0.03016
 Alpha virt. eigenvalues --   -0.02344  -0.01998  -0.01277  -0.01079  -0.00689
 Alpha virt. eigenvalues --   -0.00198   0.00028   0.00436   0.00527   0.00689

  Beta  occ. eigenvalues --  -38.44783 -38.44351 -38.44170 -38.44073 -38.43872
  Beta  occ. eigenvalues --  -38.43430 -38.43288  -2.20641  -2.20190  -2.20027
  Beta  occ. eigenvalues --   -2.19831  -2.19781  -2.19321  -2.19081  -1.14365
  Beta  occ. eigenvalues --   -1.14337  -1.14251  -1.13860  -1.13845  -1.13827
  Beta  occ. eigenvalues --   -1.13744  -1.13724  -1.13652  -1.13612  -1.13512
  Beta  occ. eigenvalues --   -1.13506  -1.13468  -1.13415  -1.13382  -1.13016
  Beta  occ. eigenvalues --   -1.12993  -1.12932  -1.12756  -1.12742  -1.12732
  Beta  occ. eigenvalues --   -0.16847  -0.13849  -0.12181
  Beta virt. eigenvalues --   -0.07295  -0.06110  -0.05187  -0.04075  -0.03302
  Beta virt. eigenvalues --   -0.02764  -0.02034  -0.01817  -0.01011  -0.00864
  Beta virt. eigenvalues --   -0.00297   0.00005   0.00306   0.00569   0.00621

 Mulliken charges and spin densities:
               1          2
     1  Na  -1.396586  -0.028364
     2  Na   1.131842   0.026455
     3  Na  -0.013771   0.307684
     4  Na   1.306682   0.289732
     5  Na  -1.662366  -0.253365
     6  Na   0.696608   0.205165
     7  Na  -0.062408   0.452693
 Sum of Mulliken charges =  -0.00000   1.00000

 Dipole moment (field-independent basis, Debye):
    X=              1.0591    Y=              1.3035    Z=              0.1990  Tot=              1.6913
 Quadrupole moment (field-independent basis, Debye-Ang):
   XX=            -69.8873   YY=            -60.0536   ZZ=            -70.6060
   XY=              3.9669   XZ=              1.9449   YZ=             -0.5403

 Normal termination of Gaussian 16 at Wed Nov 29 03:56:53 2023.
