 Gaussian 16, Revision B.01,
 Gaussian 16:  ES64L-G16RevB.01 20-Dec-2017

 -------------------------
 #P B3LYP/6-311+g(d) force
 -------------------------

 -----
 DPGEN
 -----
 Symbolic Z-matrix:
 Charge =  0 Multiplicity = 2

                         Standard orientation:
 ---------------------------------------------------------------------
 Center     Atomic      Atomic             Coordinates (Angstroms)
 Number     Number       Type             X           Y           Z
 ---------------------------------------------------------------------
      1         11           0       -0.314655    2.999734    0.173102
      2         11           0        5.776711   -0.755953   -1.004408
      3         11           0        2.707703    1.414091   -0.065411
      4         11           0        3.419999   -1.902938    1.375274
      5         11           0       -0.573430   -0.093078    0.143328
      6         11           0       -4.358941   -1.360519   -1.186723
      7         11           0       -6.657387   -0.301337    0.564839
 ---------------------------------------------------------------------

 SCF Done:  E(UB3LYP) =  -1136.11177423     A.U. after   19 cycles

 The electronic state is 2-A.
 Alpha  occ. eigenvalues --  -38.44500 -38.44450 -38.44444 -38.44368 -38.44096
 Alpha  occ. eigenvalues --  -38.44018 -38.43959  -2.20270  -2.20265  -2.20234
 Alpha  occ. eigenvalues --   -2.20159  -2.19886  -2.19853  -2.19804  -1.13980
 Alpha  occ. eigenvalues --   -1.13965  -1.13940  -1.13935  -1.13914  -1.13901
 Alpha  occ. eigenvalues --   -1.13889  -1.13852  -1.13846  -1.13831  -1.13809
 Alpha  occ. eigenvalues --   -1.13807  -1.13589  -1.13547  -1.13537  -1.13528
 Alpha  occ. eigenvalues --   -1.13519  -1.13489  -1.13451  -1.13442  -1.13385
 Alpha  occ. eigenvalues --   -0.16224  -0.13695  -0.12618  -0.09965
 Alpha virt. eigenvalues --   -0.06920  -0.05686  -0.04811  -0.03498  -0.02865
 Alpha virt. eigenvalues --   -0.02462  -0.01950  -0.01923  -0.01378  -0.01076
 Alpha virt. eigenvalues --   -0.00462  -0.00162   0.00292   0.00389   0.00479

  Beta  occ. eigenvalues --  -38.44479 -38.44416 -38.44409 -38.44352 -38.44099
  Beta  occ. eigenvalues --  -38.43980 -38.43938  -2.20230  -2.20218  -2.20159
  Beta  occ. eigenvalues --   -2.20128  -2.19893  -2.19783  -2.19765  -1.13950
  Beta  occ. eigenvalues --   -1.13913  -1.13909  -1.13901  -1.13873  -1.13864
  Beta  occ. eigenvalues --   -1.13837  -1.13835  -1.13810  -1.13788  -1.13786
  Beta  occ. eigenvalues --   -1.13775  -1.13554  -1.13546  -1.13542  -1.13511
  Beta  occ. eigenvalues --   -1.13482  -1.13443  -1.13424  -1.13404  -1.13347
  Beta  occ. eigenvalues --   -0.15675  -0.13526  -0.12413
  Beta virt. eigenvalues --   -0.06799  -0.06233  -0.05397  -0.04392  -0.03304
  Beta virt. eigenvalues --   -0.02690  -0.02210  -0.01828  -0.01516  -0.01209
  Beta virt. eigenvalues --   -0.00772  -0.00157   0.00066   0.00397   0.00541

 Mulliken charges and spin densities:
               1          2
     1  Na   0.457488   0.180720
     2  Na   0.562172   0.079576
     3  Na  -0.285312   0.189482
     4  Na   0.180909   0.149927
     5  Na  -0.874181   0.352723
     6  Na  -0.140798  -0.026788
     7  Na   0.099723   0.074360
 Sum of Mulliken charges =  -0.00000   1.00000

 Dipole moment (field-independent basis, Debye):
    X=              0.2103    Y=              0.3264    Z=              0.1012  Tot=              0.4013
 Quadrupole moment (field-independent basis, Debye-Ang):
   XX=            -57.1968   YY=            -68.7261   ZZ=            -68.0714
   XY=             -8.5484   XZ=             -6.3564   YZ=              2.6433

 Normal termination of Gaussian 16 at Tue Nov 28 23:48:00 2023.
