 Gaussian 16, Revision B.01,
 Gaussian 16:  ES64L-G16RevB.01 20-Dec-2017

 -------------------------
 #P B3LYP/6-311+g(d) force
 -------------------------

 -----
 DPGEN
 -----
 Symbolic Z-matrix:
 Charge =  0 Multiplicity = 2

                         Standard orientation:
 ---------------------------------------------------------------------
 Center     Atomic      Atomic             Coordinates (Angstroms)
 Number     Number       Type             X           Y           Z
 ---------------------------------------------------------------------
      1         11           0       -1.138780    0.249936    1.216243
      2         11           0        2.462746    0.631553    0.861759
      3         11           0        0.660913   -2.500732   -0.008018
      4         11           0       -3.832153    1.123530   -0.649604
      5         11           0       -2.990689   -2.032592   -0.261318
      6         11           0        4.797430   -0.314020   -0.831609
      7         11           0        0.040534    2.842325   -0.327452
 ---------------------------------------------------------------------

 SCF Done:  E(UB3LYP) =  -1136.12462610     A.U. after   19 cycles

 The electronic state is 2-A.
 Alpha  occ. eigenvalues --  -38.44490 -38.44349 -38.43837 -38.43813 -38.43631
 Alpha  occ. eigenvalues --  -38.43493 -38.43492  -2.20325  -2.20186  -2.19659
 Alpha  occ. eigenvalues --   -2.19636  -2.19588  -2.19378  -2.19306  -1.14005
 Alpha  occ. eigenvalues --   -1.13946  -1.13931  -1.13847  -1.13847  -1.13802
 Alpha  occ. eigenvalues --   -1.13367  -1.13337  -1.13325  -1.13315  -1.13288
 Alpha  occ. eigenvalues --   -1.13288  -1.13245  -1.13232  -1.13204  -1.13079
 Alpha  occ. eigenvalues --   -1.13047  -1.13020  -1.12974  -1.12960  -1.12929
 Alpha  occ. eigenvalues --   -0.17460  -0.14334  -0.11852  -0.11164
 Alpha virt. eigenvalues --   -0.05638  -0.05443  -0.04853  -0.03682  -0.02492
 Alpha virt. eigenvalues --   -0.02234  -0.01840  -0.01508  -0.00794  -0.00424
 Alpha virt. eigenvalues --   -0.00340   0.00140   0.00464   0.00566   0.00580

  Beta  occ. eigenvalues --  -38.44392 -38.44290 -38.43810 -38.43806 -38.43606
  Beta  occ. eigenvalues --  -38.43487 -38.43483  -2.20143  -2.20078  -2.19651
  Beta  occ. eigenvalues --   -2.19588  -2.19546  -2.19369  -2.19300  -1.13884
  Beta  occ. eigenvalues --   -1.13823  -1.13809  -1.13777  -1.13773  -1.13723
  Beta  occ. eigenvalues --   -1.13363  -1.13333  -1.13287  -1.13280  -1.13263
  Beta  occ. eigenvalues --   -1.13250  -1.13205  -1.13189  -1.13175  -1.13066
  Beta  occ. eigenvalues --   -1.13028  -1.12988  -1.12969  -1.12950  -1.12922
  Beta  occ. eigenvalues --   -0.16892  -0.13425  -0.11623
  Beta virt. eigenvalues --   -0.07678  -0.05507  -0.05352  -0.04133  -0.03540
  Beta virt. eigenvalues --   -0.02164  -0.01841  -0.01356  -0.01174  -0.00656
  Beta virt. eigenvalues --   -0.00380  -0.00101   0.00331   0.00553   0.00618

 Mulliken charges and spin densities:
               1          2
     1  Na   0.309833  -0.104306
     2  Na  -0.279312   0.068332
     3  Na  -0.246296   0.069820
     4  Na   0.025379   0.393530
     5  Na   0.096086   0.134567
     6  Na   0.236935   0.427188
     7  Na  -0.142625   0.010869
 Sum of Mulliken charges =  -0.00000   1.00000

 Dipole moment (field-independent basis, Debye):
    X=             -0.4738    Y=             -0.0653    Z=             -0.8033  Tot=              0.9349
 Quadrupole moment (field-independent basis, Debye-Ang):
   XX=            -62.2412   YY=            -68.0523   ZZ=            -67.2319
   XY=             -0.9407   XZ=             -0.7102   YZ=             -0.4590

 Normal termination of Gaussian 16 at Tue Nov 28 19:42:46 2023.
