 Gaussian 16, Revision B.01,
 Gaussian 16:  ES64L-G16RevB.01 20-Dec-2017

 -------------------------
 #P B3LYP/6-311+g(d) force
 -------------------------

 -----
 DPGEN
 -----
 Symbolic Z-matrix:
 Charge =  0 Multiplicity = 2

                         Standard orientation:
 ---------------------------------------------------------------------
 Center     Atomic      Atomic             Coordinates (Angstroms)
 Number     Number       Type             X           Y           Z
 ---------------------------------------------------------------------
      1         11           0        2.850712    2.166263   -0.125406
      2         11           0       -1.507749    2.422489   -0.186194
      3         11           0       -3.493850   -0.201666    0.020633
      4         11           0        2.848576   -1.586609    0.094195
      5         11           0       -0.071482   -0.260669   -1.736443
      6         11           0       -0.139768    0.109627    2.009965
      7         11           0       -0.486438   -2.649436   -0.076750
 ---------------------------------------------------------------------

 SCF Done:  E(UB3LYP) =  -1136.12897545     A.U. after   20 cycles

 The electronic state is 2-A.
 Alpha  occ. eigenvalues --  -38.44877 -38.44458 -38.44105 -38.43706 -38.43610
 Alpha  occ. eigenvalues --  -38.43561 -38.42914  -2.20677  -2.20253  -2.19846
 Alpha  occ. eigenvalues --   -2.19578  -2.19505  -2.19458  -2.18819  -1.14347
 Alpha  occ. eigenvalues --   -1.14339  -1.14316  -1.13933  -1.13912  -1.13888
 Alpha  occ. eigenvalues --   -1.13525  -1.13505  -1.13490  -1.13267  -1.13242
 Alpha  occ. eigenvalues --   -1.13220  -1.13187  -1.13184  -1.13121  -1.13120
 Alpha  occ. eigenvalues --   -1.13090  -1.13080  -1.12526  -1.12471  -1.12418
 Alpha  occ. eigenvalues --   -0.18315  -0.13183  -0.11904  -0.10568
 Alpha virt. eigenvalues --   -0.06311  -0.05647  -0.04194  -0.03253  -0.02686
 Alpha virt. eigenvalues --   -0.02464  -0.02117  -0.01358  -0.00557  -0.00302
 Alpha virt. eigenvalues --   -0.00078   0.00283   0.00666   0.00790   0.00798

  Beta  occ. eigenvalues --  -38.44876 -38.44458 -38.44109 -38.43614 -38.43601
  Beta  occ. eigenvalues --  -38.43490 -38.42904  -2.20677  -2.20254  -2.19856
  Beta  occ. eigenvalues --   -2.19445  -2.19408  -2.19376  -2.18806  -1.14348
  Beta  occ. eigenvalues --   -1.14320  -1.14318  -1.13917  -1.13913  -1.13893
  Beta  occ. eigenvalues --   -1.13523  -1.13514  -1.13497  -1.13173  -1.13160
  Beta  occ. eigenvalues --   -1.13126  -1.13110  -1.13080  -1.13071  -1.13059
  Beta  occ. eigenvalues --   -1.13048  -1.12999  -1.12510  -1.12428  -1.12414
  Beta  occ. eigenvalues --   -0.17560  -0.13016  -0.11685
  Beta virt. eigenvalues --   -0.06644  -0.06227  -0.05660  -0.04167  -0.02514
  Beta virt. eigenvalues --   -0.02028  -0.01907  -0.01473  -0.01262  -0.00613
  Beta virt. eigenvalues --   -0.00327   0.00081   0.00307   0.00729   0.00787

 Mulliken charges and spin densities:
               1          2
     1  Na  -0.136551  -0.128173
     2  Na  -0.029393  -0.125575
     3  Na   0.254023  -0.017088
     4  Na   0.059677  -0.086164
     5  Na  -0.050767   0.665661
     6  Na  -0.327598   0.764838
     7  Na   0.230608  -0.073498
 Sum of Mulliken charges =  -0.00000   1.00000

 Dipole moment (field-independent basis, Debye):
    X=             -0.2345    Y=             -0.0973    Z=              0.1312  Tot=              0.2858
 Quadrupole moment (field-independent basis, Debye-Ang):
   XX=            -50.6465   YY=            -66.2458   ZZ=            -75.6761
   XY=             -0.3428   XZ=              0.1239   YZ=             -1.0502

 Normal termination of Gaussian 16 at Thu Dec  7 09:41:56 2023.
