 Gaussian 16, Revision B.01,
 Gaussian 16:  ES64L-G16RevB.01 20-Dec-2017

 -------------------------
 #P B3LYP/6-311+g(d) force
 -------------------------

 -----
 DPGEN
 -----
 Symbolic Z-matrix:
 Charge =  0 Multiplicity = 2

                         Standard orientation:
 ---------------------------------------------------------------------
 Center     Atomic      Atomic             Coordinates (Angstroms)
 Number     Number       Type             X           Y           Z
 ---------------------------------------------------------------------
      1         11           0       -0.501987    1.587613    1.454341
      2         11           0        2.174964    3.166228   -0.774009
      3         11           0        3.382801    0.285154    0.032290
      4         11           0       -0.031054   -0.981218   -0.353919
      5         11           0       -3.198743   -1.363393    0.207191
      6         11           0        4.028428   -2.754242   -0.036117
      7         11           0       -5.854408    0.059859   -0.529776
 ---------------------------------------------------------------------

 SCF Done:  E(UB3LYP) =  -1136.11433425     A.U. after   20 cycles

 The electronic state is 2-A.
 Alpha  occ. eigenvalues --  -38.45187 -38.44869 -38.44772 -38.44221 -38.43924
 Alpha  occ. eigenvalues --  -38.43286 -38.43023  -2.20978  -2.20695  -2.20646
 Alpha  occ. eigenvalues --   -2.20038  -2.19770  -2.19181  -2.18825  -1.14701
 Alpha  occ. eigenvalues --   -1.14657  -1.14571  -1.14350  -1.14324  -1.14318
 Alpha  occ. eigenvalues --   -1.14316  -1.14302  -1.14247  -1.13724  -1.13688
 Alpha  occ. eigenvalues --   -1.13636  -1.13470  -1.13440  -1.13410  -1.12871
 Alpha  occ. eigenvalues --   -1.12855  -1.12826  -1.12486  -1.12480  -1.12453
 Alpha  occ. eigenvalues --   -0.17004  -0.14392  -0.11691  -0.11595
 Alpha virt. eigenvalues --   -0.06535  -0.05116  -0.04618  -0.03630  -0.02967
 Alpha virt. eigenvalues --   -0.02566  -0.01822  -0.01566  -0.01145  -0.00956
 Alpha virt. eigenvalues --   -0.00517  -0.00165   0.00298   0.00471   0.00553

  Beta  occ. eigenvalues --  -38.45180 -38.44767 -38.44716 -38.44168 -38.43925
  Beta  occ. eigenvalues --  -38.43266 -38.43021  -2.20967  -2.20545  -2.20506
  Beta  occ. eigenvalues --   -2.19940  -2.19783  -2.19146  -2.18822  -1.14680
  Beta  occ. eigenvalues --   -1.14652  -1.14559  -1.14261  -1.14235  -1.14225
  Beta  occ. eigenvalues --   -1.14189  -1.14186  -1.14167  -1.13649  -1.13621
  Beta  occ. eigenvalues --   -1.13577  -1.13464  -1.13448  -1.13377  -1.12843
  Beta  occ. eigenvalues --   -1.12826  -1.12801  -1.12481  -1.12477  -1.12450
  Beta  occ. eigenvalues --   -0.16403  -0.13513  -0.11506
  Beta virt. eigenvalues --   -0.08118  -0.06200  -0.04751  -0.04395  -0.03345
  Beta virt. eigenvalues --   -0.02677  -0.02070  -0.01764  -0.01189  -0.00874
  Beta virt. eigenvalues --   -0.00628  -0.00298  -0.00020   0.00382   0.00545

 Mulliken charges and spin densities:
               1          2
     1  Na   0.168614  -0.059412
     2  Na   0.275171   0.147632
     3  Na  -0.104825   0.250077
     4  Na  -0.759312   0.104407
     5  Na  -0.436366   0.105463
     6  Na   0.464607   0.015946
     7  Na   0.392112   0.435887
 Sum of Mulliken charges =  -0.00000   1.00000

 Dipole moment (field-independent basis, Debye):
    X=             -1.4114    Y=              1.1776    Z=              0.2096  Tot=              1.8500
 Quadrupole moment (field-independent basis, Debye-Ang):
   XX=            -68.2114   YY=            -65.1687   ZZ=            -68.0878
   XY=             -2.1655   XZ=             -0.5138   YZ=             -0.4548

 Normal termination of Gaussian 16 at Tue Nov 28 20:21:49 2023.
