 Gaussian 16, Revision B.01,
 Gaussian 16:  ES64L-G16RevB.01 20-Dec-2017

 -------------------------
 #P B3LYP/6-311+g(d) force
 -------------------------

 -----
 DPGEN
 -----
 Symbolic Z-matrix:
 Charge =  0 Multiplicity = 2

                         Standard orientation:
 ---------------------------------------------------------------------
 Center     Atomic      Atomic             Coordinates (Angstroms)
 Number     Number       Type             X           Y           Z
 ---------------------------------------------------------------------
      1         11           0       -0.064162    0.086055    2.251224
      2         11           0        1.505387   -2.378930    0.126806
      3         11           0        0.331002    0.253779   -1.649248
      4         11           0       -0.481171    3.053809   -0.190183
      5         11           0       -2.867262    0.353083    0.052210
      6         11           0        3.085226    0.853347   -0.072677
      7         11           0       -1.509019   -2.221144   -0.518131
 ---------------------------------------------------------------------

 SCF Done:  E(UB3LYP) =  -1136.13367784     A.U. after   19 cycles

 The electronic state is 2-A.
 Alpha  occ. eigenvalues --  -38.44102 -38.44078 -38.43770 -38.43680 -38.43453
 Alpha  occ. eigenvalues --  -38.43220 -38.43158  -2.19939  -2.19914  -2.19586
 Alpha  occ. eigenvalues --   -2.19569  -2.19344  -2.19218  -2.19110  -1.13612
 Alpha  occ. eigenvalues --   -1.13595  -1.13574  -1.13561  -1.13557  -1.13545
 Alpha  occ. eigenvalues --   -1.13319  -1.13289  -1.13245  -1.13223  -1.13221
 Alpha  occ. eigenvalues --   -1.13185  -1.13078  -1.13002  -1.12987  -1.12898
 Alpha  occ. eigenvalues --   -1.12871  -1.12837  -1.12754  -1.12740  -1.12726
 Alpha  occ. eigenvalues --   -0.18866  -0.12863  -0.12586  -0.11189
 Alpha virt. eigenvalues --   -0.05708  -0.04928  -0.04458  -0.03256  -0.03110
 Alpha virt. eigenvalues --   -0.02958  -0.01366  -0.01124  -0.00198  -0.00113
 Alpha virt. eigenvalues --    0.00027   0.00367   0.00839   0.00924   0.00949

  Beta  occ. eigenvalues --  -38.44102 -38.43972 -38.43767 -38.43676 -38.43447
  Beta  occ. eigenvalues --  -38.43161 -38.43146  -2.19915  -2.19743  -2.19584
  Beta  occ. eigenvalues --   -2.19564  -2.19337  -2.19109  -2.19091  -1.13604
  Beta  occ. eigenvalues --   -1.13562  -1.13548  -1.13465  -1.13425  -1.13421
  Beta  occ. eigenvalues --   -1.13317  -1.13279  -1.13232  -1.13225  -1.13189
  Beta  occ. eigenvalues --   -1.13184  -1.13072  -1.12985  -1.12967  -1.12834
  Beta  occ. eigenvalues --   -1.12796  -1.12762  -1.12738  -1.12720  -1.12686
  Beta  occ. eigenvalues --   -0.18109  -0.12646  -0.12352
  Beta virt. eigenvalues --   -0.07189  -0.05716  -0.04823  -0.04466  -0.02451
  Beta virt. eigenvalues --   -0.02313  -0.01865  -0.01292  -0.01053  -0.00245
  Beta virt. eigenvalues --   -0.00081   0.00119   0.00394   0.00843   0.00952

 Mulliken charges and spin densities:
               1          2
     1  Na  -0.622659   0.668486
     2  Na   0.209875   0.102440
     3  Na  -0.166325   0.223954
     4  Na   0.079875  -0.071309
     5  Na   0.206777   0.071999
     6  Na   0.095439  -0.064434
     7  Na   0.197017   0.068864
 Sum of Mulliken charges =  -0.00000   1.00000

 Dipole moment (field-independent basis, Debye):
    X=              0.3778    Y=              0.4486    Z=              0.3224  Tot=              0.6693
 Quadrupole moment (field-independent basis, Debye-Ang):
   XX=            -59.8425   YY=            -62.8495   ZZ=            -72.1949
   XY=             -0.1005   XZ=              0.8140   YZ=              0.4015

 Normal termination of Gaussian 16 at Thu Dec  7 19:50:14 2023.
