 Gaussian 16, Revision B.01,
 Gaussian 16:  ES64L-G16RevB.01 20-Dec-2017

 -------------------------
 #P B3LYP/6-311+g(d) force
 -------------------------

 -----
 DPGEN
 -----
 Symbolic Z-matrix:
 Charge =  0 Multiplicity = 2

                         Standard orientation:
 ---------------------------------------------------------------------
 Center     Atomic      Atomic             Coordinates (Angstroms)
 Number     Number       Type             X           Y           Z
 ---------------------------------------------------------------------
      1         11           0       -0.902593   -0.581901    2.161960
      2         11           0        3.244476   -0.083257   -1.908927
      3         11           0        2.369351   -1.416726    1.449038
      4         11           0       -0.194581   -0.629471   -1.152893
      5         11           0       -3.784787   -1.546244   -1.022626
      6         11           0        1.420302    1.760688    0.457876
      7         11           0       -2.152167    2.496911    0.015573
 ---------------------------------------------------------------------

 SCF Done:  E(UB3LYP) =  -1136.12285419     A.U. after   33 cycles

 The electronic state is 2-A.
 Alpha  occ. eigenvalues --  -38.45212 -38.44453 -38.44391 -38.44043 -38.43771
 Alpha  occ. eigenvalues --  -38.42984 -38.42962  -2.20996  -2.20351  -2.20152
 Alpha  occ. eigenvalues --   -2.19892  -2.19653  -2.18813  -2.18804  -1.14664
 Alpha  occ. eigenvalues --   -1.14634  -1.14610  -1.14074  -1.13997  -1.13948
 Alpha  occ. eigenvalues --   -1.13811  -1.13809  -1.13765  -1.13581  -1.13546
 Alpha  occ. eigenvalues --   -1.13497  -1.13380  -1.13346  -1.13241  -1.12521
 Alpha  occ. eigenvalues --   -1.12478  -1.12467  -1.12464  -1.12446  -1.12420
 Alpha  occ. eigenvalues --   -0.18118  -0.13395  -0.11909  -0.10860
 Alpha virt. eigenvalues --   -0.06089  -0.05620  -0.04802  -0.03257  -0.02634
 Alpha virt. eigenvalues --   -0.02258  -0.02170  -0.01483  -0.00927  -0.00193
 Alpha virt. eigenvalues --    0.00145   0.00185   0.00284   0.00381   0.00535

  Beta  occ. eigenvalues --  -38.45145 -38.44413 -38.44344 -38.44018 -38.43763
  Beta  occ. eigenvalues --  -38.42987 -38.42948  -2.20873  -2.20278  -2.20063
  Beta  occ. eigenvalues --   -2.19846  -2.19642  -2.18810  -2.18788  -1.14575
  Beta  occ. eigenvalues --   -1.14549  -1.14521  -1.14029  -1.13931  -1.13892
  Beta  occ. eigenvalues --   -1.13749  -1.13746  -1.13709  -1.13545  -1.13519
  Beta  occ. eigenvalues --   -1.13463  -1.13359  -1.13326  -1.13236  -1.12502
  Beta  occ. eigenvalues --   -1.12478  -1.12468  -1.12450  -1.12437  -1.12406
  Beta  occ. eigenvalues --   -0.17507  -0.13022  -0.10608
  Beta virt. eigenvalues --   -0.08080  -0.05861  -0.05101  -0.04620  -0.02783
  Beta virt. eigenvalues --   -0.02271  -0.01917  -0.01862  -0.00986  -0.00800
  Beta virt. eigenvalues --    0.00007   0.00199   0.00310   0.00402   0.00509

 Mulliken charges and spin densities:
               1          2
     1  Na  -0.078658   0.138980
     2  Na   1.080706  -0.068644
     3  Na   0.183800   0.030086
     4  Na  -1.868696   0.322051
     5  Na   0.446346   0.041641
     6  Na   0.208338   0.345406
     7  Na   0.028163   0.190481
 Sum of Mulliken charges =  -0.00000   1.00000

 Dipole moment (field-independent basis, Debye):
    X=             -0.2920    Y=              0.5231    Z=              0.6249  Tot=              0.8657
 Quadrupole moment (field-independent basis, Debye-Ang):
   XX=            -54.1192   YY=            -63.0855   ZZ=            -77.5198
   XY=             -2.8991   XZ=             -0.1598   YZ=             -0.3119

 Normal termination of Gaussian 16 at Fri Dec  8 16:57:19 2023.
