 Gaussian 16, Revision B.01,
 Gaussian 16:  ES64L-G16RevB.01 20-Dec-2017

 -------------------------
 #P B3LYP/6-311+g(d) force
 -------------------------

 -----
 DPGEN
 -----
 Symbolic Z-matrix:
 Charge =  0 Multiplicity = 2

                         Standard orientation:
 ---------------------------------------------------------------------
 Center     Atomic      Atomic             Coordinates (Angstroms)
 Number     Number       Type             X           Y           Z
 ---------------------------------------------------------------------
      1         11           0        2.156716   -1.962765    0.554701
      2         11           0       -3.618341   -0.610936    0.049977
      3         11           0       -0.397766   -2.202275   -1.012410
      4         11           0        0.383592    0.699870   -1.376996
      5         11           0       -1.640094    2.704993   -0.080666
      6         11           0        3.832030    1.384392    0.068947
      7         11           0       -0.716136   -0.013279    1.796448
 ---------------------------------------------------------------------

 SCF Done:  E(UB3LYP) =  -1136.11694509     A.U. after   25 cycles

 The electronic state is 2-A.
 Alpha  occ. eigenvalues --  -38.45587 -38.45035 -38.44103 -38.43828 -38.43716
 Alpha  occ. eigenvalues --  -38.43017 -38.42677  -2.21361  -2.20765  -2.20001
 Alpha  occ. eigenvalues --   -2.19693  -2.19556  -2.18995  -2.18634  -1.15038
 Alpha  occ. eigenvalues --   -1.15013  -1.14993  -1.14443  -1.14428  -1.14400
 Alpha  occ. eigenvalues --   -1.13699  -1.13636  -1.13621  -1.13405  -1.13362
 Alpha  occ. eigenvalues --   -1.13311  -1.13268  -1.13219  -1.13169  -1.12721
 Alpha  occ. eigenvalues --   -1.12663  -1.12590  -1.12307  -1.12276  -1.12237
 Alpha  occ. eigenvalues --   -0.18399  -0.13392  -0.11726  -0.10450
 Alpha virt. eigenvalues --   -0.07312  -0.05357  -0.03771  -0.03371  -0.02991
 Alpha virt. eigenvalues --   -0.02340  -0.02142  -0.01305  -0.00691  -0.00332
 Alpha virt. eigenvalues --   -0.00011   0.00073   0.00413   0.00618   0.00725

  Beta  occ. eigenvalues --  -38.45574 -38.45038 -38.44047 -38.43820 -38.43704
  Beta  occ. eigenvalues --  -38.42945 -38.42641  -2.21341  -2.20771  -2.19897
  Beta  occ. eigenvalues --   -2.19679  -2.19539  -2.18869  -2.18571  -1.15009
  Beta  occ. eigenvalues --   -1.14995  -1.14983  -1.14445  -1.14429  -1.14405
  Beta  occ. eigenvalues --   -1.13622  -1.13563  -1.13546  -1.13391  -1.13336
  Beta  occ. eigenvalues --   -1.13306  -1.13248  -1.13195  -1.13156  -1.12635
  Beta  occ. eigenvalues --   -1.12566  -1.12497  -1.12263  -1.12228  -1.12175
  Beta  occ. eigenvalues --   -0.17705  -0.13123  -0.11517
  Beta virt. eigenvalues --   -0.07238  -0.06591  -0.05274  -0.03706  -0.02750
  Beta virt. eigenvalues --   -0.02664  -0.01877  -0.01339  -0.01086  -0.00682
  Beta virt. eigenvalues --   -0.00112   0.00017   0.00098   0.00547   0.00676

 Mulliken charges and spin densities:
               1          2
     1  Na   0.107065   0.098228
     2  Na   0.069260   0.017399
     3  Na  -0.105090   0.090816
     4  Na   0.264443   0.252242
     5  Na  -0.105435  -0.101672
     6  Na  -0.077928   0.003856
     7  Na  -0.152315   0.639131
 Sum of Mulliken charges =  -0.00000   1.00000

 Dipole moment (field-independent basis, Debye):
    X=             -0.6069    Y=              0.1779    Z=              0.1759  Tot=              0.6564
 Quadrupole moment (field-independent basis, Debye-Ang):
   XX=            -48.3357   YY=            -68.1658   ZZ=            -74.9573
   XY=              0.9116   XZ=              2.6003   YZ=              0.6812

 Normal termination of Gaussian 16 at Tue Dec  5 23:05:51 2023.
