 Gaussian 16, Revision B.01,
 Gaussian 16:  ES64L-G16RevB.01 20-Dec-2017

 -------------------------
 #P B3LYP/6-311+g(d) force
 -------------------------

 -----
 DPGEN
 -----
 Symbolic Z-matrix:
 Charge =  0 Multiplicity = 2

                         Standard orientation:
 ---------------------------------------------------------------------
 Center     Atomic      Atomic             Coordinates (Angstroms)
 Number     Number       Type             X           Y           Z
 ---------------------------------------------------------------------
      1         11           0       -3.935218   -0.086655    0.559428
      2         11           0        0.956013   -2.345081   -0.888872
      3         11           0        3.051968    1.766603    1.278996
      4         11           0       -2.539315    2.793172   -0.474445
      5         11           0        3.810822   -1.982748   -0.114566
      6         11           0        1.115463    3.020975   -0.701281
      7         11           0       -2.459733   -3.166266    0.340740
 ---------------------------------------------------------------------

 SCF Done:  E(UB3LYP) =  -1136.10927710     A.U. after   20 cycles

 The electronic state is 2-A.
 Alpha  occ. eigenvalues --  -38.44906 -38.44760 -38.44647 -38.44318 -38.44273
 Alpha  occ. eigenvalues --  -38.43953 -38.43886  -2.20720  -2.20538  -2.20454
 Alpha  occ. eigenvalues --   -2.20124  -2.20106  -2.19758  -2.19691  -1.14422
 Alpha  occ. eigenvalues --   -1.14365  -1.14332  -1.14221  -1.14211  -1.14190
 Alpha  occ. eigenvalues --   -1.14183  -1.14116  -1.14108  -1.13798  -1.13785
 Alpha  occ. eigenvalues --   -1.13764  -1.13748  -1.13742  -1.13720  -1.13411
 Alpha  occ. eigenvalues --   -1.13405  -1.13384  -1.13341  -1.13329  -1.13325
 Alpha  occ. eigenvalues --   -0.15845  -0.13928  -0.13429  -0.10788
 Alpha virt. eigenvalues --   -0.07301  -0.04702  -0.04482  -0.03583  -0.03497
 Alpha virt. eigenvalues --   -0.02327  -0.01911  -0.01841  -0.01333  -0.00886
 Alpha virt. eigenvalues --   -0.00585  -0.00085   0.00310   0.00354   0.00760

  Beta  occ. eigenvalues --  -38.44855 -38.44756 -38.44635 -38.44313 -38.44229
  Beta  occ. eigenvalues --  -38.43890 -38.43822  -2.20627  -2.20539  -2.20438
  Beta  occ. eigenvalues --   -2.20121  -2.20025  -2.19641  -2.19572  -1.14353
  Beta  occ. eigenvalues --   -1.14304  -1.14267  -1.14228  -1.14215  -1.14147
  Beta  occ. eigenvalues --   -1.14146  -1.14107  -1.14090  -1.13790  -1.13786
  Beta  occ. eigenvalues --   -1.13740  -1.13690  -1.13688  -1.13666  -1.13332
  Beta  occ. eigenvalues --   -1.13327  -1.13306  -1.13260  -1.13250  -1.13247
  Beta  occ. eigenvalues --   -0.15366  -0.13113  -0.12672
  Beta virt. eigenvalues --   -0.07702  -0.07377  -0.04318  -0.04147  -0.03276
  Beta virt. eigenvalues --   -0.03184  -0.02007  -0.01719  -0.01586  -0.01017
  Beta virt. eigenvalues --   -0.00725  -0.00293   0.00131   0.00343   0.00383

 Mulliken charges and spin densities:
               1          2
     1  Na  -0.167275   0.026414
     2  Na  -0.791972   0.090048
     3  Na   0.268552   0.173650
     4  Na   0.253860   0.278769
     5  Na   0.403078   0.124758
     6  Na  -0.412967   0.016355
     7  Na   0.446724   0.290007
 Sum of Mulliken charges =  -0.00000   1.00000

 Dipole moment (field-independent basis, Debye):
    X=              0.8872    Y=              0.0098    Z=              0.3651  Tot=              0.9594
 Quadrupole moment (field-independent basis, Debye-Ang):
   XX=            -60.3193   YY=            -72.5097   ZZ=            -68.5636
   XY=              0.1357   XZ=              2.0141   YZ=             -1.5787

 Normal termination of Gaussian 16 at Sun Dec  3 19:24:38 2023.
