 Gaussian 16, Revision B.01,
 Gaussian 16:  ES64L-G16RevB.01 20-Dec-2017

 -------------------------
 #P B3LYP/6-311+g(d) force
 -------------------------

 -----
 DPGEN
 -----
 Symbolic Z-matrix:
 Charge =  0 Multiplicity = 2

                         Standard orientation:
 ---------------------------------------------------------------------
 Center     Atomic      Atomic             Coordinates (Angstroms)
 Number     Number       Type             X           Y           Z
 ---------------------------------------------------------------------
      1         11           0        2.235695    1.557889   -0.820550
      2         11           0        0.249975   -1.949216   -0.660989
      3         11           0        0.200395    0.137500    1.812455
      4         11           0       -0.973070    2.758396    0.423223
      5         11           0       -1.846287    0.223333   -1.541057
      6         11           0       -3.359182   -1.401166    0.517419
      7         11           0        3.492474   -1.326735    0.269499
 ---------------------------------------------------------------------

 SCF Done:  E(UB3LYP) =  -1136.12676224     A.U. after   21 cycles

 The electronic state is 2-A.
 Alpha  occ. eigenvalues --  -38.44916 -38.44241 -38.44194 -38.43825 -38.43480
 Alpha  occ. eigenvalues --  -38.43380 -38.42765  -2.20726  -2.20059  -2.20023
 Alpha  occ. eigenvalues --   -2.19718  -2.19434  -2.19311  -2.18631  -1.14440
 Alpha  occ. eigenvalues --   -1.14366  -1.14355  -1.13758  -1.13722  -1.13710
 Alpha  occ. eigenvalues --   -1.13696  -1.13680  -1.13625  -1.13466  -1.13424
 Alpha  occ. eigenvalues --   -1.13295  -1.13114  -1.13080  -1.13035  -1.12997
 Alpha  occ. eigenvalues --   -1.12952  -1.12913  -1.12308  -1.12297  -1.12255
 Alpha  occ. eigenvalues --   -0.18502  -0.13683  -0.11908  -0.10478
 Alpha virt. eigenvalues --   -0.06593  -0.05384  -0.03995  -0.03480  -0.02684
 Alpha virt. eigenvalues --   -0.02354  -0.02216  -0.01273  -0.00485  -0.00100
 Alpha virt. eigenvalues --    0.00118   0.00221   0.00671   0.00694   0.00770

  Beta  occ. eigenvalues --  -38.44917 -38.44243 -38.44175 -38.43806 -38.43432
  Beta  occ. eigenvalues --  -38.43295 -38.42758  -2.20729  -2.20065  -2.19987
  Beta  occ. eigenvalues --   -2.19687  -2.19346  -2.19155  -2.18622  -1.14439
  Beta  occ. eigenvalues --   -1.14361  -1.14353  -1.13755  -1.13723  -1.13703
  Beta  occ. eigenvalues --   -1.13665  -1.13656  -1.13606  -1.13449  -1.13359
  Beta  occ. eigenvalues --   -1.13278  -1.13052  -1.13016  -1.12974  -1.12894
  Beta  occ. eigenvalues --   -1.12840  -1.12802  -1.12301  -1.12275  -1.12243
  Beta  occ. eigenvalues --   -0.17790  -0.13517  -0.11682
  Beta virt. eigenvalues --   -0.06673  -0.06425  -0.05281  -0.03874  -0.02963
  Beta virt. eigenvalues --   -0.02268  -0.01927  -0.01361  -0.01097  -0.00378
  Beta virt. eigenvalues --    0.00009   0.00159   0.00271   0.00729   0.00793

 Mulliken charges and spin densities:
               1          2
     1  Na  -0.250018   0.108779
     2  Na  -0.392461   0.070288
     3  Na  -0.437039   0.617573
     4  Na   0.099002  -0.034530
     5  Na   0.289485   0.343900
     6  Na   0.140890  -0.096809
     7  Na   0.550141  -0.009200
 Sum of Mulliken charges =  -0.00000   1.00000

 Dipole moment (field-independent basis, Debye):
    X=              0.1043    Y=             -0.3764    Z=              0.2391  Tot=              0.4579
 Quadrupole moment (field-independent basis, Debye-Ang):
   XX=            -49.1754   YY=            -69.3216   ZZ=            -73.7705
   XY=              0.3335   XZ=             -2.2045   YZ=             -2.1277

 Normal termination of Gaussian 16 at Tue Dec  5 21:36:32 2023.
