 Gaussian 16, Revision B.01,
 Gaussian 16:  ES64L-G16RevB.01 20-Dec-2017

 -------------------------
 #P B3LYP/6-311+g(d) force
 -------------------------

 -----
 DPGEN
 -----
 Symbolic Z-matrix:
 Charge =  0 Multiplicity = 2

                         Standard orientation:
 ---------------------------------------------------------------------
 Center     Atomic      Atomic             Coordinates (Angstroms)
 Number     Number       Type             X           Y           Z
 ---------------------------------------------------------------------
      1         11           0        1.328092    2.801641   -0.066691
      2         11           0        0.953970   -2.615413    0.232851
      3         11           0       -2.597405   -1.591173   -0.329742
      4         11           0        2.814909   -0.430878   -0.231685
      5         11           0       -0.132925    0.042069   -1.833595
      6         11           0       -0.094837   -0.029949    2.058801
      7         11           0       -2.271804    1.823703    0.170059
 ---------------------------------------------------------------------

 SCF Done:  E(UB3LYP) =  -1136.13779940     A.U. after   19 cycles

 The electronic state is 2-A.
 Alpha  occ. eigenvalues --  -38.43804 -38.43749 -38.43607 -38.43578 -38.43487
 Alpha  occ. eigenvalues --  -38.43443 -38.43297  -2.19711  -2.19603  -2.19491
 Alpha  occ. eigenvalues --   -2.19452  -2.19443  -2.19258  -2.19217  -1.13384
 Alpha  occ. eigenvalues --   -1.13365  -1.13329  -1.13289  -1.13282  -1.13269
 Alpha  occ. eigenvalues --   -1.13228  -1.13168  -1.13163  -1.13127  -1.13107
 Alpha  occ. eigenvalues --   -1.13091  -1.13086  -1.13067  -1.13042  -1.12930
 Alpha  occ. eigenvalues --   -1.12916  -1.12900  -1.12872  -1.12853  -1.12824
 Alpha  occ. eigenvalues --   -0.18898  -0.13064  -0.12438  -0.11164
 Alpha virt. eigenvalues --   -0.05312  -0.05046  -0.04656  -0.03390  -0.03001
 Alpha virt. eigenvalues --   -0.02877  -0.01258  -0.01100  -0.00177  -0.00120
 Alpha virt. eigenvalues --    0.00000   0.00382   0.00859   0.00905   0.00949

  Beta  occ. eigenvalues --  -38.43743 -38.43711 -38.43599 -38.43572 -38.43443
  Beta  occ. eigenvalues --  -38.43413 -38.43289  -2.19595  -2.19539  -2.19484
  Beta  occ. eigenvalues --   -2.19442  -2.19307  -2.19260  -2.19207  -1.13304
  Beta  occ. eigenvalues --   -1.13291  -1.13260  -1.13254  -1.13229  -1.13207
  Beta  occ. eigenvalues --   -1.13200  -1.13137  -1.13134  -1.13106  -1.13083
  Beta  occ. eigenvalues --   -1.13082  -1.13020  -1.12977  -1.12957  -1.12920
  Beta  occ. eigenvalues --   -1.12911  -1.12899  -1.12860  -1.12828  -1.12813
  Beta  occ. eigenvalues --   -0.18131  -0.12807  -0.12202
  Beta virt. eigenvalues --   -0.07217  -0.05318  -0.04974  -0.04638  -0.02537
  Beta virt. eigenvalues --   -0.02237  -0.01812  -0.01176  -0.01022  -0.00221
  Beta virt. eigenvalues --   -0.00144   0.00100   0.00394   0.00887   0.00929

 Mulliken charges and spin densities:
               1          2
     1  Na   0.000547  -0.108592
     2  Na   0.290875   0.030634
     3  Na   0.182147  -0.052329
     4  Na   0.107875  -0.053931
     5  Na  -0.273173   0.589797
     6  Na  -0.418449   0.678016
     7  Na   0.110178  -0.083594
 Sum of Mulliken charges =  -0.00000   1.00000

 Dipole moment (field-independent basis, Debye):
    X=             -0.2773    Y=              0.1624    Z=              0.0883  Tot=              0.3332
 Quadrupole moment (field-independent basis, Debye-Ang):
   XX=            -60.3730   YY=            -62.5030   ZZ=            -72.1077
   XY=              0.6458   XZ=             -0.1834   YZ=              0.2654

 Normal termination of Gaussian 16 at Tue Dec  5 11:43:48 2023.
