 Gaussian 16, Revision B.01,
 Gaussian 16:  ES64L-G16RevB.01 20-Dec-2017

 -------------------------
 #P B3LYP/6-311+g(d) force
 -------------------------

 -----
 DPGEN
 -----
 Symbolic Z-matrix:
 Charge =  0 Multiplicity = 2

                         Standard orientation:
 ---------------------------------------------------------------------
 Center     Atomic      Atomic             Coordinates (Angstroms)
 Number     Number       Type             X           Y           Z
 ---------------------------------------------------------------------
      1         11           0       -2.780419   -0.739082    0.766763
      2         11           0       -5.474778   -0.900514   -0.656762
      3         11           0       -3.010040    2.087775   -0.192008
      4         11           0        0.293992    1.302794    0.031776
      5         11           0        0.898869   -1.903672   -0.123119
      6         11           0        3.523940    0.123188    1.016866
      7         11           0        6.548437    0.029511   -0.843515
 ---------------------------------------------------------------------

 SCF Done:  E(UB3LYP) =  -1136.11326491     A.U. after   21 cycles

 The electronic state is 2-A.
 Alpha  occ. eigenvalues --  -38.44805 -38.44577 -38.44514 -38.44341 -38.43945
 Alpha  occ. eigenvalues --  -38.43639 -38.43571  -2.20693  -2.20438  -2.20418
 Alpha  occ. eigenvalues --   -2.20168  -2.19823  -2.19449  -2.19311  -1.14452
 Alpha  occ. eigenvalues --   -1.14344  -1.14280  -1.14138  -1.14096  -1.14082
 Alpha  occ. eigenvalues --   -1.14067  -1.14055  -1.14044  -1.13818  -1.13813
 Alpha  occ. eigenvalues --   -1.13770  -1.13512  -1.13481  -1.13459  -1.13151
 Alpha  occ. eigenvalues --   -1.13126  -1.13053  -1.12983  -1.12982  -1.12937
 Alpha  occ. eigenvalues --   -0.17480  -0.14416  -0.11716  -0.10983
 Alpha virt. eigenvalues --   -0.06645  -0.05493  -0.05036  -0.03398  -0.03029
 Alpha virt. eigenvalues --   -0.02695  -0.01958  -0.01150  -0.01020  -0.00795
 Alpha virt. eigenvalues --   -0.00389  -0.00243   0.00045   0.00246   0.00546

  Beta  occ. eigenvalues --  -38.44733 -38.44520 -38.44495 -38.44310 -38.43924
  Beta  occ. eigenvalues --  -38.43637 -38.43573  -2.20562  -2.20408  -2.20312
  Beta  occ. eigenvalues --   -2.20110  -2.19790  -2.19445  -2.19314  -1.14377
  Beta  occ. eigenvalues --   -1.14258  -1.14172  -1.14107  -1.14045  -1.14039
  Beta  occ. eigenvalues --   -1.14011  -1.13987  -1.13969  -1.13776  -1.13771
  Beta  occ. eigenvalues --   -1.13739  -1.13495  -1.13463  -1.13395  -1.13146
  Beta  occ. eigenvalues --   -1.13123  -1.13053  -1.12985  -1.12985  -1.12938
  Beta  occ. eigenvalues --   -0.16798  -0.14191  -0.10987
  Beta virt. eigenvalues --   -0.07749  -0.06373  -0.05081  -0.04680  -0.03066
  Beta virt. eigenvalues --   -0.02734  -0.02269  -0.01651  -0.00994  -0.00723
  Beta virt. eigenvalues --   -0.00611  -0.00115  -0.00056   0.00194   0.00352

 Mulliken charges and spin densities:
               1          2
     1  Na  -0.479643   0.213752
     2  Na   0.311662   0.046279
     3  Na   0.344302  -0.013629
     4  Na  -0.699618   0.367089
     5  Na   0.093757   0.271209
     6  Na   0.492939   0.154403
     7  Na  -0.063399  -0.039105
 Sum of Mulliken charges =  -0.00000   1.00000

 Dipole moment (field-independent basis, Debye):
    X=             -2.5494    Y=             -0.2486    Z=             -0.5491  Tot=              2.6197
 Quadrupole moment (field-independent basis, Debye-Ang):
   XX=            -70.1740   YY=            -66.9876   ZZ=            -68.1848
   XY=             -2.4577   XZ=              0.1966   YZ=              0.6272

 Normal termination of Gaussian 16 at Tue Nov 28 21:10:39 2023.
