 Gaussian 16, Revision B.01,
 Gaussian 16:  ES64L-G16RevB.01 20-Dec-2017

 -------------------------
 #P B3LYP/6-311+g(d) force
 -------------------------

 -----
 DPGEN
 -----
 Symbolic Z-matrix:
 Charge =  0 Multiplicity = 2

                         Standard orientation:
 ---------------------------------------------------------------------
 Center     Atomic      Atomic             Coordinates (Angstroms)
 Number     Number       Type             X           Y           Z
 ---------------------------------------------------------------------
      1         11           0        1.806275   -1.379042    1.993977
      2         11           0       -4.060751   -0.271094   -0.600084
      3         11           0       -1.106961    3.207745    0.822820
      4         11           0        2.765506   -1.261565   -1.471967
      5         11           0        2.361605    1.866640   -0.180443
      6         11           0       -0.143742    0.347592   -1.045888
      7         11           0       -1.621930   -2.510276    0.481587
 ---------------------------------------------------------------------

 SCF Done:  E(UB3LYP) =  -1136.12322464     A.U. after   20 cycles

 The electronic state is 2-A.
 Alpha  occ. eigenvalues --  -38.44779 -38.44263 -38.44048 -38.43928 -38.43852
 Alpha  occ. eigenvalues --  -38.43641 -38.43585  -2.20537  -2.20121  -2.19832
 Alpha  occ. eigenvalues --   -2.19788  -2.19668  -2.19574  -2.19353  -1.14211
 Alpha  occ. eigenvalues --   -1.14186  -1.14168  -1.13870  -1.13788  -1.13720
 Alpha  occ. eigenvalues --   -1.13524  -1.13512  -1.13469  -1.13447  -1.13430
 Alpha  occ. eigenvalues --   -1.13415  -1.13323  -1.13303  -1.13287  -1.13272
 Alpha  occ. eigenvalues --   -1.13225  -1.13202  -1.13022  -1.13008  -1.12980
 Alpha  occ. eigenvalues --   -0.17572  -0.13297  -0.12008  -0.10475
 Alpha virt. eigenvalues --   -0.06360  -0.05545  -0.04809  -0.03165  -0.02842
 Alpha virt. eigenvalues --   -0.02206  -0.02006  -0.01293  -0.01062  -0.00421
 Alpha virt. eigenvalues --   -0.00247   0.00193   0.00357   0.00552   0.00740

  Beta  occ. eigenvalues --  -38.44765 -38.44256 -38.44044 -38.43884 -38.43772
  Beta  occ. eigenvalues --  -38.43624 -38.43569  -2.20513  -2.20112  -2.19828
  Beta  occ. eigenvalues --   -2.19709  -2.19544  -2.19519  -2.19322  -1.14194
  Beta  occ. eigenvalues --   -1.14170  -1.14152  -1.13863  -1.13770  -1.13698
  Beta  occ. eigenvalues --   -1.13524  -1.13507  -1.13428  -1.13411  -1.13380
  Beta  occ. eigenvalues --   -1.13346  -1.13241  -1.13218  -1.13211  -1.13199
  Beta  occ. eigenvalues --   -1.13188  -1.13168  -1.13000  -1.12988  -1.12959
  Beta  occ. eigenvalues --   -0.16991  -0.13048  -0.11646
  Beta virt. eigenvalues --   -0.06918  -0.06053  -0.05476  -0.04494  -0.02813
  Beta virt. eigenvalues --   -0.02273  -0.02057  -0.01321  -0.01184  -0.00848
  Beta virt. eigenvalues --   -0.00333  -0.00025   0.00292   0.00536   0.00667

 Mulliken charges and spin densities:
               1          2
     1  Na  -0.455687   0.479843
     2  Na   0.388554   0.031012
     3  Na  -0.289213  -0.019239
     4  Na   0.585724   0.061560
     5  Na   0.345261   0.046175
     6  Na  -0.172593   0.400540
     7  Na  -0.402046   0.000109
 Sum of Mulliken charges =  -0.00000   1.00000

 Dipole moment (field-independent basis, Debye):
    X=             -0.2987    Y=             -0.0423    Z=             -0.0041  Tot=              0.3017
 Quadrupole moment (field-independent basis, Debye-Ang):
   XX=            -52.1694   YY=            -68.4535   ZZ=            -72.8215
   XY=             -1.1898   XZ=             -0.1358   YZ=              2.6449

 Normal termination of Gaussian 16 at Tue Dec  5 13:57:30 2023.
