 Gaussian 16, Revision B.01,
 Gaussian 16:  ES64L-G16RevB.01 20-Dec-2017

 -------------------------
 #P B3LYP/6-311+g(d) force
 -------------------------

 -----
 DPGEN
 -----
 Symbolic Z-matrix:
 Charge =  0 Multiplicity = 2

                         Standard orientation:
 ---------------------------------------------------------------------
 Center     Atomic      Atomic             Coordinates (Angstroms)
 Number     Number       Type             X           Y           Z
 ---------------------------------------------------------------------
      1         11           0       -4.141876   -0.106478   -0.983913
      2         11           0        3.681685    0.671666   -1.801559
      3         11           0       -6.727011   -0.344952    0.846731
      4         11           0        1.646959    3.001241    1.016146
      5         11           0       -0.460382    0.304703   -0.952997
      6         11           0        3.268050   -0.749724    1.897409
      7         11           0        2.732575   -2.776456   -0.021818
 ---------------------------------------------------------------------

 SCF Done:  E(UB3LYP) =  -1136.09409083     A.U. after   49 cycles

 The electronic state is 2-A.
 Alpha  occ. eigenvalues --  -38.46814 -38.44855 -38.44793 -38.44106 -38.44051
 Alpha  occ. eigenvalues --  -38.43966 -38.43937  -2.22547  -2.20616  -2.20524
 Alpha  occ. eigenvalues --   -2.19922  -2.19883  -2.19817  -2.19734  -1.16223
 Alpha  occ. eigenvalues --   -1.16178  -1.16174  -1.14282  -1.14279  -1.14278
 Alpha  occ. eigenvalues --   -1.14225  -1.14200  -1.14153  -1.13794  -1.13570
 Alpha  occ. eigenvalues --   -1.13544  -1.13538  -1.13524  -1.13499  -1.13455
 Alpha  occ. eigenvalues --   -1.13424  -1.13404  -1.13401  -1.13368  -1.13363
 Alpha  occ. eigenvalues --   -0.16502  -0.13584  -0.11768  -0.10509
 Alpha virt. eigenvalues --   -0.08419  -0.05524  -0.04562  -0.03177  -0.02841
 Alpha virt. eigenvalues --   -0.02779  -0.02458  -0.02196  -0.01605  -0.01134
 Alpha virt. eigenvalues --   -0.00805  -0.00221   0.00020   0.00308   0.00494

  Beta  occ. eigenvalues --  -38.46765 -38.44873 -38.44803 -38.44029 -38.44004
  Beta  occ. eigenvalues --  -38.43944 -38.43932  -2.22457  -2.20649  -2.20544
  Beta  occ. eigenvalues --   -2.19840  -2.19776  -2.19740  -2.19721  -1.16144
  Beta  occ. eigenvalues --   -1.16119  -1.16113  -1.14305  -1.14301  -1.14300
  Beta  occ. eigenvalues --   -1.14238  -1.14207  -1.14163  -1.13738  -1.13518
  Beta  occ. eigenvalues --   -1.13477  -1.13446  -1.13429  -1.13422  -1.13403
  Beta  occ. eigenvalues --   -1.13394  -1.13392  -1.13385  -1.13363  -1.13319
  Beta  occ. eigenvalues --   -0.15822  -0.13665  -0.11274
  Beta virt. eigenvalues --   -0.08134  -0.07033  -0.05249  -0.04085  -0.02972
  Beta virt. eigenvalues --   -0.02726  -0.02569  -0.02056  -0.01675  -0.01374
  Beta virt. eigenvalues --   -0.00948  -0.00560  -0.00147   0.00195   0.00436

 Mulliken charges and spin densities:
               1          2
     1  Na  -1.072379   0.080914
     2  Na   0.659394   0.246766
     3  Na   0.004568  -0.084183
     4  Na   0.347907   0.458833
     5  Na  -0.352291  -0.019534
     6  Na   0.098012   0.234951
     7  Na   0.314790   0.082254
 Sum of Mulliken charges =  -0.00000   1.00000

 Dipole moment (field-independent basis, Debye):
    X=              0.3717    Y=             -0.0134    Z=             -0.4842  Tot=              0.6106
 Quadrupole moment (field-independent basis, Debye-Ang):
   XX=            -53.9185   YY=            -71.7380   ZZ=            -70.9400
   XY=              6.0373   XZ=            -12.1299   YZ=              0.9253

 Normal termination of Gaussian 16 at Sun Dec  3 18:56:26 2023.
