 Gaussian 16, Revision B.01,
 Gaussian 16:  ES64L-G16RevB.01 20-Dec-2017

 -------------------------
 #P B3LYP/6-311+g(d) force
 -------------------------

 -----
 DPGEN
 -----
 Symbolic Z-matrix:
 Charge =  0 Multiplicity = 2

                         Standard orientation:
 ---------------------------------------------------------------------
 Center     Atomic      Atomic             Coordinates (Angstroms)
 Number     Number       Type             X           Y           Z
 ---------------------------------------------------------------------
      1         11           0        4.053755    1.401854    0.855455
      2         11           0        3.798051   -1.599086   -1.272109
      3         11           0        0.745657   -0.965073    1.336963
      4         11           0       -4.526094   -0.811064    0.003192
      5         11           0       -2.958636    2.102576   -0.126756
      6         11           0       -1.230463   -2.726068   -0.074202
      7         11           0        0.117731    2.596860   -0.722543
 ---------------------------------------------------------------------

 SCF Done:  E(UB3LYP) =  -1136.10794694     A.U. after   23 cycles

 The electronic state is 2-A.
 Alpha  occ. eigenvalues --  -38.45988 -38.45612 -38.44305 -38.44253 -38.43505
 Alpha  occ. eigenvalues --  -38.43471 -38.43256  -2.21731  -2.21346  -2.20114
 Alpha  occ. eigenvalues --   -2.20091  -2.19321  -2.19270  -2.19075  -1.15403
 Alpha  occ. eigenvalues --   -1.15371  -1.15348  -1.15032  -1.14999  -1.14979
 Alpha  occ. eigenvalues --   -1.13802  -1.13769  -1.13763  -1.13725  -1.13725
 Alpha  occ. eigenvalues --   -1.13715  -1.13047  -1.12994  -1.12981  -1.12930
 Alpha  occ. eigenvalues --   -1.12914  -1.12866  -1.12773  -1.12730  -1.12694
 Alpha  occ. eigenvalues --   -0.16232  -0.13987  -0.11840  -0.10798
 Alpha virt. eigenvalues --   -0.07290  -0.05543  -0.04274  -0.03325  -0.03242
 Alpha virt. eigenvalues --   -0.02489  -0.02204  -0.01582  -0.00975  -0.00516
 Alpha virt. eigenvalues --   -0.00436  -0.00326   0.00231   0.00365   0.00519

  Beta  occ. eigenvalues --  -38.45939 -38.45609 -38.44222 -38.44206 -38.43504
  Beta  occ. eigenvalues --  -38.43439 -38.43247  -2.21642  -2.21342  -2.20005
  Beta  occ. eigenvalues --   -2.19961  -2.19325  -2.19210  -2.19064  -1.15342
  Beta  occ. eigenvalues --   -1.15303  -1.15287  -1.15030  -1.14992  -1.14968
  Beta  occ. eigenvalues --   -1.13739  -1.13663  -1.13663  -1.13659  -1.13658
  Beta  occ. eigenvalues --   -1.13621  -1.13026  -1.12999  -1.12974  -1.12889
  Beta  occ. eigenvalues --   -1.12869  -1.12833  -1.12749  -1.12725  -1.12682
  Beta  occ. eigenvalues --   -0.15676  -0.13211  -0.11553
  Beta virt. eigenvalues --   -0.07493  -0.07077  -0.05359  -0.03883  -0.02974
  Beta virt. eigenvalues --   -0.02879  -0.02146  -0.01972  -0.01406  -0.00738
  Beta virt. eigenvalues --   -0.00284  -0.00240  -0.00137   0.00311   0.00438

 Mulliken charges and spin densities:
               1          2
     1  Na   0.281227   0.160052
     2  Na   0.097505   0.251398
     3  Na  -0.566269   0.122547
     4  Na  -0.056887   0.360289
     5  Na  -0.015792   0.112468
     6  Na   0.255289  -0.039042
     7  Na   0.004925   0.032287
 Sum of Mulliken charges =  -0.00000   1.00000

 Dipole moment (field-independent basis, Debye):
    X=              2.1569    Y=             -0.5165    Z=             -0.2055  Tot=              2.2274
 Quadrupole moment (field-independent basis, Debye-Ang):
   XX=            -61.6487   YY=            -71.0845   ZZ=            -66.3862
   XY=              3.5986   XZ=             -0.1246   YZ=              6.6333

 Normal termination of Gaussian 16 at Sun Dec  3 16:27:48 2023.
