 Gaussian 16, Revision B.01,
 Gaussian 16:  ES64L-G16RevB.01 20-Dec-2017

 -------------------------
 #P B3LYP/6-311+g(d) force
 -------------------------

 -----
 DPGEN
 -----
 Symbolic Z-matrix:
 Charge =  0 Multiplicity = 2

                         Standard orientation:
 ---------------------------------------------------------------------
 Center     Atomic      Atomic             Coordinates (Angstroms)
 Number     Number       Type             X           Y           Z
 ---------------------------------------------------------------------
      1         11           0        0.549751   -2.776414   -0.588825
      2         11           0        0.019391   -0.582818    2.051270
      3         11           0        1.302896    2.469675    0.021966
      4         11           0       -0.051036   -0.108227   -1.403059
      5         11           0       -2.981370   -1.035963    0.122015
      6         11           0        3.099253   -0.164942    0.030402
      7         11           0       -1.938885    2.198689   -0.233769
 ---------------------------------------------------------------------

 SCF Done:  E(UB3LYP) =  -1136.13343295     A.U. after   19 cycles

 The electronic state is 2-A.
 Alpha  occ. eigenvalues --  -38.44155 -38.44051 -38.43587 -38.43553 -38.43404
 Alpha  occ. eigenvalues --  -38.43153 -38.42904  -2.19986  -2.19908  -2.19487
 Alpha  occ. eigenvalues --   -2.19447  -2.19285  -2.19058  -2.19006  -1.13659
 Alpha  occ. eigenvalues --   -1.13654  -1.13622  -1.13597  -1.13570  -1.13545
 Alpha  occ. eigenvalues --   -1.13312  -1.13144  -1.13110  -1.13076  -1.13062
 Alpha  occ. eigenvalues --   -1.13056  -1.13001  -1.12947  -1.12919  -1.12771
 Alpha  occ. eigenvalues --   -1.12705  -1.12693  -1.12658  -1.12627  -1.12592
 Alpha  occ. eigenvalues --   -0.19012  -0.13129  -0.12660  -0.10731
 Alpha virt. eigenvalues --   -0.05800  -0.04936  -0.04620  -0.03104  -0.02875
 Alpha virt. eigenvalues --   -0.02455  -0.01647  -0.01047  -0.00316  -0.00131
 Alpha virt. eigenvalues --    0.00013   0.00349   0.00828   0.00880   0.00941

  Beta  occ. eigenvalues --  -38.44151 -38.44048 -38.43565 -38.43460 -38.43399
  Beta  occ. eigenvalues --  -38.43150 -38.42845  -2.19981  -2.19905  -2.19451
  Beta  occ. eigenvalues --   -2.19281  -2.19274  -2.19054  -2.18900  -1.13655
  Beta  occ. eigenvalues --   -1.13629  -1.13623  -1.13598  -1.13547  -1.13540
  Beta  occ. eigenvalues --   -1.13273  -1.13085  -1.13055  -1.13006  -1.12989
  Beta  occ. eigenvalues --   -1.12952  -1.12939  -1.12931  -1.12907  -1.12758
  Beta  occ. eigenvalues --   -1.12700  -1.12675  -1.12583  -1.12551  -1.12522
  Beta  occ. eigenvalues --   -0.18308  -0.12905  -0.12383
  Beta virt. eigenvalues --   -0.06779  -0.05767  -0.04920  -0.04576  -0.02340
  Beta virt. eigenvalues --   -0.02122  -0.01554  -0.01361  -0.00971  -0.00363
  Beta virt. eigenvalues --   -0.00159   0.00160   0.00388   0.00852   0.00896

 Mulliken charges and spin densities:
               1          2
     1  Na   0.380230   0.009220
     2  Na  -0.624653   0.719421
     3  Na   0.104273   0.027866
     4  Na  -0.677638   0.151011
     5  Na   0.278176   0.021633
     6  Na   0.331121   0.047447
     7  Na   0.208491   0.023401
 Sum of Mulliken charges =  -0.00000   1.00000

 Dipole moment (field-independent basis, Debye):
    X=             -0.1001    Y=             -0.3004    Z=              0.3330  Tot=              0.4594
 Quadrupole moment (field-independent basis, Debye-Ang):
   XX=            -54.9942   YY=            -63.1631   ZZ=            -74.8042
   XY=              0.1189   XZ=             -0.0355   YZ=              0.7274

 Normal termination of Gaussian 16 at Tue Dec  5 23:32:11 2023.
