 Gaussian 16, Revision B.01,
 Gaussian 16:  ES64L-G16RevB.01 20-Dec-2017

 -------------------------
 #P B3LYP/6-311+g(d) force
 -------------------------

 -----
 DPGEN
 -----
 Symbolic Z-matrix:
 Charge =  0 Multiplicity = 2

                         Standard orientation:
 ---------------------------------------------------------------------
 Center     Atomic      Atomic             Coordinates (Angstroms)
 Number     Number       Type             X           Y           Z
 ---------------------------------------------------------------------
      1         11           0       -1.138962   -1.103023    1.888687
      2         11           0       -1.549210    1.918376    1.009834
      3         11           0       -3.367492    0.493123   -1.146473
      4         11           0       -1.432234   -1.716178   -1.139586
      5         11           0        0.790123    0.202321   -0.114263
      6         11           0        3.372585    1.592806   -0.641713
      7         11           0        3.325188   -1.387424    0.143513
 ---------------------------------------------------------------------

 SCF Done:  E(UB3LYP) =  -1136.10150341     A.U. after   27 cycles

 The electronic state is 2-A.
 Alpha  occ. eigenvalues --  -38.45290 -38.44517 -38.44373 -38.44041 -38.43543
 Alpha  occ. eigenvalues --  -38.43319 -38.42810  -2.21151  -2.20433  -2.20255
 Alpha  occ. eigenvalues --   -2.20011  -2.19692  -2.19295  -2.18749  -1.14871
 Alpha  occ. eigenvalues --   -1.14801  -1.14776  -1.14145  -1.14061  -1.14050
 Alpha  occ. eigenvalues --   -1.13987  -1.13891  -1.13877  -1.13748  -1.13658
 Alpha  occ. eigenvalues --   -1.13611  -1.13390  -1.13369  -1.13307  -1.12960
 Alpha  occ. eigenvalues --   -1.12940  -1.12903  -1.12437  -1.12390  -1.12381
 Alpha  occ. eigenvalues --   -0.18994  -0.14939  -0.11626  -0.10752
 Alpha virt. eigenvalues --   -0.06574  -0.05639  -0.03944  -0.03040  -0.02927
 Alpha virt. eigenvalues --   -0.02351  -0.02149  -0.01072  -0.00764  -0.00142
 Alpha virt. eigenvalues --    0.00123   0.00243   0.00511   0.00699   0.00731

  Beta  occ. eigenvalues --  -38.45289 -38.44442 -38.44366 -38.43973 -38.43527
  Beta  occ. eigenvalues --  -38.43279 -38.42779  -2.21151  -2.20297  -2.20243
  Beta  occ. eigenvalues --   -2.19888  -2.19668  -2.19226  -2.18698  -1.14873
  Beta  occ. eigenvalues --   -1.14798  -1.14771  -1.14041  -1.13980  -1.13968
  Beta  occ. eigenvalues --   -1.13953  -1.13884  -1.13864  -1.13663  -1.13569
  Beta  occ. eigenvalues --   -1.13518  -1.13375  -1.13323  -1.13285  -1.12922
  Beta  occ. eigenvalues --   -1.12900  -1.12815  -1.12398  -1.12356  -1.12322
  Beta  occ. eigenvalues --   -0.18294  -0.14574  -0.10647
  Beta virt. eigenvalues --   -0.07425  -0.06390  -0.05521  -0.03373  -0.02923
  Beta virt. eigenvalues --   -0.02596  -0.01889  -0.01394  -0.00990  -0.00365
  Beta virt. eigenvalues --   -0.00025   0.00213   0.00244   0.00670   0.00736

 Mulliken charges and spin densities:
               1          2
     1  Na   0.587037  -0.012837
     2  Na   0.978242   0.154314
     3  Na  -0.052284   0.075336
     4  Na   0.752962   0.255346
     5  Na  -2.760922   0.473943
     6  Na  -0.106088   0.067644
     7  Na   0.601052  -0.013747
 Sum of Mulliken charges =  -0.00000   1.00000

 Dipole moment (field-independent basis, Debye):
    X=              1.3794    Y=             -0.6231    Z=              0.4033  Tot=              1.5664
 Quadrupole moment (field-independent basis, Debye-Ang):
   XX=            -52.3041   YY=            -73.8569   ZZ=            -67.8149
   XY=             -0.8177   XZ=             -1.0316   YZ=             -2.6146

 Normal termination of Gaussian 16 at Thu Dec  7 03:35:25 2023.
