 Gaussian 16, Revision B.01,
 Gaussian 16:  ES64L-G16RevB.01 20-Dec-2017

 -------------------------
 #P B3LYP/6-311+g(d) force
 -------------------------

 -----
 DPGEN
 -----
 Symbolic Z-matrix:
 Charge =  0 Multiplicity = 2

                         Standard orientation:
 ---------------------------------------------------------------------
 Center     Atomic      Atomic             Coordinates (Angstroms)
 Number     Number       Type             X           Y           Z
 ---------------------------------------------------------------------
      1         11           0       -1.771529   -2.272793   -0.337744
      2         11           0        2.197806   -2.042838   -0.004517
      3         11           0        0.009423   -0.114804    2.238692
      4         11           0       -0.033087    2.738871   -0.300811
      5         11           0       -3.529829    0.699086    0.185614
      6         11           0        0.163397   -0.029022   -1.897926
      7         11           0        2.963820    1.021499    0.116692
 ---------------------------------------------------------------------

 SCF Done:  E(UB3LYP) =  -1136.13201019     A.U. after   21 cycles

 The electronic state is 2-A.
 Alpha  occ. eigenvalues --  -38.44914 -38.44424 -38.44135 -38.43734 -38.43466
 Alpha  occ. eigenvalues --  -38.43385 -38.42807  -2.20667  -2.20253  -2.19995
 Alpha  occ. eigenvalues --   -2.19665  -2.19293  -2.19244  -2.18652  -1.14342
 Alpha  occ. eigenvalues --   -1.14325  -1.14306  -1.13913  -1.13886  -1.13870
 Alpha  occ. eigenvalues --   -1.13683  -1.13656  -1.13636  -1.13342  -1.13314
 Alpha  occ. eigenvalues --   -1.13290  -1.12983  -1.12957  -1.12922  -1.12915
 Alpha  occ. eigenvalues --   -1.12902  -1.12880  -1.12356  -1.12312  -1.12269
 Alpha  occ. eigenvalues --   -0.18336  -0.13169  -0.11819  -0.11164
 Alpha virt. eigenvalues --   -0.06360  -0.05073  -0.04060  -0.03499  -0.03063
 Alpha virt. eigenvalues --   -0.02834  -0.01960  -0.01023  -0.00301  -0.00205
 Alpha virt. eigenvalues --   -0.00103   0.00340   0.00564   0.00710   0.00873

  Beta  occ. eigenvalues --  -38.44916 -38.44329 -38.44132 -38.43656 -38.43458
  Beta  occ. eigenvalues --  -38.43381 -38.42800  -2.20673  -2.20078  -2.19992
  Beta  occ. eigenvalues --   -2.19523  -2.19283  -2.19241  -2.18644  -1.14336
  Beta  occ. eigenvalues --   -1.14332  -1.14312  -1.13797  -1.13763  -1.13743
  Beta  occ. eigenvalues --   -1.13684  -1.13641  -1.13624  -1.13251  -1.13207
  Beta  occ. eigenvalues --   -1.13191  -1.12967  -1.12937  -1.12923  -1.12911
  Beta  occ. eigenvalues --   -1.12882  -1.12870  -1.12344  -1.12292  -1.12266
  Beta  occ. eigenvalues --   -0.17565  -0.13013  -0.11572
  Beta virt. eigenvalues --   -0.07240  -0.06223  -0.05090  -0.03999  -0.02756
  Beta virt. eigenvalues --   -0.02078  -0.02003  -0.01835  -0.00967  -0.00347
  Beta virt. eigenvalues --   -0.00235   0.00046   0.00361   0.00781   0.00810

 Mulliken charges and spin densities:
               1          2
     1  Na   0.116911  -0.084350
     2  Na   0.199920  -0.049168
     3  Na  -0.522173   0.713921
     4  Na   0.028294  -0.063232
     5  Na  -0.045153  -0.058372
     6  Na   0.000884   0.516922
     7  Na   0.221318   0.024278
 Sum of Mulliken charges =  -0.00000   1.00000

 Dipole moment (field-independent basis, Debye):
    X=             -0.3771    Y=              0.0352    Z=              0.3055  Tot=              0.4867
 Quadrupole moment (field-independent basis, Debye-Ang):
   XX=            -53.3982   YY=            -69.3264   ZZ=            -71.9005
   XY=             -0.8051   XZ=             -0.0629   YZ=              0.6493

 Normal termination of Gaussian 16 at Thu Dec  7 02:58:44 2023.
