 Gaussian 16, Revision B.01,
 Gaussian 16:  ES64L-G16RevB.01 20-Dec-2017

 -------------------------
 #P B3LYP/6-311+g(d) force
 -------------------------

 -----
 DPGEN
 -----
 Symbolic Z-matrix:
 Charge =  0 Multiplicity = 2

                         Standard orientation:
 ---------------------------------------------------------------------
 Center     Atomic      Atomic             Coordinates (Angstroms)
 Number     Number       Type             X           Y           Z
 ---------------------------------------------------------------------
      1         11           0        1.622655    1.723046   -1.583872
      2         11           0        3.182393   -1.470027   -0.098385
      3         11           0        1.328148    1.501412    1.839680
      4         11           0       -3.999491   -0.682394    0.027367
      5         11           0       -0.148475   -1.346518    1.382146
      6         11           0       -1.753055    1.957569   -0.256875
      7         11           0       -0.232175   -1.683089   -1.310060
 ---------------------------------------------------------------------

 SCF Done:  E(UB3LYP) =  -1136.12303631     A.U. after   21 cycles

 The electronic state is 2-A.
 Alpha  occ. eigenvalues --  -38.44829 -38.44684 -38.44149 -38.43860 -38.43448
 Alpha  occ. eigenvalues --  -38.43430 -38.43418  -2.20584  -2.20469  -2.20050
 Alpha  occ. eigenvalues --   -2.19813  -2.19322  -2.19267  -2.19229  -1.14260
 Alpha  occ. eigenvalues --   -1.14253  -1.14208  -1.14143  -1.14124  -1.14109
 Alpha  occ. eigenvalues --   -1.14050  -1.13683  -1.13595  -1.13466  -1.13407
 Alpha  occ. eigenvalues --   -1.13354  -1.13008  -1.12973  -1.12947  -1.12940
 Alpha  occ. eigenvalues --   -1.12919  -1.12908  -1.12900  -1.12878  -1.12838
 Alpha  occ. eigenvalues --   -0.18216  -0.13085  -0.11647  -0.11198
 Alpha virt. eigenvalues --   -0.06702  -0.05015  -0.03748  -0.03368  -0.03038
 Alpha virt. eigenvalues --   -0.02693  -0.02396  -0.01202  -0.00453  -0.00043
 Alpha virt. eigenvalues --    0.00118   0.00220   0.00418   0.00792   0.00847

  Beta  occ. eigenvalues --  -38.44833 -38.44679 -38.44124 -38.43811 -38.43414
  Beta  occ. eigenvalues --  -38.43385 -38.43383  -2.20592  -2.20462  -2.20005
  Beta  occ. eigenvalues --   -2.19727  -2.19225  -2.19208  -2.19181  -1.14262
  Beta  occ. eigenvalues --   -1.14260  -1.14214  -1.14124  -1.14115  -1.14106
  Beta  occ. eigenvalues --   -1.14006  -1.13644  -1.13562  -1.13406  -1.13331
  Beta  occ. eigenvalues --   -1.13299  -1.12930  -1.12915  -1.12900  -1.12895
  Beta  occ. eigenvalues --   -1.12874  -1.12861  -1.12845  -1.12827  -1.12807
  Beta  occ. eigenvalues --   -0.17463  -0.12939  -0.11502
  Beta virt. eigenvalues --   -0.07136  -0.06599  -0.04973  -0.03252  -0.03150
  Beta virt. eigenvalues --   -0.02434  -0.02351  -0.01658  -0.01086  -0.00137
  Beta virt. eigenvalues --   -0.00037   0.00117   0.00255   0.00578   0.00826

 Mulliken charges and spin densities:
               1          2
     1  Na  -0.245080   0.347254
     2  Na   0.244986  -0.034574
     3  Na   0.059311   0.134881
     4  Na   0.248529  -0.089089
     5  Na   0.101384   0.246604
     6  Na  -0.288112  -0.009338
     7  Na  -0.121018   0.404261
 Sum of Mulliken charges =  -0.00000   1.00000

 Dipole moment (field-independent basis, Debye):
    X=             -0.0724    Y=             -0.3957    Z=             -0.0952  Tot=              0.4134
 Quadrupole moment (field-independent basis, Debye-Ang):
   XX=            -48.2242   YY=            -74.2764   ZZ=            -69.8961
   XY=             -0.1105   XZ=             -0.1607   YZ=              0.3044

 Normal termination of Gaussian 16 at Tue Dec  5 21:02:00 2023.
