 Gaussian 16, Revision B.01,
 Gaussian 16:  ES64L-G16RevB.01 20-Dec-2017

 -------------------------
 #P B3LYP/6-311+g(d) force
 -------------------------

 -----
 DPGEN
 -----
 Symbolic Z-matrix:
 Charge =  0 Multiplicity = 2

                         Standard orientation:
 ---------------------------------------------------------------------
 Center     Atomic      Atomic             Coordinates (Angstroms)
 Number     Number       Type             X           Y           Z
 ---------------------------------------------------------------------
      1         11           0        1.684275    2.300781   -0.290554
      2         11           0        2.975029   -0.806088    0.142762
      3         11           0        0.233779   -2.581675    0.215128
      4         11           0       -2.297733    2.158267    0.286502
      5         11           0       -3.064941   -1.316983   -0.479963
      6         11           0        0.454490    0.103473   -1.821381
      7         11           0        0.015100    0.142225    1.947507
 ---------------------------------------------------------------------

 SCF Done:  E(UB3LYP) =  -1136.13324605     A.U. after   19 cycles

 The electronic state is 2-A.
 Alpha  occ. eigenvalues --  -38.44209 -38.44023 -38.43894 -38.43718 -38.43639
 Alpha  occ. eigenvalues --  -38.43402 -38.42829  -2.19991  -2.19918  -2.19689
 Alpha  occ. eigenvalues --   -2.19683  -2.19565  -2.19301  -2.18736  -1.13665
 Alpha  occ. eigenvalues --   -1.13641  -1.13636  -1.13607  -1.13579  -1.13564
 Alpha  occ. eigenvalues --   -1.13430  -1.13374  -1.13345  -1.13338  -1.13320
 Alpha  occ. eigenvalues --   -1.13285  -1.13243  -1.13203  -1.13174  -1.12977
 Alpha  occ. eigenvalues --   -1.12947  -1.12901  -1.12432  -1.12405  -1.12353
 Alpha  occ. eigenvalues --   -0.18810  -0.13148  -0.12232  -0.11010
 Alpha virt. eigenvalues --   -0.05742  -0.05439  -0.04165  -0.03353  -0.02923
 Alpha virt. eigenvalues --   -0.02684  -0.01642  -0.01103  -0.00322  -0.00102
 Alpha virt. eigenvalues --   -0.00030   0.00332   0.00763   0.00854   0.00928

  Beta  occ. eigenvalues --  -38.44201 -38.44016 -38.43891 -38.43644 -38.43551
  Beta  occ. eigenvalues --  -38.43391 -38.42820  -2.19978  -2.19909  -2.19682
  Beta  occ. eigenvalues --   -2.19553  -2.19404  -2.19287  -2.18725  -1.13647
  Beta  occ. eigenvalues --   -1.13633  -1.13629  -1.13600  -1.13570  -1.13534
  Beta  occ. eigenvalues --   -1.13358  -1.13347  -1.13337  -1.13320  -1.13245
  Beta  occ. eigenvalues --   -1.13190  -1.13136  -1.13093  -1.13054  -1.12951
  Beta  occ. eigenvalues --   -1.12922  -1.12885  -1.12426  -1.12376  -1.12337
  Beta  occ. eigenvalues --   -0.18063  -0.12915  -0.11941
  Beta virt. eigenvalues --   -0.07128  -0.05643  -0.05393  -0.04153  -0.02619
  Beta virt. eigenvalues --   -0.02131  -0.01680  -0.01529  -0.01021  -0.00348
  Beta virt. eigenvalues --   -0.00133   0.00095   0.00366   0.00836   0.00862

 Mulliken charges and spin densities:
               1          2
     1  Na   0.262366  -0.098990
     2  Na   0.362172  -0.034132
     3  Na   0.065151   0.007370
     4  Na  -0.036708  -0.086046
     5  Na  -0.115586  -0.005916
     6  Na  -0.306901   0.613198
     7  Na  -0.230493   0.604517
 Sum of Mulliken charges =  -0.00000   1.00000

 Dipole moment (field-independent basis, Debye):
    X=             -0.1023    Y=              0.1168    Z=              0.0228  Tot=              0.1569
 Quadrupole moment (field-independent basis, Debye-Ang):
   XX=            -54.7750   YY=            -66.3926   ZZ=            -72.9098
   XY=             -0.3426   XZ=              1.4782   YZ=              0.4863

 Normal termination of Gaussian 16 at Thu Dec  7 06:16:55 2023.
