 Gaussian 16, Revision B.01,
 Gaussian 16:  ES64L-G16RevB.01 20-Dec-2017

 -------------------------
 #P B3LYP/6-311+g(d) force
 -------------------------

 -----
 DPGEN
 -----
 Symbolic Z-matrix:
 Charge =  0 Multiplicity = 2

                         Standard orientation:
 ---------------------------------------------------------------------
 Center     Atomic      Atomic             Coordinates (Angstroms)
 Number     Number       Type             X           Y           Z
 ---------------------------------------------------------------------
      1         11           0       -0.278623   -0.973576    1.865566
      2         11           0        1.815835    1.089421    2.103966
      3         11           0        2.140724   -2.401105   -0.458949
      4         11           0       -1.252535   -1.830852   -1.659707
      5         11           0        1.810763    1.452721   -1.651803
      6         11           0       -3.417833   -0.056331    0.603542
      7         11           0       -0.818331    2.719722   -0.802615
 ---------------------------------------------------------------------

 SCF Done:  E(UB3LYP) =  -1136.12330911     A.U. after   21 cycles

 The electronic state is 2-A.
 Alpha  occ. eigenvalues --  -38.44889 -38.44664 -38.44059 -38.43854 -38.43777
 Alpha  occ. eigenvalues --  -38.43545 -38.43474  -2.20736  -2.20455  -2.19965
 Alpha  occ. eigenvalues --   -2.19693  -2.19565  -2.19338  -2.19282  -1.14499
 Alpha  occ. eigenvalues --   -1.14343  -1.14324  -1.14130  -1.14112  -1.14072
 Alpha  occ. eigenvalues --   -1.13662  -1.13597  -1.13574  -1.13415  -1.13334
 Alpha  occ. eigenvalues --   -1.13317  -1.13236  -1.13220  -1.13202  -1.13018
 Alpha  occ. eigenvalues --   -1.12984  -1.12981  -1.12970  -1.12932  -1.12899
 Alpha  occ. eigenvalues --   -0.17676  -0.12542  -0.12208  -0.12008
 Alpha virt. eigenvalues --   -0.05420  -0.05018  -0.04679  -0.03720  -0.03413
 Alpha virt. eigenvalues --   -0.03367  -0.01219  -0.00908  -0.00649  -0.00051
 Alpha virt. eigenvalues --    0.00090   0.00340   0.00397   0.00568   0.00787

  Beta  occ. eigenvalues --  -38.44817 -38.44629 -38.43999 -38.43822 -38.43762
  Beta  occ. eigenvalues --  -38.43540 -38.43469  -2.20607  -2.20391  -2.19860
  Beta  occ. eigenvalues --   -2.19634  -2.19537  -2.19330  -2.19275  -1.14390
  Beta  occ. eigenvalues --   -1.14260  -1.14234  -1.14085  -1.14073  -1.14018
  Beta  occ. eigenvalues --   -1.13583  -1.13509  -1.13501  -1.13375  -1.13289
  Beta  occ. eigenvalues --   -1.13279  -1.13210  -1.13202  -1.13180  -1.13005
  Beta  occ. eigenvalues --   -1.12980  -1.12977  -1.12954  -1.12926  -1.12894
  Beta  occ. eigenvalues --   -0.16901  -0.12313  -0.11753
  Beta virt. eigenvalues --   -0.08305  -0.05060  -0.04930  -0.04253  -0.03508
  Beta virt. eigenvalues --   -0.02850  -0.02511  -0.01146  -0.00752  -0.00378
  Beta virt. eigenvalues --    0.00072   0.00170   0.00452   0.00508   0.00670

 Mulliken charges and spin densities:
               1          2
     1  Na   0.047002   0.582480
     2  Na   0.139246  -0.055408
     3  Na   0.002756   0.103420
     4  Na  -0.095131   0.161181
     5  Na  -0.099588   0.294445
     6  Na   0.183051  -0.084148
     7  Na  -0.177336  -0.001971
 Sum of Mulliken charges =  -0.00000   1.00000

 Dipole moment (field-independent basis, Debye):
    X=              0.2430    Y=             -0.1939    Z=             -0.0908  Tot=              0.3238
 Quadrupole moment (field-independent basis, Debye-Ang):
   XX=            -62.3540   YY=            -71.0435   ZZ=            -64.7567
   XY=             -1.1018   XZ=             -0.1332   YZ=              4.4795

 Normal termination of Gaussian 16 at Sun Dec  3 17:12:40 2023.
