 Gaussian 16, Revision B.01,
 Gaussian 16:  ES64L-G16RevB.01 20-Dec-2017

 -------------------------
 #P B3LYP/6-311+g(d) force
 -------------------------

 -----
 DPGEN
 -----
 Symbolic Z-matrix:
 Charge =  0 Multiplicity = 2

                         Standard orientation:
 ---------------------------------------------------------------------
 Center     Atomic      Atomic             Coordinates (Angstroms)
 Number     Number       Type             X           Y           Z
 ---------------------------------------------------------------------
      1         11           0        2.883165   -1.585112   -1.137182
      2         11           0       -3.069745    0.753863   -0.895401
      3         11           0        0.850885   -2.754306    1.173444
      4         11           0       -3.552205   -2.206288   -0.218527
      5         11           0        3.389903    1.301388   -0.527953
      6         11           0       -1.083395    3.382766    0.233348
      7         11           0        0.581393    1.107689    1.372270
 ---------------------------------------------------------------------

 SCF Done:  E(UB3LYP) =  -1136.11287259     A.U. after   20 cycles

 The electronic state is 2-A.
 Alpha  occ. eigenvalues --  -38.44746 -38.44549 -38.44412 -38.44091 -38.44041
 Alpha  occ. eigenvalues --  -38.43862 -38.43858  -2.20602  -2.20415  -2.20271
 Alpha  occ. eigenvalues --   -2.19925  -2.19855  -2.19687  -2.19656  -1.14367
 Alpha  occ. eigenvalues --   -1.14258  -1.14242  -1.14059  -1.14046  -1.14019
 Alpha  occ. eigenvalues --   -1.13971  -1.13926  -1.13919  -1.13580  -1.13574
 Alpha  occ. eigenvalues --   -1.13558  -1.13511  -1.13492  -1.13475  -1.13453
 Alpha  occ. eigenvalues --   -1.13357  -1.13329  -1.13305  -1.13283  -1.13238
 Alpha  occ. eigenvalues --   -0.16975  -0.14036  -0.12507  -0.10812
 Alpha virt. eigenvalues --   -0.06943  -0.04929  -0.04231  -0.04005  -0.03432
 Alpha virt. eigenvalues --   -0.02133  -0.01575  -0.01433  -0.01246  -0.00745
 Alpha virt. eigenvalues --   -0.00281  -0.00060   0.00344   0.00504   0.00718

  Beta  occ. eigenvalues --  -38.44726 -38.44482 -38.44389 -38.44086 -38.43967
  Beta  occ. eigenvalues --  -38.43843 -38.43839  -2.20572  -2.20293  -2.20229
  Beta  occ. eigenvalues --   -2.19917  -2.19716  -2.19653  -2.19623  -1.14312
  Beta  occ. eigenvalues --   -1.14244  -1.14198  -1.13984  -1.13966  -1.13941
  Beta  occ. eigenvalues --   -1.13935  -1.13890  -1.13883  -1.13572  -1.13566
  Beta  occ. eigenvalues --   -1.13554  -1.13424  -1.13418  -1.13397  -1.13383
  Beta  occ. eigenvalues --   -1.13336  -1.13301  -1.13285  -1.13261  -1.13206
  Beta  occ. eigenvalues --   -0.16458  -0.13486  -0.11985
  Beta virt. eigenvalues --   -0.07374  -0.06887  -0.04755  -0.03959  -0.03546
  Beta virt. eigenvalues --   -0.02813  -0.01985  -0.01289  -0.01117  -0.01040
  Beta virt. eigenvalues --   -0.00662  -0.00015   0.00168   0.00393   0.00519

 Mulliken charges and spin densities:
               1          2
     1  Na   0.035309   0.039660
     2  Na  -0.425706   0.112179
     3  Na   0.003889   0.341545
     4  Na   0.136752   0.034877
     5  Na  -0.000291   0.215689
     6  Na   0.606220  -0.107537
     7  Na  -0.356173   0.363587
 Sum of Mulliken charges =  -0.00000   1.00000

 Dipole moment (field-independent basis, Debye):
    X=              0.7095    Y=              0.4369    Z=             -0.1241  Tot=              0.8424
 Quadrupole moment (field-independent basis, Debye-Ang):
   XX=            -71.3125   YY=            -59.7505   ZZ=            -70.2332
   XY=             -1.6429   XZ=             -0.8490   YZ=             -0.9213

 Normal termination of Gaussian 16 at Sun Dec  3 13:25:00 2023.
