 Gaussian 16, Revision B.01,
 Gaussian 16:  ES64L-G16RevB.01 20-Dec-2017

 -------------------------
 #P B3LYP/6-311+g(d) force
 -------------------------

 -----
 DPGEN
 -----
 Symbolic Z-matrix:
 Charge =  0 Multiplicity = 2

                         Standard orientation:
 ---------------------------------------------------------------------
 Center     Atomic      Atomic             Coordinates (Angstroms)
 Number     Number       Type             X           Y           Z
 ---------------------------------------------------------------------
      1         11           0        0.273735    2.769530   -0.042950
      2         11           0        0.571394    0.473637   -1.647941
      3         11           0        3.214609    0.652327    0.436013
      4         11           0       -3.078027    1.274563    0.292468
      5         11           0       -2.364151   -1.962132   -0.558535
      6         11           0       -0.300211   -0.784952    1.728655
      7         11           0        1.682651   -2.422972   -0.207711
 ---------------------------------------------------------------------

 SCF Done:  E(UB3LYP) =  -1136.13020102     A.U. after   19 cycles

 The electronic state is 2-A.
 Alpha  occ. eigenvalues --  -38.44575 -38.44326 -38.44061 -38.43558 -38.43377
 Alpha  occ. eigenvalues --  -38.43341 -38.43174  -2.20400  -2.20124  -2.19886
 Alpha  occ. eigenvalues --   -2.19420  -2.19289  -2.19232  -2.19156  -1.14075
 Alpha  occ. eigenvalues --   -1.14056  -1.14037  -1.13801  -1.13783  -1.13768
 Alpha  occ. eigenvalues --   -1.13566  -1.13546  -1.13516  -1.13170  -1.13135
 Alpha  occ. eigenvalues --   -1.13093  -1.13044  -1.12966  -1.12924  -1.12897
 Alpha  occ. eigenvalues --   -1.12872  -1.12829  -1.12791  -1.12746  -1.12701
 Alpha  occ. eigenvalues --   -0.18510  -0.13370  -0.12350  -0.10225
 Alpha virt. eigenvalues --   -0.06117  -0.05572  -0.04409  -0.03342  -0.02775
 Alpha virt. eigenvalues --   -0.02045  -0.01871  -0.01242  -0.00504  -0.00362
 Alpha virt. eigenvalues --   -0.00001   0.00336   0.00729   0.00809   0.00847

  Beta  occ. eigenvalues --  -38.44564 -38.44322 -38.44049 -38.43550 -38.43335
  Beta  occ. eigenvalues --  -38.43318 -38.43106  -2.20383  -2.20119  -2.19867
  Beta  occ. eigenvalues --   -2.19409  -2.19221  -2.19181  -2.19036  -1.14055
  Beta  occ. eigenvalues --   -1.14042  -1.14020  -1.13789  -1.13776  -1.13765
  Beta  occ. eigenvalues --   -1.13551  -1.13526  -1.13498  -1.13130  -1.13121
  Beta  occ. eigenvalues --   -1.13066  -1.13027  -1.12895  -1.12850  -1.12841
  Beta  occ. eigenvalues --   -1.12822  -1.12819  -1.12713  -1.12666  -1.12630
  Beta  occ. eigenvalues --   -0.17828  -0.13167  -0.12110
  Beta virt. eigenvalues --   -0.06469  -0.06007  -0.05527  -0.04328  -0.02635
  Beta virt. eigenvalues --   -0.02058  -0.01776  -0.01160  -0.01092  -0.00532
  Beta virt. eigenvalues --   -0.00366   0.00154   0.00379   0.00798   0.00819

 Mulliken charges and spin densities:
               1          2
     1  Na   0.119466  -0.042477
     2  Na  -0.096360   0.486284
     3  Na   0.041141   0.019238
     4  Na  -0.018495  -0.035160
     5  Na   0.031885   0.038500
     6  Na  -0.301862   0.495462
     7  Na   0.224224   0.038155
 Sum of Mulliken charges =  -0.00000   1.00000

 Dipole moment (field-independent basis, Debye):
    X=             -0.0005    Y=             -0.1031    Z=              0.1508  Tot=              0.1826
 Quadrupole moment (field-independent basis, Debye-Ang):
   XX=            -51.7434   YY=            -64.7379   ZZ=            -75.9475
   XY=             -0.1968   XZ=              1.7238   YZ=              3.0261

 Normal termination of Gaussian 16 at Tue Dec  5 16:43:00 2023.
