 Gaussian 16, Revision B.01,
 Gaussian 16:  ES64L-G16RevB.01 20-Dec-2017

 -------------------------
 #P B3LYP/6-311+g(d) force
 -------------------------

 -----
 DPGEN
 -----
 Symbolic Z-matrix:
 Charge =  0 Multiplicity = 2

                         Standard orientation:
 ---------------------------------------------------------------------
 Center     Atomic      Atomic             Coordinates (Angstroms)
 Number     Number       Type             X           Y           Z
 ---------------------------------------------------------------------
      1         11           0       -3.695599    0.612544    0.081176
      2         11           0       -2.146788   -2.230979    0.012938
      3         11           0       -0.852381    2.213715   -0.653766
      4         11           0        3.067175   -1.571009    0.716111
      5         11           0        0.794940   -1.884894   -1.650174
      6         11           0        0.429169    0.606448    2.382730
      7         11           0        2.403484    2.254176   -0.889015
 ---------------------------------------------------------------------

 SCF Done:  E(UB3LYP) =  -1136.12099482     A.U. after   20 cycles

 The electronic state is 2-A.
 Alpha  occ. eigenvalues --  -38.44774 -38.44600 -38.44540 -38.44209 -38.44187
 Alpha  occ. eigenvalues --  -38.43736 -38.43358  -2.20553  -2.20410  -2.20335
 Alpha  occ. eigenvalues --   -2.20011  -2.19980  -2.19553  -2.19200  -1.14223
 Alpha  occ. eigenvalues --   -1.14215  -1.14198  -1.14085  -1.14075  -1.14056
 Alpha  occ. eigenvalues --   -1.13989  -1.13963  -1.13956  -1.13690  -1.13675
 Alpha  occ. eigenvalues --   -1.13659  -1.13651  -1.13627  -1.13610  -1.13217
 Alpha  occ. eigenvalues --   -1.13205  -1.13187  -1.12875  -1.12870  -1.12840
 Alpha  occ. eigenvalues --   -0.17241  -0.13283  -0.12198  -0.10844
 Alpha virt. eigenvalues --   -0.06616  -0.05941  -0.03886  -0.03589  -0.03324
 Alpha virt. eigenvalues --   -0.02627  -0.01978  -0.01575  -0.00662  -0.00263
 Alpha virt. eigenvalues --   -0.00143   0.00142   0.00271   0.00486   0.00675

  Beta  occ. eigenvalues --  -38.44766 -38.44601 -38.44442 -38.44210 -38.44157
  Beta  occ. eigenvalues --  -38.43704 -38.43347  -2.20539  -2.20413  -2.20153
  Beta  occ. eigenvalues --   -2.20014  -2.19925  -2.19493  -2.19181  -1.14213
  Beta  occ. eigenvalues --   -1.14200  -1.14177  -1.14089  -1.14076  -1.14054
  Beta  occ. eigenvalues --   -1.13867  -1.13840  -1.13824  -1.13686  -1.13672
  Beta  occ. eigenvalues --   -1.13653  -1.13614  -1.13588  -1.13572  -1.13178
  Beta  occ. eigenvalues --   -1.13164  -1.13145  -1.12866  -1.12846  -1.12819
  Beta  occ. eigenvalues --   -0.16662  -0.13135  -0.11907
  Beta virt. eigenvalues --   -0.07099  -0.06423  -0.05838  -0.03568  -0.03157
  Beta virt. eigenvalues --   -0.02719  -0.01872  -0.01759  -0.01423  -0.00679
  Beta virt. eigenvalues --   -0.00116  -0.00044   0.00285   0.00418   0.00649

 Mulliken charges and spin densities:
               1          2
     1  Na   0.257537  -0.036143
     2  Na  -0.066946  -0.016162
     3  Na  -0.272858   0.098303
     4  Na   0.041011  -0.039657
     5  Na   0.052467   0.213720
     6  Na  -0.117166   0.651946
     7  Na   0.105955   0.127995
 Sum of Mulliken charges =  -0.00000   1.00000

 Dipole moment (field-independent basis, Debye):
    X=              0.0462    Y=             -0.0970    Z=              0.2354  Tot=              0.2588
 Quadrupole moment (field-independent basis, Debye-Ang):
   XX=            -52.5827   YY=            -72.1986   ZZ=            -72.4370
   XY=             -0.8887   XZ=             -0.6647   YZ=             -1.6265

 Normal termination of Gaussian 16 at Sun Dec  3 14:42:36 2023.
