 Gaussian 16, Revision B.01,
 Gaussian 16:  ES64L-G16RevB.01 20-Dec-2017

 -------------------------
 #P B3LYP/6-311+g(d) force
 -------------------------

 -----
 DPGEN
 -----
 Symbolic Z-matrix:
 Charge =  0 Multiplicity = 2

                         Standard orientation:
 ---------------------------------------------------------------------
 Center     Atomic      Atomic             Coordinates (Angstroms)
 Number     Number       Type             X           Y           Z
 ---------------------------------------------------------------------
      1         11           0        0.039848   -2.480682   -1.075195
      2         11           0        3.136536   -1.090197    0.595848
      3         11           0       -2.618752    2.526485    0.072351
      4         11           0        0.233672    0.852657   -0.506057
      5         11           0       -3.294447   -0.728124   -0.811254
      6         11           0       -1.284074   -0.799167    2.114115
      7         11           0        3.787217    1.719028   -0.389807
 ---------------------------------------------------------------------

 SCF Done:  E(UB3LYP) =  -1136.12018057     A.U. after   24 cycles

 The electronic state is 2-A.
 Alpha  occ. eigenvalues --  -38.44961 -38.44844 -38.44367 -38.44275 -38.43673
 Alpha  occ. eigenvalues --  -38.43628 -38.42858  -2.20791  -2.20671  -2.20186
 Alpha  occ. eigenvalues --   -2.20173  -2.19487  -2.19481  -2.18687  -1.14482
 Alpha  occ. eigenvalues --   -1.14460  -1.14429  -1.14356  -1.14315  -1.14292
 Alpha  occ. eigenvalues --   -1.13899  -1.13856  -1.13852  -1.13834  -1.13831
 Alpha  occ. eigenvalues --   -1.13781  -1.13165  -1.13155  -1.13140  -1.13126
 Alpha  occ. eigenvalues --   -1.13118  -1.13074  -1.12390  -1.12326  -1.12321
 Alpha  occ. eigenvalues --   -0.17869  -0.14212  -0.11477  -0.10146
 Alpha virt. eigenvalues --   -0.07008  -0.06069  -0.04178  -0.03303  -0.02852
 Alpha virt. eigenvalues --   -0.02255  -0.02035  -0.01530  -0.01087  -0.00480
 Alpha virt. eigenvalues --   -0.00262   0.00153   0.00333   0.00497   0.00641

  Beta  occ. eigenvalues --  -38.44962 -38.44805 -38.44369 -38.44264 -38.43668
  Beta  occ. eigenvalues --  -38.43530 -38.42841  -2.20792  -2.20602  -2.20191
  Beta  occ. eigenvalues --   -2.20157  -2.19480  -2.19302  -2.18656  -1.14485
  Beta  occ. eigenvalues --   -1.14452  -1.14432  -1.14292  -1.14272  -1.14239
  Beta  occ. eigenvalues --   -1.13860  -1.13851  -1.13847  -1.13835  -1.13832
  Beta  occ. eigenvalues --   -1.13776  -1.13163  -1.13129  -1.13113  -1.13027
  Beta  occ. eigenvalues --   -1.12998  -1.12947  -1.12369  -1.12304  -1.12285
  Beta  occ. eigenvalues --   -0.17285  -0.14037  -0.11294
  Beta virt. eigenvalues --   -0.06806  -0.06312  -0.05981  -0.03924  -0.02962
  Beta virt. eigenvalues --   -0.02677  -0.01789  -0.01570  -0.01009  -0.00967
  Beta virt. eigenvalues --   -0.00269  -0.00024   0.00234   0.00483   0.00539

 Mulliken charges and spin densities:
               1          2
     1  Na   0.254723   0.132762
     2  Na   0.230204   0.070778
     3  Na   0.406297   0.038341
     4  Na  -1.741121   0.197509
     5  Na   0.598210   0.252025
     6  Na  -0.163865   0.431692
     7  Na   0.415551  -0.123106
 Sum of Mulliken charges =  -0.00000   1.00000

 Dipole moment (field-independent basis, Debye):
    X=              0.6112    Y=             -0.0323    Z=              0.2200  Tot=              0.6504
 Quadrupole moment (field-independent basis, Debye-Ang):
   XX=            -51.1299   YY=            -67.5326   ZZ=            -75.6098
   XY=              0.1337   XZ=             -0.0953   YZ=             -1.6238

 Normal termination of Gaussian 16 at Tue Dec  5 22:03:05 2023.
