 Gaussian 16, Revision B.01,
 Gaussian 16:  ES64L-G16RevB.01 20-Dec-2017

 -------------------------
 #P B3LYP/6-311+g(d) force
 -------------------------

 -----
 DPGEN
 -----
 Symbolic Z-matrix:
 Charge =  0 Multiplicity = 2

                         Standard orientation:
 ---------------------------------------------------------------------
 Center     Atomic      Atomic             Coordinates (Angstroms)
 Number     Number       Type             X           Y           Z
 ---------------------------------------------------------------------
      1         11           0        0.552315   -2.177355   -0.670349
      2         11           0       -2.799779    0.232374   -1.145369
      3         11           0        0.861653    1.073217   -1.404626
      4         11           0        0.953818   -0.188089    1.801079
      5         11           0       -1.097031    2.703925    0.756132
      6         11           0       -2.319876   -1.686235    0.821389
      7         11           0        3.848900    0.042162   -0.158257
 ---------------------------------------------------------------------

 SCF Done:  E(UB3LYP) =  -1136.12484067     A.U. after   22 cycles

 The electronic state is 2-A.
 Alpha  occ. eigenvalues --  -38.45336 -38.44397 -38.43723 -38.43671 -38.43510
 Alpha  occ. eigenvalues --  -38.43350 -38.42849  -2.21127  -2.20287  -2.19630
 Alpha  occ. eigenvalues --   -2.19562  -2.19439  -2.19275  -2.18681  -1.14803
 Alpha  occ. eigenvalues --   -1.14788  -1.14752  -1.14111  -1.13921  -1.13878
 Alpha  occ. eigenvalues --   -1.13327  -1.13299  -1.13268  -1.13245  -1.13242
 Alpha  occ. eigenvalues --   -1.13136  -1.13116  -1.13055  -1.13051  -1.12973
 Alpha  occ. eigenvalues --   -1.12939  -1.12876  -1.12349  -1.12338  -1.12321
 Alpha  occ. eigenvalues --   -0.18656  -0.13683  -0.11717  -0.10869
 Alpha virt. eigenvalues --   -0.06829  -0.04532  -0.04324  -0.03416  -0.02809
 Alpha virt. eigenvalues --   -0.02545  -0.02372  -0.00743  -0.00522   0.00040
 Alpha virt. eigenvalues --    0.00085   0.00229   0.00438   0.00842   0.00893

  Beta  occ. eigenvalues --  -38.45332 -38.44374 -38.43717 -38.43655 -38.43431
  Beta  occ. eigenvalues --  -38.43313 -38.42835  -2.21123  -2.20246  -2.19622
  Beta  occ. eigenvalues --   -2.19537  -2.19294  -2.19208  -2.18657  -1.14789
  Beta  occ. eigenvalues --   -1.14782  -1.14750  -1.14087  -1.13885  -1.13850
  Beta  occ. eigenvalues --   -1.13310  -1.13285  -1.13257  -1.13220  -1.13195
  Beta  occ. eigenvalues --   -1.13120  -1.13032  -1.12955  -1.12945  -1.12926
  Beta  occ. eigenvalues --   -1.12870  -1.12828  -1.12334  -1.12317  -1.12294
  Beta  occ. eigenvalues --   -0.17922  -0.13495  -0.11505
  Beta virt. eigenvalues --   -0.07036  -0.06661  -0.04414  -0.04002  -0.03053
  Beta virt. eigenvalues --   -0.02403  -0.02146  -0.01433  -0.00668  -0.00229
  Beta virt. eigenvalues --    0.00053   0.00130   0.00273   0.00564   0.00876

 Mulliken charges and spin densities:
               1          2
     1  Na  -0.166516   0.104869
     2  Na  -0.108031   0.058428
     3  Na  -0.234092   0.330636
     4  Na  -0.371507   0.456488
     5  Na  -0.083223   0.005866
     6  Na   0.496401   0.050955
     7  Na   0.466968  -0.007241
 Sum of Mulliken charges =  -0.00000   1.00000

 Dipole moment (field-independent basis, Debye):
    X=              1.1932    Y=             -0.1242    Z=             -0.0159  Tot=              1.1998
 Quadrupole moment (field-independent basis, Debye-Ang):
   XX=            -49.0351   YY=            -73.1456   ZZ=            -70.6013
   XY=             -0.3188   XZ=             -0.2651   YZ=              1.2141

 Normal termination of Gaussian 16 at Tue Dec  5 15:10:13 2023.
