 Gaussian 16, Revision B.01,
 Gaussian 16:  ES64L-G16RevB.01 20-Dec-2017

 -------------------------
 #P B3LYP/6-311+g(d) force
 -------------------------

 -----
 DPGEN
 -----
 Symbolic Z-matrix:
 Charge =  0 Multiplicity = 2

                         Standard orientation:
 ---------------------------------------------------------------------
 Center     Atomic      Atomic             Coordinates (Angstroms)
 Number     Number       Type             X           Y           Z
 ---------------------------------------------------------------------
      1         11           0        2.488855    1.392937   -0.484701
      2         11           0       -1.516254   -2.555374   -0.314244
      3         11           0       -3.213055    0.314374    0.253767
      4         11           0        0.707383   -0.045403    1.968749
      5         11           0        2.050412   -2.316408    0.110341
      6         11           0       -0.003533    0.195292   -1.688887
      7         11           0       -0.513808    3.014582    0.154974
 ---------------------------------------------------------------------

 SCF Done:  E(UB3LYP) =  -1136.13695391     A.U. after   20 cycles

 The electronic state is 2-A.
 Alpha  occ. eigenvalues --  -38.43812 -38.43755 -38.43722 -38.43629 -38.43598
 Alpha  occ. eigenvalues --  -38.43584 -38.43285  -2.19631  -2.19609  -2.19586
 Alpha  occ. eigenvalues --   -2.19492  -2.19474  -2.19433  -2.19263  -1.13393
 Alpha  occ. eigenvalues --   -1.13305  -1.13284  -1.13278  -1.13271  -1.13260
 Alpha  occ. eigenvalues --   -1.13255  -1.13236  -1.13215  -1.13199  -1.13145
 Alpha  occ. eigenvalues --   -1.13131  -1.13122  -1.13117  -1.13108  -1.13092
 Alpha  occ. eigenvalues --   -1.13072  -1.13051  -1.12930  -1.12890  -1.12872
 Alpha  occ. eigenvalues --   -0.18610  -0.12884  -0.12651  -0.10757
 Alpha virt. eigenvalues --   -0.05413  -0.05209  -0.04971  -0.03098  -0.03062
 Alpha virt. eigenvalues --   -0.02520  -0.01311  -0.01220  -0.00430  -0.00382
 Alpha virt. eigenvalues --   -0.00001   0.00360   0.00852   0.00876   0.00888

  Beta  occ. eigenvalues --  -38.43811 -38.43751 -38.43703 -38.43624 -38.43593
  Beta  occ. eigenvalues --  -38.43501 -38.43214  -2.19609  -2.19602  -2.19580
  Beta  occ. eigenvalues --   -2.19470  -2.19426  -2.19337  -2.19134  -1.13361
  Beta  occ. eigenvalues --   -1.13284  -1.13273  -1.13266  -1.13259  -1.13247
  Beta  occ. eigenvalues --   -1.13235  -1.13225  -1.13192  -1.13178  -1.13123
  Beta  occ. eigenvalues --   -1.13110  -1.13100  -1.13081  -1.13051  -1.13040
  Beta  occ. eigenvalues --   -1.13009  -1.12980  -1.12848  -1.12790  -1.12782
  Beta  occ. eigenvalues --   -0.17890  -0.12653  -0.12416
  Beta virt. eigenvalues --   -0.06858  -0.05401  -0.05153  -0.04873  -0.02368
  Beta virt. eigenvalues --   -0.02309  -0.01494  -0.01224  -0.01141  -0.00456
  Beta virt. eigenvalues --   -0.00412   0.00141   0.00399   0.00857   0.00885

 Mulliken charges and spin densities:
               1          2
     1  Na   0.462548  -0.042105
     2  Na  -0.017448  -0.076531
     3  Na  -0.157042  -0.040807
     4  Na  -0.417933   0.785590
     5  Na   0.210985  -0.074521
     6  Na  -0.018628   0.473183
     7  Na  -0.062481  -0.024809
 Sum of Mulliken charges =  -0.00000   1.00000

 Dipole moment (field-independent basis, Debye):
    X=              0.0324    Y=              0.0885    Z=              0.1475  Tot=              0.1750
 Quadrupole moment (field-independent basis, Debye-Ang):
   XX=            -59.9590   YY=            -59.7618   ZZ=            -74.2628
   XY=             -0.9103   XZ=             -1.6646   YZ=              0.9069

 Normal termination of Gaussian 16 at Thu Dec  7 09:38:09 2023.
