 Gaussian 16, Revision B.01,
 Gaussian 16:  ES64L-G16RevB.01 20-Dec-2017

 -------------------------
 #P B3LYP/6-311+g(d) force
 -------------------------

 -----
 DPGEN
 -----
 Symbolic Z-matrix:
 Charge =  0 Multiplicity = 2

                         Standard orientation:
 ---------------------------------------------------------------------
 Center     Atomic      Atomic             Coordinates (Angstroms)
 Number     Number       Type             X           Y           Z
 ---------------------------------------------------------------------
      1         11           0       -1.472623   -2.737448   -0.248716
      2         11           0        1.483918   -2.222271   -0.950872
      3         11           0        4.538132   -0.161565    0.663671
      4         11           0       -1.157124    0.026672    1.823926
      5         11           0       -3.820787   -0.072221   -0.185219
      6         11           0       -1.273316    3.037983   -0.441152
      7         11           0        1.701800    2.128851   -0.661638
 ---------------------------------------------------------------------

 SCF Done:  E(UB3LYP) =  -1136.11810337     A.U. after   20 cycles

 The electronic state is 2-A.
 Alpha  occ. eigenvalues --  -38.46280 -38.44524 -38.43817 -38.43723 -38.43700
 Alpha  occ. eigenvalues --  -38.43505 -38.43504  -2.22074  -2.20348  -2.19625
 Alpha  occ. eigenvalues --   -2.19538  -2.19490  -2.19383  -2.19339  -1.15751
 Alpha  occ. eigenvalues --   -1.15728  -1.15708  -1.14012  -1.13985  -1.13979
 Alpha  occ. eigenvalues --   -1.13323  -1.13307  -1.13269  -1.13269  -1.13210
 Alpha  occ. eigenvalues --   -1.13172  -1.13139  -1.13131  -1.13094  -1.13053
 Alpha  occ. eigenvalues --   -1.13033  -1.13003  -1.12989  -1.12989  -1.12963
 Alpha  occ. eigenvalues --   -0.17079  -0.13451  -0.12925  -0.10223
 Alpha virt. eigenvalues --   -0.06941  -0.05514  -0.04537  -0.03516  -0.02804
 Alpha virt. eigenvalues --   -0.02637  -0.01697  -0.01360  -0.00935  -0.00824
 Alpha virt. eigenvalues --   -0.00379  -0.00221   0.00327   0.00517   0.00683

  Beta  occ. eigenvalues --  -38.46279 -38.44482 -38.43803 -38.43696 -38.43603
  Beta  occ. eigenvalues --  -38.43485 -38.43482  -2.22074  -2.20270  -2.19605
  Beta  occ. eigenvalues --   -2.19494  -2.19348  -2.19309  -2.19305  -1.15752
  Beta  occ. eigenvalues --   -1.15725  -1.15707  -1.13955  -1.13934  -1.13931
  Beta  occ. eigenvalues --   -1.13300  -1.13294  -1.13241  -1.13218  -1.13183
  Beta  occ. eigenvalues --   -1.13136  -1.13034  -1.13015  -1.13012  -1.13007
  Beta  occ. eigenvalues --   -1.12982  -1.12977  -1.12963  -1.12932  -1.12931
  Beta  occ. eigenvalues --   -0.16801  -0.12715  -0.12272
  Beta virt. eigenvalues --   -0.06912  -0.06792  -0.05568  -0.04148  -0.03085
  Beta virt. eigenvalues --   -0.02560  -0.02324  -0.01283  -0.01213  -0.00742
  Beta virt. eigenvalues --   -0.00692  -0.00083   0.00053   0.00474   0.00668

 Mulliken charges and spin densities:
               1          2
     1  Na   0.088606   0.050971
     2  Na  -0.215396   0.027672
     3  Na   0.157079   0.544931
     4  Na  -0.029897   0.073218
     5  Na   0.191715   0.230329
     6  Na   0.000903   0.021092
     7  Na  -0.193010   0.051787
 Sum of Mulliken charges =  -0.00000   1.00000

 Dipole moment (field-independent basis, Debye):
    X=             -1.9225    Y=              0.0225    Z=              0.3245  Tot=              1.9498
 Quadrupole moment (field-independent basis, Debye-Ang):
   XX=            -68.1673   YY=            -72.4833   ZZ=            -64.7842
   XY=             -0.8468   XZ=              2.9379   YZ=             -0.4746

 Normal termination of Gaussian 16 at Sun Dec  3 23:42:17 2023.
