 Gaussian 16, Revision B.01,
 Gaussian 16:  ES64L-G16RevB.01 20-Dec-2017

 -------------------------
 #P B3LYP/6-311+g(d) force
 -------------------------

 -----
 DPGEN
 -----
 Symbolic Z-matrix:
 Charge =  0 Multiplicity = 2

                         Standard orientation:
 ---------------------------------------------------------------------
 Center     Atomic      Atomic             Coordinates (Angstroms)
 Number     Number       Type             X           Y           Z
 ---------------------------------------------------------------------
      1         11           0        0.397389    0.390358   -1.489994
      2         11           0       -3.232331   -0.508254   -0.324803
      3         11           0       -0.374191    0.036428    2.168388
      4         11           0       -1.878872    2.585508   -0.126747
      5         11           0        2.450386   -1.676968   -0.046825
      6         11           0       -0.624422   -2.542329   -0.210335
      7         11           0        3.262040    1.715257    0.030315
 ---------------------------------------------------------------------

 SCF Done:  E(UB3LYP) =  -1136.13010239     A.U. after   21 cycles

 The electronic state is 2-A.
 Alpha  occ. eigenvalues --  -38.44669 -38.44534 -38.43948 -38.43747 -38.43675
 Alpha  occ. eigenvalues --  -38.43490 -38.42525  -2.20501  -2.20309  -2.19827
 Alpha  occ. eigenvalues --   -2.19565  -2.19536  -2.19431  -2.18443  -1.14169
 Alpha  occ. eigenvalues --   -1.14163  -1.14143  -1.13980  -1.13967  -1.13957
 Alpha  occ. eigenvalues --   -1.13537  -1.13484  -1.13455  -1.13247  -1.13225
 Alpha  occ. eigenvalues --   -1.13211  -1.13196  -1.13162  -1.13145  -1.13125
 Alpha  occ. eigenvalues --   -1.13079  -1.13043  -1.12126  -1.12102  -1.12088
 Alpha  occ. eigenvalues --   -0.18453  -0.13527  -0.11910  -0.10576
 Alpha virt. eigenvalues --   -0.06483  -0.05544  -0.04089  -0.03358  -0.02563
 Alpha virt. eigenvalues --   -0.02538  -0.02065  -0.01290  -0.00736  -0.00151
 Alpha virt. eigenvalues --   -0.00065   0.00265   0.00660   0.00743   0.00794

  Beta  occ. eigenvalues --  -38.44659 -38.44539 -38.43944 -38.43744 -38.43567
  Beta  occ. eigenvalues --  -38.43445 -38.42515  -2.20486  -2.20320  -2.19823
  Beta  occ. eigenvalues --   -2.19561  -2.19350  -2.19335  -2.18430  -1.14160
  Beta  occ. eigenvalues --   -1.14136  -1.14132  -1.13983  -1.13971  -1.13964
  Beta  occ. eigenvalues --   -1.13531  -1.13461  -1.13457  -1.13241  -1.13212
  Beta  occ. eigenvalues --   -1.13200  -1.13081  -1.13052  -1.13022  -1.13017
  Beta  occ. eigenvalues --   -1.13004  -1.12981  -1.12120  -1.12097  -1.12044
  Beta  occ. eigenvalues --   -0.17734  -0.13343  -0.11711
  Beta virt. eigenvalues --   -0.06621  -0.06415  -0.05491  -0.04088  -0.02638
  Beta virt. eigenvalues --   -0.02026  -0.01814  -0.01444  -0.01176  -0.00773
  Beta virt. eigenvalues --   -0.00169   0.00120   0.00315   0.00733   0.00770

 Mulliken charges and spin densities:
               1          2
     1  Na  -0.128367   0.151643
     2  Na   0.241315   0.085597
     3  Na  -0.529031   0.676858
     4  Na   0.097184  -0.000221
     5  Na   0.209879   0.041023
     6  Na  -0.036510   0.083500
     7  Na   0.145530  -0.038400
 Sum of Mulliken charges =  -0.00000   1.00000

 Dipole moment (field-independent basis, Debye):
    X=              0.1522    Y=              0.3982    Z=              0.1390  Tot=              0.4484
 Quadrupole moment (field-independent basis, Debye-Ang):
   XX=            -51.8416   YY=            -65.8462   ZZ=            -75.5210
   XY=              1.0438   XZ=              1.7266   YZ=              0.6977

 Normal termination of Gaussian 16 at Thu Dec  7 21:04:46 2023.
