 Gaussian 16, Revision B.01,
 Gaussian 16:  ES64L-G16RevB.01 20-Dec-2017

 -------------------------
 #P B3LYP/6-311+g(d) force
 -------------------------

 -----
 DPGEN
 -----
 Symbolic Z-matrix:
 Charge =  0 Multiplicity = 2

                         Standard orientation:
 ---------------------------------------------------------------------
 Center     Atomic      Atomic             Coordinates (Angstroms)
 Number     Number       Type             X           Y           Z
 ---------------------------------------------------------------------
      1         11           0       -1.173716    2.849408    0.060761
      2         11           0       -4.890512    1.011316    0.588163
      3         11           0       -5.150388   -2.278849   -0.363963
      4         11           0       -2.208115   -0.983151    0.089726
      5         11           0        1.079783    0.259352   -0.416637
      6         11           0        5.607316    0.104565   -1.275027
      7         11           0        6.735633   -0.962640    1.316976
 ---------------------------------------------------------------------

 SCF Done:  E(UB3LYP) =  -1136.11582433     A.U. after   19 cycles

 The electronic state is 2-A.
 Alpha  occ. eigenvalues --  -38.44615 -38.44404 -38.44223 -38.44136 -38.43935
 Alpha  occ. eigenvalues --  -38.43907 -38.43493  -2.20408  -2.20199  -2.20048
 Alpha  occ. eigenvalues --   -2.19915  -2.19805  -2.19736  -2.19296  -1.14131
 Alpha  occ. eigenvalues --   -1.14059  -1.14056  -1.13852  -1.13844  -1.13816
 Alpha  occ. eigenvalues --   -1.13734  -1.13718  -1.13651  -1.13596  -1.13569
 Alpha  occ. eigenvalues --   -1.13540  -1.13509  -1.13490  -1.13460  -1.13391
 Alpha  occ. eigenvalues --   -1.13374  -1.13329  -1.12967  -1.12961  -1.12909
 Alpha  occ. eigenvalues --   -0.16199  -0.13766  -0.12381  -0.10523
 Alpha virt. eigenvalues --   -0.06255  -0.05563  -0.04702  -0.03623  -0.02893
 Alpha virt. eigenvalues --   -0.02471  -0.02121  -0.01851  -0.01070  -0.00935
 Alpha virt. eigenvalues --   -0.00399   0.00010   0.00080   0.00429   0.00587

  Beta  occ. eigenvalues --  -38.44609 -38.44406 -38.44169 -38.44103 -38.43903
  Beta  occ. eigenvalues --  -38.43886 -38.43464  -2.20396  -2.20203  -2.19948
  Beta  occ. eigenvalues --   -2.19855  -2.19750  -2.19698  -2.19240  -1.14125
  Beta  occ. eigenvalues --   -1.14050  -1.14048  -1.13855  -1.13845  -1.13815
  Beta  occ. eigenvalues --   -1.13668  -1.13652  -1.13568  -1.13558  -1.13527
  Beta  occ. eigenvalues --   -1.13486  -1.13473  -1.13426  -1.13421  -1.13365
  Beta  occ. eigenvalues --   -1.13340  -1.13299  -1.12928  -1.12914  -1.12878
  Beta  occ. eigenvalues --   -0.15522  -0.13662  -0.12225
  Beta virt. eigenvalues --   -0.06912  -0.05995  -0.05123  -0.04303  -0.03427
  Beta virt. eigenvalues --   -0.02621  -0.02276  -0.01776  -0.01609  -0.00911
  Beta virt. eigenvalues --   -0.00699  -0.00129   0.00255   0.00304   0.00525

 Mulliken charges and spin densities:
               1          2
     1  Na   0.105648   0.407698
     2  Na   0.155812   0.132619
     3  Na   0.856431   0.097479
     4  Na  -0.765500   0.650374
     5  Na  -0.339203  -0.286335
     6  Na  -0.114798  -0.033979
     7  Na   0.101611   0.032144
 Sum of Mulliken charges =  -0.00000   1.00000

 Dipole moment (field-independent basis, Debye):
    X=              0.2829    Y=             -0.3146    Z=              0.1522  Tot=              0.4496
 Quadrupole moment (field-independent basis, Debye-Ang):
   XX=            -55.8489   YY=            -67.1698   ZZ=            -66.3788
   XY=              2.4670   XZ=              4.1917   YZ=             -2.5598

 Normal termination of Gaussian 16 at Wed Nov 29 03:15:53 2023.
