 Gaussian 16, Revision B.01,
 Gaussian 16:  ES64L-G16RevB.01 20-Dec-2017

 -------------------------
 #P B3LYP/6-311+g(d) force
 -------------------------

 -----
 DPGEN
 -----
 Symbolic Z-matrix:
 Charge =  0 Multiplicity = 2

                         Standard orientation:
 ---------------------------------------------------------------------
 Center     Atomic      Atomic             Coordinates (Angstroms)
 Number     Number       Type             X           Y           Z
 ---------------------------------------------------------------------
      1         11           0       -0.124782   -0.367868   -1.782143
      2         11           0        0.307018    0.232164    2.080931
      3         11           0        1.374505    2.582860   -0.206067
      4         11           0       -2.262431    2.505531    0.024350
      5         11           0        3.050062   -0.537560   -0.410532
      6         11           0       -3.023204   -1.793061   -0.143166
      7         11           0        0.678833   -2.622066    0.436628
 ---------------------------------------------------------------------

 SCF Done:  E(UB3LYP) =  -1136.13403185     A.U. after   20 cycles

 The electronic state is 2-A.
 Alpha  occ. eigenvalues --  -38.44298 -38.44142 -38.43825 -38.43626 -38.43601
 Alpha  occ. eigenvalues --  -38.43554 -38.43452  -2.20051  -2.19897  -2.19705
 Alpha  occ. eigenvalues --   -2.19507  -2.19492  -2.19391  -2.19350  -1.13733
 Alpha  occ. eigenvalues --   -1.13704  -1.13693  -1.13576  -1.13549  -1.13543
 Alpha  occ. eigenvalues --   -1.13379  -1.13347  -1.13318  -1.13230  -1.13173
 Alpha  occ. eigenvalues --   -1.13166  -1.13155  -1.13139  -1.13104  -1.13068
 Alpha  occ. eigenvalues --   -1.13059  -1.13027  -1.13011  -1.13007  -1.12949
 Alpha  occ. eigenvalues --   -0.18305  -0.12575  -0.12433  -0.10882
 Alpha virt. eigenvalues --   -0.05844  -0.05372  -0.04607  -0.03143  -0.02970
 Alpha virt. eigenvalues --   -0.02708  -0.01547  -0.01338  -0.00484  -0.00401
 Alpha virt. eigenvalues --   -0.00046   0.00342   0.00741   0.00788   0.00900

  Beta  occ. eigenvalues --  -38.44300 -38.44145 -38.43731 -38.43615 -38.43547
  Beta  occ. eigenvalues --  -38.43537 -38.43436  -2.20057  -2.19903  -2.19531
  Beta  occ. eigenvalues --   -2.19475  -2.19391  -2.19381  -2.19324  -1.13728
  Beta  occ. eigenvalues --   -1.13709  -1.13698  -1.13570  -1.13555  -1.13548
  Beta  occ. eigenvalues --   -1.13268  -1.13225  -1.13197  -1.13183  -1.13146
  Beta  occ. eigenvalues --   -1.13123  -1.13109  -1.13082  -1.13053  -1.13038
  Beta  occ. eigenvalues --   -1.13019  -1.13003  -1.12999  -1.12956  -1.12936
  Beta  occ. eigenvalues --   -0.17536  -0.12383  -0.12237
  Beta virt. eigenvalues --   -0.06923  -0.05854  -0.05266  -0.04542  -0.02371
  Beta virt. eigenvalues --   -0.02302  -0.01714  -0.01397  -0.01289  -0.00525
  Beta virt. eigenvalues --   -0.00405   0.00099   0.00378   0.00784   0.00823

 Mulliken charges and spin densities:
               1          2
     1  Na  -0.155364   0.590835
     2  Na  -0.230060   0.607709
     3  Na   0.051487  -0.046760
     4  Na  -0.134694  -0.141202
     5  Na   0.283624   0.054986
     6  Na  -0.073652  -0.140513
     7  Na   0.258659   0.074946
 Sum of Mulliken charges =  -0.00000   1.00000

 Dipole moment (field-independent basis, Debye):
    X=             -0.2835    Y=              0.1515    Z=              0.0476  Tot=              0.3250
 Quadrupole moment (field-independent basis, Debye-Ang):
   XX=            -57.0773   YY=            -63.1343   ZZ=            -73.6564
   XY=             -0.4355   XZ=             -1.2379   YZ=             -1.0784

 Normal termination of Gaussian 16 at Tue Dec  5 17:42:17 2023.
