 Gaussian 16, Revision B.01,
 Gaussian 16:  ES64L-G16RevB.01 20-Dec-2017

 -------------------------
 #P B3LYP/6-311+g(d) force
 -------------------------

 -----
 DPGEN
 -----
 Symbolic Z-matrix:
 Charge =  0 Multiplicity = 2

                         Standard orientation:
 ---------------------------------------------------------------------
 Center     Atomic      Atomic             Coordinates (Angstroms)
 Number     Number       Type             X           Y           Z
 ---------------------------------------------------------------------
      1         11           0        2.158148   -1.023029   -0.713113
      2         11           0       -0.027243   -1.269010    1.730417
      3         11           0       -2.867907   -0.091663   -0.105918
      4         11           0        0.220002    1.289727   -1.643874
      5         11           0       -0.866556    1.360865    0.795682
      6         11           0        1.887651    1.116917    0.962345
      7         11           0       -0.504095   -1.383807   -1.025538
 ---------------------------------------------------------------------

 SCF Done:  E(UB3LYP) =  -1136.07215226     A.U. after   23 cycles

 The electronic state is 2-A.
 Alpha  occ. eigenvalues --  -38.44486 -38.44151 -38.44108 -38.43935 -38.43890
 Alpha  occ. eigenvalues --  -38.43763 -38.43669  -2.20516  -2.20299  -2.20260
 Alpha  occ. eigenvalues --   -2.20212  -2.20159  -2.19909  -2.19771  -1.14573
 Alpha  occ. eigenvalues --   -1.14359  -1.14329  -1.14244  -1.14154  -1.14126
 Alpha  occ. eigenvalues --   -1.14021  -1.13960  -1.13887  -1.13846  -1.13793
 Alpha  occ. eigenvalues --   -1.13757  -1.13666  -1.13611  -1.13590  -1.13496
 Alpha  occ. eigenvalues --   -1.13447  -1.13423  -1.13395  -1.13340  -1.13308
 Alpha  occ. eigenvalues --   -0.21715  -0.13962  -0.13328  -0.11885
 Alpha virt. eigenvalues --   -0.05484  -0.04263  -0.03975  -0.03607  -0.03123
 Alpha virt. eigenvalues --   -0.02942  -0.01287  -0.00434  -0.00186   0.00310
 Alpha virt. eigenvalues --    0.00708   0.00846   0.01033   0.01126   0.01178

  Beta  occ. eigenvalues --  -38.44482 -38.44125 -38.44070 -38.43891 -38.43833
  Beta  occ. eigenvalues --  -38.43709 -38.43612  -2.20510  -2.20247  -2.20195
  Beta  occ. eigenvalues --   -2.20144  -2.20067  -2.19816  -2.19671  -1.14550
  Beta  occ. eigenvalues --   -1.14317  -1.14289  -1.14206  -1.14118  -1.14070
  Beta  occ. eigenvalues --   -1.13973  -1.13870  -1.13833  -1.13780  -1.13737
  Beta  occ. eigenvalues --   -1.13689  -1.13634  -1.13566  -1.13534  -1.13426
  Beta  occ. eigenvalues --   -1.13364  -1.13357  -1.13323  -1.13249  -1.13241
  Beta  occ. eigenvalues --   -0.20788  -0.13698  -0.11752
  Beta virt. eigenvalues --   -0.08695  -0.05438  -0.03746  -0.03435  -0.03267
  Beta virt. eigenvalues --   -0.02506  -0.02026  -0.01229  -0.00191  -0.00139
  Beta virt. eigenvalues --    0.00342   0.00749   0.00947   0.01079   0.01168

 Mulliken charges and spin densities:
               1          2
     1  Na   0.264147  -0.079165
     2  Na   0.141023   0.384857
     3  Na   0.170106  -0.075432
     4  Na   0.332751   0.373999
     5  Na  -0.529112   0.128283
     6  Na   0.121913   0.050147
     7  Na  -0.500829   0.217313
 Sum of Mulliken charges =  -0.00000   1.00000

 Dipole moment (field-independent basis, Debye):
    X=             -0.0764    Y=             -0.1580    Z=              0.0733  Tot=              0.1902
 Quadrupole moment (field-independent basis, Debye-Ang):
   XX=            -58.1249   YY=            -76.4502   ZZ=            -62.9296
   XY=              0.3532   XZ=              0.2971   YZ=              1.7659

 Normal termination of Gaussian 16 at Thu Dec  7 10:23:07 2023.
