 Gaussian 16, Revision B.01,
 Gaussian 16:  ES64L-G16RevB.01 20-Dec-2017

 -------------------------
 #P B3LYP/6-311+g(d) force
 -------------------------

 -----
 DPGEN
 -----
 Symbolic Z-matrix:
 Charge =  0 Multiplicity = 2

                         Standard orientation:
 ---------------------------------------------------------------------
 Center     Atomic      Atomic             Coordinates (Angstroms)
 Number     Number       Type             X           Y           Z
 ---------------------------------------------------------------------
      1         11           0       -2.717046   -2.484920    0.987064
      2         11           0       -0.084377   -1.010279   -1.170845
      3         11           0        0.903705    1.971679    0.408637
      4         11           0       -1.694069    2.598120   -0.539400
      5         11           0        4.329470    0.116288    1.523623
      6         11           0       -4.280011    0.064208    0.129564
      7         11           0        3.542329   -1.255095   -1.338642
 ---------------------------------------------------------------------

 SCF Done:  E(UB3LYP) =  -1136.11325350     A.U. after   21 cycles

 The electronic state is 2-A.
 Alpha  occ. eigenvalues --  -38.44805 -38.44647 -38.44206 -38.44190 -38.44119
 Alpha  occ. eigenvalues --  -38.44093 -38.43338  -2.20588  -2.20467  -2.20026
 Alpha  occ. eigenvalues --   -2.20022  -2.19961  -2.19921  -2.19208  -1.14269
 Alpha  occ. eigenvalues --   -1.14256  -1.14242  -1.14141  -1.14117  -1.14101
 Alpha  occ. eigenvalues --   -1.13718  -1.13707  -1.13668  -1.13666  -1.13663
 Alpha  occ. eigenvalues --   -1.13639  -1.13634  -1.13622  -1.13593  -1.13584
 Alpha  occ. eigenvalues --   -1.13580  -1.13567  -1.12879  -1.12843  -1.12830
 Alpha  occ. eigenvalues --   -0.16925  -0.14253  -0.11961  -0.10863
 Alpha virt. eigenvalues --   -0.07151  -0.05029  -0.04545  -0.03893  -0.03158
 Alpha virt. eigenvalues --   -0.02296  -0.01989  -0.01794  -0.00865  -0.00502
 Alpha virt. eigenvalues --   -0.00299   0.00050   0.00253   0.00495   0.00602

  Beta  occ. eigenvalues --  -38.44809 -38.44608 -38.44129 -38.44127 -38.44104
  Beta  occ. eigenvalues --  -38.44090 -38.43334  -2.20601  -2.20393  -2.19956
  Beta  occ. eigenvalues --   -2.19938  -2.19877  -2.19868  -2.19202  -1.14281
  Beta  occ. eigenvalues --   -1.14259  -1.14220  -1.14093  -1.14067  -1.14050
  Beta  occ. eigenvalues --   -1.13700  -1.13630  -1.13610  -1.13599  -1.13593
  Beta  occ. eigenvalues --   -1.13584  -1.13573  -1.13567  -1.13563  -1.13548
  Beta  occ. eigenvalues --   -1.13537  -1.13518  -1.12873  -1.12832  -1.12827
  Beta  occ. eigenvalues --   -0.16342  -0.13722  -0.11839
  Beta virt. eigenvalues --   -0.07400  -0.06772  -0.04631  -0.04206  -0.03667
  Beta virt. eigenvalues --   -0.02696  -0.02161  -0.01583  -0.01439  -0.00581
  Beta virt. eigenvalues --   -0.00358  -0.00179   0.00171   0.00450   0.00568

 Mulliken charges and spin densities:
               1          2
     1  Na   0.579754  -0.047171
     2  Na  -0.951637   0.411832
     3  Na  -0.807272  -0.084346
     4  Na   0.837444   0.130536
     5  Na   0.240523   0.375550
     6  Na  -0.071182   0.249434
     7  Na   0.172369  -0.035835
 Sum of Mulliken charges =  -0.00000   1.00000

 Dipole moment (field-independent basis, Debye):
    X=             -0.1018    Y=             -0.3449    Z=             -0.0383  Tot=              0.3616
 Quadrupole moment (field-independent basis, Debye-Ang):
   XX=            -63.2791   YY=            -71.4047   ZZ=            -66.5272
   XY=             -4.7087   XZ=             -0.1018   YZ=             -0.7160

 Normal termination of Gaussian 16 at Sun Dec  3 16:17:34 2023.
