 Gaussian 16, Revision B.01,
 Gaussian 16:  ES64L-G16RevB.01 20-Dec-2017

 -------------------------
 #P B3LYP/6-311+g(d) force
 -------------------------

 -----
 DPGEN
 -----
 Symbolic Z-matrix:
 Charge =  0 Multiplicity = 2

                         Standard orientation:
 ---------------------------------------------------------------------
 Center     Atomic      Atomic             Coordinates (Angstroms)
 Number     Number       Type             X           Y           Z
 ---------------------------------------------------------------------
      1         11           0        1.552356    2.318623    0.184852
      2         11           0        0.247393   -2.513297   -0.571808
      3         11           0        3.355314   -0.659792   -0.242968
      4         11           0       -0.044174    0.456125   -1.773757
      5         11           0       -3.289909   -1.073424   -0.101947
      6         11           0       -1.994253    2.089980    0.082198
      7         11           0        0.173272   -0.618216    2.423430
 ---------------------------------------------------------------------

 SCF Done:  E(UB3LYP) =  -1136.13137171     A.U. after   20 cycles

 The electronic state is 2-A.
 Alpha  occ. eigenvalues --  -38.44599 -38.44438 -38.44400 -38.43714 -38.43370
 Alpha  occ. eigenvalues --  -38.43123 -38.43106  -2.20385  -2.20216  -2.20212
 Alpha  occ. eigenvalues --   -2.19676  -2.19231  -2.18989  -2.18960  -1.14056
 Alpha  occ. eigenvalues --   -1.14044  -1.14027  -1.13890  -1.13878  -1.13860
 Alpha  occ. eigenvalues --   -1.13853  -1.13845  -1.13829  -1.13377  -1.13344
 Alpha  occ. eigenvalues --   -1.13302  -1.12920  -1.12891  -1.12852  -1.12684
 Alpha  occ. eigenvalues --   -1.12669  -1.12648  -1.12626  -1.12606  -1.12561
 Alpha  occ. eigenvalues --   -0.18267  -0.12981  -0.11984  -0.11184
 Alpha virt. eigenvalues --   -0.06289  -0.05026  -0.04052  -0.03371  -0.03262
 Alpha virt. eigenvalues --   -0.02822  -0.01970  -0.01043  -0.00181  -0.00154
 Alpha virt. eigenvalues --   -0.00129   0.00310   0.00656   0.00716   0.00889

  Beta  occ. eigenvalues --  -38.44599 -38.44442 -38.44293 -38.43656 -38.43367
  Beta  occ. eigenvalues --  -38.43117 -38.43091  -2.20388  -2.20223  -2.20015
  Beta  occ. eigenvalues --   -2.19572  -2.19227  -2.18981  -2.18935  -1.14050
  Beta  occ. eigenvalues --   -1.14040  -1.14031  -1.13892  -1.13877  -1.13861
  Beta  occ. eigenvalues --   -1.13727  -1.13704  -1.13691  -1.13308  -1.13268
  Beta  occ. eigenvalues --   -1.13227  -1.12910  -1.12873  -1.12853  -1.12675
  Beta  occ. eigenvalues --   -1.12647  -1.12623  -1.12605  -1.12587  -1.12549
  Beta  occ. eigenvalues --   -0.17537  -0.12844  -0.11771
  Beta virt. eigenvalues --   -0.07171  -0.06196  -0.05055  -0.03914  -0.02636
  Beta virt. eigenvalues --   -0.02442  -0.01877  -0.01844  -0.01003  -0.00216
  Beta virt. eigenvalues --   -0.00160   0.00044   0.00342   0.00799   0.00824

 Mulliken charges and spin densities:
               1          2
     1  Na   0.102262   0.099233
     2  Na   0.086719   0.012481
     3  Na   0.193519  -0.044677
     4  Na   0.057846   0.250939
     5  Na   0.078903  -0.059346
     6  Na   0.159918   0.061671
     7  Na  -0.679167   0.679700
 Sum of Mulliken charges =  -0.00000   1.00000

 Dipole moment (field-independent basis, Debye):
    X=              0.0846    Y=             -0.2316    Z=              0.2333  Tot=              0.3394
 Quadrupole moment (field-independent basis, Debye-Ang):
   XX=            -52.8897   YY=            -70.0992   ZZ=            -71.4381
   XY=              0.2960   XZ=             -0.5000   YZ=              1.5722

 Normal termination of Gaussian 16 at Fri Dec  8 04:00:04 2023.
