 Gaussian 16, Revision B.01,
 Gaussian 16:  ES64L-G16RevB.01 20-Dec-2017

 -------------------------
 #P B3LYP/6-311+g(d) force
 -------------------------

 -----
 DPGEN
 -----
 Symbolic Z-matrix:
 Charge =  0 Multiplicity = 2

                         Standard orientation:
 ---------------------------------------------------------------------
 Center     Atomic      Atomic             Coordinates (Angstroms)
 Number     Number       Type             X           Y           Z
 ---------------------------------------------------------------------
      1         11           0       -3.442062   -1.374825   -0.392333
      2         11           0        1.105497    2.780704   -0.038809
      3         11           0        2.838678    0.411405   -0.170681
      4         11           0       -2.166762    1.811493    0.174562
      5         11           0       -0.054949   -0.704760    2.112682
      6         11           0        1.793843   -2.839739   -0.242941
      7         11           0       -0.074246   -0.084279   -1.442480
 ---------------------------------------------------------------------

 SCF Done:  E(UB3LYP) =  -1136.12950410     A.U. after   20 cycles

 The electronic state is 2-A.
 Alpha  occ. eigenvalues --  -38.44609 -38.44019 -38.43925 -38.43710 -38.43622
 Alpha  occ. eigenvalues --  -38.43410 -38.43039  -2.20381  -2.19946  -2.19788
 Alpha  occ. eigenvalues --   -2.19526  -2.19469  -2.19383  -2.18941  -1.14048
 Alpha  occ. eigenvalues --   -1.14040  -1.14015  -1.13678  -1.13613  -1.13572
 Alpha  occ. eigenvalues --   -1.13501  -1.13453  -1.13404  -1.13195  -1.13183
 Alpha  occ. eigenvalues --   -1.13177  -1.13139  -1.13099  -1.13079  -1.13075
 Alpha  occ. eigenvalues --   -1.13016  -1.13008  -1.12635  -1.12584  -1.12567
 Alpha  occ. eigenvalues --   -0.18501  -0.13326  -0.12267  -0.10480
 Alpha virt. eigenvalues --   -0.06244  -0.05381  -0.04415  -0.03202  -0.02843
 Alpha virt. eigenvalues --   -0.02246  -0.01962  -0.01337  -0.00620  -0.00211
 Alpha virt. eigenvalues --   -0.00031   0.00293   0.00704   0.00784   0.00844

  Beta  occ. eigenvalues --  -38.44601 -38.44009 -38.43918 -38.43710 -38.43521
  Beta  occ. eigenvalues --  -38.43364 -38.43036  -2.20367  -2.19932  -2.19779
  Beta  occ. eigenvalues --   -2.19527  -2.19301  -2.19282  -2.18940  -1.14036
  Beta  occ. eigenvalues --   -1.14024  -1.14007  -1.13672  -1.13593  -1.13548
  Beta  occ. eigenvalues --   -1.13495  -1.13425  -1.13398  -1.13193  -1.13181
  Beta  occ. eigenvalues --   -1.13164  -1.13035  -1.12995  -1.12969  -1.12960
  Beta  occ. eigenvalues --   -1.12944  -1.12944  -1.12636  -1.12584  -1.12545
  Beta  occ. eigenvalues --   -0.17810  -0.13091  -0.12063
  Beta virt. eigenvalues --   -0.06627  -0.06149  -0.05283  -0.04388  -0.02493
  Beta virt. eigenvalues --   -0.02080  -0.01848  -0.01388  -0.01191  -0.00643
  Beta virt. eigenvalues --   -0.00206   0.00146   0.00342   0.00743   0.00830

 Mulliken charges and spin densities:
               1          2
     1  Na   0.115300   0.034704
     2  Na  -0.120179   0.057373
     3  Na   0.423513   0.155286
     4  Na   0.307988   0.155743
     5  Na  -0.570378   0.557802
     6  Na   0.235199   0.015897
     7  Na  -0.391443   0.023196
 Sum of Mulliken charges =  -0.00000   1.00000

 Dipole moment (field-independent basis, Debye):
    X=             -0.5086    Y=             -0.5351    Z=              0.1085  Tot=              0.7461
 Quadrupole moment (field-independent basis, Debye-Ang):
   XX=            -56.0553   YY=            -61.4705   ZZ=            -75.6734
   XY=              0.6763   XZ=             -0.0131   YZ=              1.5748

 Normal termination of Gaussian 16 at Thu Dec  7 10:38:16 2023.
