 Gaussian 16, Revision B.01,
 Gaussian 16:  ES64L-G16RevB.01 20-Dec-2017

 -------------------------
 #P B3LYP/6-311+g(d) force
 -------------------------

 -----
 DPGEN
 -----
 Symbolic Z-matrix:
 Charge =  0 Multiplicity = 2

                         Standard orientation:
 ---------------------------------------------------------------------
 Center     Atomic      Atomic             Coordinates (Angstroms)
 Number     Number       Type             X           Y           Z
 ---------------------------------------------------------------------
      1         11           0        0.727231    2.720516   -0.419242
      2         11           0       -2.304215   -1.836591   -0.137104
      3         11           0        1.339055   -2.452360   -0.082725
      4         11           0       -0.185622   -0.005876    1.925150
      5         11           0       -0.093693   -0.168131   -1.778953
      6         11           0        3.230606    0.300226    0.273850
      7         11           0       -2.713362    1.442216    0.219023
 ---------------------------------------------------------------------

 SCF Done:  E(UB3LYP) =  -1136.13862804     A.U. after   18 cycles

 The electronic state is 2-A.
 Alpha  occ. eigenvalues --  -38.44199 -38.43842 -38.43625 -38.43579 -38.43286
 Alpha  occ. eigenvalues --  -38.43167 -38.43115  -2.20017  -2.19698  -2.19547
 Alpha  occ. eigenvalues --   -2.19466  -2.19272  -2.19052  -2.18962  -1.13686
 Alpha  occ. eigenvalues --   -1.13678  -1.13663  -1.13390  -1.13368  -1.13336
 Alpha  occ. eigenvalues --   -1.13228  -1.13182  -1.13171  -1.13166  -1.13113
 Alpha  occ. eigenvalues --   -1.13089  -1.12957  -1.12925  -1.12890  -1.12725
 Alpha  occ. eigenvalues --   -1.12715  -1.12670  -1.12647  -1.12620  -1.12585
 Alpha  occ. eigenvalues --   -0.18892  -0.13240  -0.12285  -0.10924
 Alpha virt. eigenvalues --   -0.05757  -0.05124  -0.04344  -0.03338  -0.02866
 Alpha virt. eigenvalues --   -0.02620  -0.01620  -0.01023  -0.00264  -0.00144
 Alpha virt. eigenvalues --   -0.00003   0.00362   0.00795   0.00908   0.00921

  Beta  occ. eigenvalues --  -38.44197 -38.43836 -38.43571 -38.43544 -38.43205
  Beta  occ. eigenvalues --  -38.43161 -38.43106  -2.20015  -2.19690  -2.19457
  Beta  occ. eigenvalues --   -2.19397  -2.19125  -2.19045  -2.18947  -1.13681
  Beta  occ. eigenvalues --   -1.13669  -1.13659  -1.13380  -1.13351  -1.13323
  Beta  occ. eigenvalues --   -1.13165  -1.13126  -1.13101  -1.13082  -1.13066
  Beta  occ. eigenvalues --   -1.13045  -1.12871  -1.12826  -1.12791  -1.12708
  Beta  occ. eigenvalues --   -1.12687  -1.12661  -1.12625  -1.12595  -1.12580
  Beta  occ. eigenvalues --   -0.18149  -0.12998  -0.12010
  Beta virt. eigenvalues --   -0.07012  -0.05686  -0.05138  -0.04318  -0.02545
  Beta virt. eigenvalues --   -0.02077  -0.01564  -0.01518  -0.00969  -0.00287
  Beta virt. eigenvalues --   -0.00194   0.00115   0.00382   0.00856   0.00901

 Mulliken charges and spin densities:
               1          2
     1  Na   0.043624  -0.069105
     2  Na   0.284371  -0.089831
     3  Na   0.167915  -0.096404
     4  Na  -0.421563   0.699635
     5  Na  -0.197203   0.620508
     6  Na  -0.035599  -0.034035
     7  Na   0.158454  -0.030769
 Sum of Mulliken charges =  -0.00000   1.00000

 Dipole moment (field-independent basis, Debye):
    X=              0.0064    Y=              0.0285    Z=              0.1845  Tot=              0.1868
 Quadrupole moment (field-independent basis, Debye-Ang):
   XX=            -54.8446   YY=            -65.2967   ZZ=            -73.4696
   XY=              0.0324   XZ=              0.5047   YZ=             -0.1628

 Normal termination of Gaussian 16 at Thu Dec  7 23:17:54 2023.
