 Gaussian 16, Revision B.01,
 Gaussian 16:  ES64L-G16RevB.01 20-Dec-2017

 -------------------------
 #P B3LYP/6-311+g(d) force
 -------------------------

 -----
 DPGEN
 -----
 Symbolic Z-matrix:
 Charge =  0 Multiplicity = 2

                         Standard orientation:
 ---------------------------------------------------------------------
 Center     Atomic      Atomic             Coordinates (Angstroms)
 Number     Number       Type             X           Y           Z
 ---------------------------------------------------------------------
      1         11           0       -2.596102    2.497840   -0.255068
      2         11           0       -5.060193    0.026064   -0.535404
      3         11           0       -2.434062   -1.937793    0.399045
      4         11           0        0.688656   -1.812256   -0.784136
      5         11           0        0.227968    0.807034    1.030117
      6         11           0        3.292527   -0.192759    1.139716
      7         11           0        5.881208    0.611870   -0.994270
 ---------------------------------------------------------------------

 SCF Done:  E(UB3LYP) =  -1136.11378359     A.U. after   22 cycles

 The electronic state is 2-A.
 Alpha  occ. eigenvalues --  -38.44573 -38.44365 -38.44356 -38.44292 -38.44131
 Alpha  occ. eigenvalues --  -38.44047 -38.43952  -2.20473  -2.20191  -2.20168
 Alpha  occ. eigenvalues --   -2.20146  -2.19927  -2.19814  -2.19781  -1.14156
 Alpha  occ. eigenvalues --   -1.14142  -1.14094  -1.13884  -1.13852  -1.13835
 Alpha  occ. eigenvalues --   -1.13834  -1.13826  -1.13818  -1.13785  -1.13783
 Alpha  occ. eigenvalues --   -1.13751  -1.13594  -1.13587  -1.13556  -1.13487
 Alpha  occ. eigenvalues --   -1.13472  -1.13469  -1.13463  -1.13443  -1.13382
 Alpha  occ. eigenvalues --   -0.17258  -0.14091  -0.11758  -0.11345
 Alpha virt. eigenvalues --   -0.06757  -0.06049  -0.04216  -0.03545  -0.03003
 Alpha virt. eigenvalues --   -0.02674  -0.01946  -0.01638  -0.01051  -0.00506
 Alpha virt. eigenvalues --   -0.00287  -0.00197   0.00091   0.00356   0.00615

  Beta  occ. eigenvalues --  -38.44514 -38.44313 -38.44312 -38.44288 -38.44119
  Beta  occ. eigenvalues --  -38.44004 -38.43962  -2.20364  -2.20138  -2.20110
  Beta  occ. eigenvalues --   -2.20073  -2.19905  -2.19803  -2.19734  -1.14087
  Beta  occ. eigenvalues --   -1.14071  -1.14007  -1.13839  -1.13811  -1.13800
  Beta  occ. eigenvalues --   -1.13787  -1.13773  -1.13772  -1.13756  -1.13722
  Beta  occ. eigenvalues --   -1.13714  -1.13580  -1.13560  -1.13542  -1.13492
  Beta  occ. eigenvalues --   -1.13472  -1.13427  -1.13416  -1.13414  -1.13360
  Beta  occ. eigenvalues --   -0.16712  -0.13775  -0.11138
  Beta virt. eigenvalues --   -0.08027  -0.06173  -0.05771  -0.03923  -0.03183
  Beta virt. eigenvalues --   -0.02659  -0.02439  -0.01548  -0.01454  -0.00844
  Beta virt. eigenvalues --   -0.00296  -0.00141  -0.00001   0.00209   0.00504

 Mulliken charges and spin densities:
               1          2
     1  Na   0.552925  -0.055360
     2  Na  -0.096053   0.011367
     3  Na   0.215867   0.381039
     4  Na  -0.065838  -0.051129
     5  Na  -0.616617   0.413489
     6  Na   0.021337   0.071184
     7  Na  -0.011620   0.229410
 Sum of Mulliken charges =  -0.00000   1.00000

 Dipole moment (field-independent basis, Debye):
    X=             -0.8127    Y=             -0.4802    Z=             -0.4518  Tot=              1.0465
 Quadrupole moment (field-independent basis, Debye-Ang):
   XX=            -69.1708   YY=            -70.2235   ZZ=            -65.6681
   XY=              0.2216   XZ=             -2.6695   YZ=             -0.6684

 Normal termination of Gaussian 16 at Tue Nov 28 20:49:36 2023.
