 Gaussian 16, Revision B.01,
 Gaussian 16:  ES64L-G16RevB.01 20-Dec-2017

 -------------------------
 #P B3LYP/6-311+g(d) force
 -------------------------

 -----
 DPGEN
 -----
 Symbolic Z-matrix:
 Charge =  0 Multiplicity = 2

                         Standard orientation:
 ---------------------------------------------------------------------
 Center     Atomic      Atomic             Coordinates (Angstroms)
 Number     Number       Type             X           Y           Z
 ---------------------------------------------------------------------
      1         11           0        0.721654    2.897991   -0.342958
      2         11           0       -2.189796   -1.642561   -0.674696
      3         11           0        0.988939   -2.584780    0.648952
      4         11           0       -0.327241    0.204743    1.887760
      5         11           0        3.097195    0.392398    0.164794
      6         11           0        0.772170   -0.531320   -1.804878
      7         11           0       -3.062922    1.263529    0.121027
 ---------------------------------------------------------------------

 SCF Done:  E(UB3LYP) =  -1136.13550981     A.U. after   19 cycles

 The electronic state is 2-A.
 Alpha  occ. eigenvalues --  -38.44223 -38.43961 -38.43603 -38.43559 -38.43503
 Alpha  occ. eigenvalues --  -38.43490 -38.43174  -2.20073  -2.19788  -2.19474
 Alpha  occ. eigenvalues --   -2.19451  -2.19405  -2.19380  -2.19069  -1.13779
 Alpha  occ. eigenvalues --   -1.13731  -1.13697  -1.13489  -1.13457  -1.13422
 Alpha  occ. eigenvalues --   -1.13162  -1.13133  -1.13119  -1.13118  -1.13098
 Alpha  occ. eigenvalues --   -1.13092  -1.13072  -1.13060  -1.13038  -1.13033
 Alpha  occ. eigenvalues --   -1.13024  -1.13002  -1.12744  -1.12722  -1.12691
 Alpha  occ. eigenvalues --   -0.18640  -0.13243  -0.12251  -0.10994
 Alpha virt. eigenvalues --   -0.05849  -0.04906  -0.04592  -0.03427  -0.03044
 Alpha virt. eigenvalues --   -0.02611  -0.01511  -0.00956  -0.00439  -0.00147
 Alpha virt. eigenvalues --    0.00009   0.00380   0.00800   0.00842   0.00907

  Beta  occ. eigenvalues --  -38.44218 -38.43962 -38.43600 -38.43480 -38.43471
  Beta  occ. eigenvalues --  -38.43438 -38.43154  -2.20069  -2.19791  -2.19401
  Beta  occ. eigenvalues --   -2.19349  -2.19334  -2.19327  -2.19036  -1.13769
  Beta  occ. eigenvalues --   -1.13718  -1.13691  -1.13491  -1.13442  -1.13425
  Beta  occ. eigenvalues --   -1.13088  -1.13077  -1.13070  -1.13051  -1.13040
  Beta  occ. eigenvalues --   -1.13032  -1.13008  -1.13001  -1.12996  -1.12991
  Beta  occ. eigenvalues --   -1.12981  -1.12957  -1.12719  -1.12684  -1.12658
  Beta  occ. eigenvalues --   -0.17905  -0.13028  -0.12027
  Beta virt. eigenvalues --   -0.07066  -0.05785  -0.04858  -0.04492  -0.02713
  Beta virt. eigenvalues --   -0.02312  -0.01594  -0.01444  -0.00866  -0.00432
  Beta virt. eigenvalues --   -0.00135   0.00122   0.00418   0.00853   0.00913

 Mulliken charges and spin densities:
               1          2
     1  Na  -0.289032  -0.118291
     2  Na   0.022543   0.056174
     3  Na   0.153450   0.088475
     4  Na  -0.171697   0.597679
     5  Na   0.248751  -0.023786
     6  Na   0.046383   0.480460
     7  Na  -0.010398  -0.080712
 Sum of Mulliken charges =  -0.00000   1.00000

 Dipole moment (field-independent basis, Debye):
    X=              0.2036    Y=              0.2229    Z=              0.0303  Tot=              0.3034
 Quadrupole moment (field-independent basis, Debye-Ang):
   XX=            -57.2830   YY=            -64.8582   ZZ=            -72.5193
   XY=             -1.1824   XZ=              1.8958   YZ=             -1.2277

 Normal termination of Gaussian 16 at Tue Dec  5 16:34:13 2023.
