 Gaussian 16, Revision B.01,
 Gaussian 16:  ES64L-G16RevB.01 20-Dec-2017

 -------------------------
 #P B3LYP/6-311+g(d) force
 -------------------------

 -----
 DPGEN
 -----
 Symbolic Z-matrix:
 Charge =  0 Multiplicity = 2

                         Standard orientation:
 ---------------------------------------------------------------------
 Center     Atomic      Atomic             Coordinates (Angstroms)
 Number     Number       Type             X           Y           Z
 ---------------------------------------------------------------------
      1         11           0        3.898343    1.867868   -0.075616
      2         11           0        0.094421    1.260382   -1.000090
      3         11           0       -0.791800   -1.455042    1.641476
      4         11           0        2.695494   -1.013079    0.670756
      5         11           0       -2.635907   -0.586364   -0.668344
      6         11           0       -3.239795    2.289218    0.587933
      7         11           0       -0.020756   -2.362984   -1.156115
 ---------------------------------------------------------------------

 SCF Done:  E(UB3LYP) =  -1136.12221614     A.U. after   21 cycles

 The electronic state is 2-A.
 Alpha  occ. eigenvalues --  -38.44365 -38.44227 -38.43994 -38.43922 -38.43872
 Alpha  occ. eigenvalues --  -38.43778 -38.43253  -2.20148  -2.20071  -2.19909
 Alpha  occ. eigenvalues --   -2.19848  -2.19712  -2.19679  -2.19203  -1.13836
 Alpha  occ. eigenvalues --   -1.13810  -1.13789  -1.13782  -1.13748  -1.13683
 Alpha  occ. eigenvalues --   -1.13652  -1.13577  -1.13550  -1.13534  -1.13519
 Alpha  occ. eigenvalues --   -1.13459  -1.13382  -1.13358  -1.13343  -1.13325
 Alpha  occ. eigenvalues --   -1.13318  -1.13302  -1.12872  -1.12848  -1.12825
 Alpha  occ. eigenvalues --   -0.18507  -0.13793  -0.12124  -0.10422
 Alpha virt. eigenvalues --   -0.06520  -0.05959  -0.04253  -0.03244  -0.02677
 Alpha virt. eigenvalues --   -0.02157  -0.01949  -0.01538  -0.00990  -0.00192
 Alpha virt. eigenvalues --   -0.00073   0.00218   0.00383   0.00594   0.00728

  Beta  occ. eigenvalues --  -38.44370 -38.44185 -38.43976 -38.43901 -38.43859
  Beta  occ. eigenvalues --  -38.43723 -38.43222  -2.20158  -2.19997  -2.19878
  Beta  occ. eigenvalues --   -2.19816  -2.19655  -2.19609  -2.19150  -1.13841
  Beta  occ. eigenvalues --   -1.13817  -1.13793  -1.13736  -1.13672  -1.13645
  Beta  occ. eigenvalues --   -1.13623  -1.13533  -1.13506  -1.13498  -1.13495
  Beta  occ. eigenvalues --   -1.13432  -1.13329  -1.13316  -1.13301  -1.13289
  Beta  occ. eigenvalues --   -1.13285  -1.13243  -1.12838  -1.12816  -1.12747
  Beta  occ. eigenvalues --   -0.17783  -0.13592  -0.11962
  Beta virt. eigenvalues --   -0.06638  -0.06362  -0.05646  -0.04066  -0.02747
  Beta virt. eigenvalues --   -0.02247  -0.02090  -0.01544  -0.00937  -0.00915
  Beta virt. eigenvalues --   -0.00063   0.00121   0.00281   0.00579   0.00636

 Mulliken charges and spin densities:
               1          2
     1  Na   0.401915  -0.046907
     2  Na  -1.115054   0.015492
     3  Na  -0.251042   0.257294
     4  Na  -0.184239   0.071110
     5  Na   0.572083   0.463403
     6  Na   0.223491  -0.016478
     7  Na   0.352846   0.256086
 Sum of Mulliken charges =  -0.00000   1.00000

 Dipole moment (field-independent basis, Debye):
    X=              0.3672    Y=              0.3034    Z=             -0.1610  Tot=              0.5028
 Quadrupole moment (field-independent basis, Debye-Ang):
   XX=            -57.0682   YY=            -63.9026   ZZ=            -73.7692
   XY=              1.2987   XZ=             -0.4768   YZ=              2.9217

 Normal termination of Gaussian 16 at Wed Nov 29 15:39:14 2023.
