 Gaussian 16, Revision B.01,
 Gaussian 16:  ES64L-G16RevB.01 20-Dec-2017

 -------------------------
 #P B3LYP/6-311+g(d) force
 -------------------------

 -----
 DPGEN
 -----
 Symbolic Z-matrix:
 Charge =  0 Multiplicity = 2

                         Standard orientation:
 ---------------------------------------------------------------------
 Center     Atomic      Atomic             Coordinates (Angstroms)
 Number     Number       Type             X           Y           Z
 ---------------------------------------------------------------------
      1         11           0       -4.958016   -0.689753   -0.729111
      2         11           0        4.115481   -1.168759   -0.086156
      3         11           0       -0.338934    1.987897    0.583358
      4         11           0        3.242234    2.039258   -0.821408
      5         11           0       -0.375582   -1.210968   -1.553636
      6         11           0        1.368177   -1.792755    1.577957
      7         11           0       -3.053361    0.835080    1.028996
 ---------------------------------------------------------------------

 SCF Done:  E(UB3LYP) =  -1136.10164293     A.U. after   27 cycles

 The electronic state is 2-A.
 Alpha  occ. eigenvalues --  -38.46533 -38.44564 -38.44538 -38.44474 -38.44416
 Alpha  occ. eigenvalues --  -38.43834 -38.42873  -2.22257  -2.20387  -2.20347
 Alpha  occ. eigenvalues --   -2.20317  -2.20300  -2.19624  -2.18722  -1.15937
 Alpha  occ. eigenvalues --   -1.15923  -1.15877  -1.14138  -1.14091  -1.14042
 Alpha  occ. eigenvalues --   -1.14030  -1.13994  -1.13985  -1.13983  -1.13956
 Alpha  occ. eigenvalues --   -1.13952  -1.13929  -1.13917  -1.13862  -1.13297
 Alpha  occ. eigenvalues --   -1.13277  -1.13247  -1.12390  -1.12386  -1.12365
 Alpha  occ. eigenvalues --   -0.17061  -0.14523  -0.11322  -0.11075
 Alpha virt. eigenvalues --   -0.07592  -0.05487  -0.04297  -0.03537  -0.03168
 Alpha virt. eigenvalues --   -0.02661  -0.01946  -0.01757  -0.01382  -0.00699
 Alpha virt. eigenvalues --   -0.00269  -0.00025   0.00173   0.00436   0.00489

  Beta  occ. eigenvalues --  -38.46528 -38.44518 -38.44504 -38.44407 -38.44389
  Beta  occ. eigenvalues --  -38.43791 -38.42859  -2.22250  -2.20304  -2.20298
  Beta  occ. eigenvalues --   -2.20284  -2.20154  -2.19545  -2.18698  -1.15932
  Beta  occ. eigenvalues --   -1.15910  -1.15878  -1.14063  -1.14038  -1.13991
  Beta  occ. eigenvalues --   -1.13974  -1.13963  -1.13953  -1.13936  -1.13933
  Beta  occ. eigenvalues --   -1.13900  -1.13828  -1.13813  -1.13791  -1.13246
  Beta  occ. eigenvalues --   -1.13224  -1.13183  -1.12377  -1.12371  -1.12343
  Beta  occ. eigenvalues --   -0.16502  -0.13611  -0.10821
  Beta virt. eigenvalues --   -0.07896  -0.07561  -0.05059  -0.03816  -0.03229
  Beta virt. eigenvalues --   -0.02984  -0.02471  -0.01758  -0.01355  -0.01053
  Beta virt. eigenvalues --   -0.00334  -0.00071   0.00058   0.00212   0.00507

 Mulliken charges and spin densities:
               1          2
     1  Na   0.307520   0.357794
     2  Na   0.021253   0.250755
     3  Na  -0.411724  -0.225173
     4  Na   0.028389   0.328346
     5  Na  -0.152739  -0.184681
     6  Na   0.136606   0.248331
     7  Na   0.070696   0.224628
 Sum of Mulliken charges =  -0.00000   1.00000

 Dipole moment (field-independent basis, Debye):
    X=             -0.0491    Y=             -1.2635    Z=             -0.5825  Tot=              1.3922
 Quadrupole moment (field-independent basis, Debye-Ang):
   XX=            -66.9047   YY=            -79.2235   ZZ=            -60.4158
   XY=             -1.3132   XZ=              0.6332   YZ=              0.9682

 Normal termination of Gaussian 16 at Sun Dec  3 13:06:01 2023.
