 Gaussian 16, Revision B.01,
 Gaussian 16:  ES64L-G16RevB.01 20-Dec-2017

 -------------------------
 #P B3LYP/6-311+g(d) force
 -------------------------

 -----
 DPGEN
 -----
 Symbolic Z-matrix:
 Charge =  0 Multiplicity = 2

                         Standard orientation:
 ---------------------------------------------------------------------
 Center     Atomic      Atomic             Coordinates (Angstroms)
 Number     Number       Type             X           Y           Z
 ---------------------------------------------------------------------
      1         11           0       -1.700526    2.691586    0.544981
      2         11           0       -2.038748   -2.415199   -0.363995
      3         11           0       -0.868752   -0.797355    2.224399
      4         11           0       -3.885003    0.500153   -1.340614
      5         11           0        1.899888    1.736719   -0.311637
      6         11           0        1.311673   -1.679292   -0.372452
      7         11           0        5.281469   -0.036612   -0.380683
 ---------------------------------------------------------------------

 SCF Done:  E(UB3LYP) =  -1136.11779594     A.U. after   22 cycles

 The electronic state is 2-A.
 Alpha  occ. eigenvalues --  -38.45235 -38.45045 -38.44419 -38.44345 -38.44183
 Alpha  occ. eigenvalues --  -38.43609 -38.42986  -2.21056  -2.20797  -2.20186
 Alpha  occ. eigenvalues --   -2.20162  -2.19981  -2.19460  -2.18764  -1.14731
 Alpha  occ. eigenvalues --   -1.14708  -1.14666  -1.14460  -1.14454  -1.14397
 Alpha  occ. eigenvalues --   -1.13918  -1.13883  -1.13869  -1.13852  -1.13779
 Alpha  occ. eigenvalues --   -1.13739  -1.13641  -1.13626  -1.13594  -1.13151
 Alpha  occ. eigenvalues --   -1.13127  -1.13075  -1.12444  -1.12428  -1.12408
 Alpha  occ. eigenvalues --   -0.17001  -0.13562  -0.11776  -0.11101
 Alpha virt. eigenvalues --   -0.06970  -0.05265  -0.04746  -0.03347  -0.02975
 Alpha virt. eigenvalues --   -0.02753  -0.02181  -0.01535  -0.00986  -0.00437
 Alpha virt. eigenvalues --   -0.00306  -0.00134   0.00275   0.00414   0.00677

  Beta  occ. eigenvalues --  -38.45194 -38.44990 -38.44420 -38.44350 -38.44105
  Beta  occ. eigenvalues --  -38.43590 -38.42982  -2.20979  -2.20692  -2.20192
  Beta  occ. eigenvalues --   -2.20170  -2.19837  -2.19429  -2.18758  -1.14678
  Beta  occ. eigenvalues --   -1.14656  -1.14610  -1.14388  -1.14382  -1.14330
  Beta  occ. eigenvalues --   -1.13926  -1.13887  -1.13874  -1.13848  -1.13768
  Beta  occ. eigenvalues --   -1.13748  -1.13543  -1.13525  -1.13495  -1.13133
  Beta  occ. eigenvalues --   -1.13110  -1.13025  -1.12441  -1.12426  -1.12389
  Beta  occ. eigenvalues --   -0.16506  -0.12931  -0.11639
  Beta virt. eigenvalues --   -0.07665  -0.06516  -0.05127  -0.04226  -0.03156
  Beta virt. eigenvalues --   -0.02655  -0.02357  -0.01773  -0.01325  -0.00576
  Beta virt. eigenvalues --   -0.00322  -0.00148  -0.00067   0.00418   0.00540

 Mulliken charges and spin densities:
               1          2
     1  Na  -0.373182  -0.058597
     2  Na   0.170808   0.344179
     3  Na   0.213349   0.197095
     4  Na   0.099328   0.341870
     5  Na  -0.135036   0.107167
     6  Na  -0.548365  -0.208169
     7  Na   0.573098   0.276456
 Sum of Mulliken charges =  -0.00000   1.00000

 Dipole moment (field-independent basis, Debye):
    X=              1.0823    Y=             -0.7601    Z=              0.6471  Tot=              1.4724
 Quadrupole moment (field-independent basis, Debye-Ang):
   XX=            -59.5131   YY=            -73.3552   ZZ=            -65.7520
   XY=              0.5889   XZ=             -1.0645   YZ=              0.5678

 Normal termination of Gaussian 16 at Sun Dec  3 13:51:04 2023.
