 Gaussian 16, Revision B.01,
 Gaussian 16:  ES64L-G16RevB.01 20-Dec-2017

 -------------------------
 #P B3LYP/6-311+g(d) force
 -------------------------

 -----
 DPGEN
 -----
 Symbolic Z-matrix:
 Charge =  0 Multiplicity = 2

                         Standard orientation:
 ---------------------------------------------------------------------
 Center     Atomic      Atomic             Coordinates (Angstroms)
 Number     Number       Type             X           Y           Z
 ---------------------------------------------------------------------
      1         11           0        2.784761   -1.621320   -1.179027
      2         11           0       -0.254506   -1.478348    0.025737
      3         11           0        0.073935    2.283368    1.653617
      4         11           0        2.342647   -0.657941    1.845371
      5         11           0       -2.060943    1.506757   -0.734951
      6         11           0        1.083011    1.680062   -1.793984
      7         11           0       -3.968905   -1.712578    0.183236
 ---------------------------------------------------------------------

 SCF Done:  E(UB3LYP) =  -1136.12853917     A.U. after   20 cycles

 The electronic state is 2-A.
 Alpha  occ. eigenvalues --  -38.44367 -38.44167 -38.44015 -38.43926 -38.43739
 Alpha  occ. eigenvalues --  -38.43483 -38.43426  -2.20242  -2.20033  -2.19865
 Alpha  occ. eigenvalues --   -2.19765  -2.19604  -2.19370  -2.19178  -1.13929
 Alpha  occ. eigenvalues --   -1.13901  -1.13865  -1.13710  -1.13672  -1.13654
 Alpha  occ. eigenvalues --   -1.13557  -1.13511  -1.13478  -1.13451  -1.13419
 Alpha  occ. eigenvalues --   -1.13385  -1.13306  -1.13284  -1.13174  -1.13092
 Alpha  occ. eigenvalues --   -1.13054  -1.12961  -1.12855  -1.12849  -1.12805
 Alpha  occ. eigenvalues --   -0.18189  -0.13305  -0.11733  -0.11570
 Alpha virt. eigenvalues --   -0.05835  -0.05275  -0.04922  -0.03447  -0.03066
 Alpha virt. eigenvalues --   -0.02555  -0.01787  -0.01117  -0.00704  -0.00018
 Alpha virt. eigenvalues --    0.00185   0.00224   0.00275   0.00556   0.00721

  Beta  occ. eigenvalues --  -38.44313 -38.44142 -38.43956 -38.43883 -38.43733
  Beta  occ. eigenvalues --  -38.43471 -38.43435  -2.20144  -2.19989  -2.19757
  Beta  occ. eigenvalues --   -2.19686  -2.19595  -2.19351  -2.19196  -1.13863
  Beta  occ. eigenvalues --   -1.13837  -1.13789  -1.13676  -1.13639  -1.13610
  Beta  occ. eigenvalues --   -1.13482  -1.13442  -1.13406  -1.13395  -1.13360
  Beta  occ. eigenvalues --   -1.13326  -1.13290  -1.13265  -1.13171  -1.13050
  Beta  occ. eigenvalues --   -1.13042  -1.12956  -1.12866  -1.12862  -1.12816
  Beta  occ. eigenvalues --   -0.17438  -0.13204  -0.11538
  Beta virt. eigenvalues --   -0.07634  -0.05638  -0.05067  -0.04247  -0.03260
  Beta virt. eigenvalues --   -0.02322  -0.02073  -0.01647  -0.01015  -0.00309
  Beta virt. eigenvalues --   -0.00018   0.00246   0.00387   0.00446   0.00706

 Mulliken charges and spin densities:
               1          2
     1  Na   1.366499   0.143546
     2  Na  -1.703865   0.353197
     3  Na  -0.124820   0.210529
     4  Na   0.297471   0.046207
     5  Na   0.723111   0.086252
     6  Na  -0.469573   0.267172
     7  Na  -0.088822  -0.106902
 Sum of Mulliken charges =  -0.00000   1.00000

 Dipole moment (field-independent basis, Debye):
    X=              1.0605    Y=              0.4357    Z=              0.0322  Tot=              1.1470
 Quadrupole moment (field-independent basis, Debye-Ang):
   XX=            -58.6850   YY=            -70.2187   ZZ=            -66.4286
   XY=             -3.2678   XZ=             -1.3967   YZ=              0.8697

 Normal termination of Gaussian 16 at Wed Nov 29 16:10:41 2023.
