 Gaussian 16, Revision B.01,
 Gaussian 16:  ES64L-G16RevB.01 20-Dec-2017

 -------------------------
 #P B3LYP/6-311+g(d) force
 -------------------------

 -----
 DPGEN
 -----
 Symbolic Z-matrix:
 Charge =  0 Multiplicity = 2

                         Standard orientation:
 ---------------------------------------------------------------------
 Center     Atomic      Atomic             Coordinates (Angstroms)
 Number     Number       Type             X           Y           Z
 ---------------------------------------------------------------------
      1         11           0       -3.665134   -1.161933    0.664742
      2         11           0       -1.057831   -1.185170   -1.233899
      3         11           0        0.647215    1.328901   -1.247542
      4         11           0       -2.373204    2.099594   -0.318821
      5         11           0       -0.220950   -0.105494    2.152361
      6         11           0        2.412932   -1.486619   -0.937708
      7         11           0        4.256972    0.510722    0.920867
 ---------------------------------------------------------------------

 SCF Done:  E(UB3LYP) =  -1136.11333598     A.U. after   31 cycles

 The electronic state is 2-A.
 Alpha  occ. eigenvalues --  -38.45882 -38.44745 -38.44332 -38.44271 -38.43769
 Alpha  occ. eigenvalues --  -38.43470 -38.42347  -2.21635  -2.20516  -2.20193
 Alpha  occ. eigenvalues --   -2.20141  -2.19590  -2.19453  -2.18293  -1.15335
 Alpha  occ. eigenvalues --   -1.15313  -1.15223  -1.14193  -1.14178  -1.14152
 Alpha  occ. eigenvalues --   -1.13866  -1.13834  -1.13819  -1.13808  -1.13806
 Alpha  occ. eigenvalues --   -1.13757  -1.13306  -1.13252  -1.13214  -1.13160
 Alpha  occ. eigenvalues --   -1.13094  -1.13052  -1.12004  -1.11957  -1.11912
 Alpha  occ. eigenvalues --   -0.18413  -0.14043  -0.11376  -0.10860
 Alpha virt. eigenvalues --   -0.07562  -0.05278  -0.04388  -0.03190  -0.02945
 Alpha virt. eigenvalues --   -0.02515  -0.02282  -0.01524  -0.01139  -0.00209
 Alpha virt. eigenvalues --   -0.00081   0.00134   0.00317   0.00560   0.00601

  Beta  occ. eigenvalues --  -38.45851 -38.44738 -38.44278 -38.44240 -38.43768
  Beta  occ. eigenvalues --  -38.43408 -38.42343  -2.21580  -2.20503  -2.20094
  Beta  occ. eigenvalues --   -2.20087  -2.19591  -2.19341  -2.18291  -1.15295
  Beta  occ. eigenvalues --   -1.15263  -1.15185  -1.14186  -1.14169  -1.14141
  Beta  occ. eigenvalues --   -1.13787  -1.13779  -1.13777  -1.13774  -1.13741
  Beta  occ. eigenvalues --   -1.13700  -1.13294  -1.13248  -1.13214  -1.13091
  Beta  occ. eigenvalues --   -1.13009  -1.12966  -1.12010  -1.11927  -1.11899
  Beta  occ. eigenvalues --   -0.17704  -0.13906  -0.10538
  Beta virt. eigenvalues --   -0.07629  -0.07303  -0.04705  -0.04294  -0.02885
  Beta virt. eigenvalues --   -0.02769  -0.01946  -0.01673  -0.01068  -0.00952
  Beta virt. eigenvalues --   -0.00109  -0.00061   0.00272   0.00335   0.00626

 Mulliken charges and spin densities:
               1          2
     1  Na   0.621780  -0.113944
     2  Na  -0.416882   0.357961
     3  Na  -0.222502   0.293364
     4  Na   0.152714   0.171565
     5  Na  -0.559787   0.276385
     6  Na   0.362633  -0.042760
     7  Na   0.062043   0.057429
 Sum of Mulliken charges =  -0.00000   1.00000

 Dipole moment (field-independent basis, Debye):
    X=              0.1657    Y=              0.4453    Z=              0.1922  Tot=              0.5125
 Quadrupole moment (field-independent basis, Debye-Ang):
   XX=            -53.6670   YY=            -69.8535   ZZ=            -74.7235
   XY=             -1.8226   XZ=              1.0260   YZ=              4.8112

 Normal termination of Gaussian 16 at Thu Dec  7 22:06:14 2023.
