 Gaussian 16, Revision B.01,
 Gaussian 16:  ES64L-G16RevB.01 20-Dec-2017

 -------------------------
 #P B3LYP/6-311+g(d) force
 -------------------------

 -----
 DPGEN
 -----
 Symbolic Z-matrix:
 Charge =  0 Multiplicity = 2

                         Standard orientation:
 ---------------------------------------------------------------------
 Center     Atomic      Atomic             Coordinates (Angstroms)
 Number     Number       Type             X           Y           Z
 ---------------------------------------------------------------------
      1         11           0        2.125607   -1.157291   -0.843126
      2         11           0        4.977154   -0.750057    1.491521
      3         11           0        4.288837    1.618836   -0.163365
      4         11           0        0.445669    1.556668   -1.072828
      5         11           0       -1.134247   -1.501655    0.108590
      6         11           0       -4.476066   -0.966850   -0.768424
      7         11           0       -6.226954    1.200349    1.247633
 ---------------------------------------------------------------------

 SCF Done:  E(UB3LYP) =  -1136.11330601     A.U. after   20 cycles

 The electronic state is 2-A.
 Alpha  occ. eigenvalues --  -38.44614 -38.44516 -38.44349 -38.44142 -38.44063
 Alpha  occ. eigenvalues --  -38.43805 -38.43643  -2.20482  -2.20272  -2.20204
 Alpha  occ. eigenvalues --   -2.19915  -2.19910  -2.19657  -2.19478  -1.14197
 Alpha  occ. eigenvalues --   -1.14177  -1.14084  -1.13934  -1.13932  -1.13919
 Alpha  occ. eigenvalues --   -1.13897  -1.13870  -1.13841  -1.13597  -1.13589
 Alpha  occ. eigenvalues --   -1.13579  -1.13568  -1.13547  -1.13507  -1.13308
 Alpha  occ. eigenvalues --   -1.13294  -1.13283  -1.13148  -1.13138  -1.13091
 Alpha  occ. eigenvalues --   -0.16855  -0.14045  -0.11989  -0.10589
 Alpha virt. eigenvalues --   -0.07009  -0.05255  -0.04696  -0.03596  -0.02763
 Alpha virt. eigenvalues --   -0.02748  -0.02076  -0.01414  -0.01072  -0.00744
 Alpha virt. eigenvalues --   -0.00305  -0.00125  -0.00077   0.00296   0.00459

  Beta  occ. eigenvalues --  -38.44607 -38.44488 -38.44338 -38.44149 -38.43999
  Beta  occ. eigenvalues --  -38.43772 -38.43606  -2.20473  -2.20218  -2.20188
  Beta  occ. eigenvalues --   -2.19932  -2.19793  -2.19595  -2.19408  -1.14177
  Beta  occ. eigenvalues --   -1.14148  -1.14084  -1.13899  -1.13897  -1.13895
  Beta  occ. eigenvalues --   -1.13864  -1.13863  -1.13811  -1.13607  -1.13602
  Beta  occ. eigenvalues --   -1.13545  -1.13501  -1.13491  -1.13411  -1.13270
  Beta  occ. eigenvalues --   -1.13251  -1.13239  -1.13100  -1.13085  -1.13054
  Beta  occ. eigenvalues --   -0.16266  -0.13814  -0.11734
  Beta virt. eigenvalues --   -0.07227  -0.06463  -0.05028  -0.04191  -0.03439
  Beta virt. eigenvalues --   -0.02677  -0.02196  -0.01728  -0.01276  -0.01019
  Beta virt. eigenvalues --   -0.00332  -0.00072   0.00050   0.00132   0.00368

 Mulliken charges and spin densities:
               1          2
     1  Na   0.071002   0.074382
     2  Na   0.147723   0.175367
     3  Na   0.185494  -0.028338
     4  Na  -0.206617   0.462418
     5  Na  -0.284201   0.206423
     6  Na   0.050304  -0.035637
     7  Na   0.036295   0.145385
 Sum of Mulliken charges =  -0.00000   1.00000

 Dipole moment (field-independent basis, Debye):
    X=              0.5444    Y=              0.5048    Z=              0.2458  Tot=              0.7820
 Quadrupole moment (field-independent basis, Debye-Ang):
   XX=            -67.7391   YY=            -65.9805   ZZ=            -67.2390
   XY=             -3.1100   XZ=             -1.4971   YZ=              2.5925

 Normal termination of Gaussian 16 at Wed Nov 29 04:14:42 2023.
