 Gaussian 16, Revision B.01,
 Gaussian 16:  ES64L-G16RevB.01 20-Dec-2017

 -------------------------
 #P B3LYP/6-311+g(d) force
 -------------------------

 -----
 DPGEN
 -----
 Symbolic Z-matrix:
 Charge =  0 Multiplicity = 2

                         Standard orientation:
 ---------------------------------------------------------------------
 Center     Atomic      Atomic             Coordinates (Angstroms)
 Number     Number       Type             X           Y           Z
 ---------------------------------------------------------------------
      1         11           0        2.849171   -2.155622    0.148641
      2         11           0       -2.785007    1.496997   -0.673286
      3         11           0        3.419960    0.731168   -0.342027
      4         11           0        0.510051    2.548796    0.572069
      5         11           0       -3.183692   -1.963028   -0.123124
      6         11           0        0.154849   -0.334648   -1.258204
      7         11           0       -0.965333   -0.323663    1.675931
 ---------------------------------------------------------------------

 SCF Done:  E(UB3LYP) =  -1136.12200359     A.U. after   23 cycles

 The electronic state is 2-A.
 Alpha  occ. eigenvalues --  -38.44822 -38.44510 -38.44258 -38.44204 -38.44203
 Alpha  occ. eigenvalues --  -38.42985 -38.42381  -2.20684  -2.20433  -2.20090
 Alpha  occ. eigenvalues --   -2.20065  -2.20020  -2.18948  -2.18252  -1.14397
 Alpha  occ. eigenvalues --   -1.14346  -1.14315  -1.14186  -1.14076  -1.14046
 Alpha  occ. eigenvalues --   -1.13761  -1.13741  -1.13735  -1.13726  -1.13724
 Alpha  occ. eigenvalues --   -1.13697  -1.13690  -1.13673  -1.13643  -1.12650
 Alpha  occ. eigenvalues --   -1.12570  -1.12546  -1.11931  -1.11910  -1.11896
 Alpha  occ. eigenvalues --   -0.18441  -0.14331  -0.11574  -0.10038
 Alpha virt. eigenvalues --   -0.06667  -0.06179  -0.03958  -0.03432  -0.02591
 Alpha virt. eigenvalues --   -0.02334  -0.01883  -0.01466  -0.00925  -0.00300
 Alpha virt. eigenvalues --    0.00010   0.00166   0.00537   0.00590   0.00754

  Beta  occ. eigenvalues --  -38.44815 -38.44489 -38.44262 -38.44195 -38.44159
  Beta  occ. eigenvalues --  -38.42898 -38.42371  -2.20673  -2.20399  -2.20100
  Beta  occ. eigenvalues --   -2.20010  -2.19983  -2.18789  -2.18237  -1.14394
  Beta  occ. eigenvalues --   -1.14332  -1.14304  -1.14137  -1.14054  -1.14020
  Beta  occ. eigenvalues --   -1.13770  -1.13741  -1.13719  -1.13698  -1.13677
  Beta  occ. eigenvalues --   -1.13668  -1.13659  -1.13642  -1.13603  -1.12544
  Beta  occ. eigenvalues --   -1.12460  -1.12424  -1.11922  -1.11893  -1.11871
  Beta  occ. eigenvalues --   -0.17806  -0.14055  -0.11384
  Beta virt. eigenvalues --   -0.06521  -0.06237  -0.06060  -0.03911  -0.02904
  Beta virt. eigenvalues --   -0.02420  -0.01639  -0.01581  -0.00958  -0.00803
  Beta virt. eigenvalues --   -0.00160   0.00139   0.00253   0.00626   0.00656

 Mulliken charges and spin densities:
               1          2
     1  Na   0.231619  -0.008045
     2  Na   0.166710   0.363336
     3  Na   0.236048   0.046640
     4  Na  -0.187972  -0.020049
     5  Na   0.119953   0.061551
     6  Na  -0.439310   0.094423
     7  Na  -0.127048   0.462144
 Sum of Mulliken charges =  -0.00000   1.00000

 Dipole moment (field-independent basis, Debye):
    X=              0.3216    Y=             -0.2658    Z=              0.0780  Tot=              0.4245
 Quadrupole moment (field-independent basis, Debye-Ang):
   XX=            -52.5821   YY=            -65.9638   ZZ=            -75.6513
   XY=              1.9980   XZ=              0.8300   YZ=              0.4083

 Normal termination of Gaussian 16 at Thu Dec  7 05:50:25 2023.
