 Gaussian 16, Revision B.01,
 Gaussian 16:  ES64L-G16RevB.01 20-Dec-2017

 -------------------------
 #P B3LYP/6-311+g(d) force
 -------------------------

 -----
 DPGEN
 -----
 Symbolic Z-matrix:
 Charge =  0 Multiplicity = 2

                         Standard orientation:
 ---------------------------------------------------------------------
 Center     Atomic      Atomic             Coordinates (Angstroms)
 Number     Number       Type             X           Y           Z
 ---------------------------------------------------------------------
      1         11           0       -0.177031    2.149055   -1.583249
      2         11           0       -1.655831   -1.565570   -1.836863
      3         11           0        4.618225   -0.210461   -0.064054
      4         11           0        1.246835   -0.646881   -0.497122
      5         11           0       -3.609995    0.778953    0.529531
      6         11           0       -0.850291   -2.029826    1.542748
      7         11           0        0.428087    1.524730    1.909009
 ---------------------------------------------------------------------

 SCF Done:  E(UB3LYP) =  -1136.10937599     A.U. after   28 cycles

 The electronic state is 2-A.
 Alpha  occ. eigenvalues --  -38.46124 -38.45721 -38.44091 -38.43545 -38.43526
 Alpha  occ. eigenvalues --  -38.43452 -38.42686  -2.21833  -2.21447  -2.19911
 Alpha  occ. eigenvalues --   -2.19374  -2.19364  -2.19301  -2.18651  -1.15520
 Alpha  occ. eigenvalues --   -1.15485  -1.15470  -1.15116  -1.15109  -1.15081
 Alpha  occ. eigenvalues --   -1.13610  -1.13546  -1.13520  -1.13072  -1.13060
 Alpha  occ. eigenvalues --   -1.13018  -1.13006  -1.12995  -1.12989  -1.12982
 Alpha  occ. eigenvalues --   -1.12936  -1.12909  -1.12371  -1.12325  -1.12258
 Alpha  occ. eigenvalues --   -0.17855  -0.12579  -0.11567  -0.10937
 Alpha virt. eigenvalues --   -0.07882  -0.04479  -0.03998  -0.03140  -0.03091
 Alpha virt. eigenvalues --   -0.02977  -0.02572  -0.01054  -0.00678  -0.00301
 Alpha virt. eigenvalues --   -0.00218  -0.00162   0.00173   0.00703   0.00784

  Beta  occ. eigenvalues --  -38.46128 -38.45724 -38.44038 -38.43499 -38.43483
  Beta  occ. eigenvalues --  -38.43414 -38.42667  -2.21843  -2.21452  -2.19814
  Beta  occ. eigenvalues --   -2.19293  -2.19281  -2.19232  -2.18622  -1.15513
  Beta  occ. eigenvalues --   -1.15495  -1.15479  -1.15119  -1.15112  -1.15085
  Beta  occ. eigenvalues --   -1.13545  -1.13464  -1.13456  -1.13012  -1.13003
  Beta  occ. eigenvalues --   -1.12967  -1.12956  -1.12933  -1.12927  -1.12924
  Beta  occ. eigenvalues --   -1.12885  -1.12851  -1.12323  -1.12286  -1.12246
  Beta  occ. eigenvalues --   -0.16976  -0.12513  -0.10813
  Beta virt. eigenvalues --   -0.07783  -0.07540  -0.03996  -0.03659  -0.02977
  Beta virt. eigenvalues --   -0.02858  -0.02503  -0.01746  -0.00930  -0.00533
  Beta virt. eigenvalues --   -0.00253  -0.00140  -0.00009   0.00185   0.00775

 Mulliken charges and spin densities:
               1          2
     1  Na  -0.086348   0.120906
     2  Na   0.850495   0.095422
     3  Na   0.156586  -0.141431
     4  Na  -0.943693   0.386957
     5  Na  -0.069317  -0.032281
     6  Na   0.035619   0.284867
     7  Na   0.056658   0.285561
 Sum of Mulliken charges =  -0.00000   1.00000

 Dipole moment (field-independent basis, Debye):
    X=             -0.1445    Y=              0.4318    Z=              0.4123  Tot=              0.6143
 Quadrupole moment (field-independent basis, Debye-Ang):
   XX=            -44.7968   YY=            -78.4099   ZZ=            -65.8089
   XY=              0.4134   XZ=              0.1979   YZ=             -0.7501

 Normal termination of Gaussian 16 at Tue Dec  5 14:58:31 2023.
