 Gaussian 16, Revision B.01,
 Gaussian 16:  ES64L-G16RevB.01 20-Dec-2017

 -------------------------
 #P B3LYP/6-311+g(d) force
 -------------------------

 -----
 DPGEN
 -----
 Symbolic Z-matrix:
 Charge =  0 Multiplicity = 2

                         Standard orientation:
 ---------------------------------------------------------------------
 Center     Atomic      Atomic             Coordinates (Angstroms)
 Number     Number       Type             X           Y           Z
 ---------------------------------------------------------------------
      1         11           0       -2.249436   -2.349554   -0.060469
      2         11           0       -0.194602    0.373480    0.005451
      3         11           0       -0.144076    3.407929   -0.331258
      4         11           0        3.078653    0.707696   -1.236448
      5         11           0       -3.668660    1.074537    0.204213
      6         11           0        0.826893   -3.017003   -0.680854
      7         11           0        2.351228   -0.197084    2.099366
 ---------------------------------------------------------------------

 SCF Done:  E(UB3LYP) =  -1136.12144604     A.U. after   22 cycles

 The electronic state is 2-A.
 Alpha  occ. eigenvalues --  -38.45029 -38.44511 -38.44509 -38.43800 -38.43719
 Alpha  occ. eigenvalues --  -38.43477 -38.42884  -2.20805  -2.20303  -2.20279
 Alpha  occ. eigenvalues --   -2.19621  -2.19553  -2.19329  -2.18886  -1.14486
 Alpha  occ. eigenvalues --   -1.14456  -1.14443  -1.14018  -1.13960  -1.13953
 Alpha  occ. eigenvalues --   -1.13929  -1.13912  -1.13901  -1.13331  -1.13283
 Alpha  occ. eigenvalues --   -1.13256  -1.13223  -1.13220  -1.13156  -1.12994
 Alpha  occ. eigenvalues --   -1.12949  -1.12937  -1.12605  -1.12567  -1.12503
 Alpha  occ. eigenvalues --   -0.17430  -0.13255  -0.12579  -0.09881
 Alpha virt. eigenvalues --   -0.06768  -0.05356  -0.05071  -0.03016  -0.02462
 Alpha virt. eigenvalues --   -0.02194  -0.01779  -0.01413  -0.01203  -0.00897
 Alpha virt. eigenvalues --   -0.00295   0.00240   0.00409   0.00571   0.00756

  Beta  occ. eigenvalues --  -38.45017 -38.44495 -38.44494 -38.43776 -38.43719
  Beta  occ. eigenvalues --  -38.43372 -38.42876  -2.20786  -2.20272  -2.20252
  Beta  occ. eigenvalues --   -2.19578  -2.19555  -2.19133  -2.18875  -1.14465
  Beta  occ. eigenvalues --   -1.14439  -1.14423  -1.13999  -1.13935  -1.13934
  Beta  occ. eigenvalues --   -1.13911  -1.13895  -1.13878  -1.13311  -1.13250
  Beta  occ. eigenvalues --   -1.13227  -1.13221  -1.13218  -1.13138  -1.12861
  Beta  occ. eigenvalues --   -1.12817  -1.12808  -1.12569  -1.12554  -1.12502
  Beta  occ. eigenvalues --   -0.16986  -0.12899  -0.12282
  Beta virt. eigenvalues --   -0.06703  -0.06154  -0.05252  -0.04763  -0.02597
  Beta virt. eigenvalues --   -0.02116  -0.01955  -0.01324  -0.01125  -0.01056
  Beta virt. eigenvalues --   -0.00768   0.00069   0.00359   0.00533   0.00668

 Mulliken charges and spin densities:
               1          2
     1  Na   0.870528   0.063746
     2  Na  -3.449724   0.514914
     3  Na   0.816951  -0.043883
     4  Na   0.747029   0.060705
     5  Na  -0.038659   0.016816
     6  Na   0.787106   0.100667
     7  Na   0.266769   0.287036
 Sum of Mulliken charges =  -0.00000   1.00000

 Dipole moment (field-independent basis, Debye):
    X=             -0.1310    Y=              0.4579    Z=             -0.5409  Tot=              0.7207
 Quadrupole moment (field-independent basis, Debye-Ang):
   XX=            -54.2554   YY=            -62.1822   ZZ=            -75.6120
   XY=             -0.9549   XZ=             -4.8971   YZ=              0.1765

 Normal termination of Gaussian 16 at Tue Dec  5 20:47:59 2023.
