 Gaussian 16, Revision B.01,
 Gaussian 16:  ES64L-G16RevB.01 20-Dec-2017

 -------------------------
 #P B3LYP/6-311+g(d) force
 -------------------------

 -----
 DPGEN
 -----
 Symbolic Z-matrix:
 Charge =  0 Multiplicity = 2

                         Standard orientation:
 ---------------------------------------------------------------------
 Center     Atomic      Atomic             Coordinates (Angstroms)
 Number     Number       Type             X           Y           Z
 ---------------------------------------------------------------------
      1         11           0        0.658604   -0.015105    1.987089
      2         11           0       -0.681778   -2.591632    0.356281
      3         11           0       -1.652000    2.831022    0.291706
      4         11           0        2.852841    1.683396   -0.272255
      5         11           0       -0.277285    0.236684   -1.578296
      6         11           0        2.202208   -1.596676   -0.504995
      7         11           0       -3.102590   -0.547690   -0.279529
 ---------------------------------------------------------------------

 SCF Done:  E(UB3LYP) =  -1136.13260271     A.U. after   21 cycles

 The electronic state is 2-A.
 Alpha  occ. eigenvalues --  -38.44221 -38.44192 -38.43949 -38.43545 -38.43530
 Alpha  occ. eigenvalues --  -38.43232 -38.42817  -2.20043  -2.20033  -2.19727
 Alpha  occ. eigenvalues --   -2.19486  -2.19442  -2.19210  -2.18752  -1.13743
 Alpha  occ. eigenvalues --   -1.13708  -1.13700  -1.13696  -1.13678  -1.13665
 Alpha  occ. eigenvalues --   -1.13404  -1.13387  -1.13365  -1.13209  -1.13163
 Alpha  occ. eigenvalues --   -1.13119  -1.13103  -1.13061  -1.13050  -1.12898
 Alpha  occ. eigenvalues --   -1.12844  -1.12835  -1.12427  -1.12414  -1.12389
 Alpha  occ. eigenvalues --   -0.18779  -0.13279  -0.12223  -0.10765
 Alpha virt. eigenvalues --   -0.06020  -0.05178  -0.04410  -0.03268  -0.02844
 Alpha virt. eigenvalues --   -0.02480  -0.01666  -0.01146  -0.00490  -0.00156
 Alpha virt. eigenvalues --    0.00039   0.00345   0.00780   0.00819   0.00882

  Beta  occ. eigenvalues --  -38.44216 -38.44188 -38.43947 -38.43527 -38.43439
  Beta  occ. eigenvalues --  -38.43175 -38.42806  -2.20038  -2.20027  -2.19724
  Beta  occ. eigenvalues --   -2.19458  -2.19275  -2.19109  -2.18737  -1.13734
  Beta  occ. eigenvalues --   -1.13696  -1.13695  -1.13679  -1.13670  -1.13663
  Beta  occ. eigenvalues --   -1.13395  -1.13383  -1.13363  -1.13186  -1.13109
  Beta  occ. eigenvalues --   -1.13091  -1.13000  -1.12947  -1.12931  -1.12830
  Beta  occ. eigenvalues --   -1.12766  -1.12759  -1.12419  -1.12406  -1.12345
  Beta  occ. eigenvalues --   -0.18041  -0.13046  -0.11998
  Beta virt. eigenvalues --   -0.06842  -0.05983  -0.05069  -0.04386  -0.02566
  Beta virt. eigenvalues --   -0.02112  -0.01584  -0.01454  -0.01031  -0.00514
  Beta virt. eigenvalues --   -0.00133   0.00151   0.00385   0.00797   0.00912

 Mulliken charges and spin densities:
               1          2
     1  Na  -0.438924   0.670279
     2  Na   0.189852   0.105123
     3  Na  -0.191275  -0.068034
     4  Na  -0.035240  -0.075469
     5  Na  -0.025591   0.229878
     6  Na   0.355101   0.153282
     7  Na   0.146077  -0.015059
 Sum of Mulliken charges =  -0.00000   1.00000

 Dipole moment (field-independent basis, Debye):
    X=              0.0119    Y=              0.5016    Z=              0.0895  Tot=              0.5096
 Quadrupole moment (field-independent basis, Debye-Ang):
   XX=            -55.9533   YY=            -63.2320   ZZ=            -74.0962
   XY=              1.3867   XZ=             -1.5338   YZ=              0.8366

 Normal termination of Gaussian 16 at Fri Dec  8 00:07:58 2023.
