 Gaussian 16, Revision B.01,
 Gaussian 16:  ES64L-G16RevB.01 20-Dec-2017

 -------------------------
 #P B3LYP/6-311+g(d) force
 -------------------------

 -----
 DPGEN
 -----
 Symbolic Z-matrix:
 Charge =  0 Multiplicity = 2

                         Standard orientation:
 ---------------------------------------------------------------------
 Center     Atomic      Atomic             Coordinates (Angstroms)
 Number     Number       Type             X           Y           Z
 ---------------------------------------------------------------------
      1         11           0       -1.101279   -2.577670    0.025358
      2         11           0       -0.681478    3.009076   -0.001398
      3         11           0       -3.581327    0.076169   -0.231819
      4         11           0       -0.329719   -0.192533    1.929706
      5         11           0        2.692440   -1.905487   -0.148492
      6         11           0        0.097971    0.023557   -1.711289
      7         11           0        2.903393    1.566888    0.137933
 ---------------------------------------------------------------------

 SCF Done:  E(UB3LYP) =  -1136.13294576     A.U. after   21 cycles

 The electronic state is 2-A.
 Alpha  occ. eigenvalues --  -38.45028 -38.44303 -38.43943 -38.43480 -38.43419
 Alpha  occ. eigenvalues --  -38.43392 -38.43347  -2.20787  -2.20090  -2.19744
 Alpha  occ. eigenvalues --   -2.19327  -2.19286  -2.19268  -2.19222  -1.14462
 Alpha  occ. eigenvalues --   -1.14439  -1.14425  -1.13767  -1.13754  -1.13727
 Alpha  occ. eigenvalues --   -1.13418  -1.13404  -1.13386  -1.13054  -1.13012
 Alpha  occ. eigenvalues --   -1.12993  -1.12950  -1.12947  -1.12929  -1.12922
 Alpha  occ. eigenvalues --   -1.12898  -1.12892  -1.12880  -1.12852  -1.12821
 Alpha  occ. eigenvalues --   -0.18124  -0.13007  -0.12115  -0.10317
 Alpha virt. eigenvalues --   -0.06401  -0.05327  -0.04614  -0.03112  -0.02663
 Alpha virt. eigenvalues --   -0.02315  -0.02130  -0.01273  -0.00672  -0.00509
 Alpha virt. eigenvalues --   -0.00054   0.00293   0.00694   0.00789   0.00819

  Beta  occ. eigenvalues --  -38.45024 -38.44302 -38.43941 -38.43478 -38.43354
  Beta  occ. eigenvalues --  -38.43336 -38.43301  -2.20781  -2.20090  -2.19743
  Beta  occ. eigenvalues --   -2.19268  -2.19208  -2.19207  -2.19119  -1.14444
  Beta  occ. eigenvalues --   -1.14437  -1.14423  -1.13756  -1.13752  -1.13729
  Beta  occ. eigenvalues --   -1.13406  -1.13400  -1.13386  -1.12991  -1.12958
  Beta  occ. eigenvalues --   -1.12932  -1.12926  -1.12900  -1.12891  -1.12849
  Beta  occ. eigenvalues --   -1.12836  -1.12824  -1.12820  -1.12773  -1.12763
  Beta  occ. eigenvalues --   -0.17408  -0.12820  -0.11885
  Beta virt. eigenvalues --   -0.06481  -0.06316  -0.05342  -0.04552  -0.02403
  Beta virt. eigenvalues --   -0.02020  -0.01919  -0.01292  -0.01219  -0.00719
  Beta virt. eigenvalues --   -0.00540   0.00100   0.00328   0.00755   0.00791

 Mulliken charges and spin densities:
               1          2
     1  Na   0.283707  -0.067779
     2  Na  -0.119977  -0.164463
     3  Na   0.045577  -0.075115
     4  Na  -0.241624   0.758110
     5  Na   0.133350  -0.074373
     6  Na  -0.103547   0.707943
     7  Na   0.002514  -0.084323
 Sum of Mulliken charges =  -0.00000   1.00000

 Dipole moment (field-independent basis, Debye):
    X=             -0.2437    Y=              0.0725    Z=             -0.0061  Tot=              0.2544
 Quadrupole moment (field-independent basis, Debye-Ang):
   XX=            -50.6544   YY=            -64.2237   ZZ=            -76.7166
   XY=             -0.4652   XZ=              1.1155   YZ=              0.6873

 Normal termination of Gaussian 16 at Fri Dec  8 02:56:12 2023.
