 Gaussian 16, Revision B.01,
 Gaussian 16:  ES64L-G16RevB.01 20-Dec-2017

 -------------------------
 #P B3LYP/6-311+g(d) force
 -------------------------

 -----
 DPGEN
 -----
 Symbolic Z-matrix:
 Charge =  0 Multiplicity = 2

                         Standard orientation:
 ---------------------------------------------------------------------
 Center     Atomic      Atomic             Coordinates (Angstroms)
 Number     Number       Type             X           Y           Z
 ---------------------------------------------------------------------
      1         11           0        2.581592    1.056332   -0.535617
      2         11           0        0.237015    3.062958    0.239126
      3         11           0       -0.526192   -0.325578   -1.598825
      4         11           0       -1.798652   -2.561865    0.246423
      5         11           0        2.264457   -2.183886   -0.216953
      6         11           0       -3.046186    1.068051   -0.264531
      7         11           0        0.287967   -0.116013    2.130378
 ---------------------------------------------------------------------

 SCF Done:  E(UB3LYP) =  -1136.13522722     A.U. after   19 cycles

 The electronic state is 2-A.
 Alpha  occ. eigenvalues --  -38.44175 -38.44150 -38.43761 -38.43733 -38.43470
 Alpha  occ. eigenvalues --  -38.43403 -38.43278  -2.19983  -2.19968  -2.19623
 Alpha  occ. eigenvalues --   -2.19562  -2.19302  -2.19293  -2.19237  -1.13691
 Alpha  occ. eigenvalues --   -1.13672  -1.13639  -1.13629  -1.13605  -1.13582
 Alpha  occ. eigenvalues --   -1.13287  -1.13261  -1.13244  -1.13241  -1.13223
 Alpha  occ. eigenvalues --   -1.13198  -1.13049  -1.12967  -1.12964  -1.12938
 Alpha  occ. eigenvalues --   -1.12935  -1.12914  -1.12887  -1.12874  -1.12860
 Alpha  occ. eigenvalues --   -0.18388  -0.12955  -0.12433  -0.10777
 Alpha virt. eigenvalues --   -0.05812  -0.05079  -0.04774  -0.03246  -0.02942
 Alpha virt. eigenvalues --   -0.02627  -0.01477  -0.01284  -0.00472  -0.00308
 Alpha virt. eigenvalues --   -0.00024   0.00352   0.00786   0.00863   0.00890

  Beta  occ. eigenvalues --  -38.44170 -38.44144 -38.43728 -38.43663 -38.43468
  Beta  occ. eigenvalues --  -38.43390 -38.43226  -2.19976  -2.19960  -2.19555
  Beta  occ. eigenvalues --   -2.19441  -2.19298  -2.19273  -2.19142  -1.13678
  Beta  occ. eigenvalues --   -1.13662  -1.13625  -1.13611  -1.13602  -1.13577
  Beta  occ. eigenvalues --   -1.13246  -1.13209  -1.13194  -1.13162  -1.13127
  Beta  occ. eigenvalues --   -1.13105  -1.13044  -1.12951  -1.12940  -1.12930
  Beta  occ. eigenvalues --   -1.12915  -1.12875  -1.12847  -1.12810  -1.12789
  Beta  occ. eigenvalues --   -0.17678  -0.12718  -0.12221
  Beta virt. eigenvalues --   -0.06882  -0.05799  -0.04933  -0.04771  -0.02491
  Beta virt. eigenvalues --   -0.02217  -0.01579  -0.01395  -0.01198  -0.00506
  Beta virt. eigenvalues --   -0.00326   0.00123   0.00392   0.00785   0.00905

 Mulliken charges and spin densities:
               1          2
     1  Na   0.085521   0.070312
     2  Na   0.041072   0.015558
     3  Na  -0.003336   0.301639
     4  Na   0.054923  -0.051607
     5  Na   0.183752  -0.028824
     6  Na   0.092349  -0.061373
     7  Na  -0.454281   0.754294
 Sum of Mulliken charges =  -0.00000   1.00000

 Dipole moment (field-independent basis, Debye):
    X=             -0.4456    Y=             -0.3161    Z=              0.1880  Tot=              0.5778
 Quadrupole moment (field-independent basis, Debye-Ang):
   XX=            -59.5489   YY=            -60.2478   ZZ=            -74.1499
   XY=             -0.8065   XZ=             -1.6097   YZ=             -0.3785

 Normal termination of Gaussian 16 at Thu Dec  7 15:39:08 2023.
