 Gaussian 16, Revision B.01,
 Gaussian 16:  ES64L-G16RevB.01 20-Dec-2017

 -------------------------
 #P B3LYP/6-311+g(d) force
 -------------------------

 -----
 DPGEN
 -----
 Symbolic Z-matrix:
 Charge =  0 Multiplicity = 2

                         Standard orientation:
 ---------------------------------------------------------------------
 Center     Atomic      Atomic             Coordinates (Angstroms)
 Number     Number       Type             X           Y           Z
 ---------------------------------------------------------------------
      1         11           0       -0.213614    0.190134   -1.513839
      2         11           0       -3.822950    1.346941   -0.670999
      3         11           0        1.002267   -0.222730    1.872553
      4         11           0       -2.290372   -0.947159    1.037562
      5         11           0        3.223753   -0.453605   -0.991139
      6         11           0        0.294945   -3.011223   -0.215802
      7         11           0        1.805970    3.097642    0.481664
 ---------------------------------------------------------------------

 SCF Done:  E(UB3LYP) =  -1136.12766256     A.U. after   21 cycles

 The electronic state is 2-A.
 Alpha  occ. eigenvalues --  -38.44852 -38.44216 -38.43916 -38.43859 -38.43766
 Alpha  occ. eigenvalues --  -38.43450 -38.43244  -2.20651  -2.20086  -2.19675
 Alpha  occ. eigenvalues --   -2.19658  -2.19650  -2.19340  -2.19079  -1.14335
 Alpha  occ. eigenvalues --   -1.14304  -1.14257  -1.13798  -1.13739  -1.13695
 Alpha  occ. eigenvalues --   -1.13358  -1.13345  -1.13339  -1.13331  -1.13314
 Alpha  occ. eigenvalues --   -1.13305  -1.13302  -1.13287  -1.13241  -1.13031
 Alpha  occ. eigenvalues --   -1.13011  -1.12946  -1.12764  -1.12732  -1.12721
 Alpha  occ. eigenvalues --   -0.18002  -0.13197  -0.11674  -0.10931
 Alpha virt. eigenvalues --   -0.06342  -0.05262  -0.04666  -0.03120  -0.02719
 Alpha virt. eigenvalues --   -0.02522  -0.02080  -0.01355  -0.00794  -0.00257
 Alpha virt. eigenvalues --   -0.00055   0.00237   0.00401   0.00709   0.00769

  Beta  occ. eigenvalues --  -38.44816 -38.44177 -38.43904 -38.43850 -38.43693
  Beta  occ. eigenvalues --  -38.43431 -38.43245  -2.20585  -2.20014  -2.19652
  Beta  occ. eigenvalues --   -2.19633  -2.19526  -2.19308  -2.19085  -1.14279
  Beta  occ. eigenvalues --   -1.14263  -1.14208  -1.13742  -1.13692  -1.13635
  Beta  occ. eigenvalues --   -1.13326  -1.13321  -1.13318  -1.13292  -1.13292
  Beta  occ. eigenvalues --   -1.13272  -1.13266  -1.13217  -1.13143  -1.13008
  Beta  occ. eigenvalues --   -1.12986  -1.12908  -1.12768  -1.12739  -1.12701
  Beta  occ. eigenvalues --   -0.17307  -0.12943  -0.11424
  Beta virt. eigenvalues --   -0.07214  -0.06118  -0.05116  -0.04350  -0.02762
  Beta virt. eigenvalues --   -0.02163  -0.02010  -0.01554  -0.01242  -0.00652
  Beta virt. eigenvalues --   -0.00134   0.00019   0.00293   0.00474   0.00742

 Mulliken charges and spin densities:
               1          2
     1  Na  -0.125027   0.376092
     2  Na   0.185137   0.038109
     3  Na   0.216229   0.490674
     4  Na  -0.160436   0.020153
     5  Na   0.178090   0.069626
     6  Na  -0.003021   0.029784
     7  Na  -0.290971  -0.024438
 Sum of Mulliken charges =  -0.00000   1.00000

 Dipole moment (field-independent basis, Debye):
    X=              0.5830    Y=             -0.0759    Z=             -0.2015  Tot=              0.6214
 Quadrupole moment (field-independent basis, Debye-Ang):
   XX=            -57.7674   YY=            -64.4219   ZZ=            -71.6125
   XY=             -2.2288   XZ=             -1.3343   YZ=             -0.4073

 Normal termination of Gaussian 16 at Tue Dec  5 10:41:14 2023.
