 Gaussian 16, Revision B.01,
 Gaussian 16:  ES64L-G16RevB.01 20-Dec-2017

 -------------------------
 #P B3LYP/6-311+g(d) force
 -------------------------

 -----
 DPGEN
 -----
 Symbolic Z-matrix:
 Charge =  0 Multiplicity = 2

                         Standard orientation:
 ---------------------------------------------------------------------
 Center     Atomic      Atomic             Coordinates (Angstroms)
 Number     Number       Type             X           Y           Z
 ---------------------------------------------------------------------
      1         11           0        0.119996    0.888283   -1.460789
      2         11           0        2.075649   -2.425366    0.125341
      3         11           0        4.041806   -0.116674   -0.872590
      4         11           0        1.759669    0.210136    1.835465
      5         11           0       -0.516334    2.755289    0.866534
      6         11           0       -2.982196    0.363634   -1.030439
      7         11           0       -4.498589   -1.675303    0.536478
 ---------------------------------------------------------------------

 SCF Done:  E(UB3LYP) =  -1136.11106461     A.U. after   23 cycles

 The electronic state is 2-A.
 Alpha  occ. eigenvalues --  -38.45404 -38.45241 -38.43924 -38.43870 -38.43668
 Alpha  occ. eigenvalues --  -38.43415 -38.43184  -2.21232  -2.21087  -2.19828
 Alpha  occ. eigenvalues --   -2.19784  -2.19513  -2.19222  -2.19063  -1.14911
 Alpha  occ. eigenvalues --   -1.14886  -1.14871  -1.14776  -1.14736  -1.14693
 Alpha  occ. eigenvalues --   -1.13518  -1.13484  -1.13468  -1.13464  -1.13429
 Alpha  occ. eigenvalues --   -1.13417  -1.13168  -1.13157  -1.13145  -1.12982
 Alpha  occ. eigenvalues --   -1.12866  -1.12863  -1.12743  -1.12706  -1.12649
 Alpha  occ. eigenvalues --   -0.17809  -0.14220  -0.11596  -0.10576
 Alpha virt. eigenvalues --   -0.07217  -0.05424  -0.04822  -0.03322  -0.02856
 Alpha virt. eigenvalues --   -0.02485  -0.02006  -0.01403  -0.00940  -0.00630
 Alpha virt. eigenvalues --   -0.00181  -0.00003   0.00225   0.00455   0.00656

  Beta  occ. eigenvalues --  -38.45369 -38.45232 -38.43847 -38.43827 -38.43664
  Beta  occ. eigenvalues --  -38.43410 -38.43178  -2.21166  -2.21074  -2.19704
  Beta  occ. eigenvalues --   -2.19687  -2.19509  -2.19211  -2.19055  -1.14871
  Beta  occ. eigenvalues --   -1.14843  -1.14815  -1.14758  -1.14716  -1.14673
  Beta  occ. eigenvalues --   -1.13434  -1.13422  -1.13406  -1.13379  -1.13359
  Beta  occ. eigenvalues --   -1.13323  -1.13166  -1.13147  -1.13124  -1.12974
  Beta  occ. eigenvalues --   -1.12859  -1.12855  -1.12734  -1.12702  -1.12638
  Beta  occ. eigenvalues --   -0.17182  -0.13996  -0.11404
  Beta virt. eigenvalues --   -0.07045  -0.06764  -0.05269  -0.04403  -0.02972
  Beta virt. eigenvalues --   -0.02492  -0.02187  -0.01421  -0.01104  -0.00874
  Beta virt. eigenvalues --   -0.00391  -0.00093   0.00077   0.00368   0.00527

 Mulliken charges and spin densities:
               1          2
     1  Na  -0.065587   0.229389
     2  Na   0.082764   0.188211
     3  Na   0.435608   0.125509
     4  Na  -0.296512   0.434979
     5  Na   0.135094   0.030536
     6  Na  -0.558524  -0.017728
     7  Na   0.267156   0.009104
 Sum of Mulliken charges =  -0.00000   1.00000

 Dipole moment (field-independent basis, Debye):
    X=              2.4199    Y=             -0.0518    Z=              0.3327  Tot=              2.4432
 Quadrupole moment (field-independent basis, Debye-Ang):
   XX=            -63.9956   YY=            -63.2862   ZZ=            -73.6988
   XY=             -0.4295   XZ=             -4.2205   YZ=              0.2973

 Normal termination of Gaussian 16 at Mon Nov 27 04:22:25 2023.
