 Gaussian 16, Revision B.01,
 Gaussian 16:  ES64L-G16RevB.01 20-Dec-2017

 -------------------------
 #P B3LYP/6-311+g(d) force
 -------------------------

 -----
 DPGEN
 -----
 Symbolic Z-matrix:
 Charge =  0 Multiplicity = 2

                         Standard orientation:
 ---------------------------------------------------------------------
 Center     Atomic      Atomic             Coordinates (Angstroms)
 Number     Number       Type             X           Y           Z
 ---------------------------------------------------------------------
      1         11           0        0.481797    0.211411    2.146855
      2         11           0       -0.526129   -2.743228    0.409456
      3         11           0       -2.875757   -0.698903   -0.095308
      4         11           0       -1.991806    2.184820   -0.281712
      5         11           0        1.615739    2.526118   -0.013811
      6         11           0        0.117672   -0.463935   -1.715602
      7         11           0        3.178485   -1.016284   -0.449877
 ---------------------------------------------------------------------

 SCF Done:  E(UB3LYP) =  -1136.13386955     A.U. after   19 cycles

 The electronic state is 2-A.
 Alpha  occ. eigenvalues --  -38.44368 -38.43894 -38.43762 -38.43637 -38.43502
 Alpha  occ. eigenvalues --  -38.43400 -38.43389  -2.20160  -2.19762  -2.19581
 Alpha  occ. eigenvalues --   -2.19550  -2.19450  -2.19276  -2.19258  -1.13844
 Alpha  occ. eigenvalues --   -1.13806  -1.13796  -1.13424  -1.13404  -1.13383
 Alpha  occ. eigenvalues --   -1.13290  -1.13257  -1.13248  -1.13246  -1.13206
 Alpha  occ. eigenvalues --   -1.13197  -1.13148  -1.13098  -1.13065  -1.12938
 Alpha  occ. eigenvalues --   -1.12926  -1.12919  -1.12913  -1.12894  -1.12878
 Alpha  occ. eigenvalues --   -0.18576  -0.13093  -0.12373  -0.11025
 Alpha virt. eigenvalues --   -0.05827  -0.05113  -0.04469  -0.03379  -0.03015
 Alpha virt. eigenvalues --   -0.02742  -0.01643  -0.01036  -0.00259  -0.00232
 Alpha virt. eigenvalues --   -0.00052   0.00345   0.00786   0.00856   0.00916

  Beta  occ. eigenvalues --  -38.44355 -38.43799 -38.43759 -38.43634 -38.43443
  Beta  occ. eigenvalues --  -38.43396 -38.43376  -2.20139  -2.19586  -2.19578
  Beta  occ. eigenvalues --   -2.19547  -2.19343  -2.19257  -2.19253  -1.13815
  Beta  occ. eigenvalues --   -1.13791  -1.13785  -1.13319  -1.13290  -1.13286
  Beta  occ. eigenvalues --   -1.13264  -1.13241  -1.13240  -1.13215  -1.13207
  Beta  occ. eigenvalues --   -1.13171  -1.13087  -1.13028  -1.12985  -1.12925
  Beta  occ. eigenvalues --   -1.12913  -1.12899  -1.12887  -1.12878  -1.12869
  Beta  occ. eigenvalues --   -0.17865  -0.12834  -0.12144
  Beta virt. eigenvalues --   -0.07128  -0.05779  -0.05028  -0.04415  -0.02617
  Beta virt. eigenvalues --   -0.02272  -0.01727  -0.01522  -0.00962  -0.00293
  Beta virt. eigenvalues --   -0.00261   0.00097   0.00388   0.00835   0.00893

 Mulliken charges and spin densities:
               1          2
     1  Na  -0.446226   0.587700
     2  Na   0.334392   0.079075
     3  Na   0.124095   0.015468
     4  Na   0.045195  -0.024279
     5  Na   0.091091  -0.045763
     6  Na  -0.267635   0.455257
     7  Na   0.119088  -0.067459
 Sum of Mulliken charges =  -0.00000   1.00000

 Dipole moment (field-independent basis, Debye):
    X=              0.6008    Y=             -0.0610    Z=              0.1053  Tot=              0.6130
 Quadrupole moment (field-independent basis, Debye-Ang):
   XX=            -57.8025   YY=            -64.5254   ZZ=            -72.6883
   XY=             -0.0039   XZ=             -0.6098   YZ=             -1.3719

 Normal termination of Gaussian 16 at Tue Dec  5 11:39:25 2023.
