 Gaussian 16, Revision B.01,
 Gaussian 16:  ES64L-G16RevB.01 20-Dec-2017

 -------------------------
 #P B3LYP/6-311+g(d) force
 -------------------------

 -----
 DPGEN
 -----
 Symbolic Z-matrix:
 Charge =  0 Multiplicity = 2

                         Standard orientation:
 ---------------------------------------------------------------------
 Center     Atomic      Atomic             Coordinates (Angstroms)
 Number     Number       Type             X           Y           Z
 ---------------------------------------------------------------------
      1         11           0        0.411250   -3.136195   -0.173665
      2         11           0        4.255511   -1.870155   -0.452171
      3         11           0       -2.617663    2.140739   -0.004267
      4         11           0       -2.043572   -1.575421    0.666673
      5         11           0        0.824245    3.630476   -0.334498
      6         11           0        4.280012    1.361247    0.547927
      7         11           0       -5.109782   -0.550692   -0.249999
 ---------------------------------------------------------------------

 SCF Done:  E(UB3LYP) =  -1136.10879283     A.U. after   20 cycles

 The electronic state is 2-A.
 Alpha  occ. eigenvalues --  -38.44976 -38.44911 -38.44857 -38.44840 -38.44180
 Alpha  occ. eigenvalues --  -38.44094 -38.43751  -2.20735  -2.20661  -2.20657
 Alpha  occ. eigenvalues --   -2.20616  -2.20040  -2.19841  -2.19570  -1.14436
 Alpha  occ. eigenvalues --   -1.14428  -1.14341  -1.14341  -1.14338  -1.14312
 Alpha  occ. eigenvalues --   -1.14306  -1.14302  -1.14288  -1.14261  -1.14261
 Alpha  occ. eigenvalues --   -1.14233  -1.13753  -1.13713  -1.13681  -1.13512
 Alpha  occ. eigenvalues --   -1.13498  -1.13465  -1.13234  -1.13213  -1.13183
 Alpha  occ. eigenvalues --   -0.15955  -0.13940  -0.12701  -0.11242
 Alpha virt. eigenvalues --   -0.06979  -0.05596  -0.04093  -0.03675  -0.03229
 Alpha virt. eigenvalues --   -0.02606  -0.02134  -0.01774  -0.01107  -0.00984
 Alpha virt. eigenvalues --   -0.00621  -0.00139  -0.00006   0.00404   0.00534

  Beta  occ. eigenvalues --  -38.44962 -38.44893 -38.44836 -38.44767 -38.44154
  Beta  occ. eigenvalues --  -38.44056 -38.43701  -2.20714  -2.20631  -2.20580
  Beta  occ. eigenvalues --   -2.20522  -2.19999  -2.19771  -2.19483  -1.14426
  Beta  occ. eigenvalues --   -1.14417  -1.14320  -1.14315  -1.14289  -1.14278
  Beta  occ. eigenvalues --   -1.14266  -1.14240  -1.14221  -1.14209  -1.14197
  Beta  occ. eigenvalues --   -1.14174  -1.13702  -1.13688  -1.13634  -1.13466
  Beta  occ. eigenvalues --   -1.13453  -1.13412  -1.13165  -1.13155  -1.13123
  Beta  occ. eigenvalues --   -0.15309  -0.13354  -0.11835
  Beta virt. eigenvalues --   -0.08078  -0.07143  -0.05097  -0.03753  -0.03472
  Beta virt. eigenvalues --   -0.02872  -0.02373  -0.01959  -0.01493  -0.00841
  Beta virt. eigenvalues --   -0.00659  -0.00339   0.00040   0.00164   0.00455

 Mulliken charges and spin densities:
               1          2
     1  Na   0.491334   0.066824
     2  Na   0.010700   0.152287
     3  Na  -0.069325   0.194180
     4  Na  -1.169253   0.117510
     5  Na  -0.083708   0.085085
     6  Na  -0.118069   0.036975
     7  Na   0.938321   0.347139
 Sum of Mulliken charges =  -0.00000   1.00000

 Dipole moment (field-independent basis, Debye):
    X=             -0.6627    Y=             -0.2642    Z=             -0.1965  Tot=              0.7399
 Quadrupole moment (field-independent basis, Debye-Ang):
   XX=            -53.3877   YY=            -68.9553   ZZ=            -72.6328
   XY=              0.0080   XZ=              0.9308   YZ=              2.2529

 Normal termination of Gaussian 16 at Sun Dec  3 20:41:10 2023.
