 Gaussian 16, Revision B.01,
 Gaussian 16:  ES64L-G16RevB.01 20-Dec-2017

 -------------------------
 #P B3LYP/6-311+g(d) force
 -------------------------

 -----
 DPGEN
 -----
 Symbolic Z-matrix:
 Charge =  0 Multiplicity = 2

                         Standard orientation:
 ---------------------------------------------------------------------
 Center     Atomic      Atomic             Coordinates (Angstroms)
 Number     Number       Type             X           Y           Z
 ---------------------------------------------------------------------
      1         11           0       -0.396633   -0.884621   -1.036528
      2         11           0       -1.406550   -0.740736    2.051365
      3         11           0        1.819959    0.911340    1.489195
      4         11           0        2.008779    1.389806   -1.508543
      5         11           0       -3.315262   -0.531303   -1.024317
      6         11           0        2.351323   -2.273104   -0.167302
      7         11           0       -1.061616    2.128617    0.196130
 ---------------------------------------------------------------------

 SCF Done:  E(UB3LYP) =  -1136.12749276     A.U. after   21 cycles

 The electronic state is 2-A.
 Alpha  occ. eigenvalues --  -38.44546 -38.44420 -38.44055 -38.43788 -38.42882
 Alpha  occ. eigenvalues --  -38.42745 -38.42722  -2.20426  -2.20286  -2.19952
 Alpha  occ. eigenvalues --   -2.19710  -2.18788  -2.18708  -2.18655  -1.14117
 Alpha  occ. eigenvalues --   -1.14054  -1.14038  -1.14016  -1.13911  -1.13892
 Alpha  occ. eigenvalues --   -1.13683  -1.13636  -1.13529  -1.13386  -1.13356
 Alpha  occ. eigenvalues --   -1.13310  -1.12499  -1.12479  -1.12451  -1.12371
 Alpha  occ. eigenvalues --   -1.12356  -1.12343  -1.12336  -1.12322  -1.12250
 Alpha  occ. eigenvalues --   -0.19023  -0.13581  -0.11767  -0.11251
 Alpha virt. eigenvalues --   -0.05666  -0.04944  -0.04591  -0.03246  -0.02864
 Alpha virt. eigenvalues --   -0.02558  -0.01646  -0.00786  -0.00698   0.00234
 Alpha virt. eigenvalues --    0.00330   0.00486   0.00499   0.00649   0.00830

  Beta  occ. eigenvalues --  -38.44472 -38.44397 -38.44017 -38.43762 -38.42885
  Beta  occ. eigenvalues --  -38.42734 -38.42690  -2.20291  -2.20246  -2.19881
  Beta  occ. eigenvalues --   -2.19665  -2.18736  -2.18714  -2.18640  -1.14029
  Beta  occ. eigenvalues --   -1.13984  -1.13957  -1.13932  -1.13880  -1.13864
  Beta  occ. eigenvalues --   -1.13641  -1.13578  -1.13480  -1.13349  -1.13306
  Beta  occ. eigenvalues --   -1.13281  -1.12471  -1.12448  -1.12398  -1.12368
  Beta  occ. eigenvalues --   -1.12348  -1.12341  -1.12313  -1.12280  -1.12247
  Beta  occ. eigenvalues --   -0.18217  -0.13384  -0.11088
  Beta virt. eigenvalues --   -0.07742  -0.05452  -0.04669  -0.04122  -0.03037
  Beta virt. eigenvalues --   -0.02021  -0.01969  -0.01554  -0.00653  -0.00347
  Beta virt. eigenvalues --    0.00326   0.00395   0.00503   0.00689   0.00725

 Mulliken charges and spin densities:
               1          2
     1  Na  -0.690097   0.435572
     2  Na  -0.240147   0.285263
     3  Na   0.324956   0.237429
     4  Na   0.227637  -0.037568
     5  Na   0.720211  -0.114566
     6  Na  -0.211950   0.042267
     7  Na  -0.130610   0.151603
 Sum of Mulliken charges =  -0.00000   1.00000

 Dipole moment (field-independent basis, Debye):
    X=             -0.5731    Y=              0.2648    Z=              0.2529  Tot=              0.6801
 Quadrupole moment (field-independent basis, Debye-Ang):
   XX=            -54.2529   YY=            -74.5005   ZZ=            -64.3328
   XY=              1.0808   XZ=              0.5391   YZ=             -3.3870

 Normal termination of Gaussian 16 at Tue Dec  5 14:52:34 2023.
