 Gaussian 16, Revision B.01,
 Gaussian 16:  ES64L-G16RevB.01 20-Dec-2017

 -------------------------
 #P B3LYP/6-311+g(d) force
 -------------------------

 -----
 DPGEN
 -----
 Symbolic Z-matrix:
 Charge =  0 Multiplicity = 2

                         Standard orientation:
 ---------------------------------------------------------------------
 Center     Atomic      Atomic             Coordinates (Angstroms)
 Number     Number       Type             X           Y           Z
 ---------------------------------------------------------------------
      1         11           0       -0.441662   -0.008422   -1.723924
      2         11           0       -2.860262   -1.767001    0.071792
      3         11           0        0.717386   -2.703971   -0.106619
      4         11           0        3.307245   -0.367221   -0.259277
      5         11           0        0.139584   -0.026644    2.106944
      6         11           0        1.247635    2.496577   -0.030907
      7         11           0       -2.109927    2.376682   -0.058009
 ---------------------------------------------------------------------

 SCF Done:  E(UB3LYP) =  -1136.13778034     A.U. after   19 cycles

 The electronic state is 2-A.
 Alpha  occ. eigenvalues --  -38.44143 -38.43843 -38.43839 -38.43700 -38.43557
 Alpha  occ. eigenvalues --  -38.43384 -38.43353  -2.19926  -2.19664  -2.19647
 Alpha  occ. eigenvalues --   -2.19568  -2.19410  -2.19286  -2.19253  -1.13602
 Alpha  occ. eigenvalues --   -1.13581  -1.13571  -1.13349  -1.13323  -1.13313
 Alpha  occ. eigenvalues --   -1.13311  -1.13306  -1.13298  -1.13235  -1.13205
 Alpha  occ. eigenvalues --   -1.13182  -1.13115  -1.13082  -1.13018  -1.12977
 Alpha  occ. eigenvalues --   -1.12939  -1.12926  -1.12915  -1.12891  -1.12874
 Alpha  occ. eigenvalues --   -0.18361  -0.12677  -0.12591  -0.10696
 Alpha virt. eigenvalues --   -0.05684  -0.05365  -0.04692  -0.03049  -0.03009
 Alpha virt. eigenvalues --   -0.02609  -0.01606  -0.01304  -0.00400  -0.00354
 Alpha virt. eigenvalues --   -0.00042   0.00341   0.00763   0.00832   0.00895

  Beta  occ. eigenvalues --  -38.44143 -38.43840 -38.43837 -38.43601 -38.43550
  Beta  occ. eigenvalues --  -38.43377 -38.43290  -2.19929  -2.19663  -2.19643
  Beta  occ. eigenvalues --   -2.19400  -2.19385  -2.19245  -2.19172  -1.13590
  Beta  occ. eigenvalues --   -1.13582  -1.13574  -1.13343  -1.13314  -1.13311
  Beta  occ. eigenvalues --   -1.13305  -1.13297  -1.13292  -1.13126  -1.13099
  Beta  occ. eigenvalues --   -1.13078  -1.13055  -1.13040  -1.13015  -1.12941
  Beta  occ. eigenvalues --   -1.12892  -1.12880  -1.12874  -1.12832  -1.12818
  Beta  occ. eigenvalues --   -0.17624  -0.12458  -0.12397
  Beta virt. eigenvalues --   -0.06784  -0.05670  -0.05311  -0.04640  -0.02292
  Beta virt. eigenvalues --   -0.02239  -0.01584  -0.01498  -0.01241  -0.00453
  Beta virt. eigenvalues --   -0.00393   0.00110   0.00363   0.00807   0.00834

 Mulliken charges and spin densities:
               1          2
     1  Na  -0.124745   0.553401
     2  Na   0.076001  -0.123999
     3  Na   0.162757  -0.038298
     4  Na  -0.017287  -0.030477
     5  Na  -0.439776   0.756434
     6  Na   0.182532   0.000106
     7  Na   0.160518  -0.117167
 Sum of Mulliken charges =  -0.00000   1.00000

 Dipole moment (field-independent basis, Debye):
    X=             -0.3263    Y=             -0.0665    Z=              0.1005  Tot=              0.3479
 Quadrupole moment (field-independent basis, Debye-Ang):
   XX=            -55.9257   YY=            -62.8597   ZZ=            -74.5611
   XY=             -0.0657   XZ=             -1.4501   YZ=             -0.0126

 Normal termination of Gaussian 16 at Tue Dec  5 11:32:26 2023.
