 Gaussian 16, Revision B.01,
 Gaussian 16:  ES64L-G16RevB.01 20-Dec-2017

 -------------------------
 #P B3LYP/6-311+g(d) force
 -------------------------

 -----
 DPGEN
 -----
 Symbolic Z-matrix:
 Charge =  0 Multiplicity = 2

                         Standard orientation:
 ---------------------------------------------------------------------
 Center     Atomic      Atomic             Coordinates (Angstroms)
 Number     Number       Type             X           Y           Z
 ---------------------------------------------------------------------
      1         11           0        0.704993   -1.729244    1.207585
      2         11           0        4.518877   -2.806527   -0.622082
      3         11           0        2.552762    0.405244   -0.319148
      4         11           0        0.859511    4.390789   -0.447410
      5         11           0       -0.339181    1.615191    1.017944
      6         11           0       -2.097584   -0.484120   -0.410524
      7         11           0       -6.199378   -1.391332   -0.426365
 ---------------------------------------------------------------------

 SCF Done:  E(UB3LYP) =  -1136.10964469     A.U. after   22 cycles

 The electronic state is 2-A.
 Alpha  occ. eigenvalues --  -38.45272 -38.44768 -38.44738 -38.44686 -38.44092
 Alpha  occ. eigenvalues --  -38.43690 -38.43522  -2.21041  -2.20552  -2.20542
 Alpha  occ. eigenvalues --   -2.20518  -2.19906  -2.19617  -2.19305  -1.14673
 Alpha  occ. eigenvalues --   -1.14673  -1.14640  -1.14337  -1.14259  -1.14226
 Alpha  occ. eigenvalues --   -1.14202  -1.14184  -1.14179  -1.14138  -1.14116
 Alpha  occ. eigenvalues --   -1.14095  -1.13647  -1.13572  -1.13547  -1.13317
 Alpha  occ. eigenvalues --   -1.13298  -1.13209  -1.12966  -1.12965  -1.12923
 Alpha  occ. eigenvalues --   -0.17228  -0.13102  -0.12454  -0.11266
 Alpha virt. eigenvalues --   -0.06600  -0.05522  -0.05082  -0.03293  -0.02785
 Alpha virt. eigenvalues --   -0.02379  -0.01987  -0.01731  -0.01459  -0.01166
 Alpha virt. eigenvalues --   -0.00658  -0.00174  -0.00115   0.00381   0.00491

  Beta  occ. eigenvalues --  -38.45135 -38.44747 -38.44727 -38.44661 -38.44115
  Beta  occ. eigenvalues --  -38.43686 -38.43498  -2.20786  -2.20570  -2.20498
  Beta  occ. eigenvalues --   -2.20440  -2.19953  -2.19612  -2.19260  -1.14500
  Beta  occ. eigenvalues --   -1.14500  -1.14470  -1.14331  -1.14271  -1.14202
  Beta  occ. eigenvalues --   -1.14180  -1.14135  -1.14130  -1.14124  -1.14075
  Beta  occ. eigenvalues --   -1.14069  -1.13681  -1.13608  -1.13547  -1.13324
  Beta  occ. eigenvalues --   -1.13295  -1.13183  -1.12936  -1.12935  -1.12895
  Beta  occ. eigenvalues --   -0.16985  -0.12465  -0.11724
  Beta virt. eigenvalues --   -0.07955  -0.06127  -0.05357  -0.04924  -0.03029
  Beta virt. eigenvalues --   -0.02540  -0.02111  -0.01795  -0.01292  -0.00913
  Beta virt. eigenvalues --   -0.00860  -0.00304  -0.00031   0.00051   0.00494

 Mulliken charges and spin densities:
               1          2
     1  Na   0.048045   0.001734
     2  Na   0.501579   0.239241
     3  Na  -0.698486  -0.029265
     4  Na   0.453774   0.122694
     5  Na  -0.171709   0.046417
     6  Na  -0.069249  -0.038127
     7  Na  -0.063955   0.657306
 Sum of Mulliken charges =  -0.00000   1.00000

 Dipole moment (field-independent basis, Debye):
    X=              0.4767    Y=             -1.0436    Z=              0.0680  Tot=              1.1493
 Quadrupole moment (field-independent basis, Debye-Ang):
   XX=            -64.7182   YY=            -64.4146   ZZ=            -68.9806
   XY=             -5.0999   XZ=             -1.9751   YZ=             -1.8841

 Normal termination of Gaussian 16 at Wed Nov 29 00:11:38 2023.
