 Gaussian 16, Revision B.01,
 Gaussian 16:  ES64L-G16RevB.01 20-Dec-2017

 -------------------------
 #P B3LYP/6-311+g(d) force
 -------------------------

 -----
 DPGEN
 -----
 Symbolic Z-matrix:
 Charge =  0 Multiplicity = 2

                         Standard orientation:
 ---------------------------------------------------------------------
 Center     Atomic      Atomic             Coordinates (Angstroms)
 Number     Number       Type             X           Y           Z
 ---------------------------------------------------------------------
      1         11           0        1.350093    2.555341    0.746685
      2         11           0        3.033258   -0.486806   -0.685368
      3         11           0        0.340947   -0.189377    1.903773
      4         11           0        0.240866   -2.929835   -0.157846
      5         11           0        0.014648    0.119647   -1.472259
      6         11           0       -2.802362   -1.316091    0.397031
      7         11           0       -2.177450    2.247120   -0.732016
 ---------------------------------------------------------------------

 SCF Done:  E(UB3LYP) =  -1136.13649805     A.U. after   18 cycles

 The electronic state is 2-A.
 Alpha  occ. eigenvalues --  -38.43813 -38.43788 -38.43622 -38.43602 -38.43526
 Alpha  occ. eigenvalues --  -38.43479 -38.42989  -2.19636  -2.19630  -2.19544
 Alpha  occ. eigenvalues --   -2.19479  -2.19353  -2.19341  -2.19020  -1.13346
 Alpha  occ. eigenvalues --   -1.13312  -1.13296  -1.13291  -1.13275  -1.13263
 Alpha  occ. eigenvalues --   -1.13257  -1.13210  -1.13160  -1.13124  -1.13107
 Alpha  occ. eigenvalues --   -1.13088  -1.13074  -1.13035  -1.13009  -1.12993
 Alpha  occ. eigenvalues --   -1.12975  -1.12953  -1.12704  -1.12648  -1.12639
 Alpha  occ. eigenvalues --   -0.18679  -0.12772  -0.12590  -0.10972
 Alpha virt. eigenvalues --   -0.05289  -0.04980  -0.04875  -0.03187  -0.02993
 Alpha virt. eigenvalues --   -0.02489  -0.01442  -0.01220  -0.00412  -0.00118
 Alpha virt. eigenvalues --    0.00068   0.00335   0.00829   0.00870   0.00880

  Beta  occ. eigenvalues --  -38.43810 -38.43768 -38.43598 -38.43518 -38.43509
  Beta  occ. eigenvalues --  -38.43475 -38.42934  -2.19625  -2.19602  -2.19440
  Beta  occ. eigenvalues --   -2.19391  -2.19339  -2.19323  -2.18921  -1.13312
  Beta  occ. eigenvalues --   -1.13300  -1.13294  -1.13257  -1.13255  -1.13231
  Beta  occ. eigenvalues --   -1.13207  -1.13115  -1.13087  -1.13076  -1.13064
  Beta  occ. eigenvalues --   -1.13042  -1.13028  -1.13016  -1.12987  -1.12970
  Beta  occ. eigenvalues --   -1.12957  -1.12942  -1.12630  -1.12577  -1.12568
  Beta  occ. eigenvalues --   -0.18001  -0.12497  -0.12262
  Beta virt. eigenvalues --   -0.07115  -0.05253  -0.04865  -0.04804  -0.02459
  Beta virt. eigenvalues --   -0.02345  -0.01511  -0.01307  -0.01117  -0.00325
  Beta virt. eigenvalues --   -0.00143   0.00150   0.00377   0.00864   0.00886

 Mulliken charges and spin densities:
               1          2
     1  Na   0.070540   0.118696
     2  Na   0.084730   0.017751
     3  Na  -0.003124   0.484794
     4  Na  -0.021208  -0.028805
     5  Na  -0.084883   0.356446
     6  Na  -0.065878   0.035750
     7  Na   0.019823   0.015369
 Sum of Mulliken charges =  -0.00000   1.00000

 Dipole moment (field-independent basis, Debye):
    X=              0.0803    Y=             -0.1293    Z=              0.1917  Tot=              0.2447
 Quadrupole moment (field-independent basis, Debye-Ang):
   XX=            -58.2310   YY=            -60.9880   ZZ=            -73.4515
   XY=              0.2982   XZ=             -1.1820   YZ=              0.4682

 Normal termination of Gaussian 16 at Sun Dec  3 17:34:54 2023.
