 Gaussian 16, Revision B.01,
 Gaussian 16:  ES64L-G16RevB.01 20-Dec-2017

 -------------------------
 #P B3LYP/6-311+g(d) force
 -------------------------

 -----
 DPGEN
 -----
 Symbolic Z-matrix:
 Charge =  0 Multiplicity = 2

                         Standard orientation:
 ---------------------------------------------------------------------
 Center     Atomic      Atomic             Coordinates (Angstroms)
 Number     Number       Type             X           Y           Z
 ---------------------------------------------------------------------
      1         11           0        3.829941    0.906054   -0.328918
      2         11           0       -3.157098   -2.509323   -0.218044
      3         11           0        0.293296   -3.026554   -0.210217
      4         11           0       -4.604971    0.616939    0.182573
      5         11           0       -1.475556    3.181649    0.110837
      6         11           0        1.694105    3.366980   -0.029586
      7         11           0        3.420284   -2.535746    0.493355
 ---------------------------------------------------------------------

 SCF Done:  E(UB3LYP) =  -1136.10793769     A.U. after   32 cycles

 The electronic state is 2-A.
 Alpha  occ. eigenvalues --  -38.45604 -38.45068 -38.44931 -38.44863 -38.43981
 Alpha  occ. eigenvalues --  -38.43853 -38.43838  -2.21382  -2.20837  -2.20726
 Alpha  occ. eigenvalues --   -2.20647  -2.19809  -2.19667  -2.19632  -1.15049
 Alpha  occ. eigenvalues --   -1.15048  -1.15010  -1.14520  -1.14511  -1.14477
 Alpha  occ. eigenvalues --   -1.14393  -1.14386  -1.14365  -1.14329  -1.14320
 Alpha  occ. eigenvalues --   -1.14284  -1.13480  -1.13466  -1.13463  -1.13328
 Alpha  occ. eigenvalues --   -1.13320  -1.13298  -1.13283  -1.13272  -1.13264
 Alpha  occ. eigenvalues --   -0.15741  -0.13918  -0.13754  -0.10653
 Alpha virt. eigenvalues --   -0.08126  -0.04579  -0.04474  -0.03732  -0.03492
 Alpha virt. eigenvalues --   -0.02424  -0.02295  -0.01907  -0.01492  -0.00637
 Alpha virt. eigenvalues --   -0.00307  -0.00057   0.00094   0.00392   0.00483

  Beta  occ. eigenvalues --  -38.45561 -38.45056 -38.44892 -38.44876 -38.43972
  Beta  occ. eigenvalues --  -38.43803 -38.43768  -2.21308  -2.20823  -2.20673
  Beta  occ. eigenvalues --   -2.20653  -2.19796  -2.19575  -2.19502  -1.15003
  Beta  occ. eigenvalues --   -1.14999  -1.14932  -1.14517  -1.14505  -1.14421
  Beta  occ. eigenvalues --   -1.14351  -1.14347  -1.14340  -1.14336  -1.14323
  Beta  occ. eigenvalues --   -1.14272  -1.13462  -1.13458  -1.13444  -1.13267
  Beta  occ. eigenvalues --   -1.13260  -1.13236  -1.13195  -1.13182  -1.13181
  Beta  occ. eigenvalues --   -0.15299  -0.13234  -0.13117
  Beta virt. eigenvalues --   -0.08248  -0.07360  -0.04256  -0.03822  -0.03591
  Beta virt. eigenvalues --   -0.03057  -0.02230  -0.02150  -0.01818  -0.01366
  Beta virt. eigenvalues --   -0.00317  -0.00013   0.00032   0.00325   0.00446

 Mulliken charges and spin densities:
               1          2
     1  Na  -0.379453   0.214067
     2  Na   0.264763  -0.084747
     3  Na  -0.622439   0.123460
     4  Na   0.137242   0.381752
     5  Na   0.169274   0.376688
     6  Na   0.065211  -0.162878
     7  Na   0.365401   0.151658
 Sum of Mulliken charges =  -0.00000   1.00000

 Dipole moment (field-independent basis, Debye):
    X=              0.5757    Y=              0.2085    Z=              0.0821  Tot=              0.6177
 Quadrupole moment (field-independent basis, Debye-Ang):
   XX=            -62.3664   YY=            -64.5077   ZZ=            -73.5735
   XY=             -1.5647   XZ=              0.5498   YZ=             -0.6959

 Normal termination of Gaussian 16 at Mon Dec  4 01:59:05 2023.
