 Gaussian 16, Revision B.01,
 Gaussian 16:  ES64L-G16RevB.01 20-Dec-2017

 -------------------------
 #P B3LYP/6-311+g(d) force
 -------------------------

 -----
 DPGEN
 -----
 Symbolic Z-matrix:
 Charge =  0 Multiplicity = 2

                         Standard orientation:
 ---------------------------------------------------------------------
 Center     Atomic      Atomic             Coordinates (Angstroms)
 Number     Number       Type             X           Y           Z
 ---------------------------------------------------------------------
      1         11           0        1.168023   -2.500674    0.173528
      2         11           0        0.759151    2.564922   -0.326303
      3         11           0       -2.701404   -1.813182   -0.186817
      4         11           0       -2.420938    1.755692    0.608322
      5         11           0       -0.480076   -0.033172   -1.670961
      6         11           0        3.051811    0.120892   -0.273150
      7         11           0        0.623432   -0.094478    1.675381
 ---------------------------------------------------------------------

 SCF Done:  E(UB3LYP) =  -1136.13235112     A.U. after   19 cycles

 The electronic state is 2-A.
 Alpha  occ. eigenvalues --  -38.44033 -38.43984 -38.43852 -38.43490 -38.43333
 Alpha  occ. eigenvalues --  -38.43075 -38.42943  -2.19941  -2.19799  -2.19696
 Alpha  occ. eigenvalues --   -2.19416  -2.19360  -2.19071  -2.18869  -1.13651
 Alpha  occ. eigenvalues --   -1.13599  -1.13579  -1.13497  -1.13452  -1.13434
 Alpha  occ. eigenvalues --   -1.13362  -1.13361  -1.13328  -1.13291  -1.13072
 Alpha  occ. eigenvalues --   -1.13013  -1.13010  -1.12959  -1.12911  -1.12772
 Alpha  occ. eigenvalues --   -1.12723  -1.12686  -1.12540  -1.12523  -1.12490
 Alpha  occ. eigenvalues --   -0.19154  -0.13376  -0.12501  -0.10650
 Alpha virt. eigenvalues --   -0.05677  -0.05301  -0.04375  -0.03357  -0.02787
 Alpha virt. eigenvalues --   -0.02202  -0.01606  -0.01091  -0.00251  -0.00110
 Alpha virt. eigenvalues --    0.00035   0.00340   0.00815   0.00881   0.00923

  Beta  occ. eigenvalues --  -38.44025 -38.43981 -38.43836 -38.43480 -38.43262
  Beta  occ. eigenvalues --  -38.43006 -38.42931  -2.19930  -2.19797  -2.19666
  Beta  occ. eigenvalues --   -2.19399  -2.19235  -2.18946  -2.18852  -1.13641
  Beta  occ. eigenvalues --   -1.13593  -1.13546  -1.13485  -1.13443  -1.13435
  Beta  occ. eigenvalues --   -1.13344  -1.13326  -1.13309  -1.13248  -1.13038
  Beta  occ. eigenvalues --   -1.12997  -1.12931  -1.12880  -1.12834  -1.12692
  Beta  occ. eigenvalues --   -1.12637  -1.12595  -1.12523  -1.12493  -1.12459
  Beta  occ. eigenvalues --   -0.18445  -0.13129  -0.12206
  Beta virt. eigenvalues --   -0.06777  -0.05614  -0.05226  -0.04372  -0.02589
  Beta virt. eigenvalues --   -0.02037  -0.01526  -0.01233  -0.00972  -0.00260
  Beta virt. eigenvalues --   -0.00137   0.00150   0.00374   0.00856   0.00908

 Mulliken charges and spin densities:
               1          2
     1  Na   0.221171  -0.109560
     2  Na   0.250195   0.054146
     3  Na   0.008302  -0.098969
     4  Na  -0.060757   0.073986
     5  Na  -0.294955   0.536727
     6  Na   0.196480   0.018637
     7  Na  -0.320435   0.525032
 Sum of Mulliken charges =  -0.00000   1.00000

 Dipole moment (field-independent basis, Debye):
    X=             -0.1740    Y=             -0.1252    Z=              0.0070  Tot=              0.2145
 Quadrupole moment (field-independent basis, Debye-Ang):
   XX=            -54.4341   YY=            -63.8886   ZZ=            -74.5791
   XY=              0.3778   XZ=             -2.6720   YZ=              0.4009

 Normal termination of Gaussian 16 at Thu Dec  7 18:40:34 2023.
