 Gaussian 16, Revision B.01,
 Gaussian 16:  ES64L-G16RevB.01 20-Dec-2017

 -------------------------
 #P B3LYP/6-311+g(d) force
 -------------------------

 -----
 DPGEN
 -----
 Symbolic Z-matrix:
 Charge =  0 Multiplicity = 2

                         Standard orientation:
 ---------------------------------------------------------------------
 Center     Atomic      Atomic             Coordinates (Angstroms)
 Number     Number       Type             X           Y           Z
 ---------------------------------------------------------------------
      1         11           0        1.230401   -2.657136   -0.661781
      2         11           0        2.005596    3.089859   -0.147496
      3         11           0        0.405310   -0.851184    2.110554
      4         11           0       -2.949876   -1.577458   -0.381464
      5         11           0        3.248702   -0.224721   -0.231569
      6         11           0       -3.582543    1.771141    0.113006
      7         11           0       -0.357590    0.449498   -0.801250
 ---------------------------------------------------------------------

 SCF Done:  E(UB3LYP) =  -1136.12227694     A.U. after   24 cycles

 The electronic state is 2-A.
 Alpha  occ. eigenvalues --  -38.45228 -38.44905 -38.44255 -38.43750 -38.43485
 Alpha  occ. eigenvalues --  -38.43098 -38.43091  -2.20993  -2.20708  -2.20111
 Alpha  occ. eigenvalues --   -2.19686  -2.19261  -2.18984  -2.18979  -1.14664
 Alpha  occ. eigenvalues --   -1.14654  -1.14631  -1.14401  -1.14368  -1.14320
 Alpha  occ. eigenvalues --   -1.13794  -1.13775  -1.13739  -1.13425  -1.13350
 Alpha  occ. eigenvalues --   -1.13305  -1.12931  -1.12919  -1.12904  -1.12665
 Alpha  occ. eigenvalues --   -1.12647  -1.12643  -1.12625  -1.12598  -1.12563
 Alpha  occ. eigenvalues --   -0.17948  -0.13804  -0.11736  -0.09929
 Alpha virt. eigenvalues --   -0.06792  -0.05891  -0.04577  -0.03079  -0.02457
 Alpha virt. eigenvalues --   -0.02148  -0.01963  -0.01682  -0.01165  -0.00656
 Alpha virt. eigenvalues --   -0.00104   0.00178   0.00499   0.00566   0.00714

  Beta  occ. eigenvalues --  -38.45232 -38.44897 -38.44231 -38.43738 -38.43486
  Beta  occ. eigenvalues --  -38.43073 -38.42981  -2.21003  -2.20696  -2.20071
  Beta  occ. eigenvalues --   -2.19668  -2.19264  -2.18935  -2.18780  -1.14670
  Beta  occ. eigenvalues --   -1.14656  -1.14638  -1.14392  -1.14350  -1.14313
  Beta  occ. eigenvalues --   -1.13763  -1.13737  -1.13704  -1.13379  -1.13337
  Beta  occ. eigenvalues --   -1.13297  -1.12933  -1.12916  -1.12907  -1.12630
  Beta  occ. eigenvalues --   -1.12607  -1.12566  -1.12507  -1.12459  -1.12438
  Beta  occ. eigenvalues --   -0.17325  -0.13561  -0.11605
  Beta virt. eigenvalues --   -0.06654  -0.06079  -0.05731  -0.04473  -0.02590
  Beta virt. eigenvalues --   -0.02273  -0.01721  -0.01603  -0.01274  -0.00835
  Beta virt. eigenvalues --   -0.00595   0.00172   0.00287   0.00575   0.00650

 Mulliken charges and spin densities:
               1          2
     1  Na   0.279143   0.208719
     2  Na   0.130630  -0.079308
     3  Na  -0.493750   0.424687
     4  Na   0.663846   0.046031
     5  Na   0.542677   0.242538
     6  Na   0.076978  -0.079792
     7  Na  -1.199525   0.237124
 Sum of Mulliken charges =  -0.00000   1.00000

 Dipole moment (field-independent basis, Debye):
    X=             -1.5156    Y=              0.1646    Z=              0.3817  Tot=              1.5716
 Quadrupole moment (field-independent basis, Debye-Ang):
   XX=            -53.1959   YY=            -62.4425   ZZ=            -77.1493
   XY=             -1.3734   XZ=              0.3192   YZ=              1.9214

 Normal termination of Gaussian 16 at Tue Dec  5 19:23:26 2023.
