 Gaussian 16, Revision B.01,
 Gaussian 16:  ES64L-G16RevB.01 20-Dec-2017

 -------------------------
 #P B3LYP/6-311+g(d) force
 -------------------------

 -----
 DPGEN
 -----
 Symbolic Z-matrix:
 Charge =  0 Multiplicity = 2

                         Standard orientation:
 ---------------------------------------------------------------------
 Center     Atomic      Atomic             Coordinates (Angstroms)
 Number     Number       Type             X           Y           Z
 ---------------------------------------------------------------------
      1         11           0       -1.045887    2.156616    1.692005
      2         11           0       -2.803822    0.620594   -0.705930
      3         11           0        1.652756   -0.703307   -1.061558
      4         11           0       -2.646446   -2.634524   -0.546391
      5         11           0        4.558084   -0.864018    0.297277
      6         11           0        0.625251    2.702519   -1.187154
      7         11           0       -0.339936   -1.277879    1.511749
 ---------------------------------------------------------------------

 SCF Done:  E(UB3LYP) =  -1136.11947511     A.U. after   22 cycles

 The electronic state is 2-A.
 Alpha  occ. eigenvalues --  -38.45227 -38.44628 -38.43897 -38.43886 -38.43884
 Alpha  occ. eigenvalues --  -38.43484 -38.43438  -2.20978  -2.20472  -2.19773
 Alpha  occ. eigenvalues --   -2.19734  -2.19696  -2.19315  -2.19308  -1.14647
 Alpha  occ. eigenvalues --   -1.14638  -1.14628  -1.14165  -1.14138  -1.14090
 Alpha  occ. eigenvalues --   -1.13508  -1.13421  -1.13405  -1.13398  -1.13377
 Alpha  occ. eigenvalues --   -1.13364  -1.13358  -1.13347  -1.13314  -1.12985
 Alpha  occ. eigenvalues --   -1.12982  -1.12966  -1.12961  -1.12953  -1.12919
 Alpha  occ. eigenvalues --   -0.17657  -0.13126  -0.12242  -0.10607
 Alpha virt. eigenvalues --   -0.07116  -0.05198  -0.03725  -0.03618  -0.03168
 Alpha virt. eigenvalues --   -0.02655  -0.02095  -0.01198  -0.00752  -0.00419
 Alpha virt. eigenvalues --   -0.00018   0.00059   0.00252   0.00641   0.00765

  Beta  occ. eigenvalues --  -38.45241 -38.44601 -38.43869 -38.43851 -38.43839
  Beta  occ. eigenvalues --  -38.43470 -38.43393  -2.21003  -2.20423  -2.19707
  Beta  occ. eigenvalues --   -2.19668  -2.19633  -2.19289  -2.19226  -1.14664
  Beta  occ. eigenvalues --   -1.14654  -1.14644  -1.14114  -1.14104  -1.14055
  Beta  occ. eigenvalues --   -1.13455  -1.13376  -1.13358  -1.13347  -1.13319
  Beta  occ. eigenvalues --   -1.13312  -1.13311  -1.13307  -1.13273  -1.12957
  Beta  occ. eigenvalues --   -1.12945  -1.12938  -1.12932  -1.12903  -1.12845
  Beta  occ. eigenvalues --   -0.16971  -0.12961  -0.12095
  Beta virt. eigenvalues --   -0.06907  -0.06791  -0.05062  -0.03452  -0.03203
  Beta virt. eigenvalues --   -0.02721  -0.02383  -0.01385  -0.01055  -0.00692
  Beta virt. eigenvalues --   -0.00176   0.00087   0.00243   0.00295   0.00681

 Mulliken charges and spin densities:
               1          2
     1  Na   0.195211   0.137584
     2  Na   0.037132   0.302128
     3  Na  -0.058393   0.178321
     4  Na   0.226956   0.048091
     5  Na   0.162823  -0.109683
     6  Na  -0.107575   0.143054
     7  Na  -0.456155   0.300505
 Sum of Mulliken charges =  -0.00000   1.00000

 Dipole moment (field-independent basis, Debye):
    X=              0.9023    Y=              0.0805    Z=              0.2702  Tot=              0.9454
 Quadrupole moment (field-independent basis, Debye-Ang):
   XX=            -53.7017   YY=            -67.1030   ZZ=            -71.9614
   XY=             -0.2404   XZ=              3.2103   YZ=              0.2401

 Normal termination of Gaussian 16 at Tue Nov 28 20:58:56 2023.
