 Gaussian 16, Revision B.01,
 Gaussian 16:  ES64L-G16RevB.01 20-Dec-2017

 -------------------------
 #P B3LYP/6-311+g(d) force
 -------------------------

 -----
 DPGEN
 -----
 Symbolic Z-matrix:
 Charge =  0 Multiplicity = 2

                         Standard orientation:
 ---------------------------------------------------------------------
 Center     Atomic      Atomic             Coordinates (Angstroms)
 Number     Number       Type             X           Y           Z
 ---------------------------------------------------------------------
      1         11           0        2.244313    2.330040   -0.053935
      2         11           0       -0.130709   -0.216485    2.098745
      3         11           0       -1.591275    3.055804   -0.075198
      4         11           0       -3.170948   -0.407965   -0.175569
      5         11           0        0.191466   -0.401448   -1.800138
      6         11           0        3.139401   -1.200098    0.017745
      7         11           0       -0.682249   -3.159849   -0.011651
 ---------------------------------------------------------------------

 SCF Done:  E(UB3LYP) =  -1136.13263729     A.U. after   19 cycles

 The electronic state is 2-A.
 Alpha  occ. eigenvalues --  -38.44246 -38.44236 -38.44154 -38.43997 -38.43888
 Alpha  occ. eigenvalues --  -38.43767 -38.43627  -2.20026  -2.20021  -2.19923
 Alpha  occ. eigenvalues --   -2.19803  -2.19638  -2.19599  -2.19497  -1.13703
 Alpha  occ. eigenvalues --   -1.13702  -1.13688  -1.13685  -1.13670  -1.13653
 Alpha  occ. eigenvalues --   -1.13606  -1.13587  -1.13553  -1.13485  -1.13468
 Alpha  occ. eigenvalues --   -1.13439  -1.13317  -1.13292  -1.13287  -1.13262
 Alpha  occ. eigenvalues --   -1.13222  -1.13221  -1.13176  -1.13132  -1.13117
 Alpha  occ. eigenvalues --   -0.17677  -0.12714  -0.12211  -0.10446
 Alpha virt. eigenvalues --   -0.05808  -0.05549  -0.05284  -0.03090  -0.02808
 Alpha virt. eigenvalues --   -0.02553  -0.01589  -0.01415  -0.00905  -0.00873
 Alpha virt. eigenvalues --   -0.00050   0.00347   0.00736   0.00758   0.00776

  Beta  occ. eigenvalues --  -38.44244 -38.44232 -38.44153 -38.43992 -38.43890
  Beta  occ. eigenvalues --  -38.43670 -38.43561  -2.20026  -2.20016  -2.19924
  Beta  occ. eigenvalues --   -2.19798  -2.19644  -2.19420  -2.19376  -1.13690
  Beta  occ. eigenvalues --   -1.13687  -1.13681  -1.13677  -1.13673  -1.13653
  Beta  occ. eigenvalues --   -1.13593  -1.13588  -1.13557  -1.13476  -1.13443
  Beta  occ. eigenvalues --   -1.13439  -1.13311  -1.13296  -1.13293  -1.13142
  Beta  occ. eigenvalues --   -1.13096  -1.13094  -1.13092  -1.13045  -1.13028
  Beta  occ. eigenvalues --   -0.16957  -0.12540  -0.12053
  Beta virt. eigenvalues --   -0.06554  -0.05825  -0.05576  -0.05072  -0.02345
  Beta virt. eigenvalues --   -0.02123  -0.01534  -0.01490  -0.01327  -0.00959
  Beta virt. eigenvalues --   -0.00935   0.00113   0.00387   0.00750   0.00783

 Mulliken charges and spin densities:
               1          2
     1  Na  -0.093378  -0.099508
     2  Na  -0.249500   0.846812
     3  Na  -0.153359  -0.102721
     4  Na   0.035763  -0.074374
     5  Na   0.107042   0.665634
     6  Na   0.121498  -0.120944
     7  Na   0.231934  -0.114899
 Sum of Mulliken charges =  -0.00000   1.00000

 Dipole moment (field-independent basis, Debye):
    X=              0.1369    Y=             -0.3104    Z=             -0.0110  Tot=              0.3394
 Quadrupole moment (field-independent basis, Debye-Ang):
   XX=            -57.6797   YY=            -59.5196   ZZ=            -76.3658
   XY=              0.1734   XZ=              0.7528   YZ=             -0.3701

 Normal termination of Gaussian 16 at Sun Dec  3 12:46:25 2023.
