 Gaussian 16, Revision B.01,
 Gaussian 16:  ES64L-G16RevB.01 20-Dec-2017

 -------------------------
 #P B3LYP/6-311+g(d) force
 -------------------------

 -----
 DPGEN
 -----
 Symbolic Z-matrix:
 Charge =  0 Multiplicity = 2

                         Standard orientation:
 ---------------------------------------------------------------------
 Center     Atomic      Atomic             Coordinates (Angstroms)
 Number     Number       Type             X           Y           Z
 ---------------------------------------------------------------------
      1         11           0       -0.778587   -0.062122   -0.046018
      2         11           0        1.360254    2.773388   -0.685903
      3         11           0       -2.471612    3.172255    0.066603
      4         11           0       -3.542112   -1.258755    0.639875
      5         11           0       -0.627632   -3.597197   -0.464179
      6         11           0        3.578468   -0.134002    1.660614
      7         11           0        2.481221   -0.893568   -1.170992
 ---------------------------------------------------------------------

 SCF Done:  E(UB3LYP) =  -1136.11995563     A.U. after   23 cycles

 The electronic state is 2-A.
 Alpha  occ. eigenvalues --  -38.44626 -38.44589 -38.44304 -38.44068 -38.44057
 Alpha  occ. eigenvalues --  -38.43715 -38.43303  -2.20365  -2.20358  -2.20076
 Alpha  occ. eigenvalues --   -2.19906  -2.19875  -2.19553  -2.19227  -1.14050
 Alpha  occ. eigenvalues --   -1.14047  -1.14034  -1.14019  -1.14000  -1.13961
 Alpha  occ. eigenvalues --   -1.13752  -1.13726  -1.13702  -1.13619  -1.13585
 Alpha  occ. eigenvalues --   -1.13579  -1.13534  -1.13530  -1.13467  -1.13197
 Alpha  occ. eigenvalues --   -1.13185  -1.13157  -1.12941  -1.12913  -1.12827
 Alpha  occ. eigenvalues --   -0.16911  -0.13520  -0.12484  -0.09873
 Alpha virt. eigenvalues --   -0.06330  -0.05882  -0.05044  -0.03271  -0.02354
 Alpha virt. eigenvalues --   -0.01980  -0.01843  -0.01722  -0.01286  -0.01111
 Alpha virt. eigenvalues --   -0.00090   0.00204   0.00288   0.00442   0.00610

  Beta  occ. eigenvalues --  -38.44643 -38.44563 -38.44278 -38.44062 -38.44015
  Beta  occ. eigenvalues --  -38.43621 -38.43292  -2.20394  -2.20317  -2.20029
  Beta  occ. eigenvalues --   -2.19901  -2.19795  -2.19377  -2.19211  -1.14074
  Beta  occ. eigenvalues --   -1.14041  -1.14015  -1.14010  -1.14000  -1.13935
  Beta  occ. eigenvalues --   -1.13720  -1.13690  -1.13669  -1.13601  -1.13564
  Beta  occ. eigenvalues --   -1.13530  -1.13520  -1.13476  -1.13412  -1.13079
  Beta  occ. eigenvalues --   -1.13063  -1.13042  -1.12927  -1.12879  -1.12820
  Beta  occ. eigenvalues --   -0.16478  -0.12938  -0.12237
  Beta virt. eigenvalues --   -0.06581  -0.06114  -0.05462  -0.04834  -0.02837
  Beta virt. eigenvalues --   -0.02050  -0.01877  -0.01674  -0.01347  -0.01132
  Beta virt. eigenvalues --   -0.00730   0.00167   0.00343   0.00493   0.00639

 Mulliken charges and spin densities:
               1          2
     1  Na  -4.291134   0.211259
     2  Na   1.657599   0.045644
     3  Na  -0.007947  -0.070813
     4  Na   0.208069   0.077276
     5  Na   0.858360   0.094940
     6  Na   0.371287   0.429630
     7  Na   1.203766   0.212064
 Sum of Mulliken charges =  -0.00000   1.00000

 Dipole moment (field-independent basis, Debye):
    X=             -0.6285    Y=              0.2545    Z=             -0.3817  Tot=              0.7781
 Quadrupole moment (field-independent basis, Debye-Ang):
   XX=            -66.7496   YY=            -56.4904   ZZ=            -71.7968
   XY=              0.3266   XZ=             -4.1751   YZ=              0.5105

 Normal termination of Gaussian 16 at Wed Nov 29 16:07:49 2023.
