 Gaussian 16, Revision B.01,
 Gaussian 16:  ES64L-G16RevB.01 20-Dec-2017

 -------------------------
 #P B3LYP/6-311+g(d) force
 -------------------------

 -----
 DPGEN
 -----
 Symbolic Z-matrix:
 Charge =  0 Multiplicity = 2

                         Standard orientation:
 ---------------------------------------------------------------------
 Center     Atomic      Atomic             Coordinates (Angstroms)
 Number     Number       Type             X           Y           Z
 ---------------------------------------------------------------------
      1         11           0        0.826419    2.901496   -0.450028
      2         11           0        3.182782    0.147566    0.134531
      3         11           0        1.380846   -2.635776    0.140885
      4         11           0       -0.082707   -0.335495   -1.549678
      5         11           0       -2.586028   -1.883681   -0.145590
      6         11           0       -0.015484    0.282309    1.599831
      7         11           0       -2.705830    1.523580    0.270049
 ---------------------------------------------------------------------

 SCF Done:  E(UB3LYP) =  -1136.13653530     A.U. after   19 cycles

 The electronic state is 2-A.
 Alpha  occ. eigenvalues --  -38.44213 -38.44003 -38.43960 -38.43499 -38.43307
 Alpha  occ. eigenvalues --  -38.42984 -38.42816  -2.20055  -2.19852  -2.19796
 Alpha  occ. eigenvalues --   -2.19368  -2.19142  -2.18972  -2.18823  -1.13726
 Alpha  occ. eigenvalues --   -1.13719  -1.13696  -1.13548  -1.13518  -1.13492
 Alpha  occ. eigenvalues --   -1.13477  -1.13447  -1.13418  -1.13068  -1.13030
 Alpha  occ. eigenvalues --   -1.12994  -1.12821  -1.12811  -1.12776  -1.12706
 Alpha  occ. eigenvalues --   -1.12590  -1.12581  -1.12507  -1.12443  -1.12430
 Alpha  occ. eigenvalues --   -0.18794  -0.13337  -0.12434  -0.10126
 Alpha virt. eigenvalues --   -0.05783  -0.05421  -0.04748  -0.03037  -0.02649
 Alpha virt. eigenvalues --   -0.01841  -0.01761  -0.01310  -0.00498  -0.00481
 Alpha virt. eigenvalues --    0.00047   0.00338   0.00760   0.00837   0.00861

  Beta  occ. eigenvalues --  -38.44208 -38.43992 -38.43955 -38.43493 -38.43294
  Beta  occ. eigenvalues --  -38.42918 -38.42747  -2.20048  -2.19836  -2.19789
  Beta  occ. eigenvalues --   -2.19360  -2.19121  -2.18851  -2.18698  -1.13719
  Beta  occ. eigenvalues --   -1.13709  -1.13681  -1.13533  -1.13498  -1.13475
  Beta  occ. eigenvalues --   -1.13460  -1.13437  -1.13411  -1.13062  -1.13010
  Beta  occ. eigenvalues --   -1.12982  -1.12806  -1.12777  -1.12761  -1.12622
  Beta  occ. eigenvalues --   -1.12501  -1.12496  -1.12416  -1.12359  -1.12335
  Beta  occ. eigenvalues --   -0.18118  -0.13063  -0.12163
  Beta virt. eigenvalues --   -0.06328  -0.05740  -0.05376  -0.04708  -0.02277
  Beta virt. eigenvalues --   -0.01931  -0.01662  -0.01230  -0.00897  -0.00537
  Beta virt. eigenvalues --   -0.00508   0.00181   0.00382   0.00808   0.00842

 Mulliken charges and spin densities:
               1          2
     1  Na  -0.056676  -0.000715
     2  Na   0.162996  -0.001660
     3  Na   0.072216  -0.091611
     4  Na  -0.259473   0.643178
     5  Na   0.123740  -0.095519
     6  Na  -0.225222   0.542047
     7  Na   0.182417   0.004280
 Sum of Mulliken charges =  -0.00000   1.00000

 Dipole moment (field-independent basis, Debye):
    X=             -0.0489    Y=             -0.0532    Z=              0.0423  Tot=              0.0837
 Quadrupole moment (field-independent basis, Debye-Ang):
   XX=            -52.8282   YY=            -60.5706   ZZ=            -77.4163
   XY=              0.3513   XZ=             -0.0421   YZ=             -1.3427

 Normal termination of Gaussian 16 at Tue Nov 28 22:38:34 2023.
