 Gaussian 16, Revision B.01,
 Gaussian 16:  ES64L-G16RevB.01 20-Dec-2017

 -------------------------
 #P B3LYP/6-311+g(d) force
 -------------------------

 -----
 DPGEN
 -----
 Symbolic Z-matrix:
 Charge =  0 Multiplicity = 2

                         Standard orientation:
 ---------------------------------------------------------------------
 Center     Atomic      Atomic             Coordinates (Angstroms)
 Number     Number       Type             X           Y           Z
 ---------------------------------------------------------------------
      1         11           0        3.153528    0.207013   -0.694224
      2         11           0        2.274213   -1.928953    0.740987
      3         11           0       -0.499418   -0.019308   -1.765839
      4         11           0       -0.984602   -0.883583    1.817602
      5         11           0       -2.466073   -2.610915   -0.649072
      6         11           0       -2.591151    2.541214    0.216452
      7         11           0        1.113503    2.694532    0.334094
 ---------------------------------------------------------------------

 SCF Done:  E(UB3LYP) =  -1136.12080873     A.U. after   20 cycles

 The electronic state is 2-A.
 Alpha  occ. eigenvalues --  -38.44539 -38.44377 -38.44293 -38.44073 -38.43914
 Alpha  occ. eigenvalues --  -38.43866 -38.43689  -2.20295  -2.20255  -2.20083
 Alpha  occ. eigenvalues --   -2.19877  -2.19821  -2.19720  -2.19533  -1.14153
 Alpha  occ. eigenvalues --   -1.13969  -1.13948  -1.13929  -1.13882  -1.13863
 Alpha  occ. eigenvalues --   -1.13763  -1.13761  -1.13712  -1.13545  -1.13535
 Alpha  occ. eigenvalues --   -1.13524  -1.13440  -1.13431  -1.13425  -1.13400
 Alpha  occ. eigenvalues --   -1.13362  -1.13333  -1.13209  -1.13169  -1.13156
 Alpha  occ. eigenvalues --   -0.17754  -0.13217  -0.12342  -0.10569
 Alpha virt. eigenvalues --   -0.06361  -0.05652  -0.04498  -0.03462  -0.02933
 Alpha virt. eigenvalues --   -0.02381  -0.01904  -0.01602  -0.00544  -0.00305
 Alpha virt. eigenvalues --   -0.00091   0.00324   0.00469   0.00671   0.00794

  Beta  occ. eigenvalues --  -38.44530 -38.44356 -38.44291 -38.44058 -38.43908
  Beta  occ. eigenvalues --  -38.43800 -38.43634  -2.20279  -2.20219  -2.20081
  Beta  occ. eigenvalues --   -2.19851  -2.19811  -2.19599  -2.19430  -1.14133
  Beta  occ. eigenvalues --   -1.13949  -1.13939  -1.13919  -1.13845  -1.13840
  Beta  occ. eigenvalues --   -1.13763  -1.13747  -1.13710  -1.13522  -1.13513
  Beta  occ. eigenvalues --   -1.13503  -1.13434  -1.13421  -1.13403  -1.13319
  Beta  occ. eigenvalues --   -1.13278  -1.13242  -1.13141  -1.13094  -1.13079
  Beta  occ. eigenvalues --   -0.17128  -0.13019  -0.12092
  Beta virt. eigenvalues --   -0.06915  -0.06271  -0.05400  -0.04218  -0.02941
  Beta virt. eigenvalues --   -0.02377  -0.01810  -0.01555  -0.01442  -0.00479
  Beta virt. eigenvalues --   -0.00263   0.00073   0.00384   0.00588   0.00685

 Mulliken charges and spin densities:
               1          2
     1  Na   0.587094   0.094003
     2  Na  -0.364449   0.046908
     3  Na  -0.096458   0.393792
     4  Na   0.092598   0.435753
     5  Na   0.027815  -0.014637
     6  Na  -0.019280   0.048127
     7  Na  -0.227319  -0.003945
 Sum of Mulliken charges =  -0.00000   1.00000

 Dipole moment (field-independent basis, Debye):
    X=             -0.5431    Y=              0.1980    Z=             -0.0218  Tot=              0.5785
 Quadrupole moment (field-independent basis, Debye-Ang):
   XX=            -57.9472   YY=            -63.8685   ZZ=            -73.9016
   XY=              0.8155   XZ=             -0.1354   YZ=              0.9954

 Normal termination of Gaussian 16 at Tue Dec  5 13:27:33 2023.
