 Gaussian 16, Revision B.01,
 Gaussian 16:  ES64L-G16RevB.01 20-Dec-2017

 -------------------------
 #P B3LYP/6-311+g(d) force
 -------------------------

 -----
 DPGEN
 -----
 Symbolic Z-matrix:
 Charge =  0 Multiplicity = 2

                         Standard orientation:
 ---------------------------------------------------------------------
 Center     Atomic      Atomic             Coordinates (Angstroms)
 Number     Number       Type             X           Y           Z
 ---------------------------------------------------------------------
      1         11           0        2.459566    0.144442    2.315447
      2         11           0        1.803752    2.673316    0.091848
      3         11           0        2.901362    0.461782   -1.943627
      4         11           0        2.784871   -2.325353   -0.033448
      5         11           0        0.000003   -0.472380   -0.451833
      6         11           0       -4.077332   -1.599278   -0.000801
      7         11           0       -5.872221    1.117471    0.022414
 ---------------------------------------------------------------------

 SCF Done:  E(UB3LYP) =  -1136.10469294     A.U. after   31 cycles

 The electronic state is 2-A.
 Alpha  occ. eigenvalues --  -38.46025 -38.45681 -38.45151 -38.44390 -38.44116
 Alpha  occ. eigenvalues --  -38.42598 -38.41781  -2.21777  -2.21509  -2.20920
 Alpha  occ. eigenvalues --   -2.20291  -2.19985  -2.18460  -2.17651  -1.15440
 Alpha  occ. eigenvalues --   -1.15438  -1.15416  -1.15213  -1.15157  -1.15135
 Alpha  occ. eigenvalues --   -1.14586  -1.14585  -1.14555  -1.13962  -1.13937
 Alpha  occ. eigenvalues --   -1.13897  -1.13650  -1.13616  -1.13581  -1.12147
 Alpha  occ. eigenvalues --   -1.12117  -1.12110  -1.11332  -1.11314  -1.11302
 Alpha  occ. eigenvalues --   -0.17588  -0.14097  -0.11145  -0.10798
 Alpha virt. eigenvalues --   -0.07886  -0.05845  -0.03425  -0.03322  -0.03105
 Alpha virt. eigenvalues --   -0.02714  -0.02517  -0.01990  -0.01375  -0.00868
 Alpha virt. eigenvalues --   -0.00480  -0.00121   0.00101   0.00440   0.00497

  Beta  occ. eigenvalues --  -38.46024 -38.45668 -38.45152 -38.44319 -38.44004
  Beta  occ. eigenvalues --  -38.42596 -38.41778  -2.21775  -2.21488  -2.20922
  Beta  occ. eigenvalues --   -2.20160  -2.19777  -2.18463  -2.17651  -1.15439
  Beta  occ. eigenvalues --   -1.15437  -1.15415  -1.15163  -1.15147  -1.15128
  Beta  occ. eigenvalues --   -1.14587  -1.14585  -1.14555  -1.13864  -1.13854
  Beta  occ. eigenvalues --   -1.13801  -1.13510  -1.13481  -1.13428  -1.12154
  Beta  occ. eigenvalues --   -1.12118  -1.12079  -1.11333  -1.11320  -1.11270
  Beta  occ. eigenvalues --   -0.16796  -0.14051  -0.10588
  Beta virt. eigenvalues --   -0.07770  -0.07014  -0.05683  -0.03343  -0.03057
  Beta virt. eigenvalues --   -0.02947  -0.02234  -0.01725  -0.01673  -0.00895
  Beta virt. eigenvalues --   -0.00697  -0.00447  -0.00100   0.00282   0.00493

 Mulliken charges and spin densities:
               1          2
     1  Na  -0.472577   0.407837
     2  Na   0.557647   0.026871
     3  Na   0.683790   0.078040
     4  Na   0.709181  -0.036192
     5  Na  -1.377806   0.515650
     6  Na  -0.100356   0.008788
     7  Na   0.000120  -0.000995
 Sum of Mulliken charges =  -0.00000   1.00000

 Dipole moment (field-independent basis, Debye):
    X=             -2.8385    Y=              0.1024    Z=             -0.1944  Tot=              2.8470
 Quadrupole moment (field-independent basis, Debye-Ang):
   XX=            -46.5795   YY=            -73.9842   ZZ=            -72.6726
   XY=             -7.1570   XZ=             -2.4619   YZ=              0.2677

 Normal termination of Gaussian 16 at Fri Dec  8 19:35:41 2023.
