 Gaussian 16, Revision B.01,
 Gaussian 16:  ES64L-G16RevB.01 20-Dec-2017

 -------------------------
 #P B3LYP/6-311+g(d) force
 -------------------------

 -----
 DPGEN
 -----
 Symbolic Z-matrix:
 Charge =  0 Multiplicity = 2

                         Standard orientation:
 ---------------------------------------------------------------------
 Center     Atomic      Atomic             Coordinates (Angstroms)
 Number     Number       Type             X           Y           Z
 ---------------------------------------------------------------------
      1         11           0        2.478457    1.745017   -0.012640
      2         11           0       -1.310751   -2.560211   -0.304682
      3         11           0       -0.086154   -0.408221    2.156740
      4         11           0        0.260666   -0.113682   -1.491005
      5         11           0       -0.638868    2.746241   -0.077304
      6         11           0       -3.124623    0.454368   -0.146681
      7         11           0        2.421274   -1.863511   -0.124429
 ---------------------------------------------------------------------

 SCF Done:  E(UB3LYP) =  -1136.13747676     A.U. after   19 cycles

 The electronic state is 2-A.
 Alpha  occ. eigenvalues --  -38.43871 -38.43849 -38.43660 -38.43637 -38.43610
 Alpha  occ. eigenvalues --  -38.43207 -38.42978  -2.19705  -2.19698  -2.19524
 Alpha  occ. eigenvalues --   -2.19511  -2.19482  -2.19084  -2.19028  -1.13424
 Alpha  occ. eigenvalues --   -1.13366  -1.13363  -1.13361  -1.13348  -1.13327
 Alpha  occ. eigenvalues --   -1.13224  -1.13204  -1.13183  -1.13178  -1.13160
 Alpha  occ. eigenvalues --   -1.13153  -1.13127  -1.13113  -1.13091  -1.12792
 Alpha  occ. eigenvalues --   -1.12740  -1.12718  -1.12697  -1.12654  -1.12645
 Alpha  occ. eigenvalues --   -0.18826  -0.12959  -0.12677  -0.10758
 Alpha virt. eigenvalues --   -0.05545  -0.05215  -0.04666  -0.03068  -0.02913
 Alpha virt. eigenvalues --   -0.02602  -0.01449  -0.01167  -0.00353  -0.00235
 Alpha virt. eigenvalues --   -0.00014   0.00349   0.00816   0.00878   0.00916

  Beta  occ. eigenvalues --  -38.43869 -38.43843 -38.43657 -38.43600 -38.43533
  Beta  occ. eigenvalues --  -38.43203 -38.42921  -2.19699  -2.19696  -2.19521
  Beta  occ. eigenvalues --   -2.19468  -2.19320  -2.19080  -2.18926  -1.13414
  Beta  occ. eigenvalues --   -1.13367  -1.13352  -1.13343  -1.13335  -1.13326
  Beta  occ. eigenvalues --   -1.13219  -1.13187  -1.13168  -1.13155  -1.13116
  Beta  occ. eigenvalues --   -1.13086  -1.13039  -1.12997  -1.12990  -1.12780
  Beta  occ. eigenvalues --   -1.12722  -1.12716  -1.12627  -1.12581  -1.12574
  Beta  occ. eigenvalues --   -0.18105  -0.12740  -0.12439
  Beta virt. eigenvalues --   -0.06781  -0.05539  -0.05193  -0.04630  -0.02286
  Beta virt. eigenvalues --   -0.02132  -0.01483  -0.01375  -0.01104  -0.00416
  Beta virt. eigenvalues --   -0.00275   0.00148   0.00385   0.00855   0.00895

 Mulliken charges and spin densities:
               1          2
     1  Na   0.224894   0.023277
     2  Na   0.380759  -0.021352
     3  Na  -0.711375   0.786364
     4  Na  -0.547480   0.236862
     5  Na   0.136651  -0.007453
     6  Na   0.110521  -0.005154
     7  Na   0.406029  -0.012545
 Sum of Mulliken charges =  -0.00000   1.00000

 Dipole moment (field-independent basis, Debye):
    X=              0.0531    Y=             -0.2144    Z=              0.2294  Tot=              0.3184
 Quadrupole moment (field-independent basis, Debye-Ang):
   XX=            -56.5435   YY=            -62.2655   ZZ=            -74.5963
   XY=             -0.1647   XZ=              0.7347   YZ=              0.6517

 Normal termination of Gaussian 16 at Fri Dec  8 00:51:22 2023.
