 Gaussian 16, Revision B.01,
 Gaussian 16:  ES64L-G16RevB.01 20-Dec-2017

 -------------------------
 #P B3LYP/6-311+g(d) force
 -------------------------

 -----
 DPGEN
 -----
 Symbolic Z-matrix:
 Charge =  0 Multiplicity = 2

                         Standard orientation:
 ---------------------------------------------------------------------
 Center     Atomic      Atomic             Coordinates (Angstroms)
 Number     Number       Type             X           Y           Z
 ---------------------------------------------------------------------
      1         11           0       -1.756831   -2.382228    0.130831
      2         11           0        3.374612    0.646975    0.020603
      3         11           0        0.032168    2.657744    0.224033
      4         11           0       -0.156978   -0.044033   -1.797941
      5         11           0       -2.883422    1.171208   -0.304420
      6         11           0       -0.327605   -0.213944    1.942549
      7         11           0        1.718055   -1.835722   -0.215655
 ---------------------------------------------------------------------

 SCF Done:  E(UB3LYP) =  -1136.13308152     A.U. after   19 cycles

 The electronic state is 2-A.
 Alpha  occ. eigenvalues --  -38.44300 -38.44088 -38.43562 -38.43553 -38.43260
 Alpha  occ. eigenvalues --  -38.43170 -38.43133  -2.20123  -2.19947  -2.19550
 Alpha  occ. eigenvalues --   -2.19507  -2.19223  -2.19055  -2.19006  -1.13849
 Alpha  occ. eigenvalues --   -1.13772  -1.13747  -1.13632  -1.13604  -1.13582
 Alpha  occ. eigenvalues --   -1.13279  -1.13203  -1.13178  -1.13158  -1.13152
 Alpha  occ. eigenvalues --   -1.13128  -1.12897  -1.12876  -1.12833  -1.12731
 Alpha  occ. eigenvalues --   -1.12708  -1.12693  -1.12682  -1.12678  -1.12619
 Alpha  occ. eigenvalues --   -0.19075  -0.13281  -0.12320  -0.11048
 Alpha virt. eigenvalues --   -0.05948  -0.04872  -0.04228  -0.03334  -0.02897
 Alpha virt. eigenvalues --   -0.02707  -0.01743  -0.01047  -0.00145  -0.00064
 Alpha virt. eigenvalues --    0.00095   0.00336   0.00816   0.00918   0.00941

  Beta  occ. eigenvalues --  -38.44304 -38.44080 -38.43484 -38.43463 -38.43249
  Beta  occ. eigenvalues --  -38.43164 -38.43124  -2.20132  -2.19934  -2.19408
  Beta  occ. eigenvalues --   -2.19342  -2.19207  -2.19047  -2.18994  -1.13857
  Beta  occ. eigenvalues --   -1.13767  -1.13753  -1.13615  -1.13582  -1.13576
  Beta  occ. eigenvalues --   -1.13189  -1.13102  -1.13074  -1.13058  -1.13032
  Beta  occ. eigenvalues --   -1.13015  -1.12875  -1.12841  -1.12815  -1.12716
  Beta  occ. eigenvalues --   -1.12687  -1.12682  -1.12676  -1.12642  -1.12615
  Beta  occ. eigenvalues --   -0.18316  -0.13056  -0.12050
  Beta virt. eigenvalues --   -0.07083  -0.05884  -0.04873  -0.04215  -0.02551
  Beta virt. eigenvalues --   -0.02089  -0.01689  -0.01595  -0.01003  -0.00172
  Beta virt. eigenvalues --    0.00027   0.00110   0.00353   0.00867   0.00921

 Mulliken charges and spin densities:
               1          2
     1  Na   0.388212  -0.060761
     2  Na  -0.232626  -0.119724
     3  Na   0.067872  -0.058789
     4  Na  -0.387697   0.565784
     5  Na   0.189077  -0.072219
     6  Na  -0.565234   0.706429
     7  Na   0.540395   0.039280
 Sum of Mulliken charges =  -0.00000   1.00000

 Dipole moment (field-independent basis, Debye):
    X=             -0.1469    Y=              0.2336    Z=              0.0563  Tot=              0.2816
 Quadrupole moment (field-independent basis, Debye-Ang):
   XX=            -54.1285   YY=            -66.7914   ZZ=            -72.9834
   XY=              1.7254   XZ=              0.7605   YZ=              0.3330

 Normal termination of Gaussian 16 at Thu Dec  7 11:14:58 2023.
