 Gaussian 16, Revision B.01,
 Gaussian 16:  ES64L-G16RevB.01 20-Dec-2017

 -------------------------
 #P B3LYP/6-311+g(d) force
 -------------------------

 -----
 DPGEN
 -----
 Symbolic Z-matrix:
 Charge =  0 Multiplicity = 2

                         Standard orientation:
 ---------------------------------------------------------------------
 Center     Atomic      Atomic             Coordinates (Angstroms)
 Number     Number       Type             X           Y           Z
 ---------------------------------------------------------------------
      1         11           0        0.021997    0.216655    1.807705
      2         11           0       -0.436107   -2.084558    0.116837
      3         11           0        2.434754   -1.070477    0.118051
      4         11           0        0.224352   -0.143131   -1.801835
      5         11           0       -2.608267   -0.541724   -0.066065
      6         11           0       -1.247665    1.932818   -0.082947
      7         11           0        1.610937    1.690416   -0.091746
 ---------------------------------------------------------------------

 SCF Done:  E(UB3LYP) =  -1136.08836092     A.U. after   19 cycles

 The electronic state is 2-A.
 Alpha  occ. eigenvalues --  -38.44107 -38.44094 -38.44085 -38.43622 -38.43482
 Alpha  occ. eigenvalues --  -38.43397 -38.43302  -2.20303  -2.20293  -2.20179
 Alpha  occ. eigenvalues --   -2.19675  -2.19627  -2.19562  -2.19435  -1.14164
 Alpha  occ. eigenvalues --   -1.14089  -1.14028  -1.14022  -1.13989  -1.13961
 Alpha  occ. eigenvalues --   -1.13914  -1.13855  -1.13749  -1.13493  -1.13387
 Alpha  occ. eigenvalues --   -1.13354  -1.13299  -1.13242  -1.13175  -1.13164
 Alpha  occ. eigenvalues --   -1.13152  -1.13075  -1.13071  -1.13044  -1.12967
 Alpha  occ. eigenvalues --   -0.21532  -0.13930  -0.12856  -0.12240
 Alpha virt. eigenvalues --   -0.05251  -0.04363  -0.04004  -0.03739  -0.03170
 Alpha virt. eigenvalues --   -0.02880  -0.01136  -0.00480  -0.00095   0.00348
 Alpha virt. eigenvalues --    0.00740   0.00766   0.01029   0.01138   0.01186

  Beta  occ. eigenvalues --  -38.44100 -38.43999 -38.43992 -38.43613 -38.43467
  Beta  occ. eigenvalues --  -38.43380 -38.43288  -2.20171  -2.20132  -2.20124
  Beta  occ. eigenvalues --   -2.19662  -2.19607  -2.19539  -2.19417  -1.14116
  Beta  occ. eigenvalues --   -1.14027  -1.13941  -1.13926  -1.13897  -1.13868
  Beta  occ. eigenvalues --   -1.13801  -1.13772  -1.13694  -1.13484  -1.13372
  Beta  occ. eigenvalues --   -1.13342  -1.13244  -1.13169  -1.13160  -1.13147
  Beta  occ. eigenvalues --   -1.13081  -1.13069  -1.13061  -1.12976  -1.12961
  Beta  occ. eigenvalues --   -0.20690  -0.13564  -0.12490
  Beta virt. eigenvalues --   -0.08049  -0.05274  -0.04355  -0.03972  -0.02771
  Beta virt. eigenvalues --   -0.02256  -0.01790  -0.01060  -0.00438   0.00053
  Beta virt. eigenvalues --    0.00374   0.00716   0.00745   0.01055   0.01149

 Mulliken charges and spin densities:
               1          2
     1  Na  -0.275128   0.463344
     2  Na   0.210388   0.092806
     3  Na   0.066212  -0.040174
     4  Na  -0.266117   0.461843
     5  Na  -0.136063  -0.060087
     6  Na   0.190930   0.048159
     7  Na   0.209778   0.034108
 Sum of Mulliken charges =  -0.00000   1.00000

 Dipole moment (field-independent basis, Debye):
    X=              0.0778    Y=             -0.0761    Z=              0.0013  Tot=              0.1088
 Quadrupole moment (field-independent basis, Debye-Ang):
   XX=            -59.3288   YY=            -70.0492   ZZ=            -68.4249
   XY=             -0.6292   XZ=              0.5048   YZ=             -0.6538

 Normal termination of Gaussian 16 at Sat Dec  9 05:30:52 2023.
