 Gaussian 16, Revision B.01,
 Gaussian 16:  ES64L-G16RevB.01 20-Dec-2017

 -------------------------
 #P B3LYP/6-311+g(d) force
 -------------------------

 -----
 DPGEN
 -----
 Symbolic Z-matrix:
 Charge =  0 Multiplicity = 2

                         Standard orientation:
 ---------------------------------------------------------------------
 Center     Atomic      Atomic             Coordinates (Angstroms)
 Number     Number       Type             X           Y           Z
 ---------------------------------------------------------------------
      1         11           0        2.488526   -0.044633   -0.064657
      2         11           0        3.048796   -3.099215    0.528508
      3         11           0       -2.717988   -0.232224   -1.084296
      4         11           0        1.834675    3.713491    0.807599
      5         11           0       -4.633540   -0.705828    1.286826
      6         11           0        0.289990   -1.732691   -0.623279
      7         11           0       -0.310458    2.101100   -0.850701
 ---------------------------------------------------------------------

 SCF Done:  E(UB3LYP) =  -1136.12009798     A.U. after   21 cycles

 The electronic state is 2-A.
 Alpha  occ. eigenvalues --  -38.44637 -38.44405 -38.44270 -38.43949 -38.43703
 Alpha  occ. eigenvalues --  -38.43650 -38.42968  -2.20563  -2.20260  -2.20215
 Alpha  occ. eigenvalues --   -2.19782  -2.19583  -2.19469  -2.18861  -1.14438
 Alpha  occ. eigenvalues --   -1.14238  -1.14161  -1.13926  -1.13905  -1.13897
 Alpha  occ. eigenvalues --   -1.13875  -1.13865  -1.13757  -1.13439  -1.13405
 Alpha  occ. eigenvalues --   -1.13403  -1.13280  -1.13259  -1.13252  -1.13119
 Alpha  occ. eigenvalues --   -1.13114  -1.13070  -1.12541  -1.12529  -1.12518
 Alpha  occ. eigenvalues --   -0.17566  -0.13993  -0.13018  -0.10551
 Alpha virt. eigenvalues --   -0.05966  -0.05411  -0.04334  -0.04175  -0.02616
 Alpha virt. eigenvalues --   -0.02103  -0.01686  -0.01600  -0.01252  -0.00696
 Alpha virt. eigenvalues --    0.00000   0.00144   0.00212   0.00520   0.00619

  Beta  occ. eigenvalues --  -38.44633 -38.44387 -38.44238 -38.43849 -38.43687
  Beta  occ. eigenvalues --  -38.43622 -38.42959  -2.20558  -2.20226  -2.20160
  Beta  occ. eigenvalues --   -2.19595  -2.19558  -2.19415  -2.18856  -1.14416
  Beta  occ. eigenvalues --   -1.14233  -1.14154  -1.13900  -1.13882  -1.13867
  Beta  occ. eigenvalues --   -1.13852  -1.13831  -1.13701  -1.13319  -1.13277
  Beta  occ. eigenvalues --   -1.13275  -1.13258  -1.13250  -1.13213  -1.13082
  Beta  occ. eigenvalues --   -1.13074  -1.13036  -1.12548  -1.12529  -1.12441
  Beta  occ. eigenvalues --   -0.17039  -0.13487  -0.12571
  Beta virt. eigenvalues --   -0.07109  -0.05699  -0.05128  -0.04175  -0.03716
  Beta virt. eigenvalues --   -0.02484  -0.01915  -0.01417  -0.01124  -0.00998
  Beta virt. eigenvalues --   -0.00380   0.00219   0.00349   0.00390   0.00644

 Mulliken charges and spin densities:
               1          2
     1  Na  -0.376105   0.203955
     2  Na   1.303081   0.152593
     3  Na  -0.156233  -0.386820
     4  Na   0.705851   0.192046
     5  Na   0.191477   0.563314
     6  Na  -1.059884   0.136277
     7  Na  -0.608186   0.138636
 Sum of Mulliken charges =  -0.00000   1.00000

 Dipole moment (field-independent basis, Debye):
    X=              1.6795    Y=             -0.8279    Z=              0.3661  Tot=              1.9079
 Quadrupole moment (field-independent basis, Debye-Ang):
   XX=            -68.8936   YY=            -59.7610   ZZ=            -69.0151
   XY=             -5.2306   XZ=              1.7851   YZ=             -0.8490

 Normal termination of Gaussian 16 at Tue Nov 28 22:51:52 2023.
