 Gaussian 16, Revision B.01,
 Gaussian 16:  ES64L-G16RevB.01 20-Dec-2017

 -------------------------
 #P B3LYP/6-311+g(d) force
 -------------------------

 -----
 DPGEN
 -----
 Symbolic Z-matrix:
 Charge =  0 Multiplicity = 2

                         Standard orientation:
 ---------------------------------------------------------------------
 Center     Atomic      Atomic             Coordinates (Angstroms)
 Number     Number       Type             X           Y           Z
 ---------------------------------------------------------------------
      1         11           0       -2.661922    1.963223   -0.161020
      2         11           0       -0.037455    0.118487   -1.662658
      3         11           0        0.510451   -2.475121    0.087359
      4         11           0        1.635352    2.338905    0.052614
      5         11           0       -2.896547   -1.526794    0.038167
      6         11           0        0.416744    0.184771    2.102899
      7         11           0        3.033377   -0.603471   -0.457361
 ---------------------------------------------------------------------

 SCF Done:  E(UB3LYP) =  -1136.13262392     A.U. after   20 cycles

 The electronic state is 2-A.
 Alpha  occ. eigenvalues --  -38.44199 -38.44164 -38.44112 -38.43781 -38.43477
 Alpha  occ. eigenvalues --  -38.43321 -38.42630  -2.20064  -2.20001  -2.19896
 Alpha  occ. eigenvalues --   -2.19690  -2.19455  -2.19210  -2.18561  -1.13743
 Alpha  occ. eigenvalues --   -1.13722  -1.13707  -1.13677  -1.13660  -1.13650
 Alpha  occ. eigenvalues --   -1.13576  -1.13548  -1.13532  -1.13359  -1.13332
 Alpha  occ. eigenvalues --   -1.13298  -1.13156  -1.13118  -1.13065  -1.12885
 Alpha  occ. eigenvalues --   -1.12872  -1.12832  -1.12259  -1.12222  -1.12186
 Alpha  occ. eigenvalues --   -0.18846  -0.13364  -0.12028  -0.10994
 Alpha virt. eigenvalues --   -0.05873  -0.05575  -0.03960  -0.03321  -0.02827
 Alpha virt. eigenvalues --   -0.02691  -0.01781  -0.01155  -0.00369  -0.00101
 Alpha virt. eigenvalues --   -0.00025   0.00323   0.00717   0.00840   0.00928

  Beta  occ. eigenvalues --  -38.44201 -38.44149 -38.44113 -38.43679 -38.43417
  Beta  occ. eigenvalues --  -38.43311 -38.42620  -2.20040  -2.20006  -2.19899
  Beta  occ. eigenvalues --   -2.19501  -2.19345  -2.19198  -2.18548  -1.13727
  Beta  occ. eigenvalues --   -1.13705  -1.13672  -1.13668  -1.13665  -1.13653
  Beta  occ. eigenvalues --   -1.13567  -1.13551  -1.13536  -1.13238  -1.13193
  Beta  occ. eigenvalues --   -1.13168  -1.13083  -1.13044  -1.12976  -1.12873
  Beta  occ. eigenvalues --   -1.12829  -1.12824  -1.12253  -1.12187  -1.12168
  Beta  occ. eigenvalues --   -0.18084  -0.13164  -0.11766
  Beta virt. eigenvalues --   -0.07003  -0.05791  -0.05575  -0.03963  -0.02604
  Beta virt. eigenvalues --   -0.01983  -0.01752  -0.01554  -0.01103  -0.00416
  Beta virt. eigenvalues --   -0.00102   0.00109   0.00358   0.00793   0.00836

 Mulliken charges and spin densities:
               1          2
     1  Na   0.042102  -0.105546
     2  Na  -0.267752   0.404590
     3  Na   0.103894   0.036943
     4  Na   0.176944  -0.058160
     5  Na  -0.044822  -0.069879
     6  Na  -0.494075   0.669668
     7  Na   0.483709   0.122385
 Sum of Mulliken charges =  -0.00000   1.00000

 Dipole moment (field-independent basis, Debye):
    X=             -0.2754    Y=              0.1640    Z=              0.1045  Tot=              0.3371
 Quadrupole moment (field-independent basis, Debye-Ang):
   XX=            -53.4500   YY=            -67.1477   ZZ=            -73.2070
   XY=              0.0588   XZ=             -1.4130   YZ=             -0.1181

 Normal termination of Gaussian 16 at Thu Dec  7 09:26:14 2023.
