 Gaussian 16, Revision B.01,
 Gaussian 16:  ES64L-G16RevB.01 20-Dec-2017

 -------------------------
 #P B3LYP/6-311+g(d) force
 -------------------------

 -----
 DPGEN
 -----
 Symbolic Z-matrix:
 Charge =  0 Multiplicity = 2

                         Standard orientation:
 ---------------------------------------------------------------------
 Center     Atomic      Atomic             Coordinates (Angstroms)
 Number     Number       Type             X           Y           Z
 ---------------------------------------------------------------------
      1         11           0        0.502050   -0.701406   -1.318329
      2         11           0       -0.233335   -0.082022    2.125378
      3         11           0        2.973492   -1.736769    0.083565
      4         11           0       -2.132309   -1.969725   -0.392155
      5         11           0       -3.315911    0.695153    0.204280
      6         11           0        2.648546    1.708654    0.142185
      7         11           0       -0.442533    2.086115   -0.844925
 ---------------------------------------------------------------------

 SCF Done:  E(UB3LYP) =  -1136.11943050     A.U. after   22 cycles

 The electronic state is 2-A.
 Alpha  occ. eigenvalues --  -38.45113 -38.44284 -38.44246 -38.44187 -38.43889
 Alpha  occ. eigenvalues --  -38.43265 -38.42536  -2.20978  -2.20117  -2.20103
 Alpha  occ. eigenvalues --   -2.20036  -2.19792  -2.19320  -2.18477  -1.14687
 Alpha  occ. eigenvalues --   -1.14624  -1.14616  -1.13840  -1.13783  -1.13768
 Alpha  occ. eigenvalues --   -1.13755  -1.13729  -1.13715  -1.13709  -1.13695
 Alpha  occ. eigenvalues --   -1.13667  -1.13507  -1.13445  -1.13415  -1.13026
 Alpha  occ. eigenvalues --   -1.12961  -1.12937  -1.12191  -1.12107  -1.12090
 Alpha  occ. eigenvalues --   -0.19000  -0.14090  -0.11489  -0.10928
 Alpha virt. eigenvalues --   -0.06715  -0.05654  -0.03803  -0.03389  -0.02578
 Alpha virt. eigenvalues --   -0.02409  -0.02316  -0.01316  -0.00346  -0.00141
 Alpha virt. eigenvalues --    0.00128   0.00258   0.00612   0.00673   0.00753

  Beta  occ. eigenvalues --  -38.45110 -38.44287 -38.44186 -38.44151 -38.43876
  Beta  occ. eigenvalues --  -38.43209 -38.42511  -2.20976  -2.20124  -2.20037
  Beta  occ. eigenvalues --   -2.19927  -2.19773  -2.19220  -2.18435  -1.14690
  Beta  occ. eigenvalues --   -1.14620  -1.14594  -1.13840  -1.13773  -1.13751
  Beta  occ. eigenvalues --   -1.13708  -1.13685  -1.13671  -1.13664  -1.13605
  Beta  occ. eigenvalues --   -1.13585  -1.13485  -1.13437  -1.13379  -1.12959
  Beta  occ. eigenvalues --   -1.12878  -1.12863  -1.12158  -1.12067  -1.12053
  Beta  occ. eigenvalues --   -0.18250  -0.13906  -0.11271
  Beta virt. eigenvalues --   -0.06959  -0.06564  -0.05658  -0.03363  -0.02997
  Beta virt. eigenvalues --   -0.02222  -0.01777  -0.01474  -0.01210  -0.00365
  Beta virt. eigenvalues --    0.00038   0.00148   0.00278   0.00709   0.00730

 Mulliken charges and spin densities:
               1          2
     1  Na  -0.214223  -0.228139
     2  Na  -0.618021   0.589266
     3  Na   0.129561   0.090481
     4  Na   0.387959   0.269512
     5  Na   0.101848   0.042595
     6  Na   0.110612   0.038568
     7  Na   0.102265   0.197717
 Sum of Mulliken charges =  -0.00000   1.00000

 Dipole moment (field-independent basis, Debye):
    X=             -0.0459    Y=              0.0908    Z=              0.6194  Tot=              0.6277
 Quadrupole moment (field-independent basis, Debye-Ang):
   XX=            -47.1857   YY=            -72.0619   ZZ=            -73.9004
   XY=             -0.3103   XZ=              1.3536   YZ=             -0.0559

 Normal termination of Gaussian 16 at Tue Dec  5 23:57:48 2023.
