 Gaussian 16, Revision B.01,
 Gaussian 16:  ES64L-G16RevB.01 20-Dec-2017

 -------------------------
 #P B3LYP/6-311+g(d) force
 -------------------------

 -----
 DPGEN
 -----
 Symbolic Z-matrix:
 Charge =  0 Multiplicity = 2

                         Standard orientation:
 ---------------------------------------------------------------------
 Center     Atomic      Atomic             Coordinates (Angstroms)
 Number     Number       Type             X           Y           Z
 ---------------------------------------------------------------------
      1         11           0        0.182939    0.045663    0.150515
      2         11           0        2.737191   -2.147876    1.062848
      3         11           0        3.791738    0.154667   -0.646514
      4         11           0        0.938098    3.177302   -0.341861
      5         11           0       -2.432173    2.305637    0.365666
      6         11           0       -3.191978   -0.642600    0.404608
      7         11           0       -2.025814   -2.892792   -0.995263
 ---------------------------------------------------------------------

 SCF Done:  E(UB3LYP) =  -1136.11946953     A.U. after   21 cycles

 The electronic state is 2-A.
 Alpha  occ. eigenvalues --  -38.45274 -38.44135 -38.43980 -38.43733 -38.43487
 Alpha  occ. eigenvalues --  -38.43237 -38.43203  -2.21090  -2.19989  -2.19893
 Alpha  occ. eigenvalues --   -2.19689  -2.19354  -2.19137  -2.19040  -1.14776
 Alpha  occ. eigenvalues --   -1.14761  -1.14723  -1.13650  -1.13636  -1.13623
 Alpha  occ. eigenvalues --   -1.13621  -1.13544  -1.13533  -1.13478  -1.13356
 Alpha  occ. eigenvalues --   -1.13332  -1.12989  -1.12978  -1.12953  -1.12809
 Alpha  occ. eigenvalues --   -1.12784  -1.12748  -1.12706  -1.12699  -1.12651
 Alpha  occ. eigenvalues --   -0.17417  -0.14464  -0.12700  -0.09961
 Alpha virt. eigenvalues --   -0.06562  -0.05360  -0.04535  -0.03058  -0.02872
 Alpha virt. eigenvalues --   -0.02674  -0.01679  -0.01376  -0.01105  -0.00349
 Alpha virt. eigenvalues --    0.00028   0.00153   0.00349   0.00623   0.00710

  Beta  occ. eigenvalues --  -38.45271 -38.44095 -38.43984 -38.43708 -38.43434
  Beta  occ. eigenvalues --  -38.43183 -38.43166  -2.21090  -2.19914  -2.19900
  Beta  occ. eigenvalues --   -2.19653  -2.19254  -2.19040  -2.18971  -1.14767
  Beta  occ. eigenvalues --   -1.14766  -1.14697  -1.13626  -1.13600  -1.13586
  Beta  occ. eigenvalues --   -1.13571  -1.13546  -1.13537  -1.13386  -1.13338
  Beta  occ. eigenvalues --   -1.13317  -1.12922  -1.12909  -1.12887  -1.12740
  Beta  occ. eigenvalues --   -1.12721  -1.12680  -1.12656  -1.12649  -1.12601
  Beta  occ. eigenvalues --   -0.17070  -0.13819  -0.12221
  Beta virt. eigenvalues --   -0.06673  -0.06338  -0.05042  -0.04338  -0.02747
  Beta virt. eigenvalues --   -0.02466  -0.02363  -0.01458  -0.01114  -0.00859
  Beta virt. eigenvalues --   -0.00146   0.00245   0.00358   0.00457   0.00710

 Mulliken charges and spin densities:
               1          2
     1  Na  -3.730497  -0.083745
     2  Na   0.894112   0.211612
     3  Na   1.466446  -0.030729
     4  Na   0.292412   0.154472
     5  Na   0.354735   0.328112
     6  Na   0.298122   0.186735
     7  Na   0.424669   0.233543
 Sum of Mulliken charges =  -0.00000   1.00000

 Dipole moment (field-independent basis, Debye):
    X=              1.4903    Y=             -0.1185    Z=             -0.3138  Tot=              1.5276
 Quadrupole moment (field-independent basis, Debye-Ang):
   XX=            -61.1770   YY=            -66.4531   ZZ=            -69.8740
   XY=              1.7575   XZ=             -2.9425   YZ=             -1.8116

 Normal termination of Gaussian 16 at Sat Dec  9 06:40:42 2023.
