 Gaussian 16, Revision B.01,
 Gaussian 16:  ES64L-G16RevB.01 20-Dec-2017

 -------------------------
 #P B3LYP/6-311+g(d) force
 -------------------------

 -----
 DPGEN
 -----
 Symbolic Z-matrix:
 Charge =  0 Multiplicity = 2

                         Standard orientation:
 ---------------------------------------------------------------------
 Center     Atomic      Atomic             Coordinates (Angstroms)
 Number     Number       Type             X           Y           Z
 ---------------------------------------------------------------------
      1         11           0       -0.265687   -0.247579    1.977598
      2         11           0       -0.091560    0.298734   -1.658785
      3         11           0       -2.960370   -1.032897    0.047196
      4         11           0        2.832695   -0.902312   -0.105244
      5         11           0       -1.869143    2.252567   -0.208780
      6         11           0        2.017943    2.255904    0.260801
      7         11           0        0.336122   -2.624417   -0.312787
 ---------------------------------------------------------------------

 SCF Done:  E(UB3LYP) =  -1136.13601114     A.U. after   19 cycles

 The electronic state is 2-A.
 Alpha  occ. eigenvalues --  -38.44065 -38.43750 -38.43687 -38.43552 -38.43544
 Alpha  occ. eigenvalues --  -38.43178 -38.42987  -2.19911  -2.19650  -2.19560
 Alpha  occ. eigenvalues --   -2.19472  -2.19382  -2.19193  -2.18918  -1.13589
 Alpha  occ. eigenvalues --   -1.13573  -1.13552  -1.13359  -1.13319  -1.13314
 Alpha  occ. eigenvalues --   -1.13298  -1.13212  -1.13167  -1.13146  -1.13100
 Alpha  occ. eigenvalues --   -1.13087  -1.13054  -1.13041  -1.13018  -1.12871
 Alpha  occ. eigenvalues --   -1.12839  -1.12794  -1.12596  -1.12569  -1.12541
 Alpha  occ. eigenvalues --   -0.19054  -0.13326  -0.12400  -0.10880
 Alpha virt. eigenvalues --   -0.05608  -0.05271  -0.04345  -0.03317  -0.02894
 Alpha virt. eigenvalues --   -0.02533  -0.01551  -0.01050  -0.00243  -0.00085
 Alpha virt. eigenvalues --   -0.00005   0.00358   0.00802   0.00892   0.00947

  Beta  occ. eigenvalues --  -38.44061 -38.43746 -38.43679 -38.43540 -38.43463
  Beta  occ. eigenvalues --  -38.43109 -38.42975  -2.19906  -2.19647  -2.19548
  Beta  occ. eigenvalues --   -2.19377  -2.19308  -2.19067  -2.18901  -1.13579
  Beta  occ. eigenvalues --   -1.13557  -1.13547  -1.13357  -1.13316  -1.13297
  Beta  occ. eigenvalues --   -1.13270  -1.13185  -1.13164  -1.13051  -1.13039
  Beta  occ. eigenvalues --   -1.13023  -1.13016  -1.12986  -1.12963  -1.12788
  Beta  occ. eigenvalues --   -1.12749  -1.12706  -1.12584  -1.12541  -1.12513
  Beta  occ. eigenvalues --   -0.18316  -0.13069  -0.12144
  Beta virt. eigenvalues --   -0.06950  -0.05562  -0.05255  -0.04332  -0.02501
  Beta virt. eigenvalues --   -0.02112  -0.01482  -0.01449  -0.00982  -0.00290
  Beta virt. eigenvalues --   -0.00130   0.00129   0.00381   0.00862   0.00886

 Mulliken charges and spin densities:
               1          2
     1  Na  -0.587545   0.761874
     2  Na  -0.315286   0.444074
     3  Na   0.275934  -0.044313
     4  Na   0.048388  -0.031538
     5  Na   0.176071  -0.089605
     6  Na   0.081416  -0.029997
     7  Na   0.321021  -0.010495
 Sum of Mulliken charges =  -0.00000   1.00000

 Dipole moment (field-independent basis, Debye):
    X=             -0.3080    Y=              0.1303    Z=              0.2009  Tot=              0.3901
 Quadrupole moment (field-independent basis, Debye-Ang):
   XX=            -55.7074   YY=            -64.3739   ZZ=            -73.7503
   XY=              0.6715   XZ=              0.3692   YZ=              1.2452

 Normal termination of Gaussian 16 at Fri Dec  8 01:27:39 2023.
