 Gaussian 16, Revision B.01,
 Gaussian 16:  ES64L-G16RevB.01 20-Dec-2017

 -------------------------
 #P B3LYP/6-311+g(d) force
 -------------------------

 -----
 DPGEN
 -----
 Symbolic Z-matrix:
 Charge =  0 Multiplicity = 2

                         Standard orientation:
 ---------------------------------------------------------------------
 Center     Atomic      Atomic             Coordinates (Angstroms)
 Number     Number       Type             X           Y           Z
 ---------------------------------------------------------------------
      1         11           0        3.822245   -0.930468    0.407299
      2         11           0       -2.396871   -1.589717   -1.546059
      3         11           0        1.997557    2.200226   -1.445196
      4         11           0        0.851776   -2.341449   -0.422204
      5         11           0       -0.952017   -0.912587    2.131105
      6         11           0       -3.555466    1.149688    0.050382
      7         11           0        0.232776    2.424307    0.824675
 ---------------------------------------------------------------------

 SCF Done:  E(UB3LYP) =  -1136.11478674     A.U. after   23 cycles

 The electronic state is 2-A.
 Alpha  occ. eigenvalues --  -38.45489 -38.45262 -38.44150 -38.44021 -38.43972
 Alpha  occ. eigenvalues --  -38.43490 -38.43418  -2.21228  -2.21025  -2.19982
 Alpha  occ. eigenvalues --   -2.19842  -2.19798  -2.19328  -2.19240  -1.14906
 Alpha  occ. eigenvalues --   -1.14887  -1.14868  -1.14702  -1.14684  -1.14665
 Alpha  occ. eigenvalues --   -1.13648  -1.13616  -1.13594  -1.13581  -1.13506
 Alpha  occ. eigenvalues --   -1.13484  -1.13472  -1.13440  -1.13402  -1.13001
 Alpha  occ. eigenvalues --   -1.12976  -1.12944  -1.12922  -1.12915  -1.12873
 Alpha  occ. eigenvalues --   -0.17087  -0.13331  -0.12109  -0.10731
 Alpha virt. eigenvalues --   -0.07296  -0.05061  -0.04341  -0.03607  -0.03234
 Alpha virt. eigenvalues --   -0.02509  -0.02384  -0.01235  -0.00542  -0.00281
 Alpha virt. eigenvalues --   -0.00151  -0.00135   0.00154   0.00500   0.00701

  Beta  occ. eigenvalues --  -38.45498 -38.45251 -38.44057 -38.43965 -38.43954
  Beta  occ. eigenvalues --  -38.43483 -38.43412  -2.21244  -2.21010  -2.19811
  Beta  occ. eigenvalues --   -2.19764  -2.19738  -2.19318  -2.19230  -1.14915
  Beta  occ. eigenvalues --   -1.14897  -1.14878  -1.14685  -1.14675  -1.14639
  Beta  occ. eigenvalues --   -1.13562  -1.13532  -1.13493  -1.13475  -1.13435
  Beta  occ. eigenvalues --   -1.13415  -1.13408  -1.13402  -1.13378  -1.12993
  Beta  occ. eigenvalues --   -1.12961  -1.12928  -1.12914  -1.12891  -1.12872
  Beta  occ. eigenvalues --   -0.16438  -0.13022  -0.11985
  Beta virt. eigenvalues --   -0.07218  -0.07024  -0.04783  -0.03845  -0.03470
  Beta virt. eigenvalues --   -0.02605  -0.02339  -0.01704  -0.01142  -0.00401
  Beta virt. eigenvalues --   -0.00133  -0.00123   0.00136   0.00228   0.00666

 Mulliken charges and spin densities:
               1          2
     1  Na   0.191482  -0.062677
     2  Na   0.020548   0.314883
     3  Na   0.019681   0.091874
     4  Na  -0.159254   0.163223
     5  Na  -0.074879   0.405515
     6  Na   0.171709   0.055318
     7  Na  -0.169287   0.031865
 Sum of Mulliken charges =  -0.00000   1.00000

 Dipole moment (field-independent basis, Debye):
    X=              0.1941    Y=             -0.0033    Z=              0.1676  Tot=              0.2565
 Quadrupole moment (field-independent basis, Debye-Ang):
   XX=            -53.3687   YY=            -73.9904   ZZ=            -69.6378
   XY=             -4.2811   XZ=              0.0020   YZ=             -0.2550

 Normal termination of Gaussian 16 at Sun Dec  3 14:24:42 2023.
