 Gaussian 16, Revision B.01,
 Gaussian 16:  ES64L-G16RevB.01 20-Dec-2017

 -------------------------
 #P B3LYP/6-311+g(d) force
 -------------------------

 -----
 DPGEN
 -----
 Symbolic Z-matrix:
 Charge =  0 Multiplicity = 2

                         Standard orientation:
 ---------------------------------------------------------------------
 Center     Atomic      Atomic             Coordinates (Angstroms)
 Number     Number       Type             X           Y           Z
 ---------------------------------------------------------------------
      1         11           0       -0.791876   -2.882895   -0.168035
      2         11           0       -0.129731   -0.218168    2.343097
      3         11           0        2.251637    2.045618   -0.310965
      4         11           0       -1.461400    3.103111    0.047243
      5         11           0        2.939437   -1.436325   -0.133961
      6         11           0       -3.015705   -0.610119   -0.528318
      7         11           0        0.207637   -0.001222   -1.249060
 ---------------------------------------------------------------------

 SCF Done:  E(UB3LYP) =  -1136.13197144     A.U. after   19 cycles

 The electronic state is 2-A.
 Alpha  occ. eigenvalues --  -38.44029 -38.43933 -38.43892 -38.43883 -38.43858
 Alpha  occ. eigenvalues --  -38.43634 -38.42961  -2.19869  -2.19734  -2.19700
 Alpha  occ. eigenvalues --   -2.19694  -2.19690  -2.19504  -2.18996  -1.13611
 Alpha  occ. eigenvalues --   -1.13526  -1.13470  -1.13431  -1.13398  -1.13384
 Alpha  occ. eigenvalues --   -1.13371  -1.13368  -1.13357  -1.13344  -1.13343
 Alpha  occ. eigenvalues --   -1.13337  -1.13333  -1.13316  -1.13305  -1.13196
 Alpha  occ. eigenvalues --   -1.13154  -1.13126  -1.12686  -1.12660  -1.12608
 Alpha  occ. eigenvalues --   -0.18256  -0.13017  -0.12250  -0.10637
 Alpha virt. eigenvalues --   -0.05584  -0.05294  -0.05066  -0.02987  -0.02687
 Alpha virt. eigenvalues --   -0.02653  -0.01550  -0.01384  -0.00624  -0.00554
 Alpha virt. eigenvalues --   -0.00037   0.00307   0.00771   0.00813   0.00825

  Beta  occ. eigenvalues --  -38.44022 -38.43935 -38.43881 -38.43879 -38.43739
  Beta  occ. eigenvalues --  -38.43628 -38.42925  -2.19859  -2.19712  -2.19699
  Beta  occ. eigenvalues --   -2.19696  -2.19497  -2.19473  -2.18933  -1.13600
  Beta  occ. eigenvalues --   -1.13509  -1.13466  -1.13416  -1.13379  -1.13377
  Beta  occ. eigenvalues --   -1.13361  -1.13354  -1.13348  -1.13344  -1.13342
  Beta  occ. eigenvalues --   -1.13329  -1.13202  -1.13186  -1.13165  -1.13150
  Beta  occ. eigenvalues --   -1.13134  -1.13110  -1.12628  -1.12613  -1.12564
  Beta  occ. eigenvalues --   -0.17576  -0.12759  -0.12113
  Beta virt. eigenvalues --   -0.06617  -0.05567  -0.05259  -0.04984  -0.02260
  Beta virt. eigenvalues --   -0.02024  -0.01529  -0.01471  -0.01288  -0.00639
  Beta virt. eigenvalues --   -0.00594   0.00152   0.00362   0.00812   0.00830

 Mulliken charges and spin densities:
               1          2
     1  Na   0.424427   0.100395
     2  Na  -0.611297   0.789308
     3  Na   0.284012   0.039117
     4  Na   0.018079   0.003836
     5  Na   0.240875   0.046789
     6  Na   0.214949   0.069785
     7  Na  -0.571046  -0.049230
 Sum of Mulliken charges =  -0.00000   1.00000

 Dipole moment (field-independent basis, Debye):
    X=              0.1201    Y=             -0.0023    Z=              0.1788  Tot=              0.2155
 Quadrupole moment (field-independent basis, Debye-Ang):
   XX=            -57.6546   YY=            -59.2797   ZZ=            -75.9208
   XY=             -1.0410   XZ=              0.7009   YZ=              0.4921

 Normal termination of Gaussian 16 at Thu Dec  7 09:12:07 2023.
