 Gaussian 16, Revision B.01,
 Gaussian 16:  ES64L-G16RevB.01 20-Dec-2017

 -------------------------
 #P B3LYP/6-311+g(d) force
 -------------------------

 -----
 DPGEN
 -----
 Symbolic Z-matrix:
 Charge =  0 Multiplicity = 2

                         Standard orientation:
 ---------------------------------------------------------------------
 Center     Atomic      Atomic             Coordinates (Angstroms)
 Number     Number       Type             X           Y           Z
 ---------------------------------------------------------------------
      1         11           0       -2.336285   -1.786496    0.246286
      2         11           0       -2.661665    1.532269    0.434524
      3         11           0        1.028243    2.576764   -0.529646
      4         11           0        0.895742   -2.422230   -0.650978
      5         11           0        0.342211   -0.011962    2.081621
      6         11           0        3.556999   -0.109302    0.192124
      7         11           0       -0.825245    0.220958   -1.773930
 ---------------------------------------------------------------------

 SCF Done:  E(UB3LYP) =  -1136.13409564     A.U. after   19 cycles

 The electronic state is 2-A.
 Alpha  occ. eigenvalues --  -38.44590 -38.44170 -38.43946 -38.43484 -38.43377
 Alpha  occ. eigenvalues --  -38.43356 -38.43020  -2.20362  -2.20024  -2.19809
 Alpha  occ. eigenvalues --   -2.19378  -2.19365  -2.19182  -2.18881  -1.14038
 Alpha  occ. eigenvalues --   -1.14017  -1.14004  -1.13695  -1.13661  -1.13639
 Alpha  occ. eigenvalues --   -1.13517  -1.13466  -1.13437  -1.13111  -1.13049
 Alpha  occ. eigenvalues --   -1.13031  -1.13016  -1.12998  -1.12971  -1.12861
 Alpha  occ. eigenvalues --   -1.12841  -1.12790  -1.12574  -1.12543  -1.12497
 Alpha  occ. eigenvalues --   -0.18586  -0.13169  -0.12026  -0.11145
 Alpha virt. eigenvalues --   -0.06140  -0.04995  -0.04191  -0.03470  -0.02939
 Alpha virt. eigenvalues --   -0.02798  -0.01803  -0.00927  -0.00389  -0.00076
 Alpha virt. eigenvalues --    0.00014   0.00354   0.00628   0.00801   0.00868

  Beta  occ. eigenvalues --  -38.44592 -38.44089 -38.43936 -38.43477 -38.43343
  Beta  occ. eigenvalues --  -38.43307 -38.43005  -2.20369  -2.19874  -2.19793
  Beta  occ. eigenvalues --   -2.19369  -2.19238  -2.19162  -2.18856  -1.14032
  Beta  occ. eigenvalues --   -1.14024  -1.14009  -1.13597  -1.13560  -1.13525
  Beta  occ. eigenvalues --   -1.13506  -1.13436  -1.13424  -1.13084  -1.13023
  Beta  occ. eigenvalues --   -1.12992  -1.12965  -1.12913  -1.12900  -1.12825
  Beta  occ. eigenvalues --   -1.12815  -1.12777  -1.12552  -1.12514  -1.12479
  Beta  occ. eigenvalues --   -0.17829  -0.12999  -0.11755
  Beta virt. eigenvalues --   -0.07220  -0.06009  -0.05003  -0.04056  -0.02818
  Beta virt. eigenvalues --   -0.02190  -0.01808  -0.01655  -0.00883  -0.00354
  Beta virt. eigenvalues --   -0.00028   0.00070   0.00381   0.00790   0.00872

 Mulliken charges and spin densities:
               1          2
     1  Na   0.218049   0.079720
     2  Na   0.100853   0.002262
     3  Na  -0.152622  -0.150380
     4  Na  -0.121027  -0.058977
     5  Na  -0.412416   0.678199
     6  Na   0.049351  -0.032358
     7  Na   0.317813   0.481534
 Sum of Mulliken charges =  -0.00000   1.00000

 Dipole moment (field-independent basis, Debye):
    X=              0.2801    Y=              0.1257    Z=              0.3699  Tot=              0.4807
 Quadrupole moment (field-independent basis, Debye-Ang):
   XX=            -53.6672   YY=            -68.8591   ZZ=            -71.6304
   XY=             -0.1735   XZ=             -1.7883   YZ=              0.4693

 Normal termination of Gaussian 16 at Thu Dec  7 10:21:37 2023.
