 Gaussian 16, Revision B.01,
 Gaussian 16:  ES64L-G16RevB.01 20-Dec-2017

 -------------------------
 #P B3LYP/6-311+g(d) force
 -------------------------

 -----
 DPGEN
 -----
 Symbolic Z-matrix:
 Charge =  0 Multiplicity = 2

                         Standard orientation:
 ---------------------------------------------------------------------
 Center     Atomic      Atomic             Coordinates (Angstroms)
 Number     Number       Type             X           Y           Z
 ---------------------------------------------------------------------
      1         11           0       -1.038247   -1.055165    2.422269
      2         11           0       -1.718126   -2.122102   -1.054914
      3         11           0       -3.053533    0.795167   -0.066641
      4         11           0       -0.236962    2.892655   -0.058184
      5         11           0        1.002468    0.385206   -2.333054
      6         11           0        2.590571    1.344464    1.082459
      7         11           0        2.453829   -2.240225    0.008064
 ---------------------------------------------------------------------

 SCF Done:  E(UB3LYP) =  -1136.12645518     A.U. after   20 cycles

 The electronic state is 2-A.
 Alpha  occ. eigenvalues --  -38.45031 -38.44803 -38.44276 -38.44100 -38.43903
 Alpha  occ. eigenvalues --  -38.43888 -38.42860  -2.20805  -2.20603  -2.20066
 Alpha  occ. eigenvalues --   -2.19898  -2.19699  -2.19653  -2.18679  -1.14460
 Alpha  occ. eigenvalues --   -1.14445  -1.14426  -1.14268  -1.14236  -1.14229
 Alpha  occ. eigenvalues --   -1.13743  -1.13717  -1.13701  -1.13585  -1.13553
 Alpha  occ. eigenvalues --   -1.13540  -1.13376  -1.13363  -1.13333  -1.13328
 Alpha  occ. eigenvalues --   -1.13313  -1.13307  -1.12355  -1.12351  -1.12322
 Alpha  occ. eigenvalues --   -0.17322  -0.12836  -0.11770  -0.11443
 Alpha virt. eigenvalues --   -0.05814  -0.05615  -0.04675  -0.03746  -0.03303
 Alpha virt. eigenvalues --   -0.03169  -0.01194  -0.00911  -0.00503  -0.00416
 Alpha virt. eigenvalues --   -0.00223   0.00165   0.00445   0.00484   0.00637

  Beta  occ. eigenvalues --  -38.44960 -38.44736 -38.44254 -38.44084 -38.43908
  Beta  occ. eigenvalues --  -38.43888 -38.42858  -2.20670  -2.20478  -2.20025
  Beta  occ. eigenvalues --   -2.19870  -2.19702  -2.19665  -2.18679  -1.14367
  Beta  occ. eigenvalues --   -1.14354  -1.14331  -1.14184  -1.14148  -1.14137
  Beta  occ. eigenvalues --   -1.13711  -1.13687  -1.13674  -1.13565  -1.13531
  Beta  occ. eigenvalues --   -1.13512  -1.13367  -1.13362  -1.13335  -1.13323
  Beta  occ. eigenvalues --   -1.13323  -1.13315  -1.12352  -1.12338  -1.12324
  Beta  occ. eigenvalues --   -0.16609  -0.12681  -0.11628
  Beta virt. eigenvalues --   -0.07736  -0.05614  -0.05129  -0.04453  -0.03387
  Beta virt. eigenvalues --   -0.02607  -0.02421  -0.01135  -0.00815  -0.00404
  Beta virt. eigenvalues --   -0.00225  -0.00115   0.00354   0.00537   0.00673

 Mulliken charges and spin densities:
               1          2
     1  Na  -0.120949   0.381274
     2  Na  -0.009928   0.060411
     3  Na   0.189374   0.038717
     4  Na  -0.064897   0.009723
     5  Na   0.077512   0.381643
     6  Na  -0.067133   0.186959
     7  Na  -0.003979  -0.058726
 Sum of Mulliken charges =  -0.00000   1.00000

 Dipole moment (field-independent basis, Debye):
    X=              0.0159    Y=             -0.3982    Z=              0.1763  Tot=              0.4358
 Quadrupole moment (field-independent basis, Debye-Ang):
   XX=            -63.4253   YY=            -70.1179   ZZ=            -64.9260
   XY=             -0.0948   XZ=              1.4063   YZ=              0.7060

 Normal termination of Gaussian 16 at Fri Dec  8 17:30:49 2023.
