 Gaussian 16, Revision B.01,
 Gaussian 16:  ES64L-G16RevB.01 20-Dec-2017

 -------------------------
 #P B3LYP/6-311+g(d) force
 -------------------------

 -----
 DPGEN
 -----
 Symbolic Z-matrix:
 Charge =  0 Multiplicity = 2

                         Standard orientation:
 ---------------------------------------------------------------------
 Center     Atomic      Atomic             Coordinates (Angstroms)
 Number     Number       Type             X           Y           Z
 ---------------------------------------------------------------------
      1         11           0        3.669898    1.859864   -0.141286
      2         11           0       -3.181733    2.326053   -0.472869
      3         11           0       -1.948165   -2.720454    0.481969
      4         11           0       -4.447340   -0.582180   -0.011415
      5         11           0        0.317623    3.076035    0.507457
      6         11           0        1.144195   -2.820240   -0.411503
      7         11           0        4.445522   -1.139077    0.047647
 ---------------------------------------------------------------------

 SCF Done:  E(UB3LYP) =  -1136.10982937     A.U. after   23 cycles

 The electronic state is 2-A.
 Alpha  occ. eigenvalues --  -38.45059 -38.45005 -38.44573 -38.44381 -38.44379
 Alpha  occ. eigenvalues --  -38.44221 -38.43877  -2.20857  -2.20780  -2.20363
 Alpha  occ. eigenvalues --   -2.20217  -2.20207  -2.20033  -2.19659  -1.14545
 Alpha  occ. eigenvalues --   -1.14526  -1.14507  -1.14460  -1.14458  -1.14432
 Alpha  occ. eigenvalues --   -1.14043  -1.14029  -1.13999  -1.13874  -1.13862
 Alpha  occ. eigenvalues --   -1.13862  -1.13859  -1.13850  -1.13831  -1.13696
 Alpha  occ. eigenvalues --   -1.13694  -1.13667  -1.13315  -1.13309  -1.13281
 Alpha  occ. eigenvalues --   -0.15887  -0.14458  -0.13151  -0.10922
 Alpha virt. eigenvalues --   -0.07690  -0.04656  -0.04401  -0.03631  -0.03612
 Alpha virt. eigenvalues --   -0.02742  -0.02127  -0.01726  -0.00913  -0.00599
 Alpha virt. eigenvalues --   -0.00478  -0.00129  -0.00074   0.00515   0.00634

  Beta  occ. eigenvalues --  -38.45045 -38.45004 -38.44538 -38.44333 -38.44327
  Beta  occ. eigenvalues --  -38.44207 -38.43808  -2.20838  -2.20783  -2.20303
  Beta  occ. eigenvalues --   -2.20129  -2.20112  -2.20012  -2.19532  -1.14526
  Beta  occ. eigenvalues --   -1.14519  -1.14466  -1.14461  -1.14461  -1.14401
  Beta  occ. eigenvalues --   -1.13995  -1.13991  -1.13946  -1.13820  -1.13803
  Beta  occ. eigenvalues --   -1.13800  -1.13795  -1.13786  -1.13767  -1.13685
  Beta  occ. eigenvalues --   -1.13678  -1.13626  -1.13228  -1.13224  -1.13198
  Beta  occ. eigenvalues --   -0.15346  -0.13802  -0.12334
  Beta virt. eigenvalues --   -0.07899  -0.07740  -0.04193  -0.03810  -0.03382
  Beta virt. eigenvalues --   -0.03274  -0.02574  -0.02022  -0.01561  -0.00769
  Beta virt. eigenvalues --   -0.00296  -0.00147   0.00058   0.00157   0.00513

 Mulliken charges and spin densities:
               1          2
     1  Na  -0.039935   0.091712
     2  Na   0.151608   0.000554
     3  Na  -0.053857   0.026180
     4  Na   0.442288   0.228805
     5  Na  -0.308271   0.322690
     6  Na  -0.419192   0.088488
     7  Na   0.227357   0.241572
 Sum of Mulliken charges =  -0.00000   1.00000

 Dipole moment (field-independent basis, Debye):
    X=              0.0707    Y=             -0.1725    Z=             -0.1242  Tot=              0.2240
 Quadrupole moment (field-independent basis, Debye-Ang):
   XX=            -58.9046   YY=            -68.2107   ZZ=            -72.6183
   XY=             -0.1855   XZ=             -0.3844   YZ=             -1.3313

 Normal termination of Gaussian 16 at Sun Dec  3 13:17:12 2023.
