 Gaussian 16, Revision B.01,
 Gaussian 16:  ES64L-G16RevB.01 20-Dec-2017

 -------------------------
 #P B3LYP/6-311+g(d) force
 -------------------------

 -----
 DPGEN
 -----
 Symbolic Z-matrix:
 Charge =  0 Multiplicity = 2

                         Standard orientation:
 ---------------------------------------------------------------------
 Center     Atomic      Atomic             Coordinates (Angstroms)
 Number     Number       Type             X           Y           Z
 ---------------------------------------------------------------------
      1         11           0       -1.963773    1.889498    0.545627
      2         11           0        0.833637    2.811648   -0.377891
      3         11           0        0.875983   -0.034571    2.109268
      4         11           0        0.147312   -2.866770    0.068867
      5         11           0        3.238850   -0.493112   -0.383185
      6         11           0       -0.404285   -0.063673   -1.972894
      7         11           0       -2.727724   -1.243020    0.010209
 ---------------------------------------------------------------------

 SCF Done:  E(UB3LYP) =  -1136.13589140     A.U. after   19 cycles

 The electronic state is 2-A.
 Alpha  occ. eigenvalues --  -38.44137 -38.43908 -38.43764 -38.43693 -38.43623
 Alpha  occ. eigenvalues --  -38.43424 -38.43329  -2.19916  -2.19762  -2.19675
 Alpha  occ. eigenvalues --   -2.19534  -2.19475  -2.19304  -2.19229  -1.13595
 Alpha  occ. eigenvalues --   -1.13573  -1.13562  -1.13426  -1.13398  -1.13383
 Alpha  occ. eigenvalues --   -1.13358  -1.13318  -1.13310  -1.13218  -1.13204
 Alpha  occ. eigenvalues --   -1.13194  -1.13162  -1.13136  -1.13105  -1.12999
 Alpha  occ. eigenvalues --   -1.12963  -1.12942  -1.12880  -1.12871  -1.12849
 Alpha  occ. eigenvalues --   -0.18472  -0.12682  -0.12652  -0.11115
 Alpha virt. eigenvalues --   -0.05664  -0.04939  -0.04628  -0.03477  -0.03270
 Alpha virt. eigenvalues --   -0.02842  -0.01326  -0.01017  -0.00225  -0.00183
 Alpha virt. eigenvalues --   -0.00049   0.00400   0.00799   0.00868   0.00905

  Beta  occ. eigenvalues --  -38.44135 -38.43832 -38.43688 -38.43688 -38.43616
  Beta  occ. eigenvalues --  -38.43420 -38.43316  -2.19916  -2.19622  -2.19536
  Beta  occ. eigenvalues --   -2.19528  -2.19465  -2.19300  -2.19208  -1.13583
  Beta  occ. eigenvalues --   -1.13569  -1.13561  -1.13335  -1.13301  -1.13282
  Beta  occ. eigenvalues --   -1.13272  -1.13233  -1.13215  -1.13203  -1.13186
  Beta  occ. eigenvalues --   -1.13171  -1.13158  -1.13106  -1.13098  -1.12995
  Beta  occ. eigenvalues --   -1.12945  -1.12934  -1.12868  -1.12842  -1.12829
  Beta  occ. eigenvalues --   -0.17719  -0.12492  -0.12438
  Beta virt. eigenvalues --   -0.07238  -0.05634  -0.04736  -0.04607  -0.02764
  Beta virt. eigenvalues --   -0.02488  -0.01856  -0.01239  -0.00944  -0.00237
  Beta virt. eigenvalues --   -0.00184   0.00078   0.00428   0.00846   0.00932

 Mulliken charges and spin densities:
               1          2
     1  Na   0.103959   0.108223
     2  Na   0.165827  -0.033118
     3  Na  -0.404616   0.528507
     4  Na   0.126796  -0.079883
     5  Na   0.083365  -0.127653
     6  Na  -0.306544   0.564545
     7  Na   0.231212   0.039380
 Sum of Mulliken charges =  -0.00000   1.00000

 Dipole moment (field-independent basis, Debye):
    X=              0.4272    Y=             -0.1552    Z=             -0.0230  Tot=              0.4551
 Quadrupole moment (field-independent basis, Debye-Ang):
   XX=            -60.5700   YY=            -64.2329   ZZ=            -70.8774
   XY=              0.5350   XZ=             -2.6100   YZ=             -0.1549

 Normal termination of Gaussian 16 at Tue Dec  5 12:12:29 2023.
