 Gaussian 16, Revision B.01,
 Gaussian 16:  ES64L-G16RevB.01 20-Dec-2017

 -------------------------
 #P B3LYP/6-311+g(d) force
 -------------------------

 -----
 DPGEN
 -----
 Symbolic Z-matrix:
 Charge =  0 Multiplicity = 2

                         Standard orientation:
 ---------------------------------------------------------------------
 Center     Atomic      Atomic             Coordinates (Angstroms)
 Number     Number       Type             X           Y           Z
 ---------------------------------------------------------------------
      1         11           0       -2.835260   -0.788307   -0.029227
      2         11           0        0.127969   -2.819499   -0.472023
      3         11           0       -0.017196   -0.323066    1.885637
      4         11           0       -0.110822    0.214193   -1.736876
      5         11           0       -1.954203    2.248138    0.284133
      6         11           0        2.084220    2.311454   -0.302390
      7         11           0        2.705292   -0.842913    0.370747
 ---------------------------------------------------------------------

 SCF Done:  E(UB3LYP) =  -1136.13816313     A.U. after   18 cycles

 The electronic state is 2-A.
 Alpha  occ. eigenvalues --  -38.43765 -38.43671 -38.43606 -38.43522 -38.43508
 Alpha  occ. eigenvalues --  -38.43222 -38.43069  -2.19660  -2.19531  -2.19515
 Alpha  occ. eigenvalues --   -2.19475  -2.19342  -2.19207  -2.18961  -1.13374
 Alpha  occ. eigenvalues --   -1.13331  -1.13309  -1.13271  -1.13197  -1.13194
 Alpha  occ. eigenvalues --   -1.13175  -1.13164  -1.13148  -1.13129  -1.13089
 Alpha  occ. eigenvalues --   -1.13073  -1.13027  -1.12988  -1.12978  -1.12887
 Alpha  occ. eigenvalues --   -1.12844  -1.12824  -1.12633  -1.12611  -1.12593
 Alpha  occ. eigenvalues --   -0.19053  -0.13294  -0.12400  -0.10990
 Alpha virt. eigenvalues --   -0.05302  -0.05194  -0.04577  -0.03373  -0.02917
 Alpha virt. eigenvalues --   -0.02580  -0.01339  -0.01081  -0.00246  -0.00086
 Alpha virt. eigenvalues --    0.00041   0.00378   0.00854   0.00900   0.00935

  Beta  occ. eigenvalues --  -38.43759 -38.43665 -38.43595 -38.43504 -38.43440
  Beta  occ. eigenvalues --  -38.43148 -38.43056  -2.19652  -2.19523  -2.19499
  Beta  occ. eigenvalues --   -2.19338  -2.19324  -2.19071  -2.18941  -1.13371
  Beta  occ. eigenvalues --   -1.13312  -1.13289  -1.13233  -1.13188  -1.13171
  Beta  occ. eigenvalues --   -1.13159  -1.13142  -1.13141  -1.13038  -1.13011
  Beta  occ. eigenvalues --   -1.12990  -1.12979  -1.12977  -1.12972  -1.12800
  Beta  occ. eigenvalues --   -1.12748  -1.12728  -1.12613  -1.12590  -1.12565
  Beta  occ. eigenvalues --   -0.18312  -0.13029  -0.12142
  Beta virt. eigenvalues --   -0.07056  -0.05288  -0.05149  -0.04534  -0.02547
  Beta virt. eigenvalues --   -0.02177  -0.01535  -0.01252  -0.00996  -0.00260
  Beta virt. eigenvalues --   -0.00116   0.00137   0.00399   0.00892   0.00929

 Mulliken charges and spin densities:
               1          2
     1  Na   0.214617  -0.042971
     2  Na   0.122151  -0.009817
     3  Na  -0.254397   0.544493
     4  Na  -0.268579   0.609285
     5  Na  -0.035110  -0.055120
     6  Na  -0.044997  -0.101828
     7  Na   0.266316   0.055958
 Sum of Mulliken charges =  -0.00000   1.00000

 Dipole moment (field-independent basis, Debye):
    X=             -0.1844    Y=              0.1212    Z=              0.1003  Tot=              0.2424
 Quadrupole moment (field-independent basis, Debye-Ang):
   XX=            -58.6397   YY=            -62.3011   ZZ=            -73.1964
   XY=              0.1251   XZ=             -0.0833   YZ=              1.1686

 Normal termination of Gaussian 16 at Fri Dec  8 04:28:22 2023.
