 Gaussian 16, Revision B.01,
 Gaussian 16:  ES64L-G16RevB.01 20-Dec-2017

 -------------------------
 #P B3LYP/6-311+g(d) force
 -------------------------

 -----
 DPGEN
 -----
 Symbolic Z-matrix:
 Charge =  0 Multiplicity = 2

                         Standard orientation:
 ---------------------------------------------------------------------
 Center     Atomic      Atomic             Coordinates (Angstroms)
 Number     Number       Type             X           Y           Z
 ---------------------------------------------------------------------
      1         11           0       -2.432749    1.352448   -0.344885
      2         11           0        1.046619    0.837733    0.542777
      3         11           0        2.026085   -2.779641   -0.194884
      4         11           0       -1.160731   -2.082213   -0.592257
      5         11           0       -4.441056   -0.967473    0.630606
      6         11           0        4.553829   -0.036931    0.269605
      7         11           0        0.408003    3.676077   -0.310963
 ---------------------------------------------------------------------

 SCF Done:  E(UB3LYP) =  -1136.12906556     A.U. after   18 cycles

 The electronic state is 2-A.
 Alpha  occ. eigenvalues --  -38.44105 -38.44091 -38.43878 -38.43853 -38.43756
 Alpha  occ. eigenvalues --  -38.43746 -38.43727  -2.19956  -2.19897  -2.19711
 Alpha  occ. eigenvalues --   -2.19668  -2.19632  -2.19584  -2.19577  -1.13664
 Alpha  occ. eigenvalues --   -1.13657  -1.13573  -1.13543  -1.13538  -1.13504
 Alpha  occ. eigenvalues --   -1.13406  -1.13365  -1.13360  -1.13355  -1.13346
 Alpha  occ. eigenvalues --   -1.13325  -1.13318  -1.13302  -1.13297  -1.13263
 Alpha  occ. eigenvalues --   -1.13253  -1.13233  -1.13215  -1.13162  -1.13144
 Alpha  occ. eigenvalues --   -0.17040  -0.13898  -0.12849  -0.10717
 Alpha virt. eigenvalues --   -0.05653  -0.05492  -0.04845  -0.03652  -0.02474
 Alpha virt. eigenvalues --   -0.02246  -0.01850  -0.01507  -0.01186  -0.00699
 Alpha virt. eigenvalues --   -0.00239  -0.00015   0.00557   0.00596   0.00728

  Beta  occ. eigenvalues --  -38.44097 -38.43992 -38.43837 -38.43826 -38.43758
  Beta  occ. eigenvalues --  -38.43742 -38.43687  -2.19946  -2.19713  -2.19646
  Beta  occ. eigenvalues --   -2.19628  -2.19613  -2.19588  -2.19508  -1.13656
  Beta  occ. eigenvalues --   -1.13650  -1.13544  -1.13417  -1.13413  -1.13409
  Beta  occ. eigenvalues --   -1.13388  -1.13336  -1.13329  -1.13315  -1.13294
  Beta  occ. eigenvalues --   -1.13288  -1.13279  -1.13266  -1.13260  -1.13236
  Beta  occ. eigenvalues --   -1.13219  -1.13217  -1.13210  -1.13146  -1.13092
  Beta  occ. eigenvalues --   -0.16634  -0.13136  -0.12482
  Beta virt. eigenvalues --   -0.07207  -0.05541  -0.05351  -0.04461  -0.03168
  Beta virt. eigenvalues --   -0.02137  -0.01931  -0.01605  -0.01292  -0.01050
  Beta virt. eigenvalues --   -0.00341   0.00075   0.00216   0.00631   0.00688

 Mulliken charges and spin densities:
               1          2
     1  Na  -0.175899   0.243722
     2  Na  -1.557139  -0.025316
     3  Na   0.099445   0.022127
     4  Na  -0.130317   0.073989
     5  Na   0.561191   0.229026
     6  Na   0.535267   0.462847
     7  Na   0.667451  -0.006395
 Sum of Mulliken charges =  -0.00000   1.00000

 Dipole moment (field-independent basis, Debye):
    X=             -0.3662    Y=              0.2232    Z=             -0.1836  Tot=              0.4665
 Quadrupole moment (field-independent basis, Debye-Ang):
   XX=            -64.2146   YY=            -60.4390   ZZ=            -71.1626
   XY=              0.7653   XZ=             -1.8371   YZ=             -1.9059

 Normal termination of Gaussian 16 at Tue Nov 28 19:16:44 2023.
