 Gaussian 16, Revision B.01,
 Gaussian 16:  ES64L-G16RevB.01 20-Dec-2017

 -------------------------
 #P B3LYP/6-311+g(d) force
 -------------------------

 -----
 DPGEN
 -----
 Symbolic Z-matrix:
 Charge =  0 Multiplicity = 2

                         Standard orientation:
 ---------------------------------------------------------------------
 Center     Atomic      Atomic             Coordinates (Angstroms)
 Number     Number       Type             X           Y           Z
 ---------------------------------------------------------------------
      1         11           0        2.979518   -2.179186   -0.372699
      2         11           0        2.386657    1.443509   -0.960994
      3         11           0       -0.370270   -0.432763   -0.849751
      4         11           0        0.025640   -1.566439    1.810818
      5         11           0        0.477844    2.445943    1.245672
      6         11           0       -2.050732    1.971028   -0.402826
      7         11           0       -3.448657   -1.682092   -0.470222
 ---------------------------------------------------------------------

 SCF Done:  E(UB3LYP) =  -1136.11988466     A.U. after   20 cycles

 The electronic state is 2-A.
 Alpha  occ. eigenvalues --  -38.44427 -38.44282 -38.44232 -38.44052 -38.43721
 Alpha  occ. eigenvalues --  -38.43318 -38.43214  -2.20313  -2.20065  -2.20001
 Alpha  occ. eigenvalues --   -2.19918  -2.19595  -2.19272  -2.19237  -1.14065
 Alpha  occ. eigenvalues --   -1.13991  -1.13902  -1.13742  -1.13714  -1.13700
 Alpha  occ. eigenvalues --   -1.13680  -1.13660  -1.13640  -1.13616  -1.13601
 Alpha  occ. eigenvalues --   -1.13512  -1.13399  -1.13203  -1.13173  -1.12963
 Alpha  occ. eigenvalues --   -1.12934  -1.12918  -1.12881  -1.12853  -1.12847
 Alpha  occ. eigenvalues --   -0.18345  -0.13047  -0.12472  -0.10411
 Alpha virt. eigenvalues --   -0.06125  -0.05731  -0.03766  -0.03538  -0.02991
 Alpha virt. eigenvalues --   -0.02021  -0.01920  -0.01584  -0.00358  -0.00211
 Alpha virt. eigenvalues --    0.00161   0.00255   0.00421   0.00710   0.00766

  Beta  occ. eigenvalues --  -38.44417 -38.44272 -38.44232 -38.44020 -38.43641
  Beta  occ. eigenvalues --  -38.43289 -38.43192  -2.20299  -2.20047  -2.20003
  Beta  occ. eigenvalues --   -2.19861  -2.19446  -2.19239  -2.19185  -1.14058
  Beta  occ. eigenvalues --   -1.13955  -1.13896  -1.13728  -1.13696  -1.13687
  Beta  occ. eigenvalues --   -1.13682  -1.13644  -1.13643  -1.13575  -1.13553
  Beta  occ. eigenvalues --   -1.13475  -1.13305  -1.13093  -1.13076  -1.12920
  Beta  occ. eigenvalues --   -1.12884  -1.12883  -1.12851  -1.12832  -1.12795
  Beta  occ. eigenvalues --   -0.17693  -0.12671  -0.12300
  Beta virt. eigenvalues --   -0.06767  -0.06079  -0.05496  -0.03547  -0.02845
  Beta virt. eigenvalues --   -0.02446  -0.01858  -0.01662  -0.01068  -0.00325
  Beta virt. eigenvalues --    0.00036   0.00198   0.00334   0.00520   0.00749

 Mulliken charges and spin densities:
               1          2
     1  Na   0.192276   0.059746
     2  Na   0.258060   0.086101
     3  Na  -0.718462   0.067358
     4  Na  -0.413160   0.287405
     5  Na   0.426202   0.302446
     6  Na  -0.263928   0.103744
     7  Na   0.519012   0.093200
 Sum of Mulliken charges =  -0.00000   1.00000

 Dipole moment (field-independent basis, Debye):
    X=             -0.2234    Y=             -0.2207    Z=              0.2265  Tot=              0.3872
 Quadrupole moment (field-independent basis, Debye-Ang):
   XX=            -55.1879   YY=            -63.0552   ZZ=            -72.9671
   XY=             -0.2534   XZ=             -0.3141   YZ=              0.3835

 Normal termination of Gaussian 16 at Thu Dec  7 18:28:26 2023.
