 Gaussian 16, Revision B.01,
 Gaussian 16:  ES64L-G16RevB.01 20-Dec-2017

 -------------------------
 #P B3LYP/6-311+g(d) force
 -------------------------

 -----
 DPGEN
 -----
 Symbolic Z-matrix:
 Charge =  0 Multiplicity = 2

                         Standard orientation:
 ---------------------------------------------------------------------
 Center     Atomic      Atomic             Coordinates (Angstroms)
 Number     Number       Type             X           Y           Z
 ---------------------------------------------------------------------
      1         11           0       -2.715956   -1.726680   -0.204262
      2         11           0       -2.312424    2.014919   -0.210720
      3         11           0        1.134701    2.013417    0.353896
      4         11           0       -0.233106   -0.336293   -1.925161
      5         11           0       -0.563027   -0.002341    1.947763
      6         11           0        1.458703   -2.227573    0.519112
      7         11           0        3.231110    0.264550   -0.480628
 ---------------------------------------------------------------------

 SCF Done:  E(UB3LYP) =  -1136.12933689     A.U. after   19 cycles

 The electronic state is 2-A.
 Alpha  occ. eigenvalues --  -38.44354 -38.44097 -38.43890 -38.43697 -38.43656
 Alpha  occ. eigenvalues --  -38.43449 -38.42931  -2.20253  -2.19916  -2.19803
 Alpha  occ. eigenvalues --   -2.19622  -2.19540  -2.19317  -2.18899  -1.14004
 Alpha  occ. eigenvalues --   -1.13890  -1.13877  -1.13612  -1.13584  -1.13547
 Alpha  occ. eigenvalues --   -1.13479  -1.13434  -1.13418  -1.13330  -1.13263
 Alpha  occ. eigenvalues --   -1.13244  -1.13214  -1.13182  -1.13172  -1.12995
 Alpha  occ. eigenvalues --   -1.12979  -1.12939  -1.12581  -1.12559  -1.12518
 Alpha  occ. eigenvalues --   -0.19024  -0.13572  -0.11834  -0.11328
 Alpha virt. eigenvalues --   -0.05946  -0.05345  -0.03852  -0.03449  -0.02968
 Alpha virt. eigenvalues --   -0.02821  -0.01753  -0.01091  -0.00252   0.00027
 Alpha virt. eigenvalues --    0.00195   0.00344   0.00715   0.00789   0.00879

  Beta  occ. eigenvalues --  -38.44349 -38.44093 -38.43818 -38.43693 -38.43566
  Beta  occ. eigenvalues --  -38.43434 -38.42919  -2.20244  -2.19913  -2.19670
  Beta  occ. eigenvalues --   -2.19536  -2.19458  -2.19293  -2.18883  -1.14002
  Beta  occ. eigenvalues --   -1.13886  -1.13856  -1.13593  -1.13576  -1.13544
  Beta  occ. eigenvalues --   -1.13394  -1.13341  -1.13322  -1.13230  -1.13206
  Beta  occ. eigenvalues --   -1.13198  -1.13166  -1.13129  -1.13107  -1.12974
  Beta  occ. eigenvalues --   -1.12937  -1.12929  -1.12563  -1.12534  -1.12494
  Beta  occ. eigenvalues --   -0.18253  -0.13344  -0.11576
  Beta virt. eigenvalues --   -0.07372  -0.05845  -0.05328  -0.03623  -0.02905
  Beta virt. eigenvalues --   -0.02117  -0.01856  -0.01623  -0.01035  -0.00172
  Beta virt. eigenvalues --    0.00082   0.00171   0.00365   0.00806   0.00869

 Mulliken charges and spin densities:
               1          2
     1  Na   0.000574  -0.166401
     2  Na   0.049807  -0.075411
     3  Na   0.037733   0.043110
     4  Na  -0.364746   0.688079
     5  Na   0.056354   0.534754
     6  Na   0.020906  -0.061696
     7  Na   0.199372   0.037565
 Sum of Mulliken charges =  -0.00000   1.00000

 Dipole moment (field-independent basis, Debye):
    X=             -0.3776    Y=             -0.2750    Z=             -0.2610  Tot=              0.5351
 Quadrupole moment (field-independent basis, Debye-Ang):
   XX=            -53.4423   YY=            -70.0857   ZZ=            -71.0082
   XY=             -0.5672   XZ=             -0.4883   YZ=             -1.3575

 Normal termination of Gaussian 16 at Wed Nov 29 16:23:49 2023.
