 Gaussian 16, Revision B.01,
 Gaussian 16:  ES64L-G16RevB.01 20-Dec-2017

 -------------------------
 #P B3LYP/6-311+g(d) force
 -------------------------

 -----
 DPGEN
 -----
 Symbolic Z-matrix:
 Charge =  0 Multiplicity = 2

                         Standard orientation:
 ---------------------------------------------------------------------
 Center     Atomic      Atomic             Coordinates (Angstroms)
 Number     Number       Type             X           Y           Z
 ---------------------------------------------------------------------
      1         11           0        2.163684    1.782167   -0.350934
      2         11           0       -0.827181   -2.655504    0.236323
      3         11           0        0.545880    0.191339    2.122709
      4         11           0       -0.244830   -0.028093   -1.665557
      5         11           0       -1.353572    2.531112    0.116172
      6         11           0       -3.110888   -0.405865   -0.141847
      7         11           0        2.826908   -1.415155   -0.316867
 ---------------------------------------------------------------------

 SCF Done:  E(UB3LYP) =  -1136.13785603     A.U. after   19 cycles

 The electronic state is 2-A.
 Alpha  occ. eigenvalues --  -38.43979 -38.43952 -38.43744 -38.43550 -38.43314
 Alpha  occ. eigenvalues --  -38.43172 -38.43115  -2.19848  -2.19785  -2.19633
 Alpha  occ. eigenvalues --   -2.19452  -2.19311  -2.19038  -2.18979  -1.13538
 Alpha  occ. eigenvalues --   -1.13508  -1.13490  -1.13467  -1.13449  -1.13427
 Alpha  occ. eigenvalues --   -1.13299  -1.13274  -1.13245  -1.13155  -1.13109
 Alpha  occ. eigenvalues --   -1.13069  -1.12996  -1.12957  -1.12933  -1.12716
 Alpha  occ. eigenvalues --   -1.12701  -1.12664  -1.12653  -1.12645  -1.12611
 Alpha  occ. eigenvalues --   -0.18859  -0.13347  -0.12237  -0.10992
 Alpha virt. eigenvalues --   -0.05641  -0.05154  -0.04380  -0.03399  -0.02866
 Alpha virt. eigenvalues --   -0.02734  -0.01540  -0.00991  -0.00227  -0.00124
 Alpha virt. eigenvalues --   -0.00032   0.00365   0.00784   0.00909   0.00925

  Beta  occ. eigenvalues --  -38.43977 -38.43945 -38.43646 -38.43539 -38.43253
  Beta  occ. eigenvalues --  -38.43166 -38.43111  -2.19847  -2.19777  -2.19452
  Beta  occ. eigenvalues --   -2.19435  -2.19200  -2.19030  -2.18975  -1.13533
  Beta  occ. eigenvalues --   -1.13499  -1.13488  -1.13462  -1.13429  -1.13415
  Beta  occ. eigenvalues --   -1.13193  -1.13152  -1.13125  -1.13115  -1.13072
  Beta  occ. eigenvalues --   -1.13051  -1.12922  -1.12885  -1.12851  -1.12709
  Beta  occ. eigenvalues --   -1.12675  -1.12659  -1.12650  -1.12623  -1.12605
  Beta  occ. eigenvalues --   -0.18122  -0.13110  -0.12007
  Beta virt. eigenvalues --   -0.07037  -0.05578  -0.05156  -0.04329  -0.02630
  Beta virt. eigenvalues --   -0.02087  -0.01648  -0.01449  -0.00937  -0.00241
  Beta virt. eigenvalues --   -0.00178   0.00117   0.00395   0.00871   0.00902

 Mulliken charges and spin densities:
               1          2
     1  Na   0.346498   0.014700
     2  Na   0.074346  -0.032105
     3  Na  -0.619659   0.739949
     4  Na  -0.269069   0.369702
     5  Na   0.170127  -0.037509
     6  Na   0.188962  -0.021671
     7  Na   0.108795  -0.033066
 Sum of Mulliken charges =  -0.00000   1.00000

 Dipole moment (field-independent basis, Debye):
    X=              0.0793    Y=             -0.0711    Z=              0.1371  Tot=              0.1736
 Quadrupole moment (field-independent basis, Debye-Ang):
   XX=            -56.0677   YY=            -65.4670   ZZ=            -72.7738
   XY=             -0.9420   XZ=             -1.3001   YZ=             -0.2676

 Normal termination of Gaussian 16 at Tue Dec  5 23:52:11 2023.
