 Gaussian 16, Revision B.01,
 Gaussian 16:  ES64L-G16RevB.01 20-Dec-2017

 -------------------------
 #P B3LYP/6-311+g(d) force
 -------------------------

 -----
 DPGEN
 -----
 Symbolic Z-matrix:
 Charge =  0 Multiplicity = 2

                         Standard orientation:
 ---------------------------------------------------------------------
 Center     Atomic      Atomic             Coordinates (Angstroms)
 Number     Number       Type             X           Y           Z
 ---------------------------------------------------------------------
      1         11           0        1.321341   -2.200254    0.877700
      2         11           0        5.088514   -2.088678   -0.559414
      3         11           0        2.835318    1.034221   -0.272725
      4         11           0        1.757919    3.841960    0.220980
      5         11           0       -0.681660    0.428002    0.109619
      6         11           0       -3.524574   -0.843268   -0.125398
      7         11           0       -6.796858   -0.171983   -0.250761
 ---------------------------------------------------------------------

 SCF Done:  E(UB3LYP) =  -1136.11351780     A.U. after   22 cycles

 The electronic state is 2-A.
 Alpha  occ. eigenvalues --  -38.45250 -38.45149 -38.44613 -38.44326 -38.44002
 Alpha  occ. eigenvalues --  -38.43600 -38.43322  -2.21042  -2.20917  -2.20370
 Alpha  occ. eigenvalues --   -2.20198  -2.19814  -2.19477  -2.19142  -1.14678
 Alpha  occ. eigenvalues --   -1.14677  -1.14662  -1.14615  -1.14603  -1.14519
 Alpha  occ. eigenvalues --   -1.14034  -1.14033  -1.13974  -1.13890  -1.13869
 Alpha  occ. eigenvalues --   -1.13818  -1.13503  -1.13483  -1.13454  -1.13178
 Alpha  occ. eigenvalues --   -1.13164  -1.13122  -1.12799  -1.12789  -1.12753
 Alpha  occ. eigenvalues --   -0.16573  -0.14047  -0.11998  -0.11774
 Alpha virt. eigenvalues --   -0.06701  -0.05065  -0.04376  -0.03756  -0.02976
 Alpha virt. eigenvalues --   -0.02446  -0.02346  -0.01569  -0.01214  -0.01035
 Alpha virt. eigenvalues --   -0.00613  -0.00182   0.00048   0.00336   0.00666

  Beta  occ. eigenvalues --  -38.45155 -38.45140 -38.44566 -38.44280 -38.44014
  Beta  occ. eigenvalues --  -38.43583 -38.43305  -2.20903  -2.20867  -2.20282
  Beta  occ. eigenvalues --   -2.20115  -2.19844  -2.19448  -2.19111  -1.14607
  Beta  occ. eigenvalues --   -1.14595  -1.14558  -1.14557  -1.14546  -1.14489
  Beta  occ. eigenvalues --   -1.13973  -1.13969  -1.13919  -1.13851  -1.13814
  Beta  occ. eigenvalues --   -1.13739  -1.13522  -1.13511  -1.13423  -1.13156
  Beta  occ. eigenvalues --   -1.13139  -1.13098  -1.12773  -1.12768  -1.12737
  Beta  occ. eigenvalues --   -0.16016  -0.13263  -0.11671
  Beta virt. eigenvalues --   -0.08488  -0.06082  -0.04935  -0.04052  -0.03581
  Beta virt. eigenvalues --   -0.02573  -0.02181  -0.01886  -0.01480  -0.00949
  Beta virt. eigenvalues --   -0.00672  -0.00361   0.00008   0.00172   0.00409

 Mulliken charges and spin densities:
               1          2
     1  Na   0.102393  -0.012836
     2  Na   0.820977   0.187650
     3  Na  -0.474298   0.281319
     4  Na   0.289144   0.091878
     5  Na  -1.624191  -0.101668
     6  Na   0.025066   0.211672
     7  Na   0.860908   0.341985
 Sum of Mulliken charges =  -0.00000   1.00000

 Dipole moment (field-independent basis, Debye):
    X=             -0.6758    Y=             -0.5090    Z=              0.1620  Tot=              0.8614
 Quadrupole moment (field-independent basis, Debye-Ang):
   XX=            -50.0798   YY=            -66.1935   ZZ=            -72.5319
   XY=             -4.3618   XZ=             -1.4643   YZ=             -0.1825

 Normal termination of Gaussian 16 at Wed Nov 29 01:02:57 2023.
