 Gaussian 16, Revision B.01,
 Gaussian 16:  ES64L-G16RevB.01 20-Dec-2017

 -------------------------
 #P B3LYP/6-311+g(d) force
 -------------------------

 -----
 DPGEN
 -----
 Symbolic Z-matrix:
 Charge =  0 Multiplicity = 2

                         Standard orientation:
 ---------------------------------------------------------------------
 Center     Atomic      Atomic             Coordinates (Angstroms)
 Number     Number       Type             X           Y           Z
 ---------------------------------------------------------------------
      1         11           0        1.744809    1.951997   -0.494455
      2         11           0       -3.711958   -1.031916   -0.201918
      3         11           0       -0.458614   -0.685085   -1.587967
      4         11           0        1.918346   -0.143552    2.190583
      5         11           0       -1.591054    2.026468   -0.334455
      6         11           0       -1.131801   -0.639730    1.543467
      7         11           0        3.230273   -1.478180   -1.115256
 ---------------------------------------------------------------------

 SCF Done:  E(UB3LYP) =  -1136.12161263     A.U. after   28 cycles

 The electronic state is 2-A.
 Alpha  occ. eigenvalues --  -38.44672 -38.44671 -38.44526 -38.43984 -38.43679
 Alpha  occ. eigenvalues --  -38.43085 -38.42733  -2.20590  -2.20459  -2.20367
 Alpha  occ. eigenvalues --   -2.19846  -2.19652  -2.18953  -2.18648  -1.14320
 Alpha  occ. eigenvalues --   -1.14229  -1.14197  -1.14120  -1.14110  -1.14075
 Alpha  occ. eigenvalues --   -1.14052  -1.14022  -1.13998  -1.13568  -1.13494
 Alpha  occ. eigenvalues --   -1.13446  -1.13337  -1.13294  -1.13263  -1.12641
 Alpha  occ. eigenvalues --   -1.12623  -1.12577  -1.12344  -1.12324  -1.12244
 Alpha  occ. eigenvalues --   -0.18702  -0.14046  -0.11861  -0.10882
 Alpha virt. eigenvalues --   -0.06447  -0.05414  -0.04559  -0.03376  -0.02526
 Alpha virt. eigenvalues --   -0.02427  -0.02372  -0.01207  -0.00636  -0.00012
 Alpha virt. eigenvalues --    0.00163   0.00208   0.00422   0.00602   0.00739

  Beta  occ. eigenvalues --  -38.44627 -38.44620 -38.44526 -38.43928 -38.43636
  Beta  occ. eigenvalues --  -38.43076 -38.42731  -2.20509  -2.20368  -2.20363
  Beta  occ. eigenvalues --   -2.19746  -2.19577  -2.18939  -2.18645  -1.14265
  Beta  occ. eigenvalues --   -1.14170  -1.14135  -1.14053  -1.14052  -1.14035
  Beta  occ. eigenvalues --   -1.14020  -1.14017  -1.13995  -1.13486  -1.13424
  Beta  occ. eigenvalues --   -1.13375  -1.13291  -1.13243  -1.13183  -1.12622
  Beta  occ. eigenvalues --   -1.12604  -1.12572  -1.12343  -1.12310  -1.12243
  Beta  occ. eigenvalues --   -0.18037  -0.13785  -0.10677
  Beta virt. eigenvalues --   -0.07896  -0.06236  -0.04954  -0.04316  -0.02929
  Beta virt. eigenvalues --   -0.02241  -0.02007  -0.01775  -0.00879  -0.00428
  Beta virt. eigenvalues --    0.00063   0.00187   0.00335   0.00485   0.00716

 Mulliken charges and spin densities:
               1          2
     1  Na  -0.006213   0.441710
     2  Na   1.338577   0.080569
     3  Na  -0.694184   0.160445
     4  Na  -0.035933  -0.224858
     5  Na  -0.024396  -0.101941
     6  Na  -0.636546   0.431195
     7  Na   0.058695   0.212880
 Sum of Mulliken charges =  -0.00000   1.00000

 Dipole moment (field-independent basis, Debye):
    X=             -0.3834    Y=             -0.1717    Z=             -0.5637  Tot=              0.7030
 Quadrupole moment (field-independent basis, Debye-Ang):
   XX=            -49.4620   YY=            -75.3652   ZZ=            -70.1155
   XY=              0.5350   XZ=              0.7135   YZ=              6.3294

 Normal termination of Gaussian 16 at Thu Dec  7 01:52:07 2023.
