 Gaussian 16, Revision B.01,
 Gaussian 16:  ES64L-G16RevB.01 20-Dec-2017

 -------------------------
 #P B3LYP/6-311+g(d) force
 -------------------------

 -----
 DPGEN
 -----
 Symbolic Z-matrix:
 Charge =  0 Multiplicity = 2

                         Standard orientation:
 ---------------------------------------------------------------------
 Center     Atomic      Atomic             Coordinates (Angstroms)
 Number     Number       Type             X           Y           Z
 ---------------------------------------------------------------------
      1         11           0       -1.747380    1.688596    1.050007
      2         11           0        1.663334    2.859628   -0.341866
      3         11           0       -4.046749   -0.094705   -0.947417
      4         11           0        0.084577   -0.544955   -1.565390
      5         11           0        3.359915   -1.193060   -0.909670
      6         11           0       -0.815198   -2.565226    1.000272
      7         11           0        1.501501   -0.150279    1.714065
 ---------------------------------------------------------------------

 SCF Done:  E(UB3LYP) =  -1136.12446950     A.U. after   21 cycles

 The electronic state is 2-A.
 Alpha  occ. eigenvalues --  -38.44590 -38.44574 -38.44373 -38.43803 -38.43714
 Alpha  occ. eigenvalues --  -38.43692 -38.43401  -2.20400  -2.20337  -2.20232
 Alpha  occ. eigenvalues --   -2.19618  -2.19594  -2.19508  -2.19173  -1.14079
 Alpha  occ. eigenvalues --   -1.14052  -1.14021  -1.14003  -1.13993  -1.13958
 Alpha  occ. eigenvalues --   -1.13936  -1.13888  -1.13842  -1.13321  -1.13283
 Alpha  occ. eigenvalues --   -1.13267  -1.13250  -1.13233  -1.13196  -1.13191
 Alpha  occ. eigenvalues --   -1.13185  -1.13122  -1.12858  -1.12827  -1.12814
 Alpha  occ. eigenvalues --   -0.17784  -0.13109  -0.11507  -0.10943
 Alpha virt. eigenvalues --   -0.06640  -0.05254  -0.04510  -0.03194  -0.02702
 Alpha virt. eigenvalues --   -0.02486  -0.02280  -0.01197  -0.01061  -0.00250
 Alpha virt. eigenvalues --   -0.00034   0.00156   0.00259   0.00659   0.00750

  Beta  occ. eigenvalues --  -38.44556 -38.44542 -38.44344 -38.43767 -38.43706
  Beta  occ. eigenvalues --  -38.43640 -38.43405  -2.20338  -2.20277  -2.20179
  Beta  occ. eigenvalues --   -2.19554  -2.19502  -2.19495  -2.19181  -1.14028
  Beta  occ. eigenvalues --   -1.14013  -1.13978  -1.13961  -1.13951  -1.13920
  Beta  occ. eigenvalues --   -1.13889  -1.13855  -1.13798  -1.13264  -1.13230
  Beta  occ. eigenvalues --   -1.13209  -1.13192  -1.13185  -1.13176  -1.13165
  Beta  occ. eigenvalues --   -1.13119  -1.13108  -1.12860  -1.12834  -1.12813
  Beta  occ. eigenvalues --   -0.17132  -0.12746  -0.11300
  Beta virt. eigenvalues --   -0.07306  -0.06397  -0.05071  -0.04179  -0.02952
  Beta virt. eigenvalues --   -0.02245  -0.02025  -0.01634  -0.01114  -0.00731
  Beta virt. eigenvalues --   -0.00123   0.00017   0.00226   0.00339   0.00726

 Mulliken charges and spin densities:
               1          2
     1  Na  -0.217852  -0.007565
     2  Na  -0.054773   0.002886
     3  Na   0.187168   0.131409
     4  Na  -0.401697   0.352244
     5  Na   0.301541   0.131909
     6  Na  -0.024659   0.061550
     7  Na   0.210271   0.327567
 Sum of Mulliken charges =  -0.00000   1.00000

 Dipole moment (field-independent basis, Debye):
    X=              0.1333    Y=             -0.4690    Z=             -0.1876  Tot=              0.5224
 Quadrupole moment (field-independent basis, Debye-Ang):
   XX=            -53.3402   YY=            -71.0197   ZZ=            -69.3640
   XY=              0.6109   XZ=              0.1744   YZ=             -1.1090

 Normal termination of Gaussian 16 at Tue Dec  5 16:40:54 2023.
