 Gaussian 16, Revision B.01,
 Gaussian 16:  ES64L-G16RevB.01 20-Dec-2017

 -------------------------
 #P B3LYP/6-311+g(d) force
 -------------------------

 -----
 DPGEN
 -----
 Symbolic Z-matrix:
 Charge =  0 Multiplicity = 2

                         Standard orientation:
 ---------------------------------------------------------------------
 Center     Atomic      Atomic             Coordinates (Angstroms)
 Number     Number       Type             X           Y           Z
 ---------------------------------------------------------------------
      1         11           0       -3.343807   -0.343618   -0.239575
      2         11           0       -0.424443   -3.105994    0.335262
      3         11           0       -1.088299    3.031243    0.263636
      4         11           0        2.522366    1.961867   -0.230897
      5         11           0        0.284339   -0.075251    2.033371
      6         11           0       -0.682477    0.024551   -1.622082
      7         11           0        2.732322   -1.492798   -0.539714
 ---------------------------------------------------------------------

 SCF Done:  E(UB3LYP) =  -1136.13417414     A.U. after   19 cycles

 The electronic state is 2-A.
 Alpha  occ. eigenvalues --  -38.44247 -38.44080 -38.43831 -38.43820 -38.43716
 Alpha  occ. eigenvalues --  -38.43674 -38.43469  -2.20061  -2.19864  -2.19636
 Alpha  occ. eigenvalues --   -2.19618  -2.19533  -2.19527  -2.19386  -1.13795
 Alpha  occ. eigenvalues --   -1.13706  -1.13679  -1.13544  -1.13527  -1.13495
 Alpha  occ. eigenvalues --   -1.13316  -1.13303  -1.13296  -1.13292  -1.13271
 Alpha  occ. eigenvalues --   -1.13259  -1.13202  -1.13200  -1.13183  -1.13163
 Alpha  occ. eigenvalues --   -1.13158  -1.13139  -1.13064  -1.13027  -1.13003
 Alpha  occ. eigenvalues --   -0.17959  -0.12787  -0.12457  -0.10501
 Alpha virt. eigenvalues --   -0.05809  -0.05202  -0.05151  -0.03094  -0.02988
 Alpha virt. eigenvalues --   -0.02393  -0.01538  -0.01407  -0.00714  -0.00627
 Alpha virt. eigenvalues --   -0.00029   0.00329   0.00762   0.00796   0.00836

  Beta  occ. eigenvalues --  -38.44240 -38.44074 -38.43823 -38.43815 -38.43701
  Beta  occ. eigenvalues --  -38.43584 -38.43419  -2.20052  -2.19855  -2.19623
  Beta  occ. eigenvalues --   -2.19612  -2.19504  -2.19364  -2.19296  -1.13779
  Beta  occ. eigenvalues --   -1.13690  -1.13675  -1.13529  -1.13518  -1.13490
  Beta  occ. eigenvalues --   -1.13298  -1.13290  -1.13282  -1.13279  -1.13264
  Beta  occ. eigenvalues --   -1.13247  -1.13175  -1.13168  -1.13137  -1.13089
  Beta  occ. eigenvalues --   -1.13050  -1.13016  -1.12999  -1.12958  -1.12942
  Beta  occ. eigenvalues --   -0.17295  -0.12492  -0.12254
  Beta virt. eigenvalues --   -0.06755  -0.05727  -0.05163  -0.05005  -0.02407
  Beta virt. eigenvalues --   -0.02285  -0.01499  -0.01375  -0.01300  -0.00718
  Beta virt. eigenvalues --   -0.00655   0.00118   0.00381   0.00764   0.00840

 Mulliken charges and spin densities:
               1          2
     1  Na   0.195921  -0.099179
     2  Na   0.078766   0.008929
     3  Na  -0.024372  -0.059843
     4  Na  -0.020124  -0.024787
     5  Na  -0.200400   0.673207
     6  Na  -0.022640   0.443658
     7  Na  -0.007151   0.058016
 Sum of Mulliken charges =  -0.00000   1.00000

 Dipole moment (field-independent basis, Debye):
    X=             -0.3608    Y=              0.0704    Z=              0.1327  Tot=              0.3908
 Quadrupole moment (field-independent basis, Debye-Ang):
   XX=            -58.8083   YY=            -59.4549   ZZ=            -75.2645
   XY=              0.1039   XZ=             -2.2222   YZ=              0.3274

 Normal termination of Gaussian 16 at Thu Dec  7 03:14:30 2023.
