 Gaussian 16, Revision B.01,
 Gaussian 16:  ES64L-G16RevB.01 20-Dec-2017

 -------------------------
 #P B3LYP/6-311+g(d) force
 -------------------------

 -----
 DPGEN
 -----
 Symbolic Z-matrix:
 Charge =  0 Multiplicity = 2

                         Standard orientation:
 ---------------------------------------------------------------------
 Center     Atomic      Atomic             Coordinates (Angstroms)
 Number     Number       Type             X           Y           Z
 ---------------------------------------------------------------------
      1         11           0       -3.431337    1.580038   -1.011521
      2         11           0        4.187687   -0.340205   -0.525261
      3         11           0        1.497848   -2.848987   -0.846544
      4         11           0       -0.998717    3.223590    0.451034
      5         11           0        2.791833    2.543608    0.479881
      6         11           0       -3.391093   -1.646585   -0.022145
      7         11           0       -0.656220   -2.511458    1.474557
 ---------------------------------------------------------------------

 SCF Done:  E(UB3LYP) =  -1136.10807908     A.U. after   46 cycles

 The electronic state is 2-A.
 Alpha  occ. eigenvalues --  -38.45689 -38.45277 -38.44858 -38.44194 -38.43916
 Alpha  occ. eigenvalues --  -38.43859 -38.43590  -2.21465  -2.21084  -2.20614
 Alpha  occ. eigenvalues --   -2.19976  -2.19764  -2.19680  -2.19395  -1.15155
 Alpha  occ. eigenvalues --   -1.15136  -1.15088  -1.14767  -1.14746  -1.14717
 Alpha  occ. eigenvalues --   -1.14300  -1.14286  -1.14250  -1.13653  -1.13642
 Alpha  occ. eigenvalues --   -1.13611  -1.13433  -1.13407  -1.13392  -1.13340
 Alpha  occ. eigenvalues --   -1.13333  -1.13322  -1.13052  -1.13041  -1.13034
 Alpha  occ. eigenvalues --   -0.16055  -0.13831  -0.13314  -0.10292
 Alpha virt. eigenvalues --   -0.07790  -0.05068  -0.04293  -0.03720  -0.03444
 Alpha virt. eigenvalues --   -0.02218  -0.02087  -0.01573  -0.01107  -0.01008
 Alpha virt. eigenvalues --   -0.00601  -0.00006   0.00117   0.00433   0.00653

  Beta  occ. eigenvalues --  -38.45673 -38.45247 -38.44849 -38.44165 -38.43879
  Beta  occ. eigenvalues --  -38.43833 -38.43541  -2.21441  -2.21034  -2.20602
  Beta  occ. eigenvalues --   -2.19923  -2.19695  -2.19634  -2.19305  -1.15136
  Beta  occ. eigenvalues --   -1.15124  -1.15044  -1.14733  -1.14718  -1.14651
  Beta  occ. eigenvalues --   -1.14296  -1.14282  -1.14213  -1.13620  -1.13607
  Beta  occ. eigenvalues --   -1.13566  -1.13385  -1.13363  -1.13344  -1.13310
  Beta  occ. eigenvalues --   -1.13305  -1.13276  -1.12989  -1.12986  -1.12970
  Beta  occ. eigenvalues --   -0.15574  -0.13214  -0.12814
  Beta virt. eigenvalues --   -0.07940  -0.07003  -0.04637  -0.03683  -0.03587
  Beta virt. eigenvalues --   -0.03038  -0.02035  -0.01896  -0.01417  -0.00989
  Beta virt. eigenvalues --   -0.00769  -0.00374   0.00198   0.00351   0.00502

 Mulliken charges and spin densities:
               1          2
     1  Na   0.162764   0.143989
     2  Na   0.010999   0.250269
     3  Na   0.072117   0.079360
     4  Na  -0.174887   0.115747
     5  Na   0.031534   0.048610
     6  Na   0.047014   0.142423
     7  Na  -0.149540   0.219602
 Sum of Mulliken charges =  -0.00000   1.00000

 Dipole moment (field-independent basis, Debye):
    X=             -0.2997    Y=             -1.0420    Z=             -0.0872  Tot=              1.0877
 Quadrupole moment (field-independent basis, Debye-Ang):
   XX=            -67.5387   YY=            -66.4627   ZZ=            -68.8825
   XY=              2.0217   XZ=              0.0833   YZ=              2.3449

 Normal termination of Gaussian 16 at Sun Dec  3 14:54:40 2023.
