 Gaussian 16, Revision B.01,
 Gaussian 16:  ES64L-G16RevB.01 20-Dec-2017

 -------------------------
 #P B3LYP/6-311+g(d) force
 -------------------------

 -----
 DPGEN
 -----
 Symbolic Z-matrix:
 Charge =  0 Multiplicity = 2

                         Standard orientation:
 ---------------------------------------------------------------------
 Center     Atomic      Atomic             Coordinates (Angstroms)
 Number     Number       Type             X           Y           Z
 ---------------------------------------------------------------------
      1         11           0        1.744379    2.730369    0.741725
      2         11           0       -2.661147   -1.557086    0.552307
      3         11           0        0.547762   -0.807882    2.034556
      4         11           0        3.135296   -0.232608   -0.657563
      5         11           0        0.049800    0.670541   -1.341408
      6         11           0        0.688023   -2.524485   -0.827550
      7         11           0       -3.504112    1.721150   -0.502067
 ---------------------------------------------------------------------

 SCF Done:  E(UB3LYP) =  -1136.12981751     A.U. after   19 cycles

 The electronic state is 2-A.
 Alpha  occ. eigenvalues --  -38.44438 -38.44100 -38.44091 -38.43863 -38.43636
 Alpha  occ. eigenvalues --  -38.43621 -38.42995  -2.20310  -2.19902  -2.19852
 Alpha  occ. eigenvalues --   -2.19738  -2.19545  -2.19448  -2.18896  -1.14001
 Alpha  occ. eigenvalues --   -1.13968  -1.13929  -1.13594  -1.13570  -1.13539
 Alpha  occ. eigenvalues --   -1.13521  -1.13504  -1.13478  -1.13407  -1.13386
 Alpha  occ. eigenvalues --   -1.13339  -1.13245  -1.13225  -1.13164  -1.13105
 Alpha  occ. eigenvalues --   -1.13099  -1.13081  -1.12586  -1.12556  -1.12516
 Alpha  occ. eigenvalues --   -0.18258  -0.13226  -0.11892  -0.10911
 Alpha virt. eigenvalues --   -0.06161  -0.05479  -0.04422  -0.03248  -0.02799
 Alpha virt. eigenvalues --   -0.02487  -0.01920  -0.01225  -0.00673  -0.00223
 Alpha virt. eigenvalues --   -0.00134   0.00261   0.00570   0.00736   0.00777

  Beta  occ. eigenvalues --  -38.44418 -38.44093 -38.44083 -38.43781 -38.43618
  Beta  occ. eigenvalues --  -38.43586 -38.42976  -2.20276  -2.19891  -2.19839
  Beta  occ. eigenvalues --   -2.19585  -2.19482  -2.19416  -2.18866  -1.13970
  Beta  occ. eigenvalues --   -1.13946  -1.13891  -1.13578  -1.13564  -1.13527
  Beta  occ. eigenvalues --   -1.13509  -1.13495  -1.13469  -1.13308  -1.13283
  Beta  occ. eigenvalues --   -1.13224  -1.13199  -1.13178  -1.13114  -1.13081
  Beta  occ. eigenvalues --   -1.13065  -1.13061  -1.12565  -1.12537  -1.12467
  Beta  occ. eigenvalues --   -0.17555  -0.13000  -0.11632
  Beta virt. eigenvalues --   -0.07117  -0.06000  -0.05306  -0.04245  -0.02658
  Beta virt. eigenvalues --   -0.02279  -0.01896  -0.01483  -0.01109  -0.00578
  Beta virt. eigenvalues --   -0.00213   0.00043   0.00313   0.00687   0.00761

 Mulliken charges and spin densities:
               1          2
     1  Na  -0.326441   0.187461
     2  Na  -0.023060   0.058095
     3  Na  -0.344669   0.523982
     4  Na   0.647816   0.033294
     5  Na   0.002319   0.074849
     6  Na   0.065691   0.119026
     7  Na  -0.021655   0.003293
 Sum of Mulliken charges =  -0.00000   1.00000

 Dipole moment (field-independent basis, Debye):
    X=              0.3004    Y=             -0.0513    Z=              0.2499  Tot=              0.3941
 Quadrupole moment (field-independent basis, Debye-Ang):
   XX=            -55.7545   YY=            -65.7697   ZZ=            -72.4732
   XY=              0.0640   XZ=             -0.9174   YZ=              1.7554

 Normal termination of Gaussian 16 at Tue Dec  5 17:47:31 2023.
