 Gaussian 16, Revision B.01,
 Gaussian 16:  ES64L-G16RevB.01 20-Dec-2017

 -------------------------
 #P B3LYP/6-311+g(d) force
 -------------------------

 -----
 DPGEN
 -----
 Symbolic Z-matrix:
 Charge =  0 Multiplicity = 2

                         Standard orientation:
 ---------------------------------------------------------------------
 Center     Atomic      Atomic             Coordinates (Angstroms)
 Number     Number       Type             X           Y           Z
 ---------------------------------------------------------------------
      1         11           0        0.551800    0.311390   -0.429929
      2         11           0        3.765039    0.983925   -0.623359
      3         11           0       -2.096593   -2.169111   -0.984410
      4         11           0       -1.025803   -0.535607    2.328859
      5         11           0       -0.551831    2.718817    0.420383
      6         11           0       -2.884679    0.885042   -0.923891
      7         11           0        2.242067   -2.194458    0.212348
 ---------------------------------------------------------------------

 SCF Done:  E(UB3LYP) =  -1136.12030895     A.U. after   21 cycles

 The electronic state is 2-A.
 Alpha  occ. eigenvalues --  -38.44598 -38.44323 -38.44317 -38.43935 -38.43408
 Alpha  occ. eigenvalues --  -38.43096 -38.42949  -2.20390  -2.20167  -2.20132
 Alpha  occ. eigenvalues --   -2.19834  -2.19247  -2.19066  -2.18996  -1.14060
 Alpha  occ. eigenvalues --   -1.14045  -1.14017  -1.13857  -1.13846  -1.13798
 Alpha  occ. eigenvalues --   -1.13789  -1.13764  -1.13730  -1.13519  -1.13487
 Alpha  occ. eigenvalues --   -1.13471  -1.13033  -1.12924  -1.12904  -1.12866
 Alpha  occ. eigenvalues --   -1.12753  -1.12666  -1.12616  -1.12589  -1.12538
 Alpha  occ. eigenvalues --   -0.18296  -0.13594  -0.11737  -0.10982
 Alpha virt. eigenvalues --   -0.06098  -0.05424  -0.04051  -0.03234  -0.02840
 Alpha virt. eigenvalues --   -0.02398  -0.01921  -0.01136  -0.00492  -0.00434
 Alpha virt. eigenvalues --   -0.00084   0.00268   0.00567   0.00761   0.00817

  Beta  occ. eigenvalues --  -38.44583 -38.44324 -38.44216 -38.43895 -38.43380
  Beta  occ. eigenvalues --  -38.43089 -38.42938  -2.20361  -2.20134  -2.19980
  Beta  occ. eigenvalues --   -2.19764  -2.19199  -2.19052  -2.18985  -1.14038
  Beta  occ. eigenvalues --   -1.14027  -1.13998  -1.13859  -1.13793  -1.13727
  Beta  occ. eigenvalues --   -1.13715  -1.13664  -1.13630  -1.13467  -1.13440
  Beta  occ. eigenvalues --   -1.13410  -1.13027  -1.12886  -1.12875  -1.12820
  Beta  occ. eigenvalues --   -1.12699  -1.12667  -1.12597  -1.12576  -1.12532
  Beta  occ. eigenvalues --   -0.17642  -0.13243  -0.11539
  Beta virt. eigenvalues --   -0.07158  -0.05722  -0.05336  -0.03999  -0.02731
  Beta virt. eigenvalues --   -0.02135  -0.01954  -0.01383  -0.01095  -0.00355
  Beta virt. eigenvalues --   -0.00257   0.00046   0.00340   0.00714   0.00788

 Mulliken charges and spin densities:
               1          2
     1  Na  -2.035518   0.327498
     2  Na   0.439146  -0.029082
     3  Na   0.173967   0.112983
     4  Na  -0.310124   0.381854
     5  Na   0.773506   0.040061
     6  Na   0.353935   0.172404
     7  Na   0.605088  -0.005719
 Sum of Mulliken charges =  -0.00000   1.00000

 Dipole moment (field-independent basis, Debye):
    X=              0.6907    Y=             -0.1971    Z=              0.5112  Tot=              0.8816
 Quadrupole moment (field-independent basis, Debye-Ang):
   XX=            -54.9673   YY=            -65.9186   ZZ=            -70.8439
   XY=             -0.7195   XZ=             -1.0697   YZ=             -0.1851

 Normal termination of Gaussian 16 at Fri Dec  8 00:16:54 2023.
