 Gaussian 16, Revision B.01,
 Gaussian 16:  ES64L-G16RevB.01 20-Dec-2017

 -------------------------
 #P B3LYP/6-311+g(d) force
 -------------------------

 -----
 DPGEN
 -----
 Symbolic Z-matrix:
 Charge =  0 Multiplicity = 2

                         Standard orientation:
 ---------------------------------------------------------------------
 Center     Atomic      Atomic             Coordinates (Angstroms)
 Number     Number       Type             X           Y           Z
 ---------------------------------------------------------------------
      1         11           0        2.634449    1.367955    0.191544
      2         11           0       -0.470006    2.646632   -0.486412
      3         11           0        0.166943   -0.766456   -1.418054
      4         11           0       -3.309764    0.673148   -0.050850
      5         11           0       -0.174997   -0.141746    1.913562
      6         11           0       -2.010017   -2.305517   -0.027819
      7         11           0        3.163391   -1.474017   -0.121972
 ---------------------------------------------------------------------

 SCF Done:  E(UB3LYP) =  -1136.12483781     A.U. after   21 cycles

 The electronic state is 2-A.
 Alpha  occ. eigenvalues --  -38.45228 -38.44668 -38.44146 -38.43571 -38.43470
 Alpha  occ. eigenvalues --  -38.43466 -38.42529  -2.21049  -2.20527  -2.20052
 Alpha  occ. eigenvalues --   -2.19472  -2.19439  -2.19373  -2.18383  -1.14717
 Alpha  occ. eigenvalues --   -1.14707  -1.14695  -1.14295  -1.14175  -1.14150
 Alpha  occ. eigenvalues --   -1.13703  -1.13699  -1.13691  -1.13287  -1.13149
 Alpha  occ. eigenvalues --   -1.13110  -1.13104  -1.13052  -1.13044  -1.13012
 Alpha  occ. eigenvalues --   -1.12987  -1.12980  -1.12064  -1.12036  -1.12032
 Alpha  occ. eigenvalues --   -0.18800  -0.14126  -0.11841  -0.10389
 Alpha virt. eigenvalues --   -0.06837  -0.05497  -0.03927  -0.03616  -0.02526
 Alpha virt. eigenvalues --   -0.02335  -0.02104  -0.01261  -0.00552  -0.00115
 Alpha virt. eigenvalues --   -0.00040   0.00246   0.00658   0.00716   0.00763

  Beta  occ. eigenvalues --  -38.45225 -38.44666 -38.44141 -38.43564 -38.43418
  Beta  occ. eigenvalues --  -38.43371 -38.42520  -2.21044  -2.20527  -2.20045
  Beta  occ. eigenvalues --   -2.19462  -2.19347  -2.19199  -2.18368  -1.14710
  Beta  occ. eigenvalues --   -1.14696  -1.14690  -1.14298  -1.14167  -1.14139
  Beta  occ. eigenvalues --   -1.13700  -1.13696  -1.13662  -1.13257  -1.13108
  Beta  occ. eigenvalues --   -1.13089  -1.13053  -1.12985  -1.12961  -1.12932
  Beta  occ. eigenvalues --   -1.12866  -1.12856  -1.12054  -1.12025  -1.12006
  Beta  occ. eigenvalues --   -0.18094  -0.13908  -0.11602
  Beta virt. eigenvalues --   -0.06763  -0.06526  -0.05467  -0.03879  -0.02814
  Beta virt. eigenvalues --   -0.02344  -0.01713  -0.01250  -0.01065  -0.00596
  Beta virt. eigenvalues --   -0.00095   0.00138   0.00285   0.00723   0.00777

 Mulliken charges and spin densities:
               1          2
     1  Na   0.084451   0.088527
     2  Na  -0.205312   0.041932
     3  Na  -0.222478   0.165194
     4  Na   0.043354   0.014389
     5  Na  -0.407767   0.472098
     6  Na   0.349263   0.147524
     7  Na   0.358490   0.070336
 Sum of Mulliken charges =  -0.00000   1.00000

 Dipole moment (field-independent basis, Debye):
    X=             -0.1718    Y=             -0.2746    Z=              0.2022  Tot=              0.3819
 Quadrupole moment (field-independent basis, Debye-Ang):
   XX=            -47.5612   YY=            -68.8645   ZZ=            -76.5167
   XY=             -0.9246   XZ=              0.4141   YZ=             -0.5754

 Normal termination of Gaussian 16 at Tue Dec  5 17:38:59 2023.
