 Gaussian 16, Revision B.01,
 Gaussian 16:  ES64L-G16RevB.01 20-Dec-2017

 -------------------------
 #P B3LYP/6-311+g(d) force
 -------------------------

 -----
 DPGEN
 -----
 Symbolic Z-matrix:
 Charge =  0 Multiplicity = 2

                         Standard orientation:
 ---------------------------------------------------------------------
 Center     Atomic      Atomic             Coordinates (Angstroms)
 Number     Number       Type             X           Y           Z
 ---------------------------------------------------------------------
      1         11           0       -2.152199   -2.074346   -0.327274
      2         11           0        2.048040   -2.082767    0.417255
      3         11           0        3.140410    0.799642    0.066766
      4         11           0       -0.773609    0.039428    1.683401
      5         11           0        0.138203    2.693866   -0.104340
      6         11           0        0.607383   -0.324745   -1.569190
      7         11           0       -3.008227    0.948922   -0.166618
 ---------------------------------------------------------------------

 SCF Done:  E(UB3LYP) =  -1136.12773335     A.U. after   21 cycles

 The electronic state is 2-A.
 Alpha  occ. eigenvalues --  -38.44617 -38.44571 -38.43719 -38.43660 -38.43230
 Alpha  occ. eigenvalues --  -38.43145 -38.42739  -2.20493  -2.20466  -2.19618
 Alpha  occ. eigenvalues --   -2.19546  -2.19223  -2.19155  -2.18611  -1.14189
 Alpha  occ. eigenvalues --   -1.14184  -1.14158  -1.14123  -1.14122  -1.14092
 Alpha  occ. eigenvalues --   -1.13352  -1.13265  -1.13243  -1.13237  -1.13204
 Alpha  occ. eigenvalues --   -1.13181  -1.12909  -1.12861  -1.12837  -1.12827
 Alpha  occ. eigenvalues --   -1.12787  -1.12768  -1.12302  -1.12279  -1.12235
 Alpha  occ. eigenvalues --   -0.19074  -0.14105  -0.12064  -0.10329
 Alpha virt. eigenvalues --   -0.06306  -0.05437  -0.04174  -0.03589  -0.02451
 Alpha virt. eigenvalues --   -0.01958  -0.01944  -0.01115  -0.00362  -0.00221
 Alpha virt. eigenvalues --    0.00003   0.00343   0.00732   0.00851   0.00893

  Beta  occ. eigenvalues --  -38.44614 -38.44566 -38.43707 -38.43649 -38.43160
  Beta  occ. eigenvalues --  -38.43081 -38.42732  -2.20490  -2.20460  -2.19599
  Beta  occ. eigenvalues --   -2.19528  -2.19095  -2.19040  -2.18603  -1.14191
  Beta  occ. eigenvalues --   -1.14177  -1.14133  -1.14123  -1.14102  -1.14083
  Beta  occ. eigenvalues --   -1.13335  -1.13241  -1.13229  -1.13218  -1.13175
  Beta  occ. eigenvalues --   -1.13159  -1.12822  -1.12770  -1.12748  -1.12741
  Beta  occ. eigenvalues --   -1.12707  -1.12681  -1.12299  -1.12250  -1.12227
  Beta  occ. eigenvalues --   -0.18383  -0.13868  -0.11805
  Beta virt. eigenvalues --   -0.06499  -0.06188  -0.05425  -0.04114  -0.02807
  Beta virt. eigenvalues --   -0.01852  -0.01737  -0.01065  -0.00997  -0.00398
  Beta virt. eigenvalues --   -0.00237   0.00168   0.00388   0.00803   0.00862

 Mulliken charges and spin densities:
               1          2
     1  Na   0.166187  -0.025919
     2  Na   0.161281  -0.001453
     3  Na   0.136366  -0.000918
     4  Na  -0.385068   0.619125
     5  Na  -0.036664  -0.132431
     6  Na  -0.319209   0.526282
     7  Na   0.277107   0.015314
 Sum of Mulliken charges =  -0.00000   1.00000

 Dipole moment (field-independent basis, Debye):
    X=              0.0415    Y=              0.0160    Z=              0.0047  Tot=              0.0447
 Quadrupole moment (field-independent basis, Debye-Ang):
   XX=            -50.4609   YY=            -66.3295   ZZ=            -76.0314
   XY=              0.3260   XZ=              2.5111   YZ=             -0.7768

 Normal termination of Gaussian 16 at Wed Nov 29 01:34:02 2023.
