 Gaussian 16, Revision B.01,
 Gaussian 16:  ES64L-G16RevB.01 20-Dec-2017

 -------------------------
 #P B3LYP/6-311+g(d) force
 -------------------------

 -----
 DPGEN
 -----
 Symbolic Z-matrix:
 Charge =  0 Multiplicity = 2

                         Standard orientation:
 ---------------------------------------------------------------------
 Center     Atomic      Atomic             Coordinates (Angstroms)
 Number     Number       Type             X           Y           Z
 ---------------------------------------------------------------------
      1         11           0        1.362839    2.273538   -0.268267
      2         11           0        3.335183   -0.008762    1.904224
      3         11           0        4.027661   -0.231895   -1.773727
      4         11           0        1.552459   -1.887578   -0.218541
      5         11           0       -2.260882    1.565295    0.485490
      6         11           0       -5.575480   -0.050160   -0.727614
      7         11           0       -2.441780   -1.660438    0.598435
 ---------------------------------------------------------------------

 SCF Done:  E(UB3LYP) =  -1136.10330333     A.U. after   27 cycles

 The electronic state is 2-A.
 Alpha  occ. eigenvalues --  -38.47409 -38.45229 -38.44295 -38.44236 -38.43817
 Alpha  occ. eigenvalues --  -38.43790 -38.42270  -2.23167  -2.21035  -2.20074
 Alpha  occ. eigenvalues --   -2.20030  -2.19637  -2.19609  -2.18059  -1.16869
 Alpha  occ. eigenvalues --   -1.16806  -1.16788  -1.14720  -1.14671  -1.14650
 Alpha  occ. eigenvalues --   -1.13742  -1.13731  -1.13730  -1.13715  -1.13677
 Alpha  occ. eigenvalues --   -1.13628  -1.13346  -1.13319  -1.13305  -1.13297
 Alpha  occ. eigenvalues --   -1.13233  -1.13189  -1.11754  -1.11728  -1.11693
 Alpha  occ. eigenvalues --   -0.16942  -0.14413  -0.10753  -0.10339
 Alpha virt. eigenvalues --   -0.07842  -0.05504  -0.05331  -0.03025  -0.02926
 Alpha virt. eigenvalues --   -0.02269  -0.02007  -0.01684  -0.01589  -0.00739
 Alpha virt. eigenvalues --   -0.00476   0.00058   0.00070   0.00298   0.00373

  Beta  occ. eigenvalues --  -38.47414 -38.45189 -38.44225 -38.44218 -38.43816
  Beta  occ. eigenvalues --  -38.43742 -38.42274  -2.23178  -2.20961  -2.20001
  Beta  occ. eigenvalues --   -2.19941  -2.19609  -2.19550  -2.18068  -1.16863
  Beta  occ. eigenvalues --   -1.16811  -1.16800  -1.14669  -1.14618  -1.14602
  Beta  occ. eigenvalues --   -1.13725  -1.13699  -1.13640  -1.13638  -1.13598
  Beta  occ. eigenvalues --   -1.13568  -1.13312  -1.13305  -1.13288  -1.13240
  Beta  occ. eigenvalues --   -1.13187  -1.13150  -1.11761  -1.11734  -1.11691
  Beta  occ. eigenvalues --   -0.16462  -0.14025  -0.10202
  Beta virt. eigenvalues --   -0.07648  -0.07121  -0.05166  -0.04806  -0.02893
  Beta virt. eigenvalues --   -0.02681  -0.02076  -0.01512  -0.01339  -0.01212
  Beta virt. eigenvalues --   -0.00524  -0.00338   0.00121   0.00173   0.00455

 Mulliken charges and spin densities:
               1          2
     1  Na  -0.373451  -0.040724
     2  Na   0.408143   0.072132
     3  Na   0.523158   0.251777
     4  Na  -0.479133   0.248047
     5  Na  -0.316835   0.038896
     6  Na   0.463077   0.406663
     7  Na  -0.224960   0.023209
 Sum of Mulliken charges =  -0.00000   1.00000

 Dipole moment (field-independent basis, Debye):
    X=              1.9495    Y=             -0.4138    Z=              0.7303  Tot=              2.1226
 Quadrupole moment (field-independent basis, Debye-Ang):
   XX=            -54.2540   YY=            -82.5491   ZZ=            -59.2865
   XY=              1.3341   XZ=              5.7188   YZ=             -3.2580

 Normal termination of Gaussian 16 at Fri Dec  8 18:52:41 2023.
