 Gaussian 16, Revision B.01,
 Gaussian 16:  ES64L-G16RevB.01 20-Dec-2017

 -------------------------
 #P B3LYP/6-311+g(d) force
 -------------------------

 -----
 DPGEN
 -----
 Symbolic Z-matrix:
 Charge =  0 Multiplicity = 2

                         Standard orientation:
 ---------------------------------------------------------------------
 Center     Atomic      Atomic             Coordinates (Angstroms)
 Number     Number       Type             X           Y           Z
 ---------------------------------------------------------------------
      1         11           0       -0.087772    2.263200   -0.616394
      2         11           0        3.771564    1.330648   -0.746152
      3         11           0       -0.245086   -0.339875    1.915199
      4         11           0       -3.352356    1.461564    0.756144
      5         11           0        3.114189   -1.637684    0.793734
      6         11           0        0.117784   -1.489139   -1.072258
      7         11           0       -3.318322   -1.588714   -1.030271
 ---------------------------------------------------------------------

 SCF Done:  E(UB3LYP) =  -1136.11525441     A.U. after   28 cycles

 The electronic state is 2-A.
 Alpha  occ. eigenvalues --  -38.45054 -38.44803 -38.44269 -38.44258 -38.44214
 Alpha  occ. eigenvalues --  -38.43889 -38.43837  -2.20843  -2.20605  -2.20140
 Alpha  occ. eigenvalues --   -2.20068  -2.20048  -2.19661  -2.19651  -1.14521
 Alpha  occ. eigenvalues --   -1.14493  -1.14477  -1.14285  -1.14266  -1.14249
 Alpha  occ. eigenvalues --   -1.13880  -1.13783  -1.13749  -1.13739  -1.13712
 Alpha  occ. eigenvalues --   -1.13711  -1.13692  -1.13672  -1.13669  -1.13377
 Alpha  occ. eigenvalues --   -1.13351  -1.13311  -1.13296  -1.13279  -1.13269
 Alpha  occ. eigenvalues --   -0.17751  -0.14040  -0.11363  -0.10711
 Alpha virt. eigenvalues --   -0.07552  -0.05731  -0.04384  -0.03220  -0.03173
 Alpha virt. eigenvalues --   -0.02506  -0.02004  -0.01909  -0.00958  -0.00389
 Alpha virt. eigenvalues --   -0.00095   0.00100   0.00314   0.00411   0.00516

  Beta  occ. eigenvalues --  -38.45039 -38.44802 -38.44205 -38.44201 -38.44183
  Beta  occ. eigenvalues --  -38.43912 -38.43786  -2.20818  -2.20606  -2.20046
  Beta  occ. eigenvalues --   -2.19982  -2.19948  -2.19705  -2.19558  -1.14500
  Beta  occ. eigenvalues --   -1.14475  -1.14452  -1.14288  -1.14265  -1.14225
  Beta  occ. eigenvalues --   -1.13810  -1.13729  -1.13696  -1.13665  -1.13645
  Beta  occ. eigenvalues --   -1.13643  -1.13625  -1.13605  -1.13595  -1.13410
  Beta  occ. eigenvalues --   -1.13372  -1.13292  -1.13242  -1.13230  -1.13221
  Beta  occ. eigenvalues --   -0.17219  -0.13577  -0.10990
  Beta virt. eigenvalues --   -0.07431  -0.07287  -0.05375  -0.03920  -0.03086
  Beta virt. eigenvalues --   -0.02866  -0.02083  -0.01689  -0.01371  -0.00681
  Beta virt. eigenvalues --   -0.00298  -0.00010   0.00147   0.00437   0.00563

 Mulliken charges and spin densities:
               1          2
     1  Na  -0.338659  -0.173763
     2  Na  -0.185408   0.226546
     3  Na  -0.354127   0.268744
     4  Na   0.583166   0.245129
     5  Na   0.857751   0.035096
     6  Na  -0.362848   0.296702
     7  Na  -0.199875   0.101547
 Sum of Mulliken charges =  -0.00000   1.00000

 Dipole moment (field-independent basis, Debye):
    X=             -0.1625    Y=             -0.1881    Z=              0.8969  Tot=              0.9307
 Quadrupole moment (field-independent basis, Debye-Ang):
   XX=            -51.0667   YY=            -76.9114   ZZ=            -70.0306
   XY=             -6.2085   XZ=             -0.7981   YZ=             -1.1721

 Normal termination of Gaussian 16 at Mon Dec  4 02:28:18 2023.
