 Gaussian 16, Revision B.01,
 Gaussian 16:  ES64L-G16RevB.01 20-Dec-2017

 -------------------------
 #P B3LYP/6-311+g(d) force
 -------------------------

 -----
 DPGEN
 -----
 Symbolic Z-matrix:
 Charge =  0 Multiplicity = 2

                         Standard orientation:
 ---------------------------------------------------------------------
 Center     Atomic      Atomic             Coordinates (Angstroms)
 Number     Number       Type             X           Y           Z
 ---------------------------------------------------------------------
      1         11           0        0.930235    2.503786   -0.505676
      2         11           0       -2.396191   -2.141349    0.184821
      3         11           0        0.180510    0.077982    2.122307
      4         11           0        3.428248   -0.035146   -0.011288
      5         11           0        1.041617   -2.438561   -0.416457
      6         11           0       -2.297481    2.134163    0.152948
      7         11           0       -0.886939   -0.100875   -1.526654
 ---------------------------------------------------------------------

 SCF Done:  E(UB3LYP) =  -1136.13478251     A.U. after   19 cycles

 The electronic state is 2-A.
 Alpha  occ. eigenvalues --  -38.43909 -38.43870 -38.43860 -38.43720 -38.43525
 Alpha  occ. eigenvalues --  -38.43514 -38.43131  -2.19755  -2.19720  -2.19670
 Alpha  occ. eigenvalues --   -2.19584  -2.19398  -2.19384  -2.19150  -1.13475
 Alpha  occ. eigenvalues --   -1.13428  -1.13403  -1.13386  -1.13373  -1.13357
 Alpha  occ. eigenvalues --   -1.13341  -1.13334  -1.13318  -1.13249  -1.13216
 Alpha  occ. eigenvalues --   -1.13196  -1.13118  -1.13085  -1.13062  -1.13046
 Alpha  occ. eigenvalues --   -1.13003  -1.12995  -1.12807  -1.12799  -1.12758
 Alpha  occ. eigenvalues --   -0.18608  -0.12825  -0.12733  -0.10733
 Alpha virt. eigenvalues --   -0.05535  -0.05419  -0.04604  -0.03106  -0.03063
 Alpha virt. eigenvalues --   -0.02556  -0.01497  -0.01293  -0.00341  -0.00185
 Alpha virt. eigenvalues --   -0.00011   0.00326   0.00805   0.00841   0.00889

  Beta  occ. eigenvalues --  -38.43906 -38.43871 -38.43856 -38.43620 -38.43514
  Beta  occ. eigenvalues --  -38.43502 -38.43079  -2.19753  -2.19716  -2.19674
  Beta  occ. eigenvalues --   -2.19400  -2.19382  -2.19364  -2.19056  -1.13469
  Beta  occ. eigenvalues --   -1.13422  -1.13394  -1.13376  -1.13368  -1.13346
  Beta  occ. eigenvalues --   -1.13339  -1.13326  -1.13319  -1.13132  -1.13101
  Beta  occ. eigenvalues --   -1.13088  -1.13066  -1.13061  -1.13029  -1.13012
  Beta  occ. eigenvalues --   -1.12996  -1.12985  -1.12743  -1.12729  -1.12689
  Beta  occ. eigenvalues --   -0.17880  -0.12643  -0.12507
  Beta virt. eigenvalues --   -0.06787  -0.05450  -0.05407  -0.04565  -0.02384
  Beta virt. eigenvalues --   -0.02277  -0.01499  -0.01427  -0.01231  -0.00334
  Beta virt. eigenvalues --   -0.00218   0.00141   0.00369   0.00840   0.00862

 Mulliken charges and spin densities:
               1          2
     1  Na   0.011041   0.022594
     2  Na   0.204132  -0.004459
     3  Na  -0.557817   0.768028
     4  Na   0.006135  -0.034485
     5  Na   0.001469   0.004740
     6  Na   0.241390   0.008838
     7  Na   0.093648   0.234744
 Sum of Mulliken charges =  -0.00000   1.00000

 Dipole moment (field-independent basis, Debye):
    X=             -0.2117    Y=              0.0201    Z=              0.2741  Tot=              0.3470
 Quadrupole moment (field-independent basis, Debye-Ang):
   XX=            -56.1422   YY=            -63.2255   ZZ=            -74.2900
   XY=              0.3668   XZ=             -2.0515   YZ=             -0.3959

 Normal termination of Gaussian 16 at Thu Dec  7 04:36:28 2023.
