 Gaussian 16, Revision B.01,
 Gaussian 16:  ES64L-G16RevB.01 20-Dec-2017

 -------------------------
 #P B3LYP/6-311+g(d) force
 -------------------------

 -----
 DPGEN
 -----
 Symbolic Z-matrix:
 Charge =  0 Multiplicity = 2

                         Standard orientation:
 ---------------------------------------------------------------------
 Center     Atomic      Atomic             Coordinates (Angstroms)
 Number     Number       Type             X           Y           Z
 ---------------------------------------------------------------------
      1         11           0        2.017654    0.693099   -0.476303
      2         11           0       -3.390576   -2.190642   -0.128955
      3         11           0       -2.181640    0.677420   -1.402783
      4         11           0       -1.055770    0.716387    2.185580
      5         11           0        0.154077   -2.139181    0.037008
      6         11           0       -0.121413    3.517597   -0.159033
      7         11           0        4.577667   -1.274681   -0.055514
 ---------------------------------------------------------------------

 SCF Done:  E(UB3LYP) =  -1136.12561793     A.U. after   21 cycles

 The electronic state is 2-A.
 Alpha  occ. eigenvalues --  -38.44698 -38.44473 -38.44186 -38.44086 -38.44069
 Alpha  occ. eigenvalues --  -38.43498 -38.43488  -2.20497  -2.20242  -2.19990
 Alpha  occ. eigenvalues --   -2.19911  -2.19906  -2.19343  -2.19297  -1.14221
 Alpha  occ. eigenvalues --   -1.14181  -1.14079  -1.13918  -1.13904  -1.13869
 Alpha  occ. eigenvalues --   -1.13674  -1.13651  -1.13626  -1.13601  -1.13576
 Alpha  occ. eigenvalues --   -1.13571  -1.13547  -1.13510  -1.13490  -1.13065
 Alpha  occ. eigenvalues --   -1.13028  -1.12983  -1.12957  -1.12940  -1.12912
 Alpha  occ. eigenvalues --   -0.17523  -0.13194  -0.12315  -0.10388
 Alpha virt. eigenvalues --   -0.06720  -0.05606  -0.04633  -0.03015  -0.02608
 Alpha virt. eigenvalues --   -0.02594  -0.02288  -0.01705  -0.00945  -0.00372
 Alpha virt. eigenvalues --   -0.00304   0.00020   0.00455   0.00611   0.00635

  Beta  occ. eigenvalues --  -38.44686 -38.44469 -38.44177 -38.44017 -38.43991
  Beta  occ. eigenvalues --  -38.43494 -38.43484  -2.20477  -2.20235  -2.19975
  Beta  occ. eigenvalues --   -2.19811  -2.19735  -2.19336  -2.19292  -1.14211
  Beta  occ. eigenvalues --   -1.14142  -1.14074  -1.13913  -1.13898  -1.13866
  Beta  occ. eigenvalues --   -1.13658  -1.13633  -1.13610  -1.13537  -1.13503
  Beta  occ. eigenvalues --   -1.13449  -1.13435  -1.13420  -1.13385  -1.13061
  Beta  occ. eigenvalues --   -1.13007  -1.12981  -1.12941  -1.12936  -1.12912
  Beta  occ. eigenvalues --   -0.16896  -0.12949  -0.12171
  Beta virt. eigenvalues --   -0.06749  -0.06298  -0.05449  -0.04527  -0.02552
  Beta virt. eigenvalues --   -0.02396  -0.02164  -0.01667  -0.01416  -0.00842
  Beta virt. eigenvalues --   -0.00224  -0.00002   0.00117   0.00639   0.00666

 Mulliken charges and spin densities:
               1          2
     1  Na  -1.050571   0.057317
     2  Na   0.553249   0.093406
     3  Na  -0.116834   0.331171
     4  Na  -0.053711   0.419376
     5  Na  -0.477620   0.027550
     6  Na   0.800428   0.025912
     7  Na   0.345058   0.045267
 Sum of Mulliken charges =  -0.00000   1.00000

 Dipole moment (field-independent basis, Debye):
    X=             -0.0025    Y=             -0.5383    Z=              0.5560  Tot=              0.7739
 Quadrupole moment (field-independent basis, Debye-Ang):
   XX=            -56.1717   YY=            -62.0947   ZZ=            -74.7359
   XY=              0.2153   XZ=             -1.3066   YZ=             -0.1265

 Normal termination of Gaussian 16 at Thu Dec  7 15:43:33 2023.
