 Gaussian 16, Revision B.01,
 Gaussian 16:  ES64L-G16RevB.01 20-Dec-2017

 -------------------------
 #P B3LYP/6-311+g(d) force
 -------------------------

 -----
 DPGEN
 -----
 Symbolic Z-matrix:
 Charge =  0 Multiplicity = 2

                         Standard orientation:
 ---------------------------------------------------------------------
 Center     Atomic      Atomic             Coordinates (Angstroms)
 Number     Number       Type             X           Y           Z
 ---------------------------------------------------------------------
      1         11           0        1.501301    2.656110    0.046568
      2         11           0        0.041100   -0.049558    2.067765
      3         11           0       -2.015956    2.054477   -0.159009
      4         11           0        2.927139   -0.628283   -0.406306
      5         11           0       -2.957675   -1.088496   -0.266860
      6         11           0        0.419574   -2.911006    0.098309
      7         11           0        0.084517   -0.033244   -1.380467
 ---------------------------------------------------------------------

 SCF Done:  E(UB3LYP) =  -1136.13814340     A.U. after   19 cycles

 The electronic state is 2-A.
 Alpha  occ. eigenvalues --  -38.43802 -38.43779 -38.43530 -38.43460 -38.43443
 Alpha  occ. eigenvalues --  -38.43432 -38.42829  -2.19681  -2.19618  -2.19414
 Alpha  occ. eigenvalues --   -2.19336  -2.19325  -2.19288  -2.18909  -1.13410
 Alpha  occ. eigenvalues --   -1.13327  -1.13304  -1.13301  -1.13285  -1.13257
 Alpha  occ. eigenvalues --   -1.13121  -1.13074  -1.13035  -1.13034  -1.13008
 Alpha  occ. eigenvalues --   -1.12992  -1.12966  -1.12960  -1.12948  -1.12946
 Alpha  occ. eigenvalues --   -1.12929  -1.12923  -1.12591  -1.12553  -1.12522
 Alpha  occ. eigenvalues --   -0.18923  -0.13093  -0.12587  -0.10647
 Alpha virt. eigenvalues --   -0.05375  -0.05117  -0.04896  -0.03014  -0.02821
 Alpha virt. eigenvalues --   -0.02425  -0.01448  -0.01212  -0.00358  -0.00277
 Alpha virt. eigenvalues --    0.00017   0.00347   0.00833   0.00888   0.00901

  Beta  occ. eigenvalues --  -38.43789 -38.43774 -38.43524 -38.43454 -38.43440
  Beta  occ. eigenvalues --  -38.43329 -38.42778  -2.19661  -2.19611  -2.19406
  Beta  occ. eigenvalues --   -2.19318  -2.19286  -2.19145  -2.18818  -1.13389
  Beta  occ. eigenvalues --   -1.13299  -1.13296  -1.13291  -1.13273  -1.13246
  Beta  occ. eigenvalues --   -1.13112  -1.13051  -1.13027  -1.13018  -1.12965
  Beta  occ. eigenvalues --   -1.12962  -1.12946  -1.12936  -1.12919  -1.12879
  Beta  occ. eigenvalues --   -1.12821  -1.12804  -1.12518  -1.12485  -1.12458
  Beta  occ. eigenvalues --   -0.18208  -0.12813  -0.12359
  Beta virt. eigenvalues --   -0.06709  -0.05331  -0.05122  -0.04857  -0.02245
  Beta virt. eigenvalues --   -0.02053  -0.01370  -0.01324  -0.01141  -0.00396
  Beta virt. eigenvalues --   -0.00320   0.00158   0.00387   0.00881   0.00891

 Mulliken charges and spin densities:
               1          2
     1  Na   0.219256   0.010353
     2  Na  -0.541588   0.762782
     3  Na   0.250525   0.012484
     4  Na   0.361589   0.034570
     5  Na   0.179382  -0.004520
     6  Na   0.268911   0.021726
     7  Na  -0.738075   0.162605
 Sum of Mulliken charges =  -0.00000   1.00000

 Dipole moment (field-independent basis, Debye):
    X=              0.0020    Y=             -0.0700    Z=              0.2330  Tot=              0.2433
 Quadrupole moment (field-independent basis, Debye-Ang):
   XX=            -57.3159   YY=            -60.0058   ZZ=            -75.1567
   XY=              0.7810   XZ=              0.0142   YZ=              0.1563

 Normal termination of Gaussian 16 at Thu Dec  7 04:40:22 2023.
