 Gaussian 16, Revision B.01,
 Gaussian 16:  ES64L-G16RevB.01 20-Dec-2017

 -------------------------
 #P B3LYP/6-311+g(d) force
 -------------------------

 -----
 DPGEN
 -----
 Symbolic Z-matrix:
 Charge =  0 Multiplicity = 2

                         Standard orientation:
 ---------------------------------------------------------------------
 Center     Atomic      Atomic             Coordinates (Angstroms)
 Number     Number       Type             X           Y           Z
 ---------------------------------------------------------------------
      1         11           0        1.740487    1.742661    0.874496
      2         11           0        4.407239    0.276047   -0.167983
      3         11           0       -3.716590   -0.743681   -0.137602
      4         11           0       -0.962706    0.305601   -1.375343
      5         11           0        1.278788   -1.982669   -0.930196
      6         11           0       -0.653385   -2.320262    1.533248
      7         11           0       -2.093834    2.722303    0.203380
 ---------------------------------------------------------------------

 SCF Done:  E(UB3LYP) =  -1136.11562830     A.U. after   24 cycles

 The electronic state is 2-A.
 Alpha  occ. eigenvalues --  -38.44758 -38.44163 -38.44068 -38.44063 -38.43874
 Alpha  occ. eigenvalues --  -38.43739 -38.43646  -2.20555  -2.19960  -2.19899
 Alpha  occ. eigenvalues --   -2.19886  -2.19706  -2.19690  -2.19528  -1.14236
 Alpha  occ. eigenvalues --   -1.14233  -1.14184  -1.13662  -1.13630  -1.13622
 Alpha  occ. eigenvalues --   -1.13607  -1.13596  -1.13554  -1.13540  -1.13511
 Alpha  occ. eigenvalues --   -1.13494  -1.13384  -1.13352  -1.13336  -1.13334
 Alpha  occ. eigenvalues --   -1.13328  -1.13308  -1.13196  -1.13184  -1.13121
 Alpha  occ. eigenvalues --   -0.17696  -0.13709  -0.12305  -0.10052
 Alpha virt. eigenvalues --   -0.07356  -0.05515  -0.03771  -0.03665  -0.03161
 Alpha virt. eigenvalues --   -0.02694  -0.01587  -0.01511  -0.00949  -0.00429
 Alpha virt. eigenvalues --   -0.00297  -0.00007   0.00248   0.00571   0.00733

  Beta  occ. eigenvalues --  -38.44763 -38.44162 -38.44061 -38.43997 -38.43817
  Beta  occ. eigenvalues --  -38.43699 -38.43611  -2.20565  -2.19963  -2.19875
  Beta  occ. eigenvalues --   -2.19774  -2.19636  -2.19584  -2.19465  -1.14245
  Beta  occ. eigenvalues --   -1.14225  -1.14189  -1.13667  -1.13634  -1.13600
  Beta  occ. eigenvalues --   -1.13574  -1.13545  -1.13521  -1.13489  -1.13454
  Beta  occ. eigenvalues --   -1.13414  -1.13331  -1.13293  -1.13274  -1.13263
  Beta  occ. eigenvalues --   -1.13258  -1.13243  -1.13157  -1.13128  -1.13084
  Beta  occ. eigenvalues --   -0.17198  -0.13127  -0.12012
  Beta virt. eigenvalues --   -0.07123  -0.06635  -0.05405  -0.03554  -0.03166
  Beta virt. eigenvalues --   -0.02850  -0.02348  -0.01412  -0.01164  -0.00680
  Beta virt. eigenvalues --   -0.00203   0.00025   0.00155   0.00384   0.00627

 Mulliken charges and spin densities:
               1          2
     1  Na  -0.449243   0.069092
     2  Na   0.214936   0.252161
     3  Na  -0.091484   0.504788
     4  Na   0.465986   0.023874
     5  Na  -0.040622   0.144639
     6  Na  -0.076515  -0.030906
     7  Na  -0.023057   0.036351
 Sum of Mulliken charges =  -0.00000   1.00000

 Dipole moment (field-independent basis, Debye):
    X=             -0.2725    Y=             -0.1896    Z=              0.2134  Tot=              0.3946
 Quadrupole moment (field-independent basis, Debye-Ang):
   XX=            -69.7326   YY=            -69.4796   ZZ=            -64.4179
   XY=             -7.2324   XZ=             -2.0049   YZ=              2.2305

 Normal termination of Gaussian 16 at Sun Dec  3 17:31:24 2023.
