 Gaussian 16, Revision B.01,
 Gaussian 16:  ES64L-G16RevB.01 20-Dec-2017

 -------------------------
 #P B3LYP/6-311+g(d) force
 -------------------------

 -----
 DPGEN
 -----
 Symbolic Z-matrix:
 Charge =  0 Multiplicity = 2

                         Standard orientation:
 ---------------------------------------------------------------------
 Center     Atomic      Atomic             Coordinates (Angstroms)
 Number     Number       Type             X           Y           Z
 ---------------------------------------------------------------------
      1         11           0       -1.801466    2.599097    0.267761
      2         11           0       -0.498554   -2.671315    0.455940
      3         11           0        0.358431   -0.326635   -2.331812
      4         11           0        3.341724   -0.821048   -0.188071
      5         11           0        1.351971    2.283433   -0.231705
      6         11           0       -3.276400   -0.968678   -0.374668
      7         11           0        0.524294   -0.094855    2.402555
 ---------------------------------------------------------------------

 SCF Done:  E(UB3LYP) =  -1136.12911424     A.U. after   19 cycles

 The electronic state is 2-A.
 Alpha  occ. eigenvalues --  -38.44940 -38.44826 -38.44309 -38.44123 -38.43397
 Alpha  occ. eigenvalues --  -38.43241 -38.43190  -2.20758  -2.20655  -2.20081
 Alpha  occ. eigenvalues --   -2.19896  -2.19226  -2.19056  -2.19038  -1.14419
 Alpha  occ. eigenvalues --   -1.14400  -1.14367  -1.14314  -1.14286  -1.14267
 Alpha  occ. eigenvalues --   -1.13754  -1.13742  -1.13728  -1.13569  -1.13554
 Alpha  occ. eigenvalues --   -1.13544  -1.12921  -1.12891  -1.12849  -1.12788
 Alpha  occ. eigenvalues --   -1.12739  -1.12717  -1.12701  -1.12683  -1.12630
 Alpha  occ. eigenvalues --   -0.17772  -0.12565  -0.12024  -0.11699
 Alpha virt. eigenvalues --   -0.05978  -0.04916  -0.04636  -0.03521  -0.03450
 Alpha virt. eigenvalues --   -0.03222  -0.01659  -0.00835  -0.00369  -0.00213
 Alpha virt. eigenvalues --   -0.00069   0.00323   0.00380   0.00662   0.00855

  Beta  occ. eigenvalues --  -38.44856 -38.44727 -38.44312 -38.44123 -38.43388
  Beta  occ. eigenvalues --  -38.43242 -38.43184  -2.20601  -2.20473  -2.20090
  Beta  occ. eigenvalues --   -2.19896  -2.19213  -2.19048  -2.19042  -1.14315
  Beta  occ. eigenvalues --   -1.14291  -1.14252  -1.14192  -1.14159  -1.14137
  Beta  occ. eigenvalues --   -1.13756  -1.13737  -1.13732  -1.13564  -1.13554
  Beta  occ. eigenvalues --   -1.13545  -1.12904  -1.12867  -1.12841  -1.12789
  Beta  occ. eigenvalues --   -1.12718  -1.12709  -1.12693  -1.12686  -1.12630
  Beta  occ. eigenvalues --   -0.16964  -0.12428  -0.11841
  Beta virt. eigenvalues --   -0.07772  -0.05814  -0.04917  -0.04266  -0.02790
  Beta virt. eigenvalues --   -0.02690  -0.02490  -0.01567  -0.00820  -0.00310
  Beta virt. eigenvalues --   -0.00112  -0.00044   0.00411   0.00630   0.00799

 Mulliken charges and spin densities:
               1          2
     1  Na  -0.102340  -0.072300
     2  Na  -0.020484  -0.034411
     3  Na  -0.141236   0.595701
     4  Na   0.346118  -0.112784
     5  Na  -0.029577   0.062099
     6  Na   0.002835  -0.023358
     7  Na  -0.055316   0.585053
 Sum of Mulliken charges =  -0.00000   1.00000

 Dipole moment (field-independent basis, Debye):
    X=              0.3552    Y=             -0.3827    Z=             -0.1108  Tot=              0.5338
 Quadrupole moment (field-independent basis, Debye-Ang):
   XX=            -58.5971   YY=            -71.5764   ZZ=            -67.2518
   XY=             -1.3682   XZ=              0.5266   YZ=              0.3764

 Normal termination of Gaussian 16 at Sun Dec  3 22:58:27 2023.
