 Gaussian 16, Revision B.01,
 Gaussian 16:  ES64L-G16RevB.01 20-Dec-2017

 -------------------------
 #P B3LYP/6-311+g(d) force
 -------------------------

 -----
 DPGEN
 -----
 Symbolic Z-matrix:
 Charge =  0 Multiplicity = 2

                         Standard orientation:
 ---------------------------------------------------------------------
 Center     Atomic      Atomic             Coordinates (Angstroms)
 Number     Number       Type             X           Y           Z
 ---------------------------------------------------------------------
      1         11           0       -3.159702    0.594446    0.057312
      2         11           0        0.081639    0.193996    1.871278
      3         11           0        0.215056    0.153098   -1.483439
      4         11           0       -1.704560   -2.126084   -0.342588
      5         11           0        1.535162   -2.281403    0.194445
      6         11           0       -0.067497    2.852908   -0.121732
      7         11           0        3.099903    0.613039   -0.175277
 ---------------------------------------------------------------------

 SCF Done:  E(UB3LYP) =  -1136.13331262     A.U. after   20 cycles

 The electronic state is 2-A.
 Alpha  occ. eigenvalues --  -38.44342 -38.44332 -38.43346 -38.43160 -38.43144
 Alpha  occ. eigenvalues --  -38.43117 -38.42907  -2.20202  -2.20168  -2.19223
 Alpha  occ. eigenvalues --   -2.19127  -2.19073  -2.19049  -2.18994  -1.13896
 Alpha  occ. eigenvalues --   -1.13864  -1.13858  -1.13831  -1.13830  -1.13796
 Alpha  occ. eigenvalues --   -1.12991  -1.12908  -1.12862  -1.12824  -1.12797
 Alpha  occ. eigenvalues --   -1.12767  -1.12750  -1.12741  -1.12725  -1.12710
 Alpha  occ. eigenvalues --   -1.12682  -1.12651  -1.12647  -1.12594  -1.12587
 Alpha  occ. eigenvalues --   -0.19280  -0.13351  -0.12525  -0.10626
 Alpha virt. eigenvalues --   -0.06046  -0.04740  -0.04540  -0.03139  -0.02754
 Alpha virt. eigenvalues --   -0.02249  -0.01840  -0.00970  -0.00295  -0.00073
 Alpha virt. eigenvalues --    0.00054   0.00345   0.00858   0.00877   0.00964

  Beta  occ. eigenvalues --  -38.44335 -38.44331 -38.43339 -38.43134 -38.43107
  Beta  occ. eigenvalues --  -38.43069 -38.42843  -2.20192  -2.20169  -2.19215
  Beta  occ. eigenvalues --   -2.19059  -2.19036  -2.18959  -2.18880  -1.13885
  Beta  occ. eigenvalues --   -1.13867  -1.13832  -1.13827  -1.13811  -1.13798
  Beta  occ. eigenvalues --   -1.12974  -1.12869  -1.12823  -1.12818  -1.12750
  Beta  occ. eigenvalues --   -1.12737  -1.12699  -1.12684  -1.12669  -1.12644
  Beta  occ. eigenvalues --   -1.12616  -1.12598  -1.12568  -1.12520  -1.12510
  Beta  occ. eigenvalues --   -0.18549  -0.13099  -0.12242
  Beta virt. eigenvalues --   -0.06681  -0.06018  -0.04740  -0.04531  -0.02353
  Beta virt. eigenvalues --   -0.01944  -0.01762  -0.01185  -0.00906  -0.00349
  Beta virt. eigenvalues --   -0.00079   0.00159   0.00373   0.00869   0.00894

 Mulliken charges and spin densities:
               1          2
     1  Na   0.092982  -0.043342
     2  Na  -0.508755   0.705190
     3  Na  -0.565010   0.401662
     4  Na   0.228656   0.027350
     5  Na   0.343086   0.086824
     6  Na   0.112229  -0.124536
     7  Na   0.296812  -0.053146
 Sum of Mulliken charges =  -0.00000   1.00000

 Dipole moment (field-independent basis, Debye):
    X=              0.0763    Y=              0.3632    Z=              0.2030  Tot=              0.4230
 Quadrupole moment (field-independent basis, Debye-Ang):
   XX=            -52.7925   YY=            -63.9974   ZZ=            -75.3271
   XY=             -0.4875   XZ=              0.0062   YZ=             -0.0590

 Normal termination of Gaussian 16 at Thu Dec  7 17:32:04 2023.
