 Gaussian 16, Revision B.01,
 Gaussian 16:  ES64L-G16RevB.01 20-Dec-2017

 -------------------------
 #P B3LYP/6-311+g(d) force
 -------------------------

 -----
 DPGEN
 -----
 Symbolic Z-matrix:
 Charge =  0 Multiplicity = 2

                         Standard orientation:
 ---------------------------------------------------------------------
 Center     Atomic      Atomic             Coordinates (Angstroms)
 Number     Number       Type             X           Y           Z
 ---------------------------------------------------------------------
      1         11           0       -0.364350   -2.536373    0.073918
      2         11           0        2.946005   -1.256938   -0.009101
      3         11           0       -0.045380   -0.068435    1.878876
      4         11           0        0.221835   -0.016970   -1.803011
      5         11           0       -3.130602   -0.731057   -0.195482
      6         11           0       -1.596551    2.408017    0.050736
      7         11           0        1.969042    2.201756    0.004064
 ---------------------------------------------------------------------

 SCF Done:  E(UB3LYP) =  -1136.13893143     A.U. after   19 cycles

 The electronic state is 2-A.
 Alpha  occ. eigenvalues --  -38.44020 -38.43995 -38.43533 -38.43380 -38.43337
 Alpha  occ. eigenvalues --  -38.43333 -38.43006  -2.19855  -2.19825  -2.19385
 Alpha  occ. eigenvalues --   -2.19339  -2.19298  -2.19189  -2.18947  -1.13520
 Alpha  occ. eigenvalues --   -1.13516  -1.13506  -1.13497  -1.13482  -1.13472
 Alpha  occ. eigenvalues --   -1.13087  -1.13062  -1.13057  -1.13014  -1.12992
 Alpha  occ. eigenvalues --   -1.12977  -1.12941  -1.12935  -1.12905  -1.12858
 Alpha  occ. eigenvalues --   -1.12850  -1.12816  -1.12633  -1.12611  -1.12543
 Alpha  occ. eigenvalues --   -0.18964  -0.13094  -0.12456  -0.10801
 Alpha virt. eigenvalues --   -0.05682  -0.05242  -0.04343  -0.03175  -0.02880
 Alpha virt. eigenvalues --   -0.02532  -0.01676  -0.01084  -0.00239  -0.00104
 Alpha virt. eigenvalues --   -0.00013   0.00350   0.00781   0.00898   0.00928

  Beta  occ. eigenvalues --  -38.44017 -38.43992 -38.43528 -38.43333 -38.43292
  Beta  occ. eigenvalues --  -38.43256 -38.42994  -2.19853  -2.19824  -2.19380
  Beta  occ. eigenvalues --   -2.19185  -2.19178  -2.19157  -2.18931  -1.13522
  Beta  occ. eigenvalues --   -1.13507  -1.13494  -1.13486  -1.13478  -1.13467
  Beta  occ. eigenvalues --   -1.13074  -1.13033  -1.13013  -1.12959  -1.12900
  Beta  occ. eigenvalues --   -1.12887  -1.12856  -1.12840  -1.12824  -1.12817
  Beta  occ. eigenvalues --   -1.12811  -1.12794  -1.12617  -1.12554  -1.12538
  Beta  occ. eigenvalues --   -0.18210  -0.12866  -0.12185
  Beta virt. eigenvalues --   -0.06866  -0.05634  -0.05261  -0.04333  -0.02391
  Beta virt. eigenvalues --   -0.02052  -0.01588  -0.01462  -0.01033  -0.00298
  Beta virt. eigenvalues --   -0.00149   0.00116   0.00369   0.00838   0.00884

 Mulliken charges and spin densities:
               1          2
     1  Na   0.396907  -0.058256
     2  Na   0.205019  -0.104408
     3  Na  -0.405819   0.732496
     4  Na  -0.420528   0.733388
     5  Na   0.048455  -0.057816
     6  Na   0.088179  -0.110464
     7  Na   0.087787  -0.134939
 Sum of Mulliken charges =  -0.00000   1.00000

 Dipole moment (field-independent basis, Debye):
    X=              0.1072    Y=              0.0556    Z=             -0.0126  Tot=              0.1214
 Quadrupole moment (field-independent basis, Debye-Ang):
   XX=            -53.7948   YY=            -65.0761   ZZ=            -74.0521
   XY=             -0.2988   XZ=              0.7526   YZ=              0.2103

 Normal termination of Gaussian 16 at Thu Dec  7 12:43:39 2023.
