 Gaussian 16, Revision B.01,
 Gaussian 16:  ES64L-G16RevB.01 20-Dec-2017

 -------------------------
 #P B3LYP/6-311+g(d) force
 -------------------------

 -----
 DPGEN
 -----
 Symbolic Z-matrix:
 Charge =  0 Multiplicity = 2

                         Standard orientation:
 ---------------------------------------------------------------------
 Center     Atomic      Atomic             Coordinates (Angstroms)
 Number     Number       Type             X           Y           Z
 ---------------------------------------------------------------------
      1         11           0        2.765221    0.502456    1.490350
      2         11           0        0.683561    3.022514    0.552159
      3         11           0       -1.856385   -2.884894    0.803172
      4         11           0       -4.313603   -0.571956   -0.369320
      5         11           0        1.173589   -2.600899   -0.424377
      6         11           0       -2.516603    2.814166   -0.643851
      7         11           0        4.064219   -0.281387   -1.408133
 ---------------------------------------------------------------------

 SCF Done:  E(UB3LYP) =  -1136.11212371     A.U. after   21 cycles

 The electronic state is 2-A.
 Alpha  occ. eigenvalues --  -38.45214 -38.44911 -38.44620 -38.44548 -38.44347
 Alpha  occ. eigenvalues --  -38.43646 -38.43591  -2.21023  -2.20704  -2.20384
 Alpha  occ. eigenvalues --   -2.20292  -2.20174  -2.19446  -2.19395  -1.14707
 Alpha  occ. eigenvalues --   -1.14694  -1.14661  -1.14389  -1.14381  -1.14316
 Alpha  occ. eigenvalues --   -1.14055  -1.14033  -1.14011  -1.13984  -1.13970
 Alpha  occ. eigenvalues --   -1.13928  -1.13826  -1.13812  -1.13786  -1.13118
 Alpha  occ. eigenvalues --   -1.13110  -1.13085  -1.13059  -1.13054  -1.13026
 Alpha  occ. eigenvalues --   -0.16233  -0.13739  -0.12908  -0.10541
 Alpha virt. eigenvalues --   -0.07372  -0.05685  -0.04248  -0.03453  -0.03226
 Alpha virt. eigenvalues --   -0.02386  -0.02078  -0.01448  -0.01253  -0.00911
 Alpha virt. eigenvalues --   -0.00622  -0.00183   0.00122   0.00393   0.00574

  Beta  occ. eigenvalues --  -38.45204 -38.44874 -38.44577 -38.44564 -38.44270
  Beta  occ. eigenvalues --  -38.43629 -38.43556  -2.21010  -2.20641  -2.20323
  Beta  occ. eigenvalues --   -2.20303  -2.20029  -2.19419  -2.19330  -1.14696
  Beta  occ. eigenvalues --   -1.14683  -1.14624  -1.14348  -1.14339  -1.14244
  Beta  occ. eigenvalues --   -1.14007  -1.14000  -1.13994  -1.13981  -1.13956
  Beta  occ. eigenvalues --   -1.13931  -1.13726  -1.13712  -1.13693  -1.13096
  Beta  occ. eigenvalues --   -1.13093  -1.13054  -1.13011  -1.13010  -1.12990
  Beta  occ. eigenvalues --   -0.15662  -0.13209  -0.12485
  Beta virt. eigenvalues --   -0.07360  -0.07170  -0.05251  -0.03925  -0.03128
  Beta virt. eigenvalues --   -0.02925  -0.02138  -0.01756  -0.01161  -0.01023
  Beta virt. eigenvalues --   -0.00823  -0.00419   0.00105   0.00274   0.00510

 Mulliken charges and spin densities:
               1          2
     1  Na   0.165105   0.104499
     2  Na  -0.326745   0.099843
     3  Na  -0.113665  -0.022459
     4  Na  -0.030374   0.229434
     5  Na  -0.288247   0.182539
     6  Na   0.255738  -0.009374
     7  Na   0.338188   0.415517
 Sum of Mulliken charges =  -0.00000   1.00000

 Dipole moment (field-independent basis, Debye):
    X=              0.7803    Y=             -0.1725    Z=             -0.1201  Tot=              0.8081
 Quadrupole moment (field-independent basis, Debye-Ang):
   XX=            -63.6263   YY=            -71.4859   ZZ=            -66.8905
   XY=              1.4735   XZ=              0.8805   YZ=             -1.7630

 Normal termination of Gaussian 16 at Sun Dec  3 14:18:14 2023.
