 Gaussian 16, Revision B.01,
 Gaussian 16:  ES64L-G16RevB.01 20-Dec-2017

 -------------------------
 #P B3LYP/6-311+g(d) force
 -------------------------

 -----
 DPGEN
 -----
 Symbolic Z-matrix:
 Charge =  0 Multiplicity = 2

                         Standard orientation:
 ---------------------------------------------------------------------
 Center     Atomic      Atomic             Coordinates (Angstroms)
 Number     Number       Type             X           Y           Z
 ---------------------------------------------------------------------
      1         11           0       -1.541531    0.136814    1.765024
      2         11           0        3.857760   -1.299924   -0.418083
      3         11           0        1.823766    0.298920    1.409831
      4         11           0        0.437704    2.834214   -0.274265
      5         11           0       -2.625625    0.943190   -0.974120
      6         11           0        0.414090   -0.351296   -1.526558
      7         11           0       -2.366164   -2.561919    0.018170
 ---------------------------------------------------------------------

 SCF Done:  E(UB3LYP) =  -1136.12657066     A.U. after   22 cycles

 The electronic state is 2-A.
 Alpha  occ. eigenvalues --  -38.44458 -38.44079 -38.43963 -38.43796 -38.43654
 Alpha  occ. eigenvalues --  -38.43441 -38.43041  -2.20356  -2.19881  -2.19875
 Alpha  occ. eigenvalues --   -2.19742  -2.19463  -2.19380  -2.18890  -1.14088
 Alpha  occ. eigenvalues --   -1.14040  -1.13924  -1.13588  -1.13569  -1.13533
 Alpha  occ. eigenvalues --   -1.13525  -1.13517  -1.13483  -1.13437  -1.13400
 Alpha  occ. eigenvalues --   -1.13329  -1.13131  -1.13123  -1.13097  -1.13070
 Alpha  occ. eigenvalues --   -1.13033  -1.12989  -1.12571  -1.12552  -1.12521
 Alpha  occ. eigenvalues --   -0.18608  -0.13584  -0.11561  -0.11226
 Alpha virt. eigenvalues --   -0.06322  -0.05168  -0.04320  -0.03190  -0.02740
 Alpha virt. eigenvalues --   -0.02567  -0.02018  -0.01222  -0.00533  -0.00128
 Alpha virt. eigenvalues --    0.00244   0.00256   0.00346   0.00737   0.00797

  Beta  occ. eigenvalues --  -38.44430 -38.44078 -38.43909 -38.43727 -38.43653
  Beta  occ. eigenvalues --  -38.43401 -38.43038  -2.20308  -2.19878  -2.19778
  Beta  occ. eigenvalues --   -2.19616  -2.19465  -2.19310  -2.18890  -1.14051
  Beta  occ. eigenvalues --   -1.13991  -1.13893  -1.13568  -1.13531  -1.13520
  Beta  occ. eigenvalues --   -1.13513  -1.13449  -1.13408  -1.13342  -1.13318
  Beta  occ. eigenvalues --   -1.13243  -1.13126  -1.13112  -1.13096  -1.13025
  Beta  occ. eigenvalues --   -1.12983  -1.12920  -1.12573  -1.12526  -1.12523
  Beta  occ. eigenvalues --   -0.17838  -0.13447  -0.11357
  Beta virt. eigenvalues --   -0.07202  -0.06208  -0.05070  -0.03751  -0.03031
  Beta virt. eigenvalues --   -0.02088  -0.01955  -0.01604  -0.01133  -0.00214
  Beta virt. eigenvalues --   -0.00116   0.00273   0.00305   0.00471   0.00775

 Mulliken charges and spin densities:
               1          2
     1  Na  -0.023042   0.407938
     2  Na   0.233762   0.004030
     3  Na   0.047578   0.087133
     4  Na  -0.110141   0.001942
     5  Na   0.679725   0.154458
     6  Na  -0.679183   0.428789
     7  Na  -0.148699  -0.084290
 Sum of Mulliken charges =  -0.00000   1.00000

 Dipole moment (field-independent basis, Debye):
    X=             -0.1272    Y=              0.0112    Z=             -0.3741  Tot=              0.3953
 Quadrupole moment (field-independent basis, Debye-Ang):
   XX=            -56.5586   YY=            -66.4779   ZZ=            -70.7259
   XY=             -1.0258   XZ=              0.4491   YZ=              0.6543

 Normal termination of Gaussian 16 at Wed Nov 29 16:30:10 2023.
