 Gaussian 16, Revision B.01,
 Gaussian 16:  ES64L-G16RevB.01 20-Dec-2017

 -------------------------
 #P B3LYP/6-311+g(d) force
 -------------------------

 -----
 DPGEN
 -----
 Symbolic Z-matrix:
 Charge =  0 Multiplicity = 2

                         Standard orientation:
 ---------------------------------------------------------------------
 Center     Atomic      Atomic             Coordinates (Angstroms)
 Number     Number       Type             X           Y           Z
 ---------------------------------------------------------------------
      1         11           0        1.666119   -2.492796   -0.655885
      2         11           0       -2.688681    1.237780    0.018131
      3         11           0        3.013490    0.801334    0.048948
      4         11           0        0.097467    0.013005   -1.514193
      5         11           0       -2.510415   -2.356794    0.122015
      6         11           0       -0.211415    3.105094   -0.228558
      7         11           0        0.633435   -0.307622    2.209542
 ---------------------------------------------------------------------

 SCF Done:  E(UB3LYP) =  -1136.13254273     A.U. after   19 cycles

 The electronic state is 2-A.
 Alpha  occ. eigenvalues --  -38.44110 -38.44051 -38.43981 -38.43925 -38.43643
 Alpha  occ. eigenvalues --  -38.43405 -38.43214  -2.19947  -2.19898  -2.19827
 Alpha  occ. eigenvalues --   -2.19687  -2.19502  -2.19258  -2.19200  -1.13638
 Alpha  occ. eigenvalues --   -1.13629  -1.13615  -1.13580  -1.13543  -1.13501
 Alpha  occ. eigenvalues --   -1.13476  -1.13453  -1.13440  -1.13362  -1.13350
 Alpha  occ. eigenvalues --   -1.13331  -1.13216  -1.13175  -1.13142  -1.12943
 Alpha  occ. eigenvalues --   -1.12911  -1.12887  -1.12876  -1.12838  -1.12813
 Alpha  occ. eigenvalues --   -0.18286  -0.13103  -0.12246  -0.10779
 Alpha virt. eigenvalues --   -0.05804  -0.05147  -0.04883  -0.03223  -0.02792
 Alpha virt. eigenvalues --   -0.02674  -0.01537  -0.01304  -0.00573  -0.00395
 Alpha virt. eigenvalues --   -0.00040   0.00327   0.00767   0.00828   0.00830

  Beta  occ. eigenvalues --  -38.44103 -38.44027 -38.43928 -38.43880 -38.43642
  Beta  occ. eigenvalues --  -38.43403 -38.43158  -2.19938  -2.19858  -2.19694
  Beta  occ. eigenvalues --   -2.19641  -2.19502  -2.19256  -2.19101  -1.13627
  Beta  occ. eigenvalues --   -1.13590  -1.13587  -1.13570  -1.13500  -1.13478
  Beta  occ. eigenvalues --   -1.13360  -1.13354  -1.13352  -1.13336  -1.13327
  Beta  occ. eigenvalues --   -1.13306  -1.13216  -1.13168  -1.13137  -1.12929
  Beta  occ. eigenvalues --   -1.12906  -1.12880  -1.12812  -1.12761  -1.12747
  Beta  occ. eigenvalues --   -0.17596  -0.12860  -0.12062
  Beta virt. eigenvalues --   -0.06836  -0.05729  -0.05050  -0.04876  -0.02494
  Beta virt. eigenvalues --   -0.02130  -0.01623  -0.01413  -0.01203  -0.00617
  Beta virt. eigenvalues --   -0.00416   0.00130   0.00376   0.00790   0.00865

 Mulliken charges and spin densities:
               1          2
     1  Na   0.187681   0.006011
     2  Na  -0.022258  -0.009948
     3  Na   0.325372   0.055113
     4  Na  -0.022869   0.227623
     5  Na  -0.060202  -0.023360
     6  Na   0.182089  -0.005993
     7  Na  -0.589812   0.750554
 Sum of Mulliken charges =  -0.00000   1.00000

 Dipole moment (field-independent basis, Debye):
    X=              0.3776    Y=             -0.1741    Z=              0.1922  Tot=              0.4581
 Quadrupole moment (field-independent basis, Debye-Ang):
   XX=            -58.8641   YY=            -60.6096   ZZ=            -74.7009
   XY=              0.8938   XZ=             -1.3567   YZ=              0.4245

 Normal termination of Gaussian 16 at Fri Dec  8 07:49:57 2023.
