 Gaussian 16, Revision B.01,
 Gaussian 16:  ES64L-G16RevB.01 20-Dec-2017

 -------------------------
 #P B3LYP/6-311+g(d) force
 -------------------------

 -----
 DPGEN
 -----
 Symbolic Z-matrix:
 Charge =  0 Multiplicity = 2

                         Standard orientation:
 ---------------------------------------------------------------------
 Center     Atomic      Atomic             Coordinates (Angstroms)
 Number     Number       Type             X           Y           Z
 ---------------------------------------------------------------------
      1         11           0       -0.552641   -2.226685    1.068291
      2         11           0       -0.502077    0.060105   -1.979959
      3         11           0       -3.383464   -0.591824   -0.449491
      4         11           0       -1.350520    2.065578    0.931607
      5         11           0        1.385787    0.279201    1.956182
      6         11           0        1.774165    2.208583   -0.744086
      7         11           0        2.628751   -1.794957   -0.782544
 ---------------------------------------------------------------------

 SCF Done:  E(UB3LYP) =  -1136.13595359     A.U. after   20 cycles

 The electronic state is 2-A.
 Alpha  occ. eigenvalues --  -38.44074 -38.43953 -38.43814 -38.43630 -38.43605
 Alpha  occ. eigenvalues --  -38.43418 -38.43353  -2.19968  -2.19743  -2.19723
 Alpha  occ. eigenvalues --   -2.19457  -2.19452  -2.19259  -2.19210  -1.13640
 Alpha  occ. eigenvalues --   -1.13615  -1.13596  -1.13426  -1.13418  -1.13400
 Alpha  occ. eigenvalues --   -1.13384  -1.13368  -1.13327  -1.13142  -1.13131
 Alpha  occ. eigenvalues --   -1.13121  -1.13105  -1.13101  -1.13058  -1.12960
 Alpha  occ. eigenvalues --   -1.12919  -1.12894  -1.12871  -1.12861  -1.12828
 Alpha  occ. eigenvalues --   -0.18405  -0.12849  -0.11916  -0.11765
 Alpha virt. eigenvalues --   -0.05430  -0.05069  -0.04346  -0.03489  -0.03272
 Alpha virt. eigenvalues --   -0.03156  -0.01415  -0.00896  -0.00461   0.00113
 Alpha virt. eigenvalues --    0.00274   0.00390   0.00604   0.00752   0.00855

  Beta  occ. eigenvalues --  -38.44004 -38.43940 -38.43750 -38.43629 -38.43583
  Beta  occ. eigenvalues --  -38.43396 -38.43341  -2.19841  -2.19722  -2.19609
  Beta  occ. eigenvalues --   -2.19454  -2.19416  -2.19221  -2.19191  -1.13558
  Beta  occ. eigenvalues --   -1.13519  -1.13503  -1.13397  -1.13382  -1.13362
  Beta  occ. eigenvalues --   -1.13339  -1.13292  -1.13246  -1.13119  -1.13116
  Beta  occ. eigenvalues --   -1.13104  -1.13100  -1.13077  -1.13036  -1.12925
  Beta  occ. eigenvalues --   -1.12881  -1.12871  -1.12856  -1.12839  -1.12807
  Beta  occ. eigenvalues --   -0.17607  -0.12682  -0.11708
  Beta virt. eigenvalues --   -0.07787  -0.05233  -0.04976  -0.04028  -0.03080
  Beta virt. eigenvalues --   -0.02641  -0.02160  -0.01314  -0.00833  -0.00202
  Beta virt. eigenvalues --    0.00178   0.00254   0.00418   0.00789   0.00822

 Mulliken charges and spin densities:
               1          2
     1  Na  -0.314561   0.082434
     2  Na  -0.373412   0.496016
     3  Na   0.348140  -0.039043
     4  Na  -0.164244   0.099837
     5  Na   0.260801   0.369290
     6  Na   0.225375  -0.001723
     7  Na   0.017902  -0.006812
 Sum of Mulliken charges =  -0.00000   1.00000

 Dipole moment (field-independent basis, Debye):
    X=              0.0298    Y=              0.0067    Z=             -0.1596  Tot=              0.1625
 Quadrupole moment (field-independent basis, Debye-Ang):
   XX=            -58.0688   YY=            -70.2226   ZZ=            -67.0342
   XY=              0.0660   XZ=             -2.4128   YZ=              0.9377

 Normal termination of Gaussian 16 at Sun Dec  3 17:48:46 2023.
