 Gaussian 16, Revision B.01,
 Gaussian 16:  ES64L-G16RevB.01 20-Dec-2017

 -------------------------
 #P B3LYP/6-311+g(d) force
 -------------------------

 -----
 DPGEN
 -----
 Symbolic Z-matrix:
 Charge =  0 Multiplicity = 2

                         Standard orientation:
 ---------------------------------------------------------------------
 Center     Atomic      Atomic             Coordinates (Angstroms)
 Number     Number       Type             X           Y           Z
 ---------------------------------------------------------------------
      1         11           0        0.355246    1.175360   -0.315652
      2         11           0       -1.267301   -1.435994    1.842823
      3         11           0        3.947820    1.031538   -0.707181
      4         11           0       -2.669850   -0.852958   -1.195226
      5         11           0        0.532480   -1.560584   -1.638481
      6         11           0        2.558754   -0.345276    1.642725
      7         11           0       -3.457150    1.987915    0.370992
 ---------------------------------------------------------------------

 SCF Done:  E(UB3LYP) =  -1136.11807523     A.U. after   27 cycles

 The electronic state is 2-A.
 Alpha  occ. eigenvalues --  -38.44840 -38.44723 -38.44706 -38.44564 -38.44233
 Alpha  occ. eigenvalues --  -38.42843 -38.42411  -2.20745  -2.20586  -2.20554
 Alpha  occ. eigenvalues --   -2.20390  -2.20125  -2.18748  -2.18210  -1.14485
 Alpha  occ. eigenvalues --   -1.14450  -1.14357  -1.14327  -1.14257  -1.14217
 Alpha  occ. eigenvalues --   -1.14200  -1.14184  -1.14116  -1.14064  -1.14041
 Alpha  occ. eigenvalues --   -1.13995  -1.13823  -1.13789  -1.13728  -1.12471
 Alpha  occ. eigenvalues --   -1.12378  -1.12343  -1.11886  -1.11872  -1.11856
 Alpha  occ. eigenvalues --   -0.18385  -0.14293  -0.11472  -0.10682
 Alpha virt. eigenvalues --   -0.06797  -0.05484  -0.04726  -0.03256  -0.02763
 Alpha virt. eigenvalues --   -0.02497  -0.02052  -0.01374  -0.00813  -0.00322
 Alpha virt. eigenvalues --    0.00033   0.00171   0.00239   0.00522   0.00724

  Beta  occ. eigenvalues --  -38.44821 -38.44712 -38.44669 -38.44497 -38.44219
  Beta  occ. eigenvalues --  -38.42800 -38.42415  -2.20715  -2.20538  -2.20515
  Beta  occ. eigenvalues --   -2.20266  -2.20101  -2.18671  -2.18219  -1.14440
  Beta  occ. eigenvalues --   -1.14416  -1.14332  -1.14298  -1.14216  -1.14187
  Beta  occ. eigenvalues --   -1.14180  -1.14155  -1.14073  -1.13973  -1.13956
  Beta  occ. eigenvalues --   -1.13910  -1.13790  -1.13775  -1.13710  -1.12414
  Beta  occ. eigenvalues --   -1.12319  -1.12288  -1.11891  -1.11876  -1.11862
  Beta  occ. eigenvalues --   -0.17675  -0.14129  -0.10539
  Beta virt. eigenvalues --   -0.07490  -0.06637  -0.04987  -0.04424  -0.02798
  Beta virt. eigenvalues --   -0.02682  -0.01981  -0.01594  -0.00932  -0.00571
  Beta virt. eigenvalues --   -0.00144   0.00075   0.00215   0.00366   0.00609

 Mulliken charges and spin densities:
               1          2
     1  Na  -1.698200   0.372273
     2  Na  -0.219001   0.339228
     3  Na   1.099034   0.085572
     4  Na   0.773297   0.098229
     5  Na  -0.248505   0.108957
     6  Na  -0.068015   0.067412
     7  Na   0.361390  -0.071671
 Sum of Mulliken charges =  -0.00000   1.00000

 Dipole moment (field-independent basis, Debye):
    X=              1.6207    Y=             -0.9925    Z=             -0.0309  Tot=              1.9008
 Quadrupole moment (field-independent basis, Debye-Ang):
   XX=            -56.9529   YY=            -73.9237   ZZ=            -67.4652
   XY=              5.2226   XZ=             -1.5893   YZ=             -2.0249

 Normal termination of Gaussian 16 at Thu Dec  7 17:57:39 2023.
