 Gaussian 16, Revision B.01,
 Gaussian 16:  ES64L-G16RevB.01 20-Dec-2017

 -------------------------
 #P B3LYP/6-311+g(d) force
 -------------------------

 -----
 DPGEN
 -----
 Symbolic Z-matrix:
 Charge =  0 Multiplicity = 2

                         Standard orientation:
 ---------------------------------------------------------------------
 Center     Atomic      Atomic             Coordinates (Angstroms)
 Number     Number       Type             X           Y           Z
 ---------------------------------------------------------------------
      1         11           0       -2.644633   -0.461354   -1.781241
      2         11           0        1.275284    2.287574   -0.839633
      3         11           0       -1.928608    2.046224    0.351918
      4         11           0        0.741259   -0.281985    2.352238
      5         11           0        3.730970   -0.190768   -0.145188
      6         11           0       -2.114799   -1.285368    1.381652
      7         11           0        0.940526   -2.114323   -1.319746
 ---------------------------------------------------------------------

 SCF Done:  E(UB3LYP) =  -1136.12512259     A.U. after   23 cycles

 The electronic state is 2-A.
 Alpha  occ. eigenvalues --  -38.45006 -38.44667 -38.44539 -38.44111 -38.43925
 Alpha  occ. eigenvalues --  -38.43211 -38.43008  -2.20844  -2.20502  -2.20326
 Alpha  occ. eigenvalues --   -2.19881  -2.19804  -2.19002  -2.18857  -1.14535
 Alpha  occ. eigenvalues --   -1.14464  -1.14453  -1.14163  -1.14153  -1.14125
 Alpha  occ. eigenvalues --   -1.14004  -1.13974  -1.13969  -1.13568  -1.13539
 Alpha  occ. eigenvalues --   -1.13504  -1.13500  -1.13448  -1.13431  -1.12688
 Alpha  occ. eigenvalues --   -1.12680  -1.12636  -1.12535  -1.12527  -1.12487
 Alpha  occ. eigenvalues --   -0.17835  -0.13504  -0.12013  -0.11215
 Alpha virt. eigenvalues --   -0.06123  -0.05171  -0.04958  -0.03548  -0.03011
 Alpha virt. eigenvalues --   -0.03002  -0.01815  -0.00759  -0.00548  -0.00410
 Alpha virt. eigenvalues --    0.00033   0.00220   0.00362   0.00511   0.00734

  Beta  occ. eigenvalues --  -38.44912 -38.44615 -38.44539 -38.44083 -38.43895
  Beta  occ. eigenvalues --  -38.43211 -38.43005  -2.20674  -2.20406  -2.20325
  Beta  occ. eigenvalues --   -2.19829  -2.19757  -2.19003  -2.18854  -1.14414
  Beta  occ. eigenvalues --   -1.14348  -1.14325  -1.14103  -1.14087  -1.14053
  Beta  occ. eigenvalues --   -1.13996  -1.13974  -1.13970  -1.13529  -1.13503
  Beta  occ. eigenvalues --   -1.13463  -1.13455  -1.13412  -1.13384  -1.12689
  Beta  occ. eigenvalues --   -1.12675  -1.12638  -1.12530  -1.12505  -1.12492
  Beta  occ. eigenvalues --   -0.17069  -0.13336  -0.11031
  Beta virt. eigenvalues --   -0.08035  -0.05961  -0.04927  -0.04433  -0.03203
  Beta virt. eigenvalues --   -0.02396  -0.02344  -0.01696  -0.00556  -0.00359
  Beta virt. eigenvalues --   -0.00254   0.00098   0.00343   0.00406   0.00692

 Mulliken charges and spin densities:
               1          2
     1  Na   0.229516   0.273530
     2  Na  -0.211411  -0.058322
     3  Na  -0.257866   0.173251
     4  Na  -0.137361   0.323386
     5  Na   0.457398  -0.019878
     6  Na   0.308495   0.071661
     7  Na  -0.388771   0.236372
 Sum of Mulliken charges =  -0.00000   1.00000

 Dipole moment (field-independent basis, Debye):
    X=              0.4445    Y=             -0.5105    Z=             -0.0506  Tot=              0.6788
 Quadrupole moment (field-independent basis, Debye-Ang):
   XX=            -54.9706   YY=            -78.3350   ZZ=            -64.4195
   XY=              0.2881   XZ=              1.7950   YZ=              0.8698

 Normal termination of Gaussian 16 at Sun Dec  3 23:35:42 2023.
