 Gaussian 16, Revision B.01,
 Gaussian 16:  ES64L-G16RevB.01 20-Dec-2017

 -------------------------
 #P B3LYP/6-311+g(d) force
 -------------------------

 -----
 DPGEN
 -----
 Symbolic Z-matrix:
 Charge =  0 Multiplicity = 2

                         Standard orientation:
 ---------------------------------------------------------------------
 Center     Atomic      Atomic             Coordinates (Angstroms)
 Number     Number       Type             X           Y           Z
 ---------------------------------------------------------------------
      1         11           0        0.729683   -2.772238   -1.081140
      2         11           0        2.350682   -2.191932    1.490208
      3         11           0       -1.027148    3.399168    0.980058
      4         11           0        0.970596    2.986979   -1.213895
      5         11           0       -3.126206   -2.406932   -0.226996
      6         11           0        3.893080    0.517557   -0.135697
      7         11           0       -3.790687    0.467400    0.187462
 ---------------------------------------------------------------------

 SCF Done:  E(UB3LYP) =  -1136.10559083     A.U. after   20 cycles

 The electronic state is 2-A.
 Alpha  occ. eigenvalues --  -38.44950 -38.44577 -38.44505 -38.44240 -38.44032
 Alpha  occ. eigenvalues --  -38.43936 -38.43901  -2.20756  -2.20373  -2.20322
 Alpha  occ. eigenvalues --   -2.20054  -2.19854  -2.19750  -2.19704  -1.14464
 Alpha  occ. eigenvalues --   -1.14420  -1.14396  -1.14099  -1.14034  -1.14012
 Alpha  occ. eigenvalues --   -1.13977  -1.13961  -1.13937  -1.13792  -1.13707
 Alpha  occ. eigenvalues --   -1.13681  -1.13504  -1.13493  -1.13482  -1.13405
 Alpha  occ. eigenvalues --   -1.13396  -1.13377  -1.13360  -1.13336  -1.13320
 Alpha  occ. eigenvalues --   -0.15822  -0.13681  -0.13312  -0.10214
 Alpha virt. eigenvalues --   -0.07224  -0.05051  -0.04501  -0.03759  -0.03069
 Alpha virt. eigenvalues --   -0.02428  -0.01947  -0.01311  -0.01233  -0.01071
 Alpha virt. eigenvalues --   -0.00828   0.00138   0.00233   0.00445   0.00608

  Beta  occ. eigenvalues --  -38.44953 -38.44578 -38.44448 -38.44209 -38.43996
  Beta  occ. eigenvalues --  -38.43926 -38.43807  -2.20767  -2.20380  -2.20217
  Beta  occ. eigenvalues --   -2.20001  -2.19789  -2.19737  -2.19530  -1.14457
  Beta  occ. eigenvalues --   -1.14432  -1.14381  -1.14091  -1.14043  -1.14001
  Beta  occ. eigenvalues --   -1.13903  -1.13887  -1.13873  -1.13750  -1.13673
  Beta  occ. eigenvalues --   -1.13639  -1.13463  -1.13447  -1.13438  -1.13400
  Beta  occ. eigenvalues --   -1.13388  -1.13342  -1.13241  -1.13219  -1.13206
  Beta  occ. eigenvalues --   -0.15337  -0.13137  -0.12643
  Beta virt. eigenvalues --   -0.07174  -0.06932  -0.04933  -0.04089  -0.03559
  Beta virt. eigenvalues --   -0.02738  -0.01944  -0.01625  -0.01198  -0.01122
  Beta virt. eigenvalues --   -0.00895  -0.00360   0.00247   0.00261   0.00565

 Mulliken charges and spin densities:
               1          2
     1  Na  -0.244174   0.348438
     2  Na   0.335365  -0.075550
     3  Na  -0.048687   0.179598
     4  Na   0.018793  -0.062714
     5  Na   0.081140   0.011792
     6  Na  -0.112587   0.506292
     7  Na  -0.029849   0.092144
 Sum of Mulliken charges =  -0.00000   1.00000

 Dipole moment (field-independent basis, Debye):
    X=              0.1464    Y=             -0.3560    Z=              0.2932  Tot=              0.4839
 Quadrupole moment (field-independent basis, Debye-Ang):
   XX=            -75.0879   YY=            -69.9323   ZZ=            -61.6337
   XY=             -3.4537   XZ=             -0.7381   YZ=             -0.2631

 Normal termination of Gaussian 16 at Mon Dec  4 01:52:28 2023.
