 Gaussian 16, Revision B.01,
 Gaussian 16:  ES64L-G16RevB.01 20-Dec-2017

 -------------------------
 #P B3LYP/6-311+g(d) force
 -------------------------

 -----
 DPGEN
 -----
 Symbolic Z-matrix:
 Charge =  0 Multiplicity = 2

                         Standard orientation:
 ---------------------------------------------------------------------
 Center     Atomic      Atomic             Coordinates (Angstroms)
 Number     Number       Type             X           Y           Z
 ---------------------------------------------------------------------
      1         11           0       -0.877270   -1.375778   -1.520211
      2         11           0       -0.579075   -0.628265    2.102267
      3         11           0        2.079117   -2.270348   -0.695423
      4         11           0       -2.150920    2.018864   -0.640537
      5         11           0        3.980953    0.831997    0.908172
      6         11           0        1.363212    1.855887   -0.821014
      7         11           0       -3.816018   -0.432357    0.666747
 ---------------------------------------------------------------------

 SCF Done:  E(UB3LYP) =  -1136.12025940     A.U. after   23 cycles

 The electronic state is 2-A.
 Alpha  occ. eigenvalues --  -38.45660 -38.45141 -38.44470 -38.43589 -38.43491
 Alpha  occ. eigenvalues --  -38.43314 -38.43309  -2.21440  -2.20967  -2.20257
 Alpha  occ. eigenvalues --   -2.19437  -2.19298  -2.19186  -2.19131  -1.15113
 Alpha  occ. eigenvalues --   -1.15083  -1.15057  -1.14629  -1.14627  -1.14602
 Alpha  occ. eigenvalues --   -1.13917  -1.13910  -1.13892  -1.13107  -1.13099
 Alpha  occ. eigenvalues --   -1.13080  -1.13017  -1.12955  -1.12933  -1.12858
 Alpha  occ. eigenvalues --   -1.12831  -1.12821  -1.12796  -1.12790  -1.12769
 Alpha  occ. eigenvalues --   -0.17790  -0.13827  -0.11391  -0.11066
 Alpha virt. eigenvalues --   -0.07181  -0.05313  -0.04595  -0.03267  -0.02828
 Alpha virt. eigenvalues --   -0.02631  -0.02434  -0.01280  -0.01020  -0.00333
 Alpha virt. eigenvalues --    0.00015   0.00096   0.00268   0.00554   0.00620

  Beta  occ. eigenvalues --  -38.45603 -38.45124 -38.44441 -38.43565 -38.43483
  Beta  occ. eigenvalues --  -38.43304 -38.43263  -2.21334  -2.20936  -2.20200
  Beta  occ. eigenvalues --   -2.19395  -2.19287  -2.19117  -2.19102  -1.15040
  Beta  occ. eigenvalues --   -1.15012  -1.14974  -1.14612  -1.14597  -1.14574
  Beta  occ. eigenvalues --   -1.13880  -1.13872  -1.13853  -1.13079  -1.13066
  Beta  occ. eigenvalues --   -1.13041  -1.12990  -1.12950  -1.12923  -1.12817
  Beta  occ. eigenvalues --   -1.12804  -1.12781  -1.12765  -1.12737  -1.12734
  Beta  occ. eigenvalues --   -0.17135  -0.13560  -0.10976
  Beta virt. eigenvalues --   -0.07581  -0.06788  -0.05300  -0.04032  -0.03024
  Beta virt. eigenvalues --   -0.02526  -0.02083  -0.01799  -0.01150  -0.00778
  Beta virt. eigenvalues --   -0.00249   0.00074   0.00190   0.00380   0.00661

 Mulliken charges and spin densities:
               1          2
     1  Na  -0.199204   0.310559
     2  Na  -0.398047   0.327044
     3  Na   0.083164  -0.047943
     4  Na  -0.094389   0.079869
     5  Na   0.474243   0.174268
     6  Na  -0.560237  -0.035963
     7  Na   0.694470   0.192165
 Sum of Mulliken charges =  -0.00000   1.00000

 Dipole moment (field-independent basis, Debye):
    X=             -0.7677    Y=             -0.5823    Z=              0.8340  Tot=              1.2743
 Quadrupole moment (field-independent basis, Debye-Ang):
   XX=            -49.4589   YY=            -77.9287   ZZ=            -69.3491
   XY=             -1.6306   XZ=              2.3936   YZ=             -0.2629

 Normal termination of Gaussian 16 at Thu Dec  7 15:00:22 2023.
