 Gaussian 16, Revision B.01,
 Gaussian 16:  ES64L-G16RevB.01 20-Dec-2017

 -------------------------
 #P B3LYP/6-311+g(d) force
 -------------------------

 -----
 DPGEN
 -----
 Symbolic Z-matrix:
 Charge =  0 Multiplicity = 2

                         Standard orientation:
 ---------------------------------------------------------------------
 Center     Atomic      Atomic             Coordinates (Angstroms)
 Number     Number       Type             X           Y           Z
 ---------------------------------------------------------------------
      1         11           0        2.544869    2.834818   -0.710797
      2         11           0       -3.464173   -0.782963   -0.411333
      3         11           0        1.315628   -1.296830    2.372688
      4         11           0       -0.792612   -3.349223   -0.856329
      5         11           0        3.430122   -0.715704   -0.504020
      6         11           0       -2.895894    2.887478    0.606377
      7         11           0       -0.137939    0.422423   -0.496587
 ---------------------------------------------------------------------

 SCF Done:  E(UB3LYP) =  -1136.11837365     A.U. after   20 cycles

 The electronic state is 2-A.
 Alpha  occ. eigenvalues --  -38.45225 -38.44517 -38.44253 -38.44117 -38.43900
 Alpha  occ. eigenvalues --  -38.43828 -38.43714  -2.20994  -2.20291  -2.20061
 Alpha  occ. eigenvalues --   -2.19896  -2.19674  -2.19658  -2.19483  -1.14685
 Alpha  occ. eigenvalues --   -1.14653  -1.14623  -1.13985  -1.13968  -1.13897
 Alpha  occ. eigenvalues --   -1.13717  -1.13687  -1.13670  -1.13560  -1.13551
 Alpha  occ. eigenvalues --   -1.13519  -1.13417  -1.13326  -1.13321  -1.13311
 Alpha  occ. eigenvalues --   -1.13299  -1.13276  -1.13161  -1.13124  -1.13120
 Alpha  occ. eigenvalues --   -0.16723  -0.13363  -0.11961  -0.10317
 Alpha virt. eigenvalues --   -0.06286  -0.05661  -0.05335  -0.03030  -0.02798
 Alpha virt. eigenvalues --   -0.02113  -0.01957  -0.01648  -0.01269  -0.01025
 Alpha virt. eigenvalues --   -0.00287   0.00095   0.00283   0.00560   0.00593

  Beta  occ. eigenvalues --  -38.45227 -38.44510 -38.44155 -38.44083 -38.43866
  Beta  occ. eigenvalues --  -38.43830 -38.43688  -2.21003  -2.20281  -2.19879
  Beta  occ. eigenvalues --   -2.19833  -2.19678  -2.19596  -2.19437  -1.14690
  Beta  occ. eigenvalues --   -1.14658  -1.14610  -1.13979  -1.13965  -1.13870
  Beta  occ. eigenvalues --   -1.13593  -1.13563  -1.13550  -1.13515  -1.13509
  Beta  occ. eigenvalues --   -1.13476  -1.13398  -1.13330  -1.13307  -1.13282
  Beta  occ. eigenvalues --   -1.13270  -1.13238  -1.13129  -1.13095  -1.13079
  Beta  occ. eigenvalues --   -0.16320  -0.12902  -0.11388
  Beta virt. eigenvalues --   -0.07105  -0.06154  -0.05299  -0.05055  -0.02608
  Beta virt. eigenvalues --   -0.02370  -0.02062  -0.01545  -0.01348  -0.01064
  Beta virt. eigenvalues --   -0.00966  -0.00004   0.00209   0.00461   0.00581

 Mulliken charges and spin densities:
               1          2
     1  Na   0.630752   0.112675
     2  Na   1.136738   0.030925
     3  Na   0.021295   0.346630
     4  Na   0.398881   0.091185
     5  Na   0.589601   0.039909
     6  Na   0.184680   0.126078
     7  Na  -2.961946   0.252598
 Sum of Mulliken charges =  -0.00000   1.00000

 Dipole moment (field-independent basis, Debye):
    X=              0.6743    Y=             -0.2358    Z=              0.1360  Tot=              0.7272
 Quadrupole moment (field-independent basis, Debye-Ang):
   XX=            -57.4282   YY=            -64.1573   ZZ=            -73.1998
   XY=             -1.5822   XZ=             -2.8855   YZ=              3.0794

 Normal termination of Gaussian 16 at Tue Dec  5 17:54:29 2023.
