 Gaussian 16, Revision B.01,
 Gaussian 16:  ES64L-G16RevB.01 20-Dec-2017

 -------------------------
 #P B3LYP/6-311+g(d) force
 -------------------------

 -----
 DPGEN
 -----
 Symbolic Z-matrix:
 Charge =  0 Multiplicity = 2

                         Standard orientation:
 ---------------------------------------------------------------------
 Center     Atomic      Atomic             Coordinates (Angstroms)
 Number     Number       Type             X           Y           Z
 ---------------------------------------------------------------------
      1         11           0       -0.068350   -2.315976   -0.286880
      2         11           0       -0.080515    0.366586    2.343646
      3         11           0       -2.915287   -1.100577    0.267347
      4         11           0        2.197277    2.186899    0.016967
      5         11           0        0.071278    0.209442   -2.095560
      6         11           0       -2.156262    1.974669   -0.349505
      7         11           0        2.951858   -1.321042    0.103984
 ---------------------------------------------------------------------

 SCF Done:  E(UB3LYP) =  -1136.13000783     A.U. after   20 cycles

 The electronic state is 2-A.
 Alpha  occ. eigenvalues --  -38.44690 -38.44277 -38.44149 -38.43983 -38.43705
 Alpha  occ. eigenvalues --  -38.43675 -38.42470  -2.20516  -2.20189  -2.19968
 Alpha  occ. eigenvalues --   -2.19850  -2.19549  -2.19468  -2.18411  -1.14172
 Alpha  occ. eigenvalues --   -1.14147  -1.14134  -1.13876  -1.13827  -1.13796
 Alpha  occ. eigenvalues --   -1.13649  -1.13630  -1.13607  -1.13536  -1.13519
 Alpha  occ. eigenvalues --   -1.13497  -1.13230  -1.13202  -1.13179  -1.13146
 Alpha  occ. eigenvalues --   -1.13130  -1.13109  -1.12113  -1.12059  -1.12050
 Alpha  occ. eigenvalues --   -0.18545  -0.13194  -0.11772  -0.11626
 Alpha virt. eigenvalues --   -0.05798  -0.05471  -0.03765  -0.03587  -0.03454
 Alpha virt. eigenvalues --   -0.03036  -0.01587  -0.01040  -0.00208  -0.00147
 Alpha virt. eigenvalues --    0.00127   0.00373   0.00596   0.00661   0.00858

  Beta  occ. eigenvalues --  -38.44596 -38.44192 -38.44151 -38.43980 -38.43697
  Beta  occ. eigenvalues --  -38.43676 -38.42460  -2.20342  -2.20033  -2.19972
  Beta  occ. eigenvalues --   -2.19846  -2.19538  -2.19473  -2.18397  -1.14057
  Beta  occ. eigenvalues --   -1.14026  -1.14007  -1.13773  -1.13714  -1.13687
  Beta  occ. eigenvalues --   -1.13653  -1.13619  -1.13612  -1.13536  -1.13519
  Beta  occ. eigenvalues --   -1.13472  -1.13213  -1.13180  -1.13175  -1.13138
  Beta  occ. eigenvalues --   -1.13129  -1.13115  -1.12097  -1.12047  -1.12024
  Beta  occ. eigenvalues --   -0.17744  -0.13031  -0.11532
  Beta virt. eigenvalues --   -0.07671  -0.05638  -0.05454  -0.03630  -0.02899
  Beta virt. eigenvalues --   -0.02491  -0.02217  -0.01479  -0.00962  -0.00241
  Beta virt. eigenvalues --   -0.00007   0.00112   0.00395   0.00777   0.00858

 Mulliken charges and spin densities:
               1          2
     1  Na   0.125069   0.134004
     2  Na  -0.467490   0.570221
     3  Na   0.158278   0.037551
     4  Na   0.044155  -0.088680
     5  Na  -0.124038   0.447449
     6  Na   0.203979  -0.040027
     7  Na   0.060046  -0.060517
 Sum of Mulliken charges =  -0.00000   1.00000

 Dipole moment (field-independent basis, Debye):
    X=              0.1238    Y=              0.3065    Z=              0.3164  Tot=              0.4576
 Quadrupole moment (field-independent basis, Debye-Ang):
   XX=            -56.3126   YY=            -71.3507   ZZ=            -68.5060
   XY=             -0.1643   XZ=              0.0145   YZ=             -0.9652

 Normal termination of Gaussian 16 at Thu Dec  7 21:23:02 2023.
