 Gaussian 16, Revision B.01,
 Gaussian 16:  ES64L-G16RevB.01 20-Dec-2017

 -------------------------
 #P B3LYP/6-311+g(d) force
 -------------------------

 -----
 DPGEN
 -----
 Symbolic Z-matrix:
 Charge =  0 Multiplicity = 2

                         Standard orientation:
 ---------------------------------------------------------------------
 Center     Atomic      Atomic             Coordinates (Angstroms)
 Number     Number       Type             X           Y           Z
 ---------------------------------------------------------------------
      1         11           0        1.435687   -2.092717    1.284990
      2         11           0       -1.480346    3.114797   -0.371558
      3         11           0       -2.078875   -2.517606   -0.805940
      4         11           0       -3.398368    0.077519    0.529585
      5         11           0        2.069496    1.290021    1.426592
      6         11           0       -0.004173    0.134933   -0.551991
      7         11           0        3.456578   -0.006948   -1.511678
 ---------------------------------------------------------------------

 SCF Done:  E(UB3LYP) =  -1136.12260910     A.U. after   21 cycles

 The electronic state is 2-A.
 Alpha  occ. eigenvalues --  -38.44879 -38.44386 -38.44025 -38.43832 -38.43508
 Alpha  occ. eigenvalues --  -38.43390 -38.43209  -2.20692  -2.20253  -2.19869
 Alpha  occ. eigenvalues --   -2.19669  -2.19341  -2.19234  -2.19181  -1.14370
 Alpha  occ. eigenvalues --   -1.14364  -1.14315  -1.13975  -1.13904  -1.13863
 Alpha  occ. eigenvalues --   -1.13563  -1.13518  -1.13474  -1.13322  -1.13308
 Alpha  occ. eigenvalues --   -1.13272  -1.13032  -1.13006  -1.12974  -1.12965
 Alpha  occ. eigenvalues --   -1.12917  -1.12864  -1.12847  -1.12819  -1.12808
 Alpha  occ. eigenvalues --   -0.17877  -0.13897  -0.11817  -0.10251
 Alpha virt. eigenvalues --   -0.06368  -0.05713  -0.04622  -0.03426  -0.02431
 Alpha virt. eigenvalues --   -0.02235  -0.01703  -0.01165  -0.01059  -0.00598
 Alpha virt. eigenvalues --   -0.00062   0.00199   0.00315   0.00552   0.00681

  Beta  occ. eigenvalues --  -38.44881 -38.44358 -38.43978 -38.43734 -38.43504
  Beta  occ. eigenvalues --  -38.43392 -38.43199  -2.20696  -2.20207  -2.19784
  Beta  occ. eigenvalues --   -2.19487  -2.19335  -2.19220  -2.19186  -1.14370
  Beta  occ. eigenvalues --   -1.14366  -1.14320  -1.13946  -1.13842  -1.13829
  Beta  occ. eigenvalues --   -1.13508  -1.13443  -1.13417  -1.13194  -1.13182
  Beta  occ. eigenvalues --   -1.13152  -1.13027  -1.13003  -1.12966  -1.12923
  Beta  occ. eigenvalues --   -1.12914  -1.12855  -1.12847  -1.12823  -1.12808
  Beta  occ. eigenvalues --   -0.17363  -0.13531  -0.11726
  Beta virt. eigenvalues --   -0.06356  -0.06209  -0.05457  -0.04546  -0.02993
  Beta virt. eigenvalues --   -0.02081  -0.01926  -0.01216  -0.00965  -0.00669
  Beta virt. eigenvalues --   -0.00433   0.00138   0.00359   0.00474   0.00684

 Mulliken charges and spin densities:
               1          2
     1  Na   0.089681   0.191666
     2  Na   0.277495  -0.111083
     3  Na   0.287082  -0.004622
     4  Na   0.764397  -0.022950
     5  Na   0.262380   0.126484
     6  Na  -1.805550   0.458525
     7  Na   0.124514   0.361979
 Sum of Mulliken charges =  -0.00000   1.00000

 Dipole moment (field-independent basis, Debye):
    X=             -0.6083    Y=             -0.1704    Z=              0.9955  Tot=              1.1790
 Quadrupole moment (field-independent basis, Debye-Ang):
   XX=            -58.2852   YY=            -64.7014   ZZ=            -71.9368
   XY=             -0.1145   XZ=              1.7136   YZ=              1.4751

 Normal termination of Gaussian 16 at Wed Dec  6 01:22:10 2023.
