 Gaussian 16, Revision B.01,
 Gaussian 16:  ES64L-G16RevB.01 20-Dec-2017

 -------------------------
 #P B3LYP/6-311+g(d) force
 -------------------------

 -----
 DPGEN
 -----
 Symbolic Z-matrix:
 Charge =  0 Multiplicity = 2

                         Standard orientation:
 ---------------------------------------------------------------------
 Center     Atomic      Atomic             Coordinates (Angstroms)
 Number     Number       Type             X           Y           Z
 ---------------------------------------------------------------------
      1         11           0       -0.373559   -1.774755    0.961677
      2         11           0       -3.296404   -3.115907   -0.531670
      3         11           0       -2.902849    0.190186   -0.059885
      4         11           0       -0.139160    1.552576   -0.993030
      5         11           0        3.037291   -0.305284    0.621030
      6         11           0       -2.119008    3.696030    0.455282
      7         11           0        5.793688   -0.242846   -0.453404
 ---------------------------------------------------------------------

 SCF Done:  E(UB3LYP) =  -1136.12200517     A.U. after   19 cycles

 The electronic state is 2-A.
 Alpha  occ. eigenvalues --  -38.44798 -38.44407 -38.44251 -38.44061 -38.44045
 Alpha  occ. eigenvalues --  -38.43570 -38.42773  -2.20650  -2.20216  -2.20149
 Alpha  occ. eigenvalues --   -2.19912  -2.19862  -2.19415  -2.18619  -1.14368
 Alpha  occ. eigenvalues --   -1.14323  -1.14252  -1.13883  -1.13875  -1.13872
 Alpha  occ. eigenvalues --   -1.13858  -1.13837  -1.13721  -1.13606  -1.13582
 Alpha  occ. eigenvalues --   -1.13527  -1.13518  -1.13505  -1.13461  -1.13111
 Alpha  occ. eigenvalues --   -1.13032  -1.13032  -1.12298  -1.12287  -1.12272
 Alpha  occ. eigenvalues --   -0.17273  -0.13535  -0.12989  -0.10592
 Alpha virt. eigenvalues --   -0.06195  -0.05752  -0.04265  -0.03720  -0.02599
 Alpha virt. eigenvalues --   -0.02317  -0.02055  -0.01495  -0.01378  -0.00566
 Alpha virt. eigenvalues --   -0.00447   0.00044   0.00435   0.00499   0.00539

  Beta  occ. eigenvalues --  -38.44783 -38.44393 -38.44237 -38.44017 -38.44015
  Beta  occ. eigenvalues --  -38.43486 -38.42769  -2.20625  -2.20191  -2.20124
  Beta  occ. eigenvalues --   -2.19834  -2.19805  -2.19258  -2.18621  -1.14355
  Beta  occ. eigenvalues --   -1.14308  -1.14214  -1.13865  -1.13856  -1.13850
  Beta  occ. eigenvalues --   -1.13833  -1.13821  -1.13700  -1.13556  -1.13531
  Beta  occ. eigenvalues --   -1.13482  -1.13476  -1.13454  -1.13409  -1.13012
  Beta  occ. eigenvalues --   -1.12925  -1.12925  -1.12300  -1.12298  -1.12207
  Beta  occ. eigenvalues --   -0.16750  -0.12799  -0.12697
  Beta virt. eigenvalues --   -0.07251  -0.05914  -0.05530  -0.03735  -0.03494
  Beta virt. eigenvalues --   -0.02429  -0.02153  -0.01890  -0.01161  -0.00949
  Beta virt. eigenvalues --   -0.00270  -0.00215   0.00238   0.00541   0.00569

 Mulliken charges and spin densities:
               1          2
     1  Na  -0.129497  -0.080332
     2  Na   0.892461   0.167072
     3  Na  -0.772327   0.399415
     4  Na  -0.569389  -0.176394
     5  Na  -0.132760   0.203899
     6  Na   0.818026   0.100000
     7  Na  -0.106514   0.386339
 Sum of Mulliken charges =  -0.00000   1.00000

 Dipole moment (field-independent basis, Debye):
    X=             -1.9803    Y=              0.5304    Z=             -0.1407  Tot=              2.0549
 Quadrupole moment (field-independent basis, Debye-Ang):
   XX=            -72.7216   YY=            -59.0959   ZZ=            -67.5781
   XY=              0.7345   XZ=             -2.8727   YZ=              2.2418

 Normal termination of Gaussian 16 at Tue Nov 28 23:55:46 2023.
