 Gaussian 16, Revision B.01,
 Gaussian 16:  ES64L-G16RevB.01 20-Dec-2017

 -------------------------
 #P B3LYP/6-311+g(d) force
 -------------------------

 -----
 DPGEN
 -----
 Symbolic Z-matrix:
 Charge =  0 Multiplicity = 2

                         Standard orientation:
 ---------------------------------------------------------------------
 Center     Atomic      Atomic             Coordinates (Angstroms)
 Number     Number       Type             X           Y           Z
 ---------------------------------------------------------------------
      1         11           0        0.324240    1.733473   -0.200931
      2         11           0       -1.246112   -0.257309    1.966805
      3         11           0       -4.619058   -1.141689    0.329720
      4         11           0        6.207001   -0.305156    0.276922
      5         11           0        2.870543   -0.182527   -0.198418
      6         11           0       -2.838326    1.696788   -0.640910
      7         11           0       -0.698288   -1.543580   -1.533188
 ---------------------------------------------------------------------

 SCF Done:  E(UB3LYP) =  -1136.10553430     A.U. after   34 cycles

 The electronic state is 2-A.
 Alpha  occ. eigenvalues --  -38.47897 -38.45418 -38.45236 -38.43461 -38.43227
 Alpha  occ. eigenvalues --  -38.43001 -38.42908  -2.23682  -2.21286  -2.21062
 Alpha  occ. eigenvalues --   -2.19247  -2.19172  -2.18775  -2.18743  -1.17370
 Alpha  occ. eigenvalues --   -1.17340  -1.17297  -1.14969  -1.14945  -1.14899
 Alpha  occ. eigenvalues --   -1.14732  -1.14689  -1.14653  -1.12929  -1.12910
 Alpha  occ. eigenvalues --   -1.12889  -1.12867  -1.12841  -1.12802  -1.12448
 Alpha  occ. eigenvalues --   -1.12436  -1.12432  -1.12428  -1.12425  -1.12326
 Alpha  occ. eigenvalues --   -0.18462  -0.13483  -0.11566  -0.10847
 Alpha virt. eigenvalues --   -0.08388  -0.05745  -0.04030  -0.03495  -0.03176
 Alpha virt. eigenvalues --   -0.02564  -0.02323  -0.02064  -0.01277  -0.01068
 Alpha virt. eigenvalues --   -0.00300   0.00054   0.00110   0.00413   0.00526

  Beta  occ. eigenvalues --  -38.47891 -38.45379 -38.45124 -38.43469 -38.43210
  Beta  occ. eigenvalues --  -38.42975 -38.42911  -2.23674  -2.21217  -2.20853
  Beta  occ. eigenvalues --   -2.19262  -2.19145  -2.18751  -2.18725  -1.17343
  Beta  occ. eigenvalues --   -1.17330  -1.17296  -1.14918  -1.14896  -1.14843
  Beta  occ. eigenvalues --   -1.14587  -1.14551  -1.14503  -1.12941  -1.12912
  Beta  occ. eigenvalues --   -1.12900  -1.12849  -1.12824  -1.12765  -1.12453
  Beta  occ. eigenvalues --   -1.12439  -1.12403  -1.12397  -1.12396  -1.12307
  Beta  occ. eigenvalues --   -0.17793  -0.13296  -0.10656
  Beta virt. eigenvalues --   -0.08205  -0.07562  -0.05561  -0.03645  -0.03132
  Beta virt. eigenvalues --   -0.02851  -0.02010  -0.01912  -0.01718  -0.00994
  Beta virt. eigenvalues --   -0.00953  -0.00238   0.00145   0.00251   0.00496

 Mulliken charges and spin densities:
               1          2
     1  Na   0.705176   0.075846
     2  Na   0.234184   0.144812
     3  Na   0.014761  -0.043096
     4  Na  -0.445540   0.057639
     5  Na  -0.859554   0.207457
     6  Na   0.117881   0.124008
     7  Na   0.233092   0.433334
 Sum of Mulliken charges =  -0.00000   1.00000

 Dipole moment (field-independent basis, Debye):
    X=             -3.0031    Y=              0.2834    Z=              0.4988  Tot=              3.0574
 Quadrupole moment (field-independent basis, Debye-Ang):
   XX=            -79.9879   YY=            -73.0267   ZZ=            -60.7947
   XY=             -1.1288   XZ=              3.0773   YZ=             -3.7502

 Normal termination of Gaussian 16 at Thu Dec  7 04:33:56 2023.
