 Gaussian 16, Revision B.01,
 Gaussian 16:  ES64L-G16RevB.01 20-Dec-2017

 -------------------------
 #P B3LYP/6-311+g(d) force
 -------------------------

 -----
 DPGEN
 -----
 Symbolic Z-matrix:
 Charge =  0 Multiplicity = 2

                         Standard orientation:
 ---------------------------------------------------------------------
 Center     Atomic      Atomic             Coordinates (Angstroms)
 Number     Number       Type             X           Y           Z
 ---------------------------------------------------------------------
      1         11           0       -1.309397    2.244267    0.926387
      2         11           0        1.215906   -2.574582    0.454995
      3         11           0       -0.798201   -1.002776   -1.695049
      4         11           0       -3.254787    0.339062   -1.113757
      5         11           0       -0.861297   -1.530226    2.066937
      6         11           0        1.920126    2.346636    0.482575
      7         11           0        3.087651    0.177620   -1.122088
 ---------------------------------------------------------------------

 SCF Done:  E(UB3LYP) =  -1136.11783412     A.U. after   19 cycles

 The electronic state is 2-A.
 Alpha  occ. eigenvalues --  -38.44648 -38.44419 -38.44290 -38.44154 -38.43883
 Alpha  occ. eigenvalues --  -38.43607 -38.43562  -2.20529  -2.20334  -2.20165
 Alpha  occ. eigenvalues --   -2.19997  -2.19714  -2.19507  -2.19412  -1.14285
 Alpha  occ. eigenvalues --   -1.14180  -1.14147  -1.14126  -1.13970  -1.13959
 Alpha  occ. eigenvalues --   -1.13785  -1.13776  -1.13755  -1.13735  -1.13647
 Alpha  occ. eigenvalues --   -1.13614  -1.13400  -1.13376  -1.13344  -1.13207
 Alpha  occ. eigenvalues --   -1.13149  -1.13114  -1.13072  -1.13057  -1.13052
 Alpha  occ. eigenvalues --   -0.18016  -0.13349  -0.12730  -0.11695
 Alpha virt. eigenvalues --   -0.05713  -0.05290  -0.04686  -0.03636  -0.03302
 Alpha virt. eigenvalues --   -0.03078  -0.01436  -0.00712  -0.00458  -0.00133
 Alpha virt. eigenvalues --   -0.00037   0.00351   0.00423   0.00614   0.00873

  Beta  occ. eigenvalues --  -38.44573 -38.44362 -38.44259 -38.44134 -38.43854
  Beta  occ. eigenvalues --  -38.43600 -38.43562  -2.20390  -2.20231  -2.20111
  Beta  occ. eigenvalues --   -2.19959  -2.19662  -2.19500  -2.19415  -1.14193
  Beta  occ. eigenvalues --   -1.14105  -1.14047  -1.14032  -1.13898  -1.13887
  Beta  occ. eigenvalues --   -1.13753  -1.13732  -1.13715  -1.13701  -1.13618
  Beta  occ. eigenvalues --   -1.13589  -1.13364  -1.13331  -1.13310  -1.13185
  Beta  occ. eigenvalues --   -1.13139  -1.13102  -1.13068  -1.13057  -1.13047
  Beta  occ. eigenvalues --   -0.17375  -0.13053  -0.12401
  Beta virt. eigenvalues --   -0.07998  -0.05363  -0.05129  -0.04230  -0.03296
  Beta virt. eigenvalues --   -0.02817  -0.02244  -0.01307  -0.00667  -0.00223
  Beta virt. eigenvalues --    0.00026   0.00059   0.00407   0.00590   0.00712

 Mulliken charges and spin densities:
               1          2
     1  Na  -0.329367   0.355573
     2  Na   0.573961   0.036010
     3  Na  -0.576463   0.349267
     4  Na   0.520272  -0.066648
     5  Na  -0.289877   0.343405
     6  Na   0.088070  -0.172702
     7  Na   0.013405   0.155096
 Sum of Mulliken charges =  -0.00000   1.00000

 Dipole moment (field-independent basis, Debye):
    X=             -0.4396    Y=             -0.3143    Z=              0.0451  Tot=              0.5423
 Quadrupole moment (field-independent basis, Debye-Ang):
   XX=            -60.7694   YY=            -71.0478   ZZ=            -68.0704
   XY=             -2.7449   XZ=             -2.0510   YZ=              1.3172

 Normal termination of Gaussian 16 at Sun Dec  3 14:56:36 2023.
