 Gaussian 16, Revision B.01,
 Gaussian 16:  ES64L-G16RevB.01 20-Dec-2017

 -------------------------
 #P B3LYP/6-311+g(d) force
 -------------------------

 -----
 DPGEN
 -----
 Symbolic Z-matrix:
 Charge =  0 Multiplicity = 2

                         Standard orientation:
 ---------------------------------------------------------------------
 Center     Atomic      Atomic             Coordinates (Angstroms)
 Number     Number       Type             X           Y           Z
 ---------------------------------------------------------------------
      1         11           0        0.226641   -2.415103   -1.156942
      2         11           0        4.019687    1.665369   -0.274687
      3         11           0        2.183254   -1.536790    1.105153
      4         11           0       -2.197459    2.753353    0.411076
      5         11           0        0.369520    0.887060   -0.894803
      6         11           0       -2.965252   -0.538361   -1.138808
      7         11           0       -1.636392   -0.815528    1.949010
 ---------------------------------------------------------------------

 SCF Done:  E(UB3LYP) =  -1136.12313970     A.U. after   22 cycles

 The electronic state is 2-A.
 Alpha  occ. eigenvalues --  -38.44650 -38.44426 -38.44176 -38.44144 -38.44093
 Alpha  occ. eigenvalues --  -38.43485 -38.43285  -2.20489  -2.20157  -2.19982
 Alpha  occ. eigenvalues --   -2.19965  -2.19931  -2.19380  -2.19167  -1.14177
 Alpha  occ. eigenvalues --   -1.14149  -1.14099  -1.13836  -1.13827  -1.13790
 Alpha  occ. eigenvalues --   -1.13659  -1.13645  -1.13638  -1.13632  -1.13627
 Alpha  occ. eigenvalues --   -1.13604  -1.13593  -1.13573  -1.13529  -1.13088
 Alpha  occ. eigenvalues --   -1.13077  -1.12980  -1.12848  -1.12819  -1.12787
 Alpha  occ. eigenvalues --   -0.18029  -0.13307  -0.11599  -0.10759
 Alpha virt. eigenvalues --   -0.06822  -0.05514  -0.04410  -0.03353  -0.02645
 Alpha virt. eigenvalues --   -0.02443  -0.02125  -0.01339  -0.00838  -0.00337
 Alpha virt. eigenvalues --   -0.00141   0.00172   0.00231   0.00496   0.00734

  Beta  occ. eigenvalues --  -38.44618 -38.44438 -38.44168 -38.44074 -38.44067
  Beta  occ. eigenvalues --  -38.43457 -38.43263  -2.20432  -2.20180  -2.19951
  Beta  occ. eigenvalues --   -2.19896  -2.19838  -2.19332  -2.19131  -1.14131
  Beta  occ. eigenvalues --   -1.14105  -1.14051  -1.13851  -1.13843  -1.13805
  Beta  occ. eigenvalues --   -1.13636  -1.13619  -1.13607  -1.13585  -1.13577
  Beta  occ. eigenvalues --   -1.13553  -1.13535  -1.13499  -1.13471  -1.13050
  Beta  occ. eigenvalues --   -1.13028  -1.12946  -1.12825  -1.12770  -1.12761
  Beta  occ. eigenvalues --   -0.17302  -0.13181  -0.11430
  Beta virt. eigenvalues --   -0.06926  -0.06676  -0.05315  -0.04087  -0.02896
  Beta virt. eigenvalues --   -0.02261  -0.02064  -0.01492  -0.01137  -0.00672
  Beta virt. eigenvalues --   -0.00165  -0.00058   0.00226   0.00327   0.00545

 Mulliken charges and spin densities:
               1          2
     1  Na   0.202074   0.115875
     2  Na   0.167897  -0.098212
     3  Na   0.283335   0.125006
     4  Na   0.260320  -0.070872
     5  Na  -1.310025   0.308206
     6  Na   0.795268   0.119664
     7  Na  -0.398870   0.500333
 Sum of Mulliken charges =  -0.00000   1.00000

 Dipole moment (field-independent basis, Debye):
    X=             -0.4455    Y=              0.0097    Z=              0.1051  Tot=              0.4578
 Quadrupole moment (field-independent basis, Debye-Ang):
   XX=            -53.7261   YY=            -66.8909   ZZ=            -72.1656
   XY=             -1.0156   XZ=              2.1021   YZ=              1.2215

 Normal termination of Gaussian 16 at Tue Dec  5 13:54:24 2023.
