 Gaussian 16, Revision B.01,
 Gaussian 16:  ES64L-G16RevB.01 20-Dec-2017

 -------------------------
 #P B3LYP/6-311+g(d) force
 -------------------------

 -----
 DPGEN
 -----
 Symbolic Z-matrix:
 Charge =  0 Multiplicity = 2

                         Standard orientation:
 ---------------------------------------------------------------------
 Center     Atomic      Atomic             Coordinates (Angstroms)
 Number     Number       Type             X           Y           Z
 ---------------------------------------------------------------------
      1         11           0       -2.962168   -1.695170    0.681015
      2         11           0        1.789447    1.259385   -1.152000
      3         11           0        0.932807   -2.083205   -1.002599
      4         11           0       -1.912486    0.209350   -1.690744
      5         11           0       -0.221207   -0.183246    1.862865
      6         11           0       -1.315682    2.830963    0.521275
      7         11           0        3.689288   -0.338077    0.780188
 ---------------------------------------------------------------------

 SCF Done:  E(UB3LYP) =  -1136.12930058     A.U. after   21 cycles

 The electronic state is 2-A.
 Alpha  occ. eigenvalues --  -38.44745 -38.44071 -38.43990 -38.43950 -38.43846
 Alpha  occ. eigenvalues --  -38.43758 -38.42674  -2.20559  -2.19898  -2.19872
 Alpha  occ. eigenvalues --   -2.19775  -2.19725  -2.19628  -2.18489  -1.14251
 Alpha  occ. eigenvalues --   -1.14209  -1.14184  -1.13610  -1.13580  -1.13544
 Alpha  occ. eigenvalues --   -1.13526  -1.13506  -1.13496  -1.13490  -1.13421
 Alpha  occ. eigenvalues --   -1.13403  -1.13395  -1.13360  -1.13324  -1.13316
 Alpha  occ. eigenvalues --   -1.13302  -1.13231  -1.12166  -1.12150  -1.12126
 Alpha  occ. eigenvalues --   -0.18232  -0.13564  -0.11350  -0.11202
 Alpha virt. eigenvalues --   -0.06421  -0.05061  -0.04436  -0.03294  -0.02887
 Alpha virt. eigenvalues --   -0.02709  -0.02070  -0.01027  -0.00684   0.00041
 Alpha virt. eigenvalues --    0.00109   0.00267   0.00350   0.00709   0.00803

  Beta  occ. eigenvalues --  -38.44737 -38.44042 -38.43944 -38.43916 -38.43800
  Beta  occ. eigenvalues --  -38.43738 -38.42671  -2.20544  -2.19849  -2.19766
  Beta  occ. eigenvalues --   -2.19737  -2.19643  -2.19595  -2.18485  -1.14243
  Beta  occ. eigenvalues --   -1.14190  -1.14176  -1.13575  -1.13519  -1.13486
  Beta  occ. eigenvalues --   -1.13463  -1.13459  -1.13443  -1.13408  -1.13392
  Beta  occ. eigenvalues --   -1.13368  -1.13336  -1.13306  -1.13291  -1.13270
  Beta  occ. eigenvalues --   -1.13260  -1.13213  -1.12154  -1.12148  -1.12121
  Beta  occ. eigenvalues --   -0.17471  -0.13402  -0.11164
  Beta virt. eigenvalues --   -0.07333  -0.06243  -0.04886  -0.04024  -0.03075
  Beta virt. eigenvalues --   -0.02181  -0.01980  -0.01824  -0.00871  -0.00380
  Beta virt. eigenvalues --    0.00056   0.00161   0.00305   0.00464   0.00769

 Mulliken charges and spin densities:
               1          2
     1  Na   0.126825  -0.130185
     2  Na  -0.210924   0.176484
     3  Na  -0.215381   0.100440
     4  Na   0.196201   0.376625
     5  Na  -0.253711   0.690899
     6  Na  -0.057307  -0.159714
     7  Na   0.414297  -0.054550
 Sum of Mulliken charges =  -0.00000   1.00000

 Dipole moment (field-independent basis, Debye):
    X=              0.7415    Y=             -0.4964    Z=              0.1372  Tot=              0.9028
 Quadrupole moment (field-independent basis, Debye-Ang):
   XX=            -52.7414   YY=            -72.4143   ZZ=            -68.8642
   XY=              0.1150   XZ=              1.9062   YZ=             -0.0287

 Normal termination of Gaussian 16 at Tue Dec  5 22:59:29 2023.
