 Gaussian 16, Revision B.01,
 Gaussian 16:  ES64L-G16RevB.01 20-Dec-2017

 -------------------------
 #P B3LYP/6-311+g(d) force
 -------------------------

 -----
 DPGEN
 -----
 Symbolic Z-matrix:
 Charge =  0 Multiplicity = 2

                         Standard orientation:
 ---------------------------------------------------------------------
 Center     Atomic      Atomic             Coordinates (Angstroms)
 Number     Number       Type             X           Y           Z
 ---------------------------------------------------------------------
      1         11           0       -0.265107   -0.208250    2.070671
      2         11           0        2.995169   -1.002932   -0.046686
      3         11           0       -1.403042    2.820058   -0.306053
      4         11           0        0.078233   -0.114668   -1.425721
      5         11           0       -3.179802   -0.606656   -0.054393
      6         11           0       -0.230109   -3.026967   -0.301911
      7         11           0        2.004658    2.139414    0.064093
 ---------------------------------------------------------------------

 SCF Done:  E(UB3LYP) =  -1136.13748193     A.U. after   19 cycles

 The electronic state is 2-A.
 Alpha  occ. eigenvalues --  -38.44295 -38.43841 -38.43762 -38.43644 -38.43486
 Alpha  occ. eigenvalues --  -38.43419 -38.42860  -2.20091  -2.19682  -2.19604
 Alpha  occ. eigenvalues --   -2.19457  -2.19354  -2.19296  -2.18880  -1.13769
 Alpha  occ. eigenvalues --   -1.13751  -1.13726  -1.13371  -1.13343  -1.13329
 Alpha  occ. eigenvalues --   -1.13314  -1.13260  -1.13216  -1.13138  -1.13122
 Alpha  occ. eigenvalues --   -1.13097  -1.13042  -1.13014  -1.12980  -1.12967
 Alpha  occ. eigenvalues --   -1.12916  -1.12909  -1.12572  -1.12523  -1.12498
 Alpha  occ. eigenvalues --   -0.18525  -0.12897  -0.12574  -0.10421
 Alpha virt. eigenvalues --   -0.05793  -0.05108  -0.04984  -0.03003  -0.02754
 Alpha virt. eigenvalues --   -0.02335  -0.01598  -0.01306  -0.00579  -0.00464
 Alpha virt. eigenvalues --    0.00004   0.00340   0.00776   0.00856   0.00864

  Beta  occ. eigenvalues --  -38.44292 -38.43839 -38.43752 -38.43638 -38.43482
  Beta  occ. eigenvalues --  -38.43319 -38.42807  -2.20089  -2.19680  -2.19589
  Beta  occ. eigenvalues --   -2.19449  -2.19350  -2.19110  -2.18786  -1.13753
  Beta  occ. eigenvalues --   -1.13744  -1.13728  -1.13371  -1.13329  -1.13320
  Beta  occ. eigenvalues --   -1.13300  -1.13233  -1.13209  -1.13128  -1.13107
  Beta  occ. eigenvalues --   -1.13092  -1.13037  -1.12990  -1.12978  -1.12844
  Beta  occ. eigenvalues --   -1.12788  -1.12775  -1.12498  -1.12453  -1.12430
  Beta  occ. eigenvalues --   -0.17823  -0.12686  -0.12328
  Beta virt. eigenvalues --   -0.06514  -0.05774  -0.05096  -0.04926  -0.02229
  Beta virt. eigenvalues --   -0.02034  -0.01521  -0.01266  -0.01221  -0.00634
  Beta virt. eigenvalues --   -0.00506   0.00157   0.00378   0.00793   0.00868

 Mulliken charges and spin densities:
               1          2
     1  Na  -0.503519   0.784909
     2  Na   0.259336  -0.004016
     3  Na   0.107134  -0.012336
     4  Na  -0.485336   0.295001
     5  Na   0.155264  -0.051634
     6  Na   0.270961  -0.043220
     7  Na   0.196160   0.031297
 Sum of Mulliken charges =  -0.00000   1.00000

 Dipole moment (field-independent basis, Debye):
    X=             -0.2516    Y=             -0.2066    Z=              0.1436  Tot=              0.3558
 Quadrupole moment (field-independent basis, Debye-Ang):
   XX=            -55.6745   YY=            -59.8885   ZZ=            -76.4130
   XY=             -0.3526   XZ=              0.8482   YZ=              0.2130

 Normal termination of Gaussian 16 at Thu Dec  7 21:15:45 2023.
