 Gaussian 16, Revision B.01,
 Gaussian 16:  ES64L-G16RevB.01 20-Dec-2017

 -------------------------
 #P B3LYP/6-311+g(d) force
 -------------------------

 -----
 DPGEN
 -----
 Symbolic Z-matrix:
 Charge =  0 Multiplicity = 2

                         Standard orientation:
 ---------------------------------------------------------------------
 Center     Atomic      Atomic             Coordinates (Angstroms)
 Number     Number       Type             X           Y           Z
 ---------------------------------------------------------------------
      1         11           0       -1.673844    2.226549   -0.367260
      2         11           0        3.057030   -1.447277    0.011193
      3         11           0        3.119884    1.521250   -0.056582
      4         11           0        0.552760   -0.090179   -0.137652
      5         11           0       -1.888162   -0.445983   -1.946547
      6         11           0       -1.514967   -2.200325    0.397937
      7         11           0       -1.652700    0.435964    2.098911
 ---------------------------------------------------------------------

 SCF Done:  E(UB3LYP) =  -1136.10446093     A.U. after   28 cycles

 The electronic state is 2-A.
 Alpha  occ. eigenvalues --  -38.44805 -38.44715 -38.44163 -38.44109 -38.43016
 Alpha  occ. eigenvalues --  -38.42829 -38.42769  -2.20708  -2.20593  -2.20158
 Alpha  occ. eigenvalues --   -2.20075  -2.19264  -2.18808  -2.18711  -1.14519
 Alpha  occ. eigenvalues --   -1.14393  -1.14333  -1.14271  -1.14224  -1.14152
 Alpha  occ. eigenvalues --   -1.13865  -1.13806  -1.13767  -1.13755  -1.13706
 Alpha  occ. eigenvalues --   -1.13694  -1.12974  -1.12961  -1.12897  -1.12480
 Alpha  occ. eigenvalues --   -1.12465  -1.12414  -1.12388  -1.12376  -1.12334
 Alpha  occ. eigenvalues --   -0.19262  -0.14456  -0.11608  -0.11368
 Alpha virt. eigenvalues --   -0.05831  -0.05492  -0.03426  -0.03282  -0.03120
 Alpha virt. eigenvalues --   -0.02692  -0.01763  -0.00955  -0.00451   0.00071
 Alpha virt. eigenvalues --    0.00258   0.00342   0.00696   0.00823   0.00890

  Beta  occ. eigenvalues --  -38.44808 -38.44718 -38.44076 -38.44016 -38.42998
  Beta  occ. eigenvalues --  -38.42811 -38.42752  -2.20715  -2.20599  -2.20000
  Beta  occ. eigenvalues --   -2.19903  -2.19238  -2.18780  -2.18687  -1.14523
  Beta  occ. eigenvalues --   -1.14400  -1.14333  -1.14276  -1.14225  -1.14158
  Beta  occ. eigenvalues --   -1.13766  -1.13689  -1.13654  -1.13643  -1.13588
  Beta  occ. eigenvalues --   -1.13567  -1.12967  -1.12903  -1.12864  -1.12470
  Beta  occ. eigenvalues --   -1.12413  -1.12382  -1.12378  -1.12326  -1.12310
  Beta  occ. eigenvalues --   -0.18512  -0.14273  -0.11157
  Beta virt. eigenvalues --   -0.07375  -0.05593  -0.05462  -0.03300  -0.03015
  Beta virt. eigenvalues --   -0.02219  -0.01813  -0.01526  -0.00956  -0.00059
  Beta virt. eigenvalues --    0.00095   0.00271   0.00393   0.00805   0.00900

 Mulliken charges and spin densities:
               1          2
     1  Na   2.362579   0.486452
     2  Na  -1.050170  -0.549588
     3  Na  -0.011325  -0.269323
     4  Na  -2.479271   0.950359
     5  Na   0.113860  -0.022350
     6  Na   1.764200   0.428780
     7  Na  -0.699872  -0.024329
 Sum of Mulliken charges =  -0.00000   1.00000

 Dipole moment (field-independent basis, Debye):
    X=              1.2459    Y=              0.0672    Z=              0.1013  Tot=              1.2519
 Quadrupole moment (field-independent basis, Debye-Ang):
   XX=            -54.6707   YY=            -69.5017   ZZ=            -68.6893
   XY=              0.5767   XZ=              0.4786   YZ=             -1.1530

 Normal termination of Gaussian 16 at Thu Dec  7 04:07:38 2023.
