 Gaussian 16, Revision B.01,
 Gaussian 16:  ES64L-G16RevB.01 20-Dec-2017

 -------------------------
 #P B3LYP/6-311+g(d) force
 -------------------------

 -----
 DPGEN
 -----
 Symbolic Z-matrix:
 Charge =  0 Multiplicity = 2

                         Standard orientation:
 ---------------------------------------------------------------------
 Center     Atomic      Atomic             Coordinates (Angstroms)
 Number     Number       Type             X           Y           Z
 ---------------------------------------------------------------------
      1         11           0        0.887691   -3.081317    0.817574
      2         11           0       -2.806304    2.906327   -0.100022
      3         11           0       -4.116124   -0.538581    0.198959
      4         11           0        3.979238   -1.626500   -0.440917
      5         11           0        3.409059    1.818330    0.119202
      6         11           0       -1.960812   -3.360911   -0.592601
      7         11           0        0.607252    3.882653   -0.002195
 ---------------------------------------------------------------------

 SCF Done:  E(UB3LYP) =  -1136.10911712     A.U. after   23 cycles

 The electronic state is 2-A.
 Alpha  occ. eigenvalues --  -38.45287 -38.45256 -38.45030 -38.44869 -38.44108
 Alpha  occ. eigenvalues --  -38.43820 -38.43766  -2.21048  -2.21042  -2.20790
 Alpha  occ. eigenvalues --   -2.20618  -2.19921  -2.19621  -2.19562  -1.14735
 Alpha  occ. eigenvalues --   -1.14724  -1.14723  -1.14711  -1.14678  -1.14674
 Alpha  occ. eigenvalues --   -1.14467  -1.14450  -1.14413  -1.14305  -1.14293
 Alpha  occ. eigenvalues --   -1.14247  -1.13588  -1.13573  -1.13554  -1.13274
 Alpha  occ. eigenvalues --   -1.13264  -1.13256  -1.13224  -1.13218  -1.13192
 Alpha  occ. eigenvalues --   -0.15532  -0.13823  -0.13609  -0.10754
 Alpha virt. eigenvalues --   -0.07834  -0.04928  -0.04277  -0.03561  -0.03350
 Alpha virt. eigenvalues --   -0.02600  -0.02429  -0.01857  -0.01594  -0.00363
 Alpha virt. eigenvalues --   -0.00159  -0.00068  -0.00009   0.00231   0.00296

  Beta  occ. eigenvalues --  -38.45268 -38.45230 -38.44995 -38.44863 -38.44075
  Beta  occ. eigenvalues --  -38.43764 -38.43722  -2.21020  -2.21000  -2.20726
  Beta  occ. eigenvalues --   -2.20611  -2.19864  -2.19515  -2.19480  -1.14722
  Beta  occ. eigenvalues --   -1.14709  -1.14696  -1.14687  -1.14615  -1.14613
  Beta  occ. eigenvalues --   -1.14426  -1.14409  -1.14355  -1.14303  -1.14291
  Beta  occ. eigenvalues --   -1.14220  -1.13543  -1.13534  -1.13514  -1.13202
  Beta  occ. eigenvalues --   -1.13192  -1.13187  -1.13168  -1.13163  -1.13136
  Beta  occ. eigenvalues --   -0.14982  -0.13100  -0.12918
  Beta virt. eigenvalues --   -0.08060  -0.07552  -0.04530  -0.03730  -0.03382
  Beta virt. eigenvalues --   -0.02919  -0.02378  -0.02230  -0.01685  -0.01467
  Beta virt. eigenvalues --   -0.00096   0.00037   0.00128   0.00141   0.00356

 Mulliken charges and spin densities:
               1          2
     1  Na  -0.306376   0.111910
     2  Na   0.075483   0.055552
     3  Na  -0.042251   0.133371
     4  Na   0.100225   0.269237
     5  Na  -0.095627   0.138944
     6  Na  -0.007479   0.110930
     7  Na   0.276024   0.180056
 Sum of Mulliken charges =  -0.00000   1.00000

 Dipole moment (field-independent basis, Debye):
    X=             -0.2612    Y=             -0.4878    Z=              0.0609  Tot=              0.5567
 Quadrupole moment (field-independent basis, Debye-Ang):
   XX=            -63.0163   YY=            -65.9022   ZZ=            -71.5808
   XY=              1.1902   XZ=              0.6243   YZ=              0.1538

 Normal termination of Gaussian 16 at Sun Dec  3 22:27:25 2023.
