 Gaussian 16, Revision B.01,
 Gaussian 16:  ES64L-G16RevB.01 20-Dec-2017

 -------------------------
 #P B3LYP/6-311+g(d) force
 -------------------------

 -----
 DPGEN
 -----
 Symbolic Z-matrix:
 Charge =  0 Multiplicity = 2

                         Standard orientation:
 ---------------------------------------------------------------------
 Center     Atomic      Atomic             Coordinates (Angstroms)
 Number     Number       Type             X           Y           Z
 ---------------------------------------------------------------------
      1         11           0        1.887591    2.196207   -0.403035
      2         11           0        0.092680    0.220675   -1.736030
      3         11           0       -1.630488    2.397767    0.490527
      4         11           0       -2.944776   -1.059500   -0.614564
      5         11           0        0.254697   -2.597850   -0.082048
      6         11           0       -0.638322   -0.202481    1.949909
      7         11           0        2.978619   -0.954818    0.395241
 ---------------------------------------------------------------------

 SCF Done:  E(UB3LYP) =  -1136.13540105     A.U. after   19 cycles

 The electronic state is 2-A.
 Alpha  occ. eigenvalues --  -38.44047 -38.43807 -38.43693 -38.43524 -38.43438
 Alpha  occ. eigenvalues --  -38.43431 -38.43074  -2.19880  -2.19651  -2.19625
 Alpha  occ. eigenvalues --   -2.19432  -2.19385  -2.19307  -2.18992  -1.13557
 Alpha  occ. eigenvalues --   -1.13532  -1.13517  -1.13331  -1.13321  -1.13315
 Alpha  occ. eigenvalues --   -1.13298  -1.13287  -1.13234  -1.13213  -1.13103
 Alpha  occ. eigenvalues --   -1.13063  -1.13060  -1.13017  -1.13002  -1.12951
 Alpha  occ. eigenvalues --   -1.12928  -1.12908  -1.12680  -1.12664  -1.12603
 Alpha  occ. eigenvalues --   -0.18881  -0.13041  -0.12523  -0.11114
 Alpha virt. eigenvalues --   -0.05513  -0.05098  -0.04372  -0.03383  -0.03064
 Alpha virt. eigenvalues --   -0.02676  -0.01539  -0.00991  -0.00242   0.00013
 Alpha virt. eigenvalues --    0.00037   0.00347   0.00810   0.00899   0.00932

  Beta  occ. eigenvalues --  -38.44029 -38.43803 -38.43613 -38.43509 -38.43424
  Beta  occ. eigenvalues --  -38.43368 -38.43066  -2.19851  -2.19645  -2.19478
  Beta  occ. eigenvalues --   -2.19361  -2.19311  -2.19290  -2.18982  -1.13523
  Beta  occ. eigenvalues --   -1.13513  -1.13492  -1.13330  -1.13308  -1.13281
  Beta  occ. eigenvalues --   -1.13227  -1.13185  -1.13149  -1.13133  -1.13031
  Beta  occ. eigenvalues --   -1.13016  -1.13008  -1.12989  -1.12953  -1.12932
  Beta  occ. eigenvalues --   -1.12902  -1.12875  -1.12676  -1.12633  -1.12587
  Beta  occ. eigenvalues --   -0.18167  -0.12788  -0.12235
  Beta virt. eigenvalues --   -0.07212  -0.05439  -0.05030  -0.04346  -0.02647
  Beta virt. eigenvalues --   -0.02307  -0.01656  -0.01413  -0.00899  -0.00199
  Beta virt. eigenvalues --   -0.00028   0.00124   0.00381   0.00879   0.00899

 Mulliken charges and spin densities:
               1          2
     1  Na   0.256126  -0.000189
     2  Na  -0.250896   0.444267
     3  Na   0.025033  -0.034117
     4  Na   0.194449  -0.016306
     5  Na   0.231481   0.069321
     6  Na  -0.312538   0.541656
     7  Na  -0.143655  -0.004631
 Sum of Mulliken charges =  -0.00000   1.00000

 Dipole moment (field-independent basis, Debye):
    X=             -0.2503    Y=              0.0064    Z=              0.1180  Tot=              0.2768
 Quadrupole moment (field-independent basis, Debye-Ang):
   XX=            -56.5510   YY=            -65.3734   ZZ=            -72.3209
   XY=              0.3242   XZ=              2.1263   YZ=              0.8004

 Normal termination of Gaussian 16 at Tue Dec  5 21:37:42 2023.
