 Gaussian 16, Revision B.01,
 Gaussian 16:  ES64L-G16RevB.01 20-Dec-2017

 -------------------------
 #P B3LYP/6-311+g(d) force
 -------------------------

 -----
 DPGEN
 -----
 Symbolic Z-matrix:
 Charge =  0 Multiplicity = 2

                         Standard orientation:
 ---------------------------------------------------------------------
 Center     Atomic      Atomic             Coordinates (Angstroms)
 Number     Number       Type             X           Y           Z
 ---------------------------------------------------------------------
      1         11           0       -0.649302    2.058321   -0.497990
      2         11           0       -0.749750   -0.378022    2.109632
      3         11           0       -3.331260   -0.043532   -0.178819
      4         11           0        1.647176   -2.001845    0.428463
      5         11           0       -0.678582   -1.362002   -1.305239
      6         11           0        1.918223    1.302466    1.288154
      7         11           0        1.843495    0.424615   -1.844201
 ---------------------------------------------------------------------

 SCF Done:  E(UB3LYP) =  -1136.12819436     A.U. after   23 cycles

 The electronic state is 2-A.
 Alpha  occ. eigenvalues --  -38.44615 -38.44223 -38.43887 -38.43207 -38.42970
 Alpha  occ. eigenvalues --  -38.42836 -38.42812  -2.20553  -2.20190  -2.19749
 Alpha  occ. eigenvalues --   -2.19151  -2.18929  -2.18831  -2.18782  -1.14243
 Alpha  occ. eigenvalues --   -1.14174  -1.14170  -1.13902  -1.13832  -1.13783
 Alpha  occ. eigenvalues --   -1.13436  -1.13401  -1.13386  -1.12846  -1.12807
 Alpha  occ. eigenvalues --   -1.12787  -1.12723  -1.12581  -1.12556  -1.12521
 Alpha  occ. eigenvalues --   -1.12478  -1.12458  -1.12442  -1.12403  -1.12379
 Alpha  occ. eigenvalues --   -0.19738  -0.13316  -0.12774  -0.11582
 Alpha virt. eigenvalues --   -0.05463  -0.04549  -0.03979  -0.03781  -0.03304
 Alpha virt. eigenvalues --   -0.03093  -0.01326  -0.00624  -0.00338   0.00319
 Alpha virt. eigenvalues --    0.00414   0.00575   0.00756   0.00935   0.01028

  Beta  occ. eigenvalues --  -38.44532 -38.44162 -38.43887 -38.43185 -38.42952
  Beta  occ. eigenvalues --  -38.42813 -38.42785  -2.20403  -2.20080  -2.19749
  Beta  occ. eigenvalues --   -2.19115  -2.18899  -2.18786  -2.18744  -1.14141
  Beta  occ. eigenvalues --   -1.14066  -1.14056  -1.13814  -1.13761  -1.13705
  Beta  occ. eigenvalues --   -1.13432  -1.13395  -1.13389  -1.12821  -1.12772
  Beta  occ. eigenvalues --   -1.12747  -1.12705  -1.12542  -1.12523  -1.12487
  Beta  occ. eigenvalues --   -1.12442  -1.12415  -1.12394  -1.12374  -1.12356
  Beta  occ. eigenvalues --   -0.18834  -0.13152  -0.11371
  Beta virt. eigenvalues --   -0.08505  -0.05315  -0.03928  -0.03869  -0.03296
  Beta virt. eigenvalues --   -0.02588  -0.02398  -0.01269  -0.00323  -0.00267
  Beta virt. eigenvalues --    0.00362   0.00516   0.00733   0.00808   0.01013

 Mulliken charges and spin densities:
               1          2
     1  Na  -0.456870   0.230338
     2  Na  -0.283537   0.277117
     3  Na   0.494478  -0.081985
     4  Na   0.148692   0.120293
     5  Na  -0.425151   0.318312
     6  Na   0.175029   0.089080
     7  Na   0.347358   0.046844
 Sum of Mulliken charges =  -0.00000   1.00000

 Dipole moment (field-independent basis, Debye):
    X=             -0.2899    Y=              0.0970    Z=              0.2282  Tot=              0.3815
 Quadrupole moment (field-independent basis, Debye-Ang):
   XX=            -57.5954   YY=            -76.0097   ZZ=            -62.3790
   XY=             -0.1912   XZ=             -0.1251   YZ=             -3.8486

 Normal termination of Gaussian 16 at Tue Dec  5 16:02:11 2023.
