 Gaussian 16, Revision B.01,
 Gaussian 16:  ES64L-G16RevB.01 20-Dec-2017

 -------------------------
 #P B3LYP/6-311+g(d) force
 -------------------------

 -----
 DPGEN
 -----
 Symbolic Z-matrix:
 Charge =  0 Multiplicity = 2

                         Standard orientation:
 ---------------------------------------------------------------------
 Center     Atomic      Atomic             Coordinates (Angstroms)
 Number     Number       Type             X           Y           Z
 ---------------------------------------------------------------------
      1         11           0        0.033915    0.108083   -1.748572
      2         11           0        0.952174   -2.557282    0.024544
      3         11           0        2.967344   -0.027934   -0.193517
      4         11           0        0.965430    2.667342    0.298214
      5         11           0       -2.440314    1.585534   -0.289577
      6         11           0       -2.235422   -1.694798   -0.040008
      7         11           0       -0.243128   -0.080945    1.948916
 ---------------------------------------------------------------------

 SCF Done:  E(UB3LYP) =  -1136.13965458     A.U. after   19 cycles

 The electronic state is 2-A.
 Alpha  occ. eigenvalues --  -38.43617 -38.43534 -38.43499 -38.43357 -38.43311
 Alpha  occ. eigenvalues --  -38.43249 -38.43081  -2.19499  -2.19462  -2.19423
 Alpha  occ. eigenvalues --   -2.19284  -2.19267  -2.19183  -2.19005  -1.13196
 Alpha  occ. eigenvalues --   -1.13171  -1.13160  -1.13149  -1.13132  -1.13105
 Alpha  occ. eigenvalues --   -1.13103  -1.13070  -1.13053  -1.12984  -1.12939
 Alpha  occ. eigenvalues --   -1.12932  -1.12909  -1.12900  -1.12876  -1.12854
 Alpha  occ. eigenvalues --   -1.12830  -1.12808  -1.12676  -1.12662  -1.12632
 Alpha  occ. eigenvalues --   -0.19364  -0.13132  -0.12685  -0.11128
 Alpha virt. eigenvalues --   -0.05217  -0.04956  -0.04598  -0.03252  -0.03061
 Alpha virt. eigenvalues --   -0.02698  -0.01248  -0.00981  -0.00102   0.00030
 Alpha virt. eigenvalues --    0.00052   0.00377   0.00888   0.00963   0.00968

  Beta  occ. eigenvalues --  -38.43613 -38.43526 -38.43409 -38.43349 -38.43303
  Beta  occ. eigenvalues --  -38.43174 -38.43075  -2.19494  -2.19411  -2.19296
  Beta  occ. eigenvalues --   -2.19275  -2.19172  -2.19131  -2.18998  -1.13187
  Beta  occ. eigenvalues --   -1.13157  -1.13134  -1.13128  -1.13075  -1.13053
  Beta  occ. eigenvalues --   -1.13041  -1.12995  -1.12965  -1.12951  -1.12907
  Beta  occ. eigenvalues --   -1.12888  -1.12868  -1.12838  -1.12820  -1.12806
  Beta  occ. eigenvalues --   -1.12789  -1.12770  -1.12670  -1.12639  -1.12614
  Beta  occ. eigenvalues --   -0.18604  -0.12858  -0.12410
  Beta virt. eigenvalues --   -0.07157  -0.05197  -0.04953  -0.04583  -0.02426
  Beta virt. eigenvalues --   -0.02230  -0.01613  -0.01167  -0.00916  -0.00112
  Beta virt. eigenvalues --   -0.00009   0.00120   0.00390   0.00940   0.00949

 Mulliken charges and spin densities:
               1          2
     1  Na  -0.457452   0.556209
     2  Na   0.222920  -0.053863
     3  Na   0.117792  -0.058488
     4  Na   0.113386  -0.049313
     5  Na   0.231107  -0.055950
     6  Na   0.333511  -0.038911
     7  Na  -0.561263   0.700316
 Sum of Mulliken charges =  -0.00000   1.00000

 Dipole moment (field-independent basis, Debye):
    X=             -0.0177    Y=              0.1521    Z=              0.0905  Tot=              0.1779
 Quadrupole moment (field-independent basis, Debye-Ang):
   XX=            -58.8710   YY=            -63.1343   ZZ=            -72.4065
   XY=             -0.0785   XZ=              0.4964   YZ=              0.3918

 Normal termination of Gaussian 16 at Thu Dec  7 05:00:26 2023.
