 Gaussian 16, Revision B.01,
 Gaussian 16:  ES64L-G16RevB.01 20-Dec-2017

 -------------------------
 #P B3LYP/6-311+g(d) force
 -------------------------

 -----
 DPGEN
 -----
 Symbolic Z-matrix:
 Charge =  0 Multiplicity = 2

                         Standard orientation:
 ---------------------------------------------------------------------
 Center     Atomic      Atomic             Coordinates (Angstroms)
 Number     Number       Type             X           Y           Z
 ---------------------------------------------------------------------
      1         11           0        2.541282    1.842540    0.082677
      2         11           0        2.499739   -1.739502   -0.581095
      3         11           0       -1.208843   -2.775655    0.048919
      4         11           0       -1.150232    2.836566    0.091302
      5         11           0        0.304685   -0.454877    2.097847
      6         11           0       -0.191703    0.201667   -1.572952
      7         11           0       -2.794928    0.089261   -0.166699
 ---------------------------------------------------------------------

 SCF Done:  E(UB3LYP) =  -1136.13623945     A.U. after   20 cycles

 The electronic state is 2-A.
 Alpha  occ. eigenvalues --  -38.43968 -38.43918 -38.43639 -38.43530 -38.43500
 Alpha  occ. eigenvalues --  -38.43464 -38.43168  -2.19769  -2.19736  -2.19511
 Alpha  occ. eigenvalues --   -2.19402  -2.19385  -2.19357  -2.19182  -1.13447
 Alpha  occ. eigenvalues --   -1.13436  -1.13419  -1.13411  -1.13389  -1.13359
 Alpha  occ. eigenvalues --   -1.13220  -1.13177  -1.13143  -1.13133  -1.13122
 Alpha  occ. eigenvalues --   -1.13062  -1.13058  -1.13024  -1.13017  -1.13007
 Alpha  occ. eigenvalues --   -1.12999  -1.12950  -1.12845  -1.12795  -1.12786
 Alpha  occ. eigenvalues --   -0.18679  -0.12948  -0.12594  -0.10746
 Alpha virt. eigenvalues --   -0.05544  -0.05032  -0.04898  -0.03202  -0.02978
 Alpha virt. eigenvalues --   -0.02518  -0.01310  -0.01268  -0.00410  -0.00271
 Alpha virt. eigenvalues --   -0.00006   0.00359   0.00816   0.00855   0.00914

  Beta  occ. eigenvalues --  -38.43967 -38.43902 -38.43546 -38.43529 -38.43495
  Beta  occ. eigenvalues --  -38.43456 -38.43109  -2.19768  -2.19709  -2.19393
  Beta  occ. eigenvalues --   -2.19384  -2.19352  -2.19338  -2.19076  -1.13438
  Beta  occ. eigenvalues --   -1.13427  -1.13412  -1.13387  -1.13365  -1.13345
  Beta  occ. eigenvalues --   -1.13198  -1.13122  -1.13073  -1.13054  -1.13040
  Beta  occ. eigenvalues --   -1.13030  -1.13014  -1.13009  -1.12997  -1.12992
  Beta  occ. eigenvalues --   -1.12972  -1.12949  -1.12774  -1.12722  -1.12710
  Beta  occ. eigenvalues --   -0.17966  -0.12696  -0.12377
  Beta virt. eigenvalues --   -0.06840  -0.05533  -0.04957  -0.04855  -0.02425
  Beta virt. eigenvalues --   -0.02226  -0.01483  -0.01229  -0.01172  -0.00454
  Beta virt. eigenvalues --   -0.00305   0.00142   0.00393   0.00835   0.00893

 Mulliken charges and spin densities:
               1          2
     1  Na   0.026996  -0.040976
     2  Na   0.080703  -0.021618
     3  Na   0.309469   0.010279
     4  Na   0.053197  -0.014101
     5  Na  -0.604115   0.724446
     6  Na  -0.266207   0.300178
     7  Na   0.399958   0.041793
 Sum of Mulliken charges =  -0.00000   1.00000

 Dipole moment (field-independent basis, Debye):
    X=              0.3670    Y=             -0.0071    Z=              0.1839  Tot=              0.4106
 Quadrupole moment (field-independent basis, Debye-Ang):
   XX=            -59.9489   YY=            -59.4452   ZZ=            -74.2338
   XY=              0.3507   XZ=             -0.8977   YZ=              1.6192

 Normal termination of Gaussian 16 at Fri Dec  8 03:03:02 2023.
