 Gaussian 16, Revision B.01,
 Gaussian 16:  ES64L-G16RevB.01 20-Dec-2017

 -------------------------
 #P B3LYP/6-311+g(d) force
 -------------------------

 -----
 DPGEN
 -----
 Symbolic Z-matrix:
 Charge =  0 Multiplicity = 2

                         Standard orientation:
 ---------------------------------------------------------------------
 Center     Atomic      Atomic             Coordinates (Angstroms)
 Number     Number       Type             X           Y           Z
 ---------------------------------------------------------------------
      1         11           0       -1.604267    0.393326    1.317473
      2         11           0        2.284177    0.570257    1.122583
      3         11           0        0.720516   -2.375675    0.527024
      4         11           0       -3.847291    0.910977   -0.876646
      5         11           0       -2.517237   -2.126713   -0.642103
      6         11           0        4.870197   -0.220939   -1.189911
      7         11           0        0.093905    2.848766   -0.258420
 ---------------------------------------------------------------------

 SCF Done:  E(UB3LYP) =  -1136.12312840     A.U. after   19 cycles

 The electronic state is 2-A.
 Alpha  occ. eigenvalues --  -38.44950 -38.44274 -38.44103 -38.43702 -38.43684
 Alpha  occ. eigenvalues --  -38.43626 -38.43274  -2.20741  -2.20123  -2.20024
 Alpha  occ. eigenvalues --   -2.19556  -2.19483  -2.19464  -2.19099  -1.14376
 Alpha  occ. eigenvalues --   -1.14371  -1.14346  -1.13837  -1.13782  -1.13741
 Alpha  occ. eigenvalues --   -1.13715  -1.13658  -1.13653  -1.13232  -1.13229
 Alpha  occ. eigenvalues --   -1.13187  -1.13173  -1.13154  -1.13150  -1.13143
 Alpha  occ. eigenvalues --   -1.13121  -1.13080  -1.12772  -1.12769  -1.12717
 Alpha  occ. eigenvalues --   -0.17362  -0.14104  -0.11744  -0.11271
 Alpha virt. eigenvalues --   -0.05869  -0.05391  -0.04984  -0.03632  -0.02464
 Alpha virt. eigenvalues --   -0.02193  -0.02151  -0.01355  -0.00621  -0.00559
 Alpha virt. eigenvalues --   -0.00399   0.00125   0.00292   0.00416   0.00514

  Beta  occ. eigenvalues --  -38.44828 -38.44229 -38.44089 -38.43697 -38.43678
  Beta  occ. eigenvalues --  -38.43625 -38.43255  -2.20513  -2.20039  -2.20003
  Beta  occ. eigenvalues --   -2.19550  -2.19474  -2.19470  -2.19066  -1.14220
  Beta  occ. eigenvalues --   -1.14216  -1.14195  -1.13794  -1.13728  -1.13698
  Beta  occ. eigenvalues --   -1.13680  -1.13642  -1.13609  -1.13231  -1.13229
  Beta  occ. eigenvalues --   -1.13176  -1.13159  -1.13156  -1.13145  -1.13129
  Beta  occ. eigenvalues --   -1.13110  -1.13058  -1.12750  -1.12740  -1.12699
  Beta  occ. eigenvalues --   -0.16902  -0.13237  -0.11571
  Beta virt. eigenvalues --   -0.07660  -0.05792  -0.04925  -0.04623  -0.03520
  Beta virt. eigenvalues --   -0.02095  -0.01791  -0.01538  -0.01072  -0.00483
  Beta virt. eigenvalues --   -0.00382  -0.00264   0.00305   0.00431   0.00544

 Mulliken charges and spin densities:
               1          2
     1  Na   0.824210   0.072410
     2  Na  -0.091182  -0.080328
     3  Na  -0.345337   0.023566
     4  Na   0.054354   0.272351
     5  Na  -0.211326   0.082401
     6  Na   0.087300   0.624236
     7  Na  -0.318020   0.005363
 Sum of Mulliken charges =  -0.00000   1.00000

 Dipole moment (field-independent basis, Debye):
    X=             -0.5537    Y=              0.1942    Z=             -0.8012  Tot=              0.9930
 Quadrupole moment (field-independent basis, Debye-Ang):
   XX=            -62.4377   YY=            -70.7169   ZZ=            -65.3324
   XY=             -0.7287   XZ=              0.4938   YZ=             -0.5665

 Normal termination of Gaussian 16 at Wed Nov 29 00:35:54 2023.
