 Gaussian 16, Revision B.01,
 Gaussian 16:  ES64L-G16RevB.01 20-Dec-2017

 -------------------------
 #P B3LYP/6-311+g(d) force
 -------------------------

 -----
 DPGEN
 -----
 Symbolic Z-matrix:
 Charge =  0 Multiplicity = 2

                         Standard orientation:
 ---------------------------------------------------------------------
 Center     Atomic      Atomic             Coordinates (Angstroms)
 Number     Number       Type             X           Y           Z
 ---------------------------------------------------------------------
      1         11           0       -2.944841   -0.277138    0.248014
      2         11           0        2.397689   -1.641810    0.475192
      3         11           0       -0.163220    0.062196   -1.807515
      4         11           0        0.139318    0.253506    1.854399
      5         11           0       -0.945186   -2.460120   -0.402480
      6         11           0        2.984785    1.512851   -0.422750
      7         11           0       -1.468546    2.550516    0.055140
 ---------------------------------------------------------------------

 SCF Done:  E(UB3LYP) =  -1136.13120827     A.U. after   20 cycles

 The electronic state is 2-A.
 Alpha  occ. eigenvalues --  -38.44390 -38.44133 -38.43770 -38.43586 -38.43571
 Alpha  occ. eigenvalues --  -38.43212 -38.42712  -2.20187  -2.20064  -2.19641
 Alpha  occ. eigenvalues --   -2.19548  -2.19528  -2.19090  -2.18660  -1.13857
 Alpha  occ. eigenvalues --   -1.13848  -1.13827  -1.13761  -1.13720  -1.13712
 Alpha  occ. eigenvalues --   -1.13358  -1.13296  -1.13268  -1.13257  -1.13212
 Alpha  occ. eigenvalues --   -1.13185  -1.13159  -1.13151  -1.13142  -1.12762
 Alpha  occ. eigenvalues --   -1.12750  -1.12726  -1.12357  -1.12318  -1.12270
 Alpha  occ. eigenvalues --   -0.19066  -0.13548  -0.12080  -0.11052
 Alpha virt. eigenvalues --   -0.05959  -0.05184  -0.04024  -0.03567  -0.02805
 Alpha virt. eigenvalues --   -0.02635  -0.01720  -0.01025  -0.00211  -0.00107
 Alpha virt. eigenvalues --    0.00088   0.00351   0.00773   0.00859   0.00890

  Beta  occ. eigenvalues --  -38.44383 -38.44125 -38.43759 -38.43508 -38.43491
  Beta  occ. eigenvalues --  -38.43209 -38.42702  -2.20175  -2.20054  -2.19623
  Beta  occ. eigenvalues --   -2.19402  -2.19386  -2.19087  -2.18646  -1.13848
  Beta  occ. eigenvalues --   -1.13828  -1.13821  -1.13759  -1.13719  -1.13673
  Beta  occ. eigenvalues --   -1.13328  -1.13267  -1.13260  -1.13161  -1.13115
  Beta  occ. eigenvalues --   -1.13086  -1.13057  -1.13047  -1.13040  -1.12762
  Beta  occ. eigenvalues --   -1.12734  -1.12713  -1.12343  -1.12304  -1.12240
  Beta  occ. eigenvalues --   -0.18319  -0.13302  -0.11808
  Beta virt. eigenvalues --   -0.07139  -0.05883  -0.05125  -0.04021  -0.02790
  Beta virt. eigenvalues --   -0.02048  -0.01653  -0.01555  -0.00927  -0.00257
  Beta virt. eigenvalues --   -0.00035   0.00139   0.00376   0.00836   0.00881

 Mulliken charges and spin densities:
               1          2
     1  Na   0.232146   0.054647
     2  Na   0.143464   0.042057
     3  Na  -0.327021   0.565627
     4  Na  -0.228492   0.427232
     5  Na   0.256271   0.053540
     6  Na  -0.105088  -0.057978
     7  Na   0.028720  -0.085124
 Sum of Mulliken charges =  -0.00000   1.00000

 Dipole moment (field-independent basis, Debye):
    X=              0.3890    Y=              0.3319    Z=              0.0861  Tot=              0.5185
 Quadrupole moment (field-independent basis, Debye-Ang):
   XX=            -55.0774   YY=            -66.2795   ZZ=            -72.9484
   XY=              0.5516   XZ=             -1.0190   YZ=             -1.3344

 Normal termination of Gaussian 16 at Fri Dec  8 01:48:20 2023.
