 Gaussian 16, Revision B.01,
 Gaussian 16:  ES64L-G16RevB.01 20-Dec-2017

 -------------------------
 #P B3LYP/6-311+g(d) force
 -------------------------

 -----
 DPGEN
 -----
 Symbolic Z-matrix:
 Charge =  0 Multiplicity = 2

                         Standard orientation:
 ---------------------------------------------------------------------
 Center     Atomic      Atomic             Coordinates (Angstroms)
 Number     Number       Type             X           Y           Z
 ---------------------------------------------------------------------
      1         11           0        1.734806   -2.372277    0.609400
      2         11           0       -3.721934   -1.051468   -0.440898
      3         11           0        1.609787    2.135735    0.576361
      4         11           0       -0.737534   -0.164641    2.100575
      5         11           0       -0.157087   -0.482656   -1.570133
      6         11           0       -1.844592    1.907798   -0.332816
      7         11           0        3.116554    0.027508   -0.942488
 ---------------------------------------------------------------------

 SCF Done:  E(UB3LYP) =  -1136.12548525     A.U. after   24 cycles

 The electronic state is 2-A.
 Alpha  occ. eigenvalues --  -38.44911 -38.44284 -38.44125 -38.44064 -38.43617
 Alpha  occ. eigenvalues --  -38.43221 -38.42797  -2.20684  -2.20200  -2.20044
 Alpha  occ. eigenvalues --   -2.19943  -2.19511  -2.19077  -2.18678  -1.14354
 Alpha  occ. eigenvalues --   -1.14349  -1.14313  -1.13893  -1.13863  -1.13833
 Alpha  occ. eigenvalues --   -1.13750  -1.13714  -1.13650  -1.13610  -1.13577
 Alpha  occ. eigenvalues --   -1.13553  -1.13222  -1.13182  -1.13096  -1.12743
 Alpha  occ. eigenvalues --   -1.12735  -1.12720  -1.12371  -1.12331  -1.12311
 Alpha  occ. eigenvalues --   -0.18629  -0.13894  -0.11378  -0.11254
 Alpha virt. eigenvalues --   -0.06634  -0.05026  -0.04354  -0.03182  -0.02889
 Alpha virt. eigenvalues --   -0.02658  -0.02311  -0.00983  -0.00496  -0.00082
 Alpha virt. eigenvalues --    0.00153   0.00217   0.00519   0.00704   0.00799

  Beta  occ. eigenvalues --  -38.44906 -38.44263 -38.44086 -38.43964 -38.43608
  Beta  occ. eigenvalues --  -38.43204 -38.42792  -2.20677  -2.20162  -2.19973
  Beta  occ. eigenvalues --   -2.19760  -2.19497  -2.19050  -2.18672  -1.14348
  Beta  occ. eigenvalues --   -1.14336  -1.14309  -1.13871  -1.13825  -1.13809
  Beta  occ. eigenvalues --   -1.13702  -1.13655  -1.13597  -1.13491  -1.13446
  Beta  occ. eigenvalues --   -1.13421  -1.13210  -1.13156  -1.13083  -1.12728
  Beta  occ. eigenvalues --   -1.12719  -1.12678  -1.12366  -1.12313  -1.12302
  Beta  occ. eigenvalues --   -0.17907  -0.13655  -0.11117
  Beta virt. eigenvalues --   -0.07389  -0.06484  -0.04969  -0.03800  -0.02968
  Beta virt. eigenvalues --   -0.02333  -0.01939  -0.01767  -0.00947  -0.00277
  Beta virt. eigenvalues --   -0.00017   0.00175   0.00257   0.00640   0.00779

 Mulliken charges and spin densities:
               1          2
     1  Na  -0.385352   0.061434
     2  Na   0.092428  -0.026634
     3  Na  -0.618802   0.001345
     4  Na  -0.017631   0.519956
     5  Na  -0.572128   0.238678
     6  Na   0.333812   0.108885
     7  Na   1.167673   0.096336
 Sum of Mulliken charges =  -0.00000   1.00000

 Dipole moment (field-independent basis, Debye):
    X=             -0.9018    Y=             -0.2472    Z=             -0.0359  Tot=              0.9358
 Quadrupole moment (field-independent basis, Debye-Ang):
   XX=            -51.3380   YY=            -72.9503   ZZ=            -70.2366
   XY=              1.4130   XZ=             -0.5903   YZ=             -1.4213

 Normal termination of Gaussian 16 at Tue Dec  5 22:50:55 2023.
