 Gaussian 16, Revision B.01,
 Gaussian 16:  ES64L-G16RevB.01 20-Dec-2017

 -------------------------
 #P B3LYP/6-311+g(d) force
 -------------------------

 -----
 DPGEN
 -----
 Symbolic Z-matrix:
 Charge =  0 Multiplicity = 2

                         Standard orientation:
 ---------------------------------------------------------------------
 Center     Atomic      Atomic             Coordinates (Angstroms)
 Number     Number       Type             X           Y           Z
 ---------------------------------------------------------------------
      1         11           0       -2.138963    3.253067    0.023823
      2         11           0        5.411586   -0.886111   -0.098437
      3         11           0        2.664771    0.459257   -1.014413
      4         11           0        0.618871    1.770558    1.613348
      5         11           0        0.052271   -1.639677    0.116839
      6         11           0       -3.225436   -3.073288    0.717764
      7         11           0       -3.383099    0.116194   -1.358924
 ---------------------------------------------------------------------

 SCF Done:  E(UB3LYP) =  -1136.11593503     A.U. after   21 cycles

 The electronic state is 2-A.
 Alpha  occ. eigenvalues --  -38.44759 -38.44526 -38.44453 -38.44278 -38.44199
 Alpha  occ. eigenvalues --  -38.44086 -38.43521  -2.20531  -2.20323  -2.20264
 Alpha  occ. eigenvalues --   -2.20082  -2.19958  -2.19921  -2.19298  -1.14219
 Alpha  occ. eigenvalues --   -1.14188  -1.14127  -1.14032  -1.13995  -1.13918
 Alpha  occ. eigenvalues --   -1.13910  -1.13898  -1.13891  -1.13764  -1.13736
 Alpha  occ. eigenvalues --   -1.13701  -1.13633  -1.13622  -1.13609  -1.13585
 Alpha  occ. eigenvalues --   -1.13577  -1.13559  -1.12975  -1.12958  -1.12939
 Alpha  occ. eigenvalues --   -0.16498  -0.13794  -0.11987  -0.10939
 Alpha virt. eigenvalues --   -0.06667  -0.05405  -0.04901  -0.03400  -0.02946
 Alpha virt. eigenvalues --   -0.02537  -0.02135  -0.01633  -0.00764  -0.00623
 Alpha virt. eigenvalues --   -0.00429  -0.00265   0.00271   0.00382   0.00501

  Beta  occ. eigenvalues --  -38.44703 -38.44491 -38.44367 -38.44250 -38.44198
  Beta  occ. eigenvalues --  -38.44091 -38.43511  -2.20426  -2.20258  -2.20102
  Beta  occ. eigenvalues --   -2.20031  -2.19957  -2.19937  -2.19282  -1.14148
  Beta  occ. eigenvalues --   -1.14120  -1.14043  -1.13987  -1.13949  -1.13865
  Beta  occ. eigenvalues --   -1.13816  -1.13788  -1.13782  -1.13729  -1.13698
  Beta  occ. eigenvalues --   -1.13672  -1.13633  -1.13622  -1.13614  -1.13592
  Beta  occ. eigenvalues --   -1.13585  -1.13520  -1.12966  -1.12945  -1.12918
  Beta  occ. eigenvalues --   -0.15940  -0.13041  -0.11875
  Beta virt. eigenvalues --   -0.07548  -0.06367  -0.05035  -0.04560  -0.02994
  Beta virt. eigenvalues --   -0.02778  -0.02365  -0.01818  -0.01337  -0.00611
  Beta virt. eigenvalues --   -0.00383  -0.00206   0.00029   0.00418   0.00494

 Mulliken charges and spin densities:
               1          2
     1  Na  -0.037368   0.118872
     2  Na   0.110654   0.320230
     3  Na   0.245295   0.093292
     4  Na   0.166869  -0.003033
     5  Na  -1.348380   0.073743
     6  Na   0.754034   0.031074
     7  Na   0.108897   0.365822
 Sum of Mulliken charges =  -0.00000   1.00000

 Dipole moment (field-independent basis, Debye):
    X=              0.0399    Y=             -0.5292    Z=              0.6083  Tot=              0.8072
 Quadrupole moment (field-independent basis, Debye-Ang):
   XX=            -66.1275   YY=            -68.5256   ZZ=            -66.1004
   XY=              2.8525   XZ=              2.5646   YZ=             -2.4049

 Normal termination of Gaussian 16 at Sun Dec  3 13:42:43 2023.
