 Gaussian 16, Revision B.01,
 Gaussian 16:  ES64L-G16RevB.01 20-Dec-2017

 -------------------------
 #P B3LYP/6-311+g(d) force
 -------------------------

 -----
 DPGEN
 -----
 Symbolic Z-matrix:
 Charge =  0 Multiplicity = 2

                         Standard orientation:
 ---------------------------------------------------------------------
 Center     Atomic      Atomic             Coordinates (Angstroms)
 Number     Number       Type             X           Y           Z
 ---------------------------------------------------------------------
      1         11           0        1.137401   -0.215961   -1.845856
      2         11           0        3.058087    0.550269    0.443299
      3         11           0       -2.356504   -1.762251   -0.772690
      4         11           0        1.275854   -2.452099    0.469199
      5         11           0       -2.816796    0.883783    0.366957
      6         11           0        0.032560    2.804916   -0.548772
      7         11           0       -0.330603    0.191343    1.887863
 ---------------------------------------------------------------------

 SCF Done:  E(UB3LYP) =  -1136.12935692     A.U. after   20 cycles

 The electronic state is 2-A.
 Alpha  occ. eigenvalues --  -38.44551 -38.43872 -38.43862 -38.43733 -38.43730
 Alpha  occ. eigenvalues --  -38.43376 -38.43153  -2.20408  -2.19800  -2.19714
 Alpha  occ. eigenvalues --   -2.19680  -2.19665  -2.19249  -2.18984  -1.14123
 Alpha  occ. eigenvalues --   -1.14067  -1.14022  -1.13631  -1.13577  -1.13416
 Alpha  occ. eigenvalues --   -1.13354  -1.13346  -1.13333  -1.13328  -1.13308
 Alpha  occ. eigenvalues --   -1.13291  -1.13288  -1.13280  -1.13276  -1.12928
 Alpha  occ. eigenvalues --   -1.12919  -1.12864  -1.12670  -1.12644  -1.12613
 Alpha  occ. eigenvalues --   -0.18749  -0.13605  -0.12025  -0.11136
 Alpha virt. eigenvalues --   -0.05941  -0.04885  -0.04484  -0.03661  -0.02980
 Alpha virt. eigenvalues --   -0.02701  -0.01563  -0.00804  -0.00322   0.00009
 Alpha virt. eigenvalues --    0.00028   0.00408   0.00706   0.00849   0.00889

  Beta  occ. eigenvalues --  -38.44544 -38.43867 -38.43846 -38.43666 -38.43655
  Beta  occ. eigenvalues --  -38.43364 -38.43145  -2.20399  -2.19794  -2.19685
  Beta  occ. eigenvalues --   -2.19549  -2.19536  -2.19231  -2.18971  -1.14111
  Beta  occ. eigenvalues --   -1.14046  -1.14015  -1.13622  -1.13536  -1.13406
  Beta  occ. eigenvalues --   -1.13322  -1.13313  -1.13273  -1.13266  -1.13238
  Beta  occ. eigenvalues --   -1.13227  -1.13202  -1.13190  -1.13187  -1.12917
  Beta  occ. eigenvalues --   -1.12883  -1.12847  -1.12656  -1.12627  -1.12602
  Beta  occ. eigenvalues --   -0.18026  -0.13387  -0.11772
  Beta virt. eigenvalues --   -0.07280  -0.05837  -0.04792  -0.04284  -0.03039
  Beta virt. eigenvalues --   -0.02272  -0.01697  -0.01479  -0.00741  -0.00252
  Beta virt. eigenvalues --   -0.00003   0.00124   0.00440   0.00845   0.00887

 Mulliken charges and spin densities:
               1          2
     1  Na   0.044207   0.662378
     2  Na   0.338350  -0.072806
     3  Na  -0.555182  -0.072036
     4  Na   0.048084   0.083726
     5  Na   0.723406   0.165625
     6  Na  -0.524194  -0.165587
     7  Na  -0.074671   0.398699
 Sum of Mulliken charges =  -0.00000   1.00000

 Dipole moment (field-independent basis, Debye):
    X=              0.4858    Y=              0.0143    Z=              0.0279  Tot=              0.4868
 Quadrupole moment (field-independent basis, Debye-Ang):
   XX=            -57.2543   YY=            -67.4367   ZZ=            -71.0067
   XY=              0.2534   XZ=              2.4968   YZ=             -0.0427

 Normal termination of Gaussian 16 at Mon Dec  4 03:31:03 2023.
