 Gaussian 16, Revision B.01,
 Gaussian 16:  ES64L-G16RevB.01 20-Dec-2017

 -------------------------
 #P B3LYP/6-311+g(d) force
 -------------------------

 -----
 DPGEN
 -----
 Symbolic Z-matrix:
 Charge =  0 Multiplicity = 2

                         Standard orientation:
 ---------------------------------------------------------------------
 Center     Atomic      Atomic             Coordinates (Angstroms)
 Number     Number       Type             X           Y           Z
 ---------------------------------------------------------------------
      1         11           0       -2.415458   -2.122588   -0.567295
      2         11           0       -2.000720    1.136476   -0.519992
      3         11           0        0.895285    2.792147    0.142449
      4         11           0       -4.762294    0.085313    0.726217
      5         11           0        3.681202   -2.134970    0.452211
      6         11           0        4.056397    0.791727   -0.175728
      7         11           0        0.545588   -0.548104   -0.057863
 ---------------------------------------------------------------------

 SCF Done:  E(UB3LYP) =  -1136.12255750     A.U. after   22 cycles

 The electronic state is 2-A.
 Alpha  occ. eigenvalues --  -38.44659 -38.44272 -38.44095 -38.43763 -38.43699
 Alpha  occ. eigenvalues --  -38.43415 -38.42603  -2.20506  -2.20133  -2.19952
 Alpha  occ. eigenvalues --   -2.19656  -2.19597  -2.19384  -2.18445  -1.14186
 Alpha  occ. eigenvalues --   -1.14168  -1.14131  -1.13823  -1.13802  -1.13764
 Alpha  occ. eigenvalues --   -1.13630  -1.13584  -1.13552  -1.13411  -1.13340
 Alpha  occ. eigenvalues --   -1.13263  -1.13251  -1.13245  -1.13238  -1.13072
 Alpha  occ. eigenvalues --   -1.13022  -1.13003  -1.12113  -1.12103  -1.12093
 Alpha  occ. eigenvalues --   -0.17622  -0.14806  -0.11624  -0.11052
 Alpha virt. eigenvalues --   -0.06419  -0.05138  -0.04223  -0.03957  -0.02846
 Alpha virt. eigenvalues --   -0.02390  -0.01503  -0.01409  -0.00917  -0.00500
 Alpha virt. eigenvalues --   -0.00296   0.00154   0.00456   0.00507   0.00704

  Beta  occ. eigenvalues --  -38.44630 -38.44245 -38.44007 -38.43766 -38.43685
  Beta  occ. eigenvalues --  -38.43357 -38.42601  -2.20451  -2.20089  -2.19789
  Beta  occ. eigenvalues --   -2.19637  -2.19605  -2.19282  -2.18441  -1.14151
  Beta  occ. eigenvalues --   -1.14130  -1.14092  -1.13791  -1.13776  -1.13697
  Beta  occ. eigenvalues --   -1.13518  -1.13473  -1.13451  -1.13358  -1.13320
  Beta  occ. eigenvalues --   -1.13264  -1.13255  -1.13246  -1.13230  -1.13007
  Beta  occ. eigenvalues --   -1.12954  -1.12904  -1.12111  -1.12100  -1.12088
  Beta  occ. eigenvalues --   -0.16946  -0.14376  -0.11484
  Beta virt. eigenvalues --   -0.07296  -0.06073  -0.04766  -0.04088  -0.03571
  Beta virt. eigenvalues --   -0.02650  -0.01731  -0.01316  -0.01115  -0.00792
  Beta virt. eigenvalues --   -0.00313   0.00084   0.00305   0.00552   0.00611

 Mulliken charges and spin densities:
               1          2
     1  Na   0.366100  -0.075288
     2  Na  -0.115229   0.279499
     3  Na   0.329129   0.040604
     4  Na   0.848413   0.346331
     5  Na   1.145806   0.025044
     6  Na   0.682550   0.185772
     7  Na  -3.256768   0.198038
 Sum of Mulliken charges =  -0.00000   1.00000

 Dipole moment (field-independent basis, Debye):
    X=              0.2217    Y=             -0.4724    Z=              0.0717  Tot=              0.5268
 Quadrupole moment (field-independent basis, Debye-Ang):
   XX=            -61.4232   YY=            -64.3297   ZZ=            -70.5259
   XY=              5.1598   XZ=             -0.7228   YZ=             -0.4151

 Normal termination of Gaussian 16 at Wed Nov 29 16:46:11 2023.
