 Gaussian 16, Revision B.01,
 Gaussian 16:  ES64L-G16RevB.01 20-Dec-2017

 -------------------------
 #P B3LYP/6-311+g(d) force
 -------------------------

 -----
 DPGEN
 -----
 Symbolic Z-matrix:
 Charge =  0 Multiplicity = 2

                         Standard orientation:
 ---------------------------------------------------------------------
 Center     Atomic      Atomic             Coordinates (Angstroms)
 Number     Number       Type             X           Y           Z
 ---------------------------------------------------------------------
      1         11           0       -2.023993    2.118542   -0.156557
      2         11           0        0.100165    0.164943    2.289872
      3         11           0       -0.171034    0.070171   -1.387570
      4         11           0       -2.968318   -1.537113   -0.335050
      5         11           0        1.332220    2.728796   -0.072772
      6         11           0        0.584438   -2.826169    0.241155
      7         11           0        3.146522   -0.719170   -0.579079
 ---------------------------------------------------------------------

 SCF Done:  E(UB3LYP) =  -1136.13609963     A.U. after   19 cycles

 The electronic state is 2-A.
 Alpha  occ. eigenvalues --  -38.43895 -38.43786 -38.43786 -38.43774 -38.43617
 Alpha  occ. eigenvalues --  -38.43607 -38.43005  -2.19747  -2.19661  -2.19598
 Alpha  occ. eigenvalues --   -2.19571  -2.19461  -2.19445  -2.19030  -1.13415
 Alpha  occ. eigenvalues --   -1.13399  -1.13373  -1.13365  -1.13314  -1.13276
 Alpha  occ. eigenvalues --   -1.13274  -1.13255  -1.13251  -1.13241  -1.13222
 Alpha  occ. eigenvalues --   -1.13212  -1.13145  -1.13128  -1.13122  -1.13117
 Alpha  occ. eigenvalues --   -1.13088  -1.13062  -1.12719  -1.12680  -1.12640
 Alpha  occ. eigenvalues --   -0.18433  -0.12821  -0.12467  -0.10822
 Alpha virt. eigenvalues --   -0.05377  -0.05269  -0.04925  -0.03098  -0.02821
 Alpha virt. eigenvalues --   -0.02691  -0.01491  -0.01266  -0.00447  -0.00371
 Alpha virt. eigenvalues --   -0.00037   0.00325   0.00799   0.00846   0.00871

  Beta  occ. eigenvalues --  -38.43782 -38.43780 -38.43774 -38.43772 -38.43614
  Beta  occ. eigenvalues --  -38.43602 -38.42961  -2.19653  -2.19578  -2.19569
  Beta  occ. eigenvalues --   -2.19538  -2.19457  -2.19439  -2.18952  -1.13402
  Beta  occ. eigenvalues --   -1.13296  -1.13272  -1.13261  -1.13254  -1.13242
  Beta  occ. eigenvalues --   -1.13237  -1.13231  -1.13226  -1.13220  -1.13213
  Beta  occ. eigenvalues --   -1.13209  -1.13139  -1.13124  -1.13103  -1.13088
  Beta  occ. eigenvalues --   -1.13084  -1.13062  -1.12660  -1.12623  -1.12581
  Beta  occ. eigenvalues --   -0.17734  -0.12602  -0.12249
  Beta virt. eigenvalues --   -0.06857  -0.05360  -0.05201  -0.04844  -0.02315
  Beta virt. eigenvalues --   -0.02145  -0.01610  -0.01398  -0.01208  -0.00463
  Beta virt. eigenvalues --   -0.00391   0.00129   0.00369   0.00838   0.00870

 Mulliken charges and spin densities:
               1          2
     1  Na   0.314998   0.040413
     2  Na  -0.508646   0.687199
     3  Na  -0.434918   0.093251
     4  Na   0.119512   0.004594
     5  Na   0.231751   0.047725
     6  Na   0.192643   0.084214
     7  Na   0.084660   0.042605
 Sum of Mulliken charges =  -0.00000   1.00000

 Dipole moment (field-independent basis, Debye):
    X=             -0.0187    Y=              0.0853    Z=              0.2283  Tot=              0.2444
 Quadrupole moment (field-independent basis, Debye-Ang):
   XX=            -57.9129   YY=            -60.8036   ZZ=            -74.4460
   XY=              0.8115   XZ=             -0.7948   YZ=             -0.1914

 Normal termination of Gaussian 16 at Fri Dec  8 04:49:14 2023.
