 Gaussian 16, Revision B.01,
 Gaussian 16:  ES64L-G16RevB.01 20-Dec-2017

 -------------------------
 #P B3LYP/6-311+g(d) force
 -------------------------

 -----
 DPGEN
 -----
 Symbolic Z-matrix:
 Charge =  0 Multiplicity = 2

                         Standard orientation:
 ---------------------------------------------------------------------
 Center     Atomic      Atomic             Coordinates (Angstroms)
 Number     Number       Type             X           Y           Z
 ---------------------------------------------------------------------
      1         11           0       -3.904063    1.777573   -0.980675
      2         11           0        4.382961   -0.767237   -0.497829
      3         11           0       -3.690069   -1.593305    0.011291
      4         11           0       -1.242843   -2.734555    1.129760
      5         11           0        1.899242   -2.672054   -0.594544
      6         11           0        2.790458    2.482050    0.379350
      7         11           0       -0.235687    3.507528    0.552648
 ---------------------------------------------------------------------

 SCF Done:  E(UB3LYP) =  -1136.10674335     A.U. after   20 cycles

 The electronic state is 2-A.
 Alpha  occ. eigenvalues --  -38.44928 -38.44849 -38.44684 -38.44408 -38.44376
 Alpha  occ. eigenvalues --  -38.44356 -38.44085  -2.20717  -2.20673  -2.20469
 Alpha  occ. eigenvalues --   -2.20200  -2.20194  -2.20129  -2.19938  -1.14424
 Alpha  occ. eigenvalues --   -1.14395  -1.14390  -1.14379  -1.14331  -1.14314
 Alpha  occ. eigenvalues --   -1.14116  -1.14095  -1.14093  -1.13909  -1.13868
 Alpha  occ. eigenvalues --   -1.13849  -1.13845  -1.13841  -1.13819  -1.13794
 Alpha  occ. eigenvalues --   -1.13781  -1.13735  -1.13597  -1.13561  -1.13559
 Alpha  occ. eigenvalues --   -0.15791  -0.14190  -0.13259  -0.11076
 Alpha virt. eigenvalues --   -0.07451  -0.04741  -0.04475  -0.03668  -0.03566
 Alpha virt. eigenvalues --   -0.02449  -0.02007  -0.01751  -0.01175  -0.01060
 Alpha virt. eigenvalues --   -0.00714  -0.00252  -0.00005   0.00480   0.00730

  Beta  occ. eigenvalues --  -38.44925 -38.44846 -38.44590 -38.44382 -38.44338
  Beta  occ. eigenvalues --  -38.44336 -38.44033  -2.20717  -2.20676  -2.20295
  Beta  occ. eigenvalues --   -2.20157  -2.20122  -2.20101  -2.19841  -1.14399
  Beta  occ. eigenvalues --   -1.14396  -1.14391  -1.14352  -1.14340  -1.14294
  Beta  occ. eigenvalues --   -1.13998  -1.13981  -1.13973  -1.13869  -1.13841
  Beta  occ. eigenvalues --   -1.13814  -1.13795  -1.13792  -1.13778  -1.13775
  Beta  occ. eigenvalues --   -1.13764  -1.13693  -1.13539  -1.13495  -1.13494
  Beta  occ. eigenvalues --   -0.15294  -0.13479  -0.12464
  Beta virt. eigenvalues --   -0.07907  -0.07568  -0.04250  -0.04069  -0.03398
  Beta virt. eigenvalues --   -0.03254  -0.02224  -0.01887  -0.01519  -0.00957
  Beta virt. eigenvalues --   -0.00802  -0.00397   0.00029   0.00165   0.00477

 Mulliken charges and spin densities:
               1          2
     1  Na   0.128352   0.442048
     2  Na   0.530120   0.144767
     3  Na   0.228909   0.029864
     4  Na  -0.401195   0.236589
     5  Na  -0.379103   0.051458
     6  Na  -0.205783   0.113381
     7  Na   0.098700  -0.018109
 Sum of Mulliken charges =  -0.00000   1.00000

 Dipole moment (field-independent basis, Debye):
    X=              0.3205    Y=             -0.2458    Z=             -0.1283  Tot=              0.4238
 Quadrupole moment (field-independent basis, Debye-Ang):
   XX=            -59.7003   YY=            -69.6929   ZZ=            -72.1088
   XY=              0.2965   XZ=              0.2113   YZ=             -0.0366

 Normal termination of Gaussian 16 at Mon Dec  4 02:37:55 2023.
