 Gaussian 16, Revision B.01,
 Gaussian 16:  ES64L-G16RevB.01 20-Dec-2017

 -------------------------
 #P B3LYP/6-311+g(d) force
 -------------------------

 -----
 DPGEN
 -----
 Symbolic Z-matrix:
 Charge =  0 Multiplicity = 2

                         Standard orientation:
 ---------------------------------------------------------------------
 Center     Atomic      Atomic             Coordinates (Angstroms)
 Number     Number       Type             X           Y           Z
 ---------------------------------------------------------------------
      1         11           0       -2.171660   -1.698321   -1.394348
      2         11           0        0.302561    0.581828   -0.740082
      3         11           0        3.732276    1.819739    0.590846
      4         11           0        3.484986   -1.071207   -0.567622
      5         11           0       -0.094178   -2.523668    1.095762
      6         11           0       -2.783265    0.051523    1.340934
      7         11           0       -2.470722    2.840105   -0.325490
 ---------------------------------------------------------------------

 SCF Done:  E(UB3LYP) =  -1136.11917041     A.U. after   24 cycles

 The electronic state is 2-A.
 Alpha  occ. eigenvalues --  -38.45096 -38.44969 -38.44729 -38.43531 -38.43283
 Alpha  occ. eigenvalues --  -38.43270 -38.43190  -2.20908  -2.20769  -2.20582
 Alpha  occ. eigenvalues --   -2.19356  -2.19170  -2.19088  -2.19085  -1.14610
 Alpha  occ. eigenvalues --   -1.14575  -1.14556  -1.14422  -1.14416  -1.14377
 Alpha  occ. eigenvalues --   -1.14257  -1.14244  -1.14207  -1.13045  -1.13007
 Alpha  occ. eigenvalues --   -1.12990  -1.12877  -1.12825  -1.12803  -1.12785
 Alpha  occ. eigenvalues --   -1.12778  -1.12747  -1.12737  -1.12723  -1.12651
 Alpha  occ. eigenvalues --   -0.17582  -0.14253  -0.11681  -0.09656
 Alpha virt. eigenvalues --   -0.06764  -0.05982  -0.04688  -0.03343  -0.02624
 Alpha virt. eigenvalues --   -0.02228  -0.01687  -0.01583  -0.01117  -0.00603
 Alpha virt. eigenvalues --   -0.00237   0.00218   0.00273   0.00475   0.00592

  Beta  occ. eigenvalues --  -38.45095 -38.44954 -38.44704 -38.43515 -38.43282
  Beta  occ. eigenvalues --  -38.43220 -38.43131  -2.20907  -2.20741  -2.20541
  Beta  occ. eigenvalues --   -2.19327  -2.19088  -2.19082  -2.18977  -1.14606
  Beta  occ. eigenvalues --   -1.14570  -1.14549  -1.14404  -1.14393  -1.14363
  Beta  occ. eigenvalues --   -1.14228  -1.14200  -1.14165  -1.13028  -1.12986
  Beta  occ. eigenvalues --   -1.12951  -1.12806  -1.12777  -1.12762  -1.12750
  Beta  occ. eigenvalues --   -1.12739  -1.12705  -1.12701  -1.12662  -1.12580
  Beta  occ. eigenvalues --   -0.16971  -0.13973  -0.11498
  Beta virt. eigenvalues --   -0.06603  -0.06008  -0.05883  -0.04442  -0.02992
  Beta virt. eigenvalues --   -0.02352  -0.01870  -0.01535  -0.01243  -0.00697
  Beta virt. eigenvalues --   -0.00481   0.00096   0.00314   0.00363   0.00528

 Mulliken charges and spin densities:
               1          2
     1  Na   0.646679   0.087639
     2  Na  -1.627156   0.320417
     3  Na   0.205801   0.036443
     4  Na   0.548617   0.034303
     5  Na   0.039576   0.160228
     6  Na  -0.165135   0.428945
     7  Na   0.351618  -0.067976
 Sum of Mulliken charges =  -0.00000   1.00000

 Dipole moment (field-independent basis, Debye):
    X=              1.6027    Y=             -0.2825    Z=             -0.6304  Tot=              1.7452
 Quadrupole moment (field-independent basis, Debye-Ang):
   XX=            -57.0465   YY=            -63.4456   ZZ=            -73.9486
   XY=              0.8437   XZ=              5.3631   YZ=              3.6000

 Normal termination of Gaussian 16 at Tue Dec  5 15:22:10 2023.
