 Gaussian 16, Revision B.01,
 Gaussian 16:  ES64L-G16RevB.01 20-Dec-2017

 -------------------------
 #P B3LYP/6-311+g(d) force
 -------------------------

 -----
 DPGEN
 -----
 Symbolic Z-matrix:
 Charge =  0 Multiplicity = 2

                         Standard orientation:
 ---------------------------------------------------------------------
 Center     Atomic      Atomic             Coordinates (Angstroms)
 Number     Number       Type             X           Y           Z
 ---------------------------------------------------------------------
      1         11           0        2.140600   -0.211601    1.905932
      2         11           0        1.380264   -1.405311   -1.404593
      3         11           0        3.942213    1.132542   -0.721594
      4         11           0       -3.429851    2.008832    0.383732
      5         11           0       -1.249269   -1.808954    1.451618
      6         11           0       -2.717985   -0.971649   -1.405199
      7         11           0       -0.065973    1.256143   -0.209896
 ---------------------------------------------------------------------

 SCF Done:  E(UB3LYP) =  -1136.12308337     A.U. after   26 cycles

 The electronic state is 2-A.
 Alpha  occ. eigenvalues --  -38.44704 -38.44563 -38.44271 -38.44197 -38.44056
 Alpha  occ. eigenvalues --  -38.43346 -38.43010  -2.20536  -2.20358  -2.20158
 Alpha  occ. eigenvalues --   -2.20070  -2.19920  -2.19178  -2.18810  -1.14231
 Alpha  occ. eigenvalues --   -1.14200  -1.14133  -1.14032  -1.14022  -1.13985
 Alpha  occ. eigenvalues --   -1.13902  -1.13856  -1.13774  -1.13737  -1.13710
 Alpha  occ. eigenvalues --   -1.13664  -1.13630  -1.13564  -1.13495  -1.12852
 Alpha  occ. eigenvalues --   -1.12845  -1.12810  -1.12478  -1.12473  -1.12448
 Alpha  occ. eigenvalues --   -0.18215  -0.14081  -0.11100  -0.10786
 Alpha virt. eigenvalues --   -0.06755  -0.05366  -0.05073  -0.03022  -0.02615
 Alpha virt. eigenvalues --   -0.02468  -0.02140  -0.01299  -0.01079  -0.00222
 Alpha virt. eigenvalues --    0.00056   0.00115   0.00280   0.00420   0.00651

  Beta  occ. eigenvalues --  -38.44682 -38.44552 -38.44254 -38.44136 -38.44003
  Beta  occ. eigenvalues --  -38.43334 -38.43007  -2.20495  -2.20339  -2.20133
  Beta  occ. eigenvalues --   -2.19959  -2.19824  -2.19158  -2.18805  -1.14203
  Beta  occ. eigenvalues --   -1.14173  -1.14101  -1.14018  -1.14000  -1.13974
  Beta  occ. eigenvalues --   -1.13850  -1.13828  -1.13750  -1.13669  -1.13643
  Beta  occ. eigenvalues --   -1.13577  -1.13566  -1.13489  -1.13423  -1.12841
  Beta  occ. eigenvalues --   -1.12810  -1.12797  -1.12472  -1.12469  -1.12446
  Beta  occ. eigenvalues --   -0.17516  -0.13910  -0.10629
  Beta virt. eigenvalues --   -0.07275  -0.06575  -0.05098  -0.04543  -0.02707
  Beta virt. eigenvalues --   -0.02545  -0.01940  -0.01588  -0.01140  -0.00564
  Beta virt. eigenvalues --   -0.00112   0.00105   0.00220   0.00351   0.00538

 Mulliken charges and spin densities:
               1          2
     1  Na   0.074145   0.113823
     2  Na  -0.157316   0.406882
     3  Na   0.848084   0.092718
     4  Na   0.363345  -0.140851
     5  Na  -0.040565   0.054663
     6  Na   0.494105   0.078148
     7  Na  -1.581797   0.394616
 Sum of Mulliken charges =  -0.00000   1.00000

 Dipole moment (field-independent basis, Debye):
    X=              0.8131    Y=             -0.7332    Z=             -0.1114  Tot=              1.1005
 Quadrupole moment (field-independent basis, Debye-Ang):
   XX=            -52.1752   YY=            -75.1891   ZZ=            -67.7947
   XY=              5.0627   XZ=             -0.0273   YZ=              1.6021

 Normal termination of Gaussian 16 at Tue Dec  5 15:49:02 2023.
