 Gaussian 16, Revision B.01,
 Gaussian 16:  ES64L-G16RevB.01 20-Dec-2017

 -------------------------
 #P B3LYP/6-311+g(d) force
 -------------------------

 -----
 DPGEN
 -----
 Symbolic Z-matrix:
 Charge =  0 Multiplicity = 2

                         Standard orientation:
 ---------------------------------------------------------------------
 Center     Atomic      Atomic             Coordinates (Angstroms)
 Number     Number       Type             X           Y           Z
 ---------------------------------------------------------------------
      1         11           0        3.264941   -0.714227    1.206304
      2         11           0        2.502788    2.518797   -0.559456
      3         11           0       -0.438715    0.617768   -1.164068
      4         11           0       -1.523608   -2.647024   -0.166074
      5         11           0       -1.329507    3.083154    0.540254
      6         11           0        1.577520   -2.703209   -0.355885
      7         11           0       -4.053419   -0.155259    0.498925
 ---------------------------------------------------------------------

 SCF Done:  E(UB3LYP) =  -1136.11894276     A.U. after   21 cycles

 The electronic state is 2-A.
 Alpha  occ. eigenvalues --  -38.45422 -38.45127 -38.44038 -38.43803 -38.43803
 Alpha  occ. eigenvalues --  -38.43627 -38.43425  -2.21196  -2.20885  -2.19914
 Alpha  occ. eigenvalues --   -2.19685  -2.19653  -2.19425  -2.19272  -1.14903
 Alpha  occ. eigenvalues --   -1.14874  -1.14799  -1.14580  -1.14550  -1.14509
 Alpha  occ. eigenvalues --   -1.13620  -1.13572  -1.13525  -1.13452  -1.13386
 Alpha  occ. eigenvalues --   -1.13334  -1.13311  -1.13297  -1.13246  -1.13084
 Alpha  occ. eigenvalues --   -1.13065  -1.13041  -1.12923  -1.12907  -1.12880
 Alpha  occ. eigenvalues --   -0.17127  -0.13478  -0.13253  -0.09909
 Alpha virt. eigenvalues --   -0.06897  -0.05689  -0.04523  -0.03460  -0.03084
 Alpha virt. eigenvalues --   -0.02046  -0.01666  -0.01468  -0.01365  -0.01018
 Alpha virt. eigenvalues --    0.00026   0.00285   0.00412   0.00509   0.00645

  Beta  occ. eigenvalues --  -38.45425 -38.45129 -38.44013 -38.43787 -38.43782
  Beta  occ. eigenvalues --  -38.43552 -38.43356  -2.21205  -2.20892  -2.19867
  Beta  occ. eigenvalues --   -2.19665  -2.19621  -2.19283  -2.19143  -1.14910
  Beta  occ. eigenvalues --   -1.14881  -1.14791  -1.14584  -1.14557  -1.14494
  Beta  occ. eigenvalues --   -1.13587  -1.13545  -1.13490  -1.13400  -1.13368
  Beta  occ. eigenvalues --   -1.13318  -1.13291  -1.13280  -1.13195  -1.12987
  Beta  occ. eigenvalues --   -1.12969  -1.12948  -1.12841  -1.12818  -1.12794
  Beta  occ. eigenvalues --   -0.16711  -0.12993  -0.12639
  Beta virt. eigenvalues --   -0.06896  -0.06587  -0.05539  -0.04227  -0.02859
  Beta virt. eigenvalues --   -0.02587  -0.01925  -0.01436  -0.01367  -0.01155
  Beta virt. eigenvalues --   -0.00679   0.00247   0.00429   0.00530   0.00596

 Mulliken charges and spin densities:
               1          2
     1  Na  -0.178854   0.419975
     2  Na   0.322498  -0.018272
     3  Na  -0.591697  -0.092534
     4  Na   0.123363   0.111946
     5  Na   0.131520   0.074046
     6  Na   0.133729  -0.005115
     7  Na   0.059440   0.509955
 Sum of Mulliken charges =  -0.00000   1.00000

 Dipole moment (field-independent basis, Debye):
    X=              0.1729    Y=              1.5233    Z=             -0.1362  Tot=              1.5391
 Quadrupole moment (field-independent basis, Debye-Ang):
   XX=            -72.4170   YY=            -57.3831   ZZ=            -70.9853
   XY=              3.0255   XZ=             -2.9499   YZ=              1.8221

 Normal termination of Gaussian 16 at Mon Dec  4 00:15:51 2023.
