 Gaussian 16, Revision B.01,
 Gaussian 16:  ES64L-G16RevB.01 20-Dec-2017

 -------------------------
 #P B3LYP/6-311+g(d) force
 -------------------------

 -----
 DPGEN
 -----
 Symbolic Z-matrix:
 Charge =  0 Multiplicity = 2

                         Standard orientation:
 ---------------------------------------------------------------------
 Center     Atomic      Atomic             Coordinates (Angstroms)
 Number     Number       Type             X           Y           Z
 ---------------------------------------------------------------------
      1         11           0       -1.108767    1.126561   -1.594138
      2         11           0        2.386871    0.307062   -0.991798
      3         11           0       -0.173837   -0.025721    1.783631
      4         11           0        2.670962   -1.858241    0.751221
      5         11           0       -0.639491   -2.134582   -1.029734
      6         11           0        0.598148    3.176741    0.526424
      7         11           0       -3.733887   -0.591820    0.554393
 ---------------------------------------------------------------------

 SCF Done:  E(UB3LYP) =  -1136.13021129     A.U. after   21 cycles

 The electronic state is 2-A.
 Alpha  occ. eigenvalues --  -38.44631 -38.44042 -38.43912 -38.43772 -38.43648
 Alpha  occ. eigenvalues --  -38.43401 -38.42951  -2.20395  -2.19961  -2.19761
 Alpha  occ. eigenvalues --   -2.19664  -2.19538  -2.19296  -2.18775  -1.14067
 Alpha  occ. eigenvalues --   -1.14062  -1.14018  -1.13796  -1.13616  -1.13572
 Alpha  occ. eigenvalues --   -1.13477  -1.13439  -1.13348  -1.13347  -1.13303
 Alpha  occ. eigenvalues --   -1.13282  -1.13180  -1.13160  -1.13135  -1.12997
 Alpha  occ. eigenvalues --   -1.12949  -1.12896  -1.12443  -1.12435  -1.12415
 Alpha  occ. eigenvalues --   -0.18425  -0.13069  -0.12035  -0.11037
 Alpha virt. eigenvalues --   -0.06243  -0.04614  -0.04512  -0.03430  -0.02951
 Alpha virt. eigenvalues --   -0.02638  -0.02018  -0.00961  -0.00560  -0.00014
 Alpha virt. eigenvalues --    0.00224   0.00322   0.00521   0.00790   0.00839

  Beta  occ. eigenvalues --  -38.44626 -38.44025 -38.43881 -38.43700 -38.43641
  Beta  occ. eigenvalues --  -38.43353 -38.42947  -2.20385  -2.19933  -2.19708
  Beta  occ. eigenvalues --   -2.19533  -2.19526  -2.19211  -2.18769  -1.14059
  Beta  occ. eigenvalues --   -1.14046  -1.14013  -1.13776  -1.13590  -1.13546
  Beta  occ. eigenvalues --   -1.13439  -1.13376  -1.13315  -1.13259  -1.13210
  Beta  occ. eigenvalues --   -1.13188  -1.13171  -1.13134  -1.13125  -1.12937
  Beta  occ. eigenvalues --   -1.12872  -1.12839  -1.12433  -1.12427  -1.12408
  Beta  occ. eigenvalues --   -0.17649  -0.12895  -0.11864
  Beta virt. eigenvalues --   -0.07125  -0.06087  -0.04489  -0.04353  -0.02892
  Beta virt. eigenvalues --   -0.02376  -0.01902  -0.01648  -0.00905  -0.00232
  Beta virt. eigenvalues --   -0.00032   0.00279   0.00352   0.00652   0.00809

 Mulliken charges and spin densities:
               1          2
     1  Na   0.222405   0.322095
     2  Na  -0.262527   0.227382
     3  Na  -0.340299   0.780413
     4  Na   0.642881  -0.153667
     5  Na  -0.232942   0.104236
     6  Na  -0.030232  -0.191613
     7  Na   0.000713  -0.088846
 Sum of Mulliken charges =  -0.00000   1.00000

 Dipole moment (field-independent basis, Debye):
    X=             -0.6532    Y=             -0.2530    Z=              0.0882  Tot=              0.7060
 Quadrupole moment (field-independent basis, Debye-Ang):
   XX=            -56.0340   YY=            -66.8456   ZZ=            -70.5350
   XY=             -0.1754   XZ=             -0.6675   YZ=              0.1861

 Normal termination of Gaussian 16 at Tue Dec  5 22:20:47 2023.
