 Gaussian 16, Revision B.01,
 Gaussian 16:  ES64L-G16RevB.01 20-Dec-2017

 -------------------------
 #P B3LYP/6-311+g(d) force
 -------------------------

 -----
 DPGEN
 -----
 Symbolic Z-matrix:
 Charge =  0 Multiplicity = 2

                         Standard orientation:
 ---------------------------------------------------------------------
 Center     Atomic      Atomic             Coordinates (Angstroms)
 Number     Number       Type             X           Y           Z
 ---------------------------------------------------------------------
      1         11           0       -2.293736   -1.949339    0.495117
      2         11           0        3.595710   -0.956555   -1.000361
      3         11           0       -0.612898    1.475993    1.559421
      4         11           0        2.077533    2.239177    0.171720
      5         11           0        0.982443   -1.516096    1.416761
      6         11           0       -3.444818    0.978987   -0.998481
      7         11           0       -0.304235   -0.272166   -1.644177
 ---------------------------------------------------------------------

 SCF Done:  E(UB3LYP) =  -1136.12695295     A.U. after   23 cycles

 The electronic state is 2-A.
 Alpha  occ. eigenvalues --  -38.44687 -38.44614 -38.44449 -38.43750 -38.43413
 Alpha  occ. eigenvalues --  -38.43293 -38.42933  -2.20560  -2.20433  -2.20237
 Alpha  occ. eigenvalues --   -2.19606  -2.19299  -2.19124  -2.18840  -1.14269
 Alpha  occ. eigenvalues --   -1.14211  -1.14188  -1.14098  -1.14066  -1.14059
 Alpha  occ. eigenvalues --   -1.13904  -1.13884  -1.13863  -1.13286  -1.13275
 Alpha  occ. eigenvalues --   -1.13238  -1.12998  -1.12944  -1.12915  -1.12839
 Alpha  occ. eigenvalues --   -1.12792  -1.12753  -1.12521  -1.12474  -1.12454
 Alpha  occ. eigenvalues --   -0.18355  -0.13761  -0.11458  -0.11147
 Alpha virt. eigenvalues --   -0.06468  -0.05317  -0.04414  -0.03120  -0.02904
 Alpha virt. eigenvalues --   -0.02513  -0.02332  -0.01079  -0.00738  -0.00207
 Alpha virt. eigenvalues --    0.00141   0.00265   0.00402   0.00646   0.00738

  Beta  occ. eigenvalues --  -38.44657 -38.44579 -38.44414 -38.43737 -38.43367
  Beta  occ. eigenvalues --  -38.43293 -38.42887  -2.20505  -2.20369  -2.20171
  Beta  occ. eigenvalues --   -2.19586  -2.19219  -2.19127  -2.18758  -1.14223
  Beta  occ. eigenvalues --   -1.14178  -1.14140  -1.14050  -1.14022  -1.14019
  Beta  occ. eigenvalues --   -1.13856  -1.13838  -1.13820  -1.13276  -1.13251
  Beta  occ. eigenvalues --   -1.13206  -1.12942  -1.12880  -1.12847  -1.12829
  Beta  occ. eigenvalues --   -1.12791  -1.12754  -1.12466  -1.12401  -1.12401
  Beta  occ. eigenvalues --   -0.17656  -0.13355  -0.10942
  Beta virt. eigenvalues --   -0.07712  -0.06185  -0.05248  -0.03867  -0.02955
  Beta virt. eigenvalues --   -0.02392  -0.02003  -0.01686  -0.01011  -0.00474
  Beta virt. eigenvalues --   -0.00128   0.00205   0.00293   0.00473   0.00740

 Mulliken charges and spin densities:
               1          2
     1  Na   0.203773   0.096875
     2  Na   0.358318   0.233841
     3  Na   0.013433   0.286001
     4  Na  -0.218495  -0.076078
     5  Na  -0.173045   0.100287
     6  Na   0.294235   0.043882
     7  Na  -0.478219   0.315193
 Sum of Mulliken charges =  -0.00000   1.00000

 Dipole moment (field-independent basis, Debye):
    X=             -0.4491    Y=             -0.1241    Z=             -0.4676  Tot=              0.6601
 Quadrupole moment (field-independent basis, Debye-Ang):
   XX=            -50.4801   YY=            -75.4602   ZZ=            -68.4518
   XY=             -0.3759   XZ=             -1.4254   YZ=             -2.5558

 Normal termination of Gaussian 16 at Tue Dec  5 12:06:58 2023.
