 Gaussian 16, Revision B.01,
 Gaussian 16:  ES64L-G16RevB.01 20-Dec-2017

 -------------------------
 #P B3LYP/6-311+g(d) force
 -------------------------

 -----
 DPGEN
 -----
 Symbolic Z-matrix:
 Charge =  0 Multiplicity = 2

                         Standard orientation:
 ---------------------------------------------------------------------
 Center     Atomic      Atomic             Coordinates (Angstroms)
 Number     Number       Type             X           Y           Z
 ---------------------------------------------------------------------
      1         11           0       -3.219571    0.610457   -0.379433
      2         11           0        0.242419    0.105200   -1.835028
      3         11           0       -0.099716    2.733707    0.041793
      4         11           0        3.110968    0.692877    0.075106
      5         11           0        2.069083   -2.081722   -0.138210
      6         11           0       -1.939241   -2.268031    0.199261
      7         11           0       -0.163942    0.207511    2.036510
 ---------------------------------------------------------------------

 SCF Done:  E(UB3LYP) =  -1136.13285209     A.U. after   19 cycles

 The electronic state is 2-A.
 Alpha  occ. eigenvalues --  -38.44610 -38.44501 -38.43724 -38.43706 -38.43464
 Alpha  occ. eigenvalues --  -38.43354 -38.42681  -2.20429  -2.20369  -2.19639
 Alpha  occ. eigenvalues --   -2.19623  -2.19345  -2.19191  -2.18559  -1.14103
 Alpha  occ. eigenvalues --   -1.14095  -1.14090  -1.14060  -1.14026  -1.13992
 Alpha  occ. eigenvalues --   -1.13327  -1.13294  -1.13290  -1.13261  -1.13254
 Alpha  occ. eigenvalues --   -1.13238  -1.13024  -1.13003  -1.12971  -1.12863
 Alpha  occ. eigenvalues --   -1.12856  -1.12833  -1.12251  -1.12236  -1.12172
 Alpha  occ. eigenvalues --   -0.18678  -0.13547  -0.11925  -0.10971
 Alpha virt. eigenvalues --   -0.06197  -0.05057  -0.04121  -0.03565  -0.02797
 Alpha virt. eigenvalues --   -0.02738  -0.01930  -0.00921  -0.00251  -0.00224
 Alpha virt. eigenvalues --   -0.00056   0.00361   0.00762   0.00780   0.00898

  Beta  occ. eigenvalues --  -38.44604 -38.44499 -38.43635 -38.43632 -38.43460
  Beta  occ. eigenvalues --  -38.43350 -38.42675  -2.20419  -2.20367  -2.19508
  Beta  occ. eigenvalues --   -2.19453  -2.19341  -2.19187  -2.18552  -1.14100
  Beta  occ. eigenvalues --   -1.14093  -1.14071  -1.14057  -1.14007  -1.13987
  Beta  occ. eigenvalues --   -1.13240  -1.13200  -1.13180  -1.13159  -1.13137
  Beta  occ. eigenvalues --   -1.13116  -1.13023  -1.12988  -1.12954  -1.12862
  Beta  occ. eigenvalues --   -1.12835  -1.12829  -1.12250  -1.12199  -1.12169
  Beta  occ. eigenvalues --   -0.17930  -0.13338  -0.11673
  Beta virt. eigenvalues --   -0.07066  -0.06104  -0.05070  -0.04090  -0.02777
  Beta virt. eigenvalues --   -0.01993  -0.01812  -0.01709  -0.00859  -0.00287
  Beta virt. eigenvalues --   -0.00270   0.00089   0.00388   0.00835   0.00897

 Mulliken charges and spin densities:
               1          2
     1  Na   0.116475  -0.038443
     2  Na  -0.246902   0.570679
     3  Na   0.143609  -0.113903
     4  Na   0.291284  -0.036078
     5  Na   0.076608  -0.045922
     6  Na   0.022100  -0.059925
     7  Na  -0.403173   0.723592
 Sum of Mulliken charges =  -0.00000   1.00000

 Dipole moment (field-independent basis, Debye):
    X=             -0.0624    Y=              0.1625    Z=             -0.0060  Tot=              0.1742
 Quadrupole moment (field-independent basis, Debye-Ang):
   XX=            -53.7339   YY=            -67.9376   ZZ=            -73.0001
   XY=             -0.1320   XZ=              1.3121   YZ=             -0.4698

 Normal termination of Gaussian 16 at Tue Dec  5 11:49:49 2023.
