 Gaussian 16, Revision B.01,
 Gaussian 16:  ES64L-G16RevB.01 20-Dec-2017

 -------------------------
 #P B3LYP/6-311+g(d) force
 -------------------------

 -----
 DPGEN
 -----
 Symbolic Z-matrix:
 Charge =  0 Multiplicity = 2

                         Standard orientation:
 ---------------------------------------------------------------------
 Center     Atomic      Atomic             Coordinates (Angstroms)
 Number     Number       Type             X           Y           Z
 ---------------------------------------------------------------------
      1         11           0        3.204510    0.040384   -0.444807
      2         11           0       -0.028042   -0.460363    2.188152
      3         11           0       -0.272817   -0.067665   -1.480230
      4         11           0       -2.955167   -1.623504   -0.183957
      5         11           0        1.197982    2.550626    0.247107
      6         11           0        1.181596   -2.574964   -0.147109
      7         11           0       -2.328063    2.135486   -0.179156
 ---------------------------------------------------------------------

 SCF Done:  E(UB3LYP) =  -1136.13484836     A.U. after   19 cycles

 The electronic state is 2-A.
 Alpha  occ. eigenvalues --  -38.44410 -38.44015 -38.43934 -38.43683 -38.43453
 Alpha  occ. eigenvalues --  -38.43159 -38.43126  -2.20198  -2.19865  -2.19751
 Alpha  occ. eigenvalues --   -2.19549  -2.19331  -2.19152  -2.18982  -1.13881
 Alpha  occ. eigenvalues --   -1.13852  -1.13833  -1.13533  -1.13526  -1.13516
 Alpha  occ. eigenvalues --   -1.13448  -1.13411  -1.13376  -1.13215  -1.13180
 Alpha  occ. eigenvalues --   -1.13161  -1.13051  -1.12991  -1.12947  -1.12840
 Alpha  occ. eigenvalues --   -1.12793  -1.12772  -1.12655  -1.12643  -1.12620
 Alpha  occ. eigenvalues --   -0.18497  -0.13123  -0.12270  -0.10724
 Alpha virt. eigenvalues --   -0.05933  -0.05400  -0.04355  -0.03135  -0.02871
 Alpha virt. eigenvalues --   -0.02570  -0.01782  -0.01244  -0.00467  -0.00241
 Alpha virt. eigenvalues --   -0.00033   0.00313   0.00733   0.00814   0.00894

  Beta  occ. eigenvalues --  -38.44408 -38.44006 -38.43932 -38.43574 -38.43444
  Beta  occ. eigenvalues --  -38.43121 -38.43112  -2.20195  -2.19849  -2.19750
  Beta  occ. eigenvalues --   -2.19349  -2.19320  -2.19067  -2.18974  -1.13867
  Beta  occ. eigenvalues --   -1.13850  -1.13830  -1.13525  -1.13511  -1.13494
  Beta  occ. eigenvalues --   -1.13441  -1.13402  -1.13377  -1.13092  -1.13044
  Beta  occ. eigenvalues --   -1.13029  -1.13019  -1.12958  -1.12931  -1.12777
  Beta  occ. eigenvalues --   -1.12740  -1.12709  -1.12648  -1.12619  -1.12614
  Beta  occ. eigenvalues --   -0.17794  -0.12884  -0.12057
  Beta virt. eigenvalues --   -0.06781  -0.05913  -0.05347  -0.04307  -0.02423
  Beta virt. eigenvalues --   -0.02076  -0.01711  -0.01476  -0.01197  -0.00508
  Beta virt. eigenvalues --   -0.00257   0.00130   0.00360   0.00788   0.00846

 Mulliken charges and spin densities:
               1          2
     1  Na   0.097424   0.060528
     2  Na  -0.584882   0.723522
     3  Na  -0.358154   0.182878
     4  Na   0.170526  -0.053720
     5  Na   0.145876   0.068960
     6  Na   0.424802   0.033914
     7  Na   0.104407  -0.016082
 Sum of Mulliken charges =  -0.00000   1.00000

 Dipole moment (field-independent basis, Debye):
    X=             -0.4341    Y=             -0.2021    Z=              0.1258  Tot=              0.4951
 Quadrupole moment (field-independent basis, Debye-Ang):
   XX=            -54.1056   YY=            -64.2809   ZZ=            -74.6898
   XY=              0.3431   XZ=             -0.8309   YZ=              0.7893

 Normal termination of Gaussian 16 at Thu Dec  7 17:48:47 2023.
