 Gaussian 16, Revision B.01,
 Gaussian 16:  ES64L-G16RevB.01 20-Dec-2017

 -------------------------
 #P B3LYP/6-311+g(d) force
 -------------------------

 -----
 DPGEN
 -----
 Symbolic Z-matrix:
 Charge =  0 Multiplicity = 2

                         Standard orientation:
 ---------------------------------------------------------------------
 Center     Atomic      Atomic             Coordinates (Angstroms)
 Number     Number       Type             X           Y           Z
 ---------------------------------------------------------------------
      1         11           0       -1.544846    2.634625   -0.347236
      2         11           0       -3.124000   -0.156143   -0.169005
      3         11           0       -0.256877    0.171252    2.109898
      4         11           0       -1.063000   -2.756064   -0.019215
      5         11           0        2.818195   -1.545876    0.038764
      6         11           0        2.699760    1.918073    0.048167
      7         11           0        0.470769   -0.265866   -1.661373
 ---------------------------------------------------------------------

 SCF Done:  E(UB3LYP) =  -1136.13400454     A.U. after   19 cycles

 The electronic state is 2-A.
 Alpha  occ. eigenvalues --  -38.44388 -38.44321 -38.44107 -38.43704 -38.43440
 Alpha  occ. eigenvalues --  -38.43394 -38.43125  -2.20215  -2.20111  -2.19967
 Alpha  occ. eigenvalues --   -2.19558  -2.19372  -2.19219  -2.18972  -1.13920
 Alpha  occ. eigenvalues --   -1.13874  -1.13846  -1.13786  -1.13765  -1.13747
 Alpha  occ. eigenvalues --   -1.13640  -1.13629  -1.13623  -1.13223  -1.13183
 Alpha  occ. eigenvalues --   -1.13179  -1.13059  -1.13013  -1.13000  -1.12890
 Alpha  occ. eigenvalues --   -1.12877  -1.12861  -1.12651  -1.12630  -1.12612
 Alpha  occ. eigenvalues --   -0.18294  -0.13420  -0.11992  -0.10594
 Alpha virt. eigenvalues --   -0.05840  -0.05736  -0.04420  -0.03409  -0.02730
 Alpha virt. eigenvalues --   -0.02497  -0.01703  -0.01278  -0.00574  -0.00439
 Alpha virt. eigenvalues --   -0.00036   0.00351   0.00703   0.00798   0.00882

  Beta  occ. eigenvalues --  -38.44385 -38.44320 -38.44102 -38.43606 -38.43387
  Beta  occ. eigenvalues --  -38.43383 -38.43121  -2.20213  -2.20112  -2.19962
  Beta  occ. eigenvalues --   -2.19377  -2.19268  -2.19208  -2.18968  -1.13913
  Beta  occ. eigenvalues --   -1.13860  -1.13848  -1.13773  -1.13762  -1.13750
  Beta  occ. eigenvalues --   -1.13638  -1.13624  -1.13601  -1.13102  -1.13056
  Beta  occ. eigenvalues --   -1.13049  -1.12986  -1.12937  -1.12926  -1.12883
  Beta  occ. eigenvalues --   -1.12858  -1.12849  -1.12647  -1.12613  -1.12603
  Beta  occ. eigenvalues --   -0.17583  -0.13223  -0.11780
  Beta virt. eigenvalues --   -0.06712  -0.05774  -0.05697  -0.04378  -0.02642
  Beta virt. eigenvalues --   -0.01979  -0.01607  -0.01471  -0.01211  -0.00626
  Beta virt. eigenvalues --   -0.00474   0.00130   0.00389   0.00789   0.00802

 Mulliken charges and spin densities:
               1          2
     1  Na  -0.004623  -0.049250
     2  Na   0.190527   0.031659
     3  Na  -0.478281   0.759009
     4  Na   0.137477  -0.061763
     5  Na   0.216124  -0.065973
     6  Na  -0.016064  -0.077006
     7  Na  -0.045160   0.463324
 Sum of Mulliken charges =  -0.00000   1.00000

 Dipole moment (field-independent basis, Debye):
    X=              0.5577    Y=              0.0255    Z=              0.1096  Tot=              0.5689
 Quadrupole moment (field-independent basis, Debye-Ang):
   XX=            -54.7296   YY=            -64.0827   ZZ=            -75.1157
   XY=              0.5839   XZ=              1.3714   YZ=             -0.9966

 Normal termination of Gaussian 16 at Tue Dec  5 10:09:05 2023.
