 Gaussian 16, Revision B.01,
 Gaussian 16:  ES64L-G16RevB.01 20-Dec-2017

 -------------------------
 #P B3LYP/6-311+g(d) force
 -------------------------

 -----
 DPGEN
 -----
 Symbolic Z-matrix:
 Charge =  0 Multiplicity = 2

                         Standard orientation:
 ---------------------------------------------------------------------
 Center     Atomic      Atomic             Coordinates (Angstroms)
 Number     Number       Type             X           Y           Z
 ---------------------------------------------------------------------
      1         11           0        0.801667    1.591352    0.621457
      2         11           0       -1.056043    0.000263    1.867057
      3         11           0       -2.025234    1.525969   -0.625743
      4         11           0       -2.030652   -1.523131   -0.625643
      5         11           0        0.800548   -1.593148    0.620657
      6         11           0        0.471357   -0.000546   -1.590743
      7         11           0        3.038357   -0.000761   -0.267043
 ---------------------------------------------------------------------

 SCF Done:  E(UB3LYP) =  -1136.08275371     A.U. after   22 cycles

 The electronic state is 2-A.
 Alpha  occ. eigenvalues --  -38.44616 -38.44517 -38.44260 -38.43342 -38.43338
 Alpha  occ. eigenvalues --  -38.43134 -38.43133  -2.20792  -2.20565  -2.20529
 Alpha  occ. eigenvalues --   -2.19388  -2.19375  -2.19361  -2.19353  -1.14634
 Alpha  occ. eigenvalues --   -1.14521  -1.14435  -1.14389  -1.14295  -1.14223
 Alpha  occ. eigenvalues --   -1.14214  -1.14154  -1.14044  -1.13165  -1.13108
 Alpha  occ. eigenvalues --   -1.13099  -1.13063  -1.13043  -1.13020  -1.13005
 Alpha  occ. eigenvalues --   -1.13003  -1.12984  -1.12921  -1.12875  -1.12835
 Alpha  occ. eigenvalues --   -0.21432  -0.14351  -0.12603  -0.11882
 Alpha virt. eigenvalues --   -0.05746  -0.04138  -0.04066  -0.03585  -0.02838
 Alpha virt. eigenvalues --   -0.02701  -0.01543  -0.00369  -0.00287   0.00283
 Alpha virt. eigenvalues --    0.00666   0.00844   0.00938   0.01030   0.01079

  Beta  occ. eigenvalues --  -38.44523 -38.44513 -38.44187 -38.43323 -38.43319
  Beta  occ. eigenvalues --  -38.43104 -38.43103  -2.20625  -2.20545  -2.20414
  Beta  occ. eigenvalues --   -2.19358  -2.19344  -2.19315  -2.19308  -1.14517
  Beta  occ. eigenvalues --   -1.14469  -1.14314  -1.14275  -1.14223  -1.14193
  Beta  occ. eigenvalues --   -1.14190  -1.14092  -1.13971  -1.13145  -1.13086
  Beta  occ. eigenvalues --   -1.13082  -1.13031  -1.12990  -1.12972  -1.12960
  Beta  occ. eigenvalues --   -1.12919  -1.12916  -1.12895  -1.12847  -1.12802
  Beta  occ. eigenvalues --   -0.20585  -0.14072  -0.11603
  Beta virt. eigenvalues --   -0.08239  -0.05661  -0.04074  -0.03340  -0.03194
  Beta virt. eigenvalues --   -0.02035  -0.01854  -0.01443  -0.00349  -0.00052
  Beta virt. eigenvalues --    0.00322   0.00711   0.00829   0.01060   0.01086

 Mulliken charges and spin densities:
               1          2
     1  Na  -0.440746   0.312781
     2  Na   0.641983   0.094199
     3  Na  -0.236330   0.002574
     4  Na  -0.239325   0.001669
     5  Na  -0.443109   0.312033
     6  Na  -0.193788   0.349414
     7  Na   0.911315  -0.072670
 Sum of Mulliken charges =  -0.00000   1.00000

 Dipole moment (field-independent basis, Debye):
    X=              0.0106    Y=             -0.0019    Z=             -0.1367  Tot=              0.1371
 Quadrupole moment (field-independent basis, Debye-Ang):
   XX=            -53.9659   YY=            -75.6565   ZZ=            -66.1037
   XY=              0.0019   XZ=              0.8793   YZ=              0.0016

 Normal termination of Gaussian 16 at Fri Dec  8 17:46:02 2023.
