 Gaussian 16, Revision B.01,
 Gaussian 16:  ES64L-G16RevB.01 20-Dec-2017

 -------------------------
 #P B3LYP/6-311+g(d) force
 -------------------------

 -----
 DPGEN
 -----
 Symbolic Z-matrix:
 Charge =  0 Multiplicity = 2

                         Standard orientation:
 ---------------------------------------------------------------------
 Center     Atomic      Atomic             Coordinates (Angstroms)
 Number     Number       Type             X           Y           Z
 ---------------------------------------------------------------------
      1         11           0       -3.675173   -0.369082   -0.392256
      2         11           0        1.277470    0.243551    1.728078
      3         11           0       -0.913817   -2.526323    0.510721
      4         11           0        2.878897   -1.747978   -0.344867
      5         11           0       -0.144958   -0.080732   -1.443875
      6         11           0        1.774312    2.156283   -0.830721
      7         11           0       -1.196732    2.324280    0.772919
 ---------------------------------------------------------------------

 SCF Done:  E(UB3LYP) =  -1136.13233966     A.U. after   20 cycles

 The electronic state is 2-A.
 Alpha  occ. eigenvalues --  -38.44334 -38.44114 -38.43840 -38.43491 -38.43342
 Alpha  occ. eigenvalues --  -38.43136 -38.43125  -2.20110  -2.19926  -2.19664
 Alpha  occ. eigenvalues --   -2.19418  -2.19210  -2.19151  -2.19089  -1.13785
 Alpha  occ. eigenvalues --   -1.13767  -1.13746  -1.13614  -1.13580  -1.13560
 Alpha  occ. eigenvalues --   -1.13385  -1.13341  -1.13256  -1.13186  -1.13084
 Alpha  occ. eigenvalues --   -1.13024  -1.12912  -1.12877  -1.12837  -1.12824
 Alpha  occ. eigenvalues --   -1.12786  -1.12756  -1.12741  -1.12733  -1.12681
 Alpha  occ. eigenvalues --   -0.18655  -0.13030  -0.12369  -0.10595
 Alpha virt. eigenvalues --   -0.06064  -0.05162  -0.04414  -0.03048  -0.02910
 Alpha virt. eigenvalues --   -0.02219  -0.01890  -0.01166  -0.00544  -0.00058
 Alpha virt. eigenvalues --    0.00033   0.00301   0.00737   0.00816   0.00843

  Beta  occ. eigenvalues --  -38.44334 -38.44110 -38.43832 -38.43463 -38.43322
  Beta  occ. eigenvalues --  -38.43079 -38.43057  -2.20111  -2.19922  -2.19652
  Beta  occ. eigenvalues --   -2.19370  -2.19176  -2.19049  -2.18964  -1.13780
  Beta  occ. eigenvalues --   -1.13769  -1.13748  -1.13605  -1.13572  -1.13551
  Beta  occ. eigenvalues --   -1.13376  -1.13317  -1.13248  -1.13144  -1.13035
  Beta  occ. eigenvalues --   -1.12985  -1.12883  -1.12828  -1.12804  -1.12763
  Beta  occ. eigenvalues --   -1.12716  -1.12674  -1.12662  -1.12644  -1.12588
  Beta  occ. eigenvalues --   -0.17940  -0.12855  -0.12129
  Beta virt. eigenvalues --   -0.06631  -0.05989  -0.05104  -0.04339  -0.02497
  Beta virt. eigenvalues --   -0.02181  -0.01841  -0.01303  -0.00990  -0.00395
  Beta virt. eigenvalues --   -0.00058   0.00139   0.00347   0.00806   0.00853

 Mulliken charges and spin densities:
               1          2
     1  Na   0.206224   0.000046
     2  Na   0.040437   0.538683
     3  Na  -0.213028  -0.063859
     4  Na   0.027486  -0.038745
     5  Na  -0.193883   0.378635
     6  Na   0.281394   0.102773
     7  Na  -0.148631   0.082467
 Sum of Mulliken charges =  -0.00000   1.00000

 Dipole moment (field-independent basis, Debye):
    X=             -0.1757    Y=             -0.2447    Z=              0.0397  Tot=              0.3039
 Quadrupole moment (field-independent basis, Debye-Ang):
   XX=            -52.3339   YY=            -64.8732   ZZ=            -74.2371
   XY=             -1.2642   XZ=             -1.7405   YZ=             -0.3309

 Normal termination of Gaussian 16 at Mon Dec  4 01:09:04 2023.
