 Gaussian 16, Revision B.01,
 Gaussian 16:  ES64L-G16RevB.01 20-Dec-2017

 -------------------------
 #P B3LYP/6-311+g(d) force
 -------------------------

 -----
 DPGEN
 -----
 Symbolic Z-matrix:
 Charge =  0 Multiplicity = 2

                         Standard orientation:
 ---------------------------------------------------------------------
 Center     Atomic      Atomic             Coordinates (Angstroms)
 Number     Number       Type             X           Y           Z
 ---------------------------------------------------------------------
      1         11           0       -0.023077    0.235994    1.941328
      2         11           0        0.816880   -2.934974    0.285702
      3         11           0        0.093461   -0.358035   -0.954708
      4         11           0       -2.974306   -1.487605   -0.225935
      5         11           0        3.173351   -0.254338   -0.708199
      6         11           0        1.117967    2.828562    0.219895
      7         11           0       -2.204276    1.970396   -0.558083
 ---------------------------------------------------------------------

 SCF Done:  E(UB3LYP) =  -1136.13020764     A.U. after   19 cycles

 The electronic state is 2-A.
 Alpha  occ. eigenvalues --  -38.43974 -38.43929 -38.43852 -38.43678 -38.43496
 Alpha  occ. eigenvalues --  -38.43364 -38.42717  -2.19787  -2.19781  -2.19695
 Alpha  occ. eigenvalues --   -2.19533  -2.19347  -2.19315  -2.18870  -1.13540
 Alpha  occ. eigenvalues --   -1.13464  -1.13440  -1.13438  -1.13419  -1.13406
 Alpha  occ. eigenvalues --   -1.13386  -1.13332  -1.13308  -1.13232  -1.13192
 Alpha  occ. eigenvalues --   -1.13153  -1.13096  -1.13037  -1.13006  -1.12979
 Alpha  occ. eigenvalues --   -1.12911  -1.12888  -1.12570  -1.12507  -1.12469
 Alpha  occ. eigenvalues --   -0.18731  -0.13001  -0.12650  -0.10294
 Alpha virt. eigenvalues --   -0.05591  -0.05076  -0.05060  -0.02876  -0.02741
 Alpha virt. eigenvalues --   -0.01934  -0.01630  -0.01383  -0.00542  -0.00393
 Alpha virt. eigenvalues --    0.00018   0.00313   0.00800   0.00809   0.00857

  Beta  occ. eigenvalues --  -38.43971 -38.43923 -38.43822 -38.43663 -38.43490
  Beta  occ. eigenvalues --  -38.43265 -38.42689  -2.19779  -2.19776  -2.19641
  Beta  occ. eigenvalues --   -2.19507  -2.19340  -2.19135  -2.18824  -1.13536
  Beta  occ. eigenvalues --   -1.13456  -1.13439  -1.13416  -1.13406  -1.13381
  Beta  occ. eigenvalues --   -1.13360  -1.13289  -1.13274  -1.13213  -1.13167
  Beta  occ. eigenvalues --   -1.13130  -1.13033  -1.12993  -1.12972  -1.12960
  Beta  occ. eigenvalues --   -1.12791  -1.12759  -1.12493  -1.12480  -1.12436
  Beta  occ. eigenvalues --   -0.18062  -0.12657  -0.12411
  Beta virt. eigenvalues --   -0.06551  -0.05487  -0.05031  -0.04894  -0.02225
  Beta virt. eigenvalues --   -0.02062  -0.01516  -0.01310  -0.01013  -0.00505
  Beta virt. eigenvalues --   -0.00367   0.00167   0.00386   0.00819   0.00870

 Mulliken charges and spin densities:
               1          2
     1  Na  -0.004586   0.569344
     2  Na   0.310150   0.146163
     3  Na  -1.175232  -0.152198
     4  Na   0.191437   0.040176
     5  Na   0.313546   0.175961
     6  Na   0.300741   0.115543
     7  Na   0.063944   0.105010
 Sum of Mulliken charges =  -0.00000   1.00000

 Dipole moment (field-independent basis, Debye):
    X=             -0.0872    Y=             -0.1428    Z=              0.3299  Tot=              0.3699
 Quadrupole moment (field-independent basis, Debye-Ang):
   XX=            -57.2009   YY=            -57.5561   ZZ=            -75.7914
   XY=              1.0724   XZ=             -0.0098   YZ=             -1.4507

 Normal termination of Gaussian 16 at Thu Dec  7 01:45:15 2023.
