 Gaussian 16, Revision B.01,
 Gaussian 16:  ES64L-G16RevB.01 20-Dec-2017

 -------------------------
 #P B3LYP/6-311+g(d) force
 -------------------------

 -----
 DPGEN
 -----
 Symbolic Z-matrix:
 Charge =  0 Multiplicity = 2

                         Standard orientation:
 ---------------------------------------------------------------------
 Center     Atomic      Atomic             Coordinates (Angstroms)
 Number     Number       Type             X           Y           Z
 ---------------------------------------------------------------------
      1         11           0       -3.306750    0.877156   -0.018830
      2         11           0        0.816914    0.521127   -1.569223
      3         11           0        1.776615   -2.651661   -0.163541
      4         11           0       -2.306372   -2.482201   -0.337098
      5         11           0       -0.322532    0.025746    1.883154
      6         11           0        0.021122    3.288344   -0.199255
      7         11           0        3.321003    0.421489    0.404793
 ---------------------------------------------------------------------

 SCF Done:  E(UB3LYP) =  -1136.12834379     A.U. after   20 cycles

 The electronic state is 2-A.
 Alpha  occ. eigenvalues --  -38.44800 -38.44749 -38.43999 -38.43973 -38.43702
 Alpha  occ. eigenvalues --  -38.43444 -38.43269  -2.20619  -2.20518  -2.19795
 Alpha  occ. eigenvalues --   -2.19743  -2.19505  -2.19296  -2.19193  -1.14311
 Alpha  occ. eigenvalues --   -1.14270  -1.14250  -1.14199  -1.14177  -1.14153
 Alpha  occ. eigenvalues --   -1.13472  -1.13459  -1.13432  -1.13419  -1.13397
 Alpha  occ. eigenvalues --   -1.13386  -1.13213  -1.13159  -1.13138  -1.12980
 Alpha  occ. eigenvalues --   -1.12925  -1.12910  -1.12868  -1.12842  -1.12806
 Alpha  occ. eigenvalues --   -0.17774  -0.13174  -0.12212  -0.09963
 Alpha virt. eigenvalues --   -0.06270  -0.05604  -0.05099  -0.03194  -0.02636
 Alpha virt. eigenvalues --   -0.02027  -0.01917  -0.01345  -0.01043  -0.00886
 Alpha virt. eigenvalues --   -0.00022   0.00319   0.00671   0.00726   0.00766

  Beta  occ. eigenvalues --  -38.44792 -38.44749 -38.43995 -38.43966 -38.43696
  Beta  occ. eigenvalues --  -38.43359 -38.43217  -2.20607  -2.20520  -2.19789
  Beta  occ. eigenvalues --   -2.19730  -2.19497  -2.19139  -2.19097  -1.14297
  Beta  occ. eigenvalues --   -1.14246  -1.14243  -1.14186  -1.14179  -1.14158
  Beta  occ. eigenvalues --   -1.13463  -1.13446  -1.13427  -1.13403  -1.13389
  Beta  occ. eigenvalues --   -1.13376  -1.13199  -1.13143  -1.13132  -1.12874
  Beta  occ. eigenvalues --   -1.12818  -1.12798  -1.12792  -1.12776  -1.12735
  Beta  occ. eigenvalues --   -0.17124  -0.13008  -0.11961
  Beta virt. eigenvalues --   -0.06324  -0.06120  -0.05571  -0.04941  -0.02509
  Beta virt. eigenvalues --   -0.01983  -0.01812  -0.01269  -0.01157  -0.01001
  Beta virt. eigenvalues --   -0.00907   0.00155   0.00377   0.00709   0.00761

 Mulliken charges and spin densities:
               1          2
     1  Na   0.013538  -0.063415
     2  Na   0.084732   0.580234
     3  Na  -0.086249   0.002150
     4  Na  -0.209143   0.000741
     5  Na  -0.068334   0.651106
     6  Na   0.013746  -0.153867
     7  Na   0.251710  -0.016948
 Sum of Mulliken charges =  -0.00000   1.00000

 Dipole moment (field-independent basis, Debye):
    X=              0.1309    Y=              0.1609    Z=              0.1511  Tot=              0.2567
 Quadrupole moment (field-independent basis, Debye-Ang):
   XX=            -53.2988   YY=            -61.0222   ZZ=            -78.2157
   XY=             -1.2736   XZ=              2.3688   YZ=              1.3355

 Normal termination of Gaussian 16 at Thu Dec  7 16:37:50 2023.
