 Gaussian 16, Revision B.01,
 Gaussian 16:  ES64L-G16RevB.01 20-Dec-2017

 -------------------------
 #P B3LYP/6-311+g(d) force
 -------------------------

 -----
 DPGEN
 -----
 Symbolic Z-matrix:
 Charge =  0 Multiplicity = 2

                         Standard orientation:
 ---------------------------------------------------------------------
 Center     Atomic      Atomic             Coordinates (Angstroms)
 Number     Number       Type             X           Y           Z
 ---------------------------------------------------------------------
      1         11           0       -3.628069   -1.108235    0.789628
      2         11           0       -0.097348    0.319484    1.658088
      3         11           0        3.681520    0.408479    1.094346
      4         11           0       -1.137036   -1.077222   -1.006560
      5         11           0        2.170658   -1.840867   -0.790718
      6         11           0        1.234371    1.333958   -1.246594
      7         11           0       -2.224096    1.964404   -0.498190
 ---------------------------------------------------------------------

 SCF Done:  E(UB3LYP) =  -1136.12042002     A.U. after   28 cycles

 The electronic state is 2-A.
 Alpha  occ. eigenvalues --  -38.45170 -38.44870 -38.43844 -38.43608 -38.43424
 Alpha  occ. eigenvalues --  -38.43226 -38.42889  -2.21055  -2.20707  -2.19685
 Alpha  occ. eigenvalues --   -2.19493  -2.19303  -2.19250  -2.18833  -1.14795
 Alpha  occ. eigenvalues --   -1.14680  -1.14666  -1.14366  -1.14350  -1.14336
 Alpha  occ. eigenvalues --   -1.13396  -1.13339  -1.13323  -1.13181  -1.13151
 Alpha  occ. eigenvalues --   -1.13128  -1.13016  -1.12977  -1.12959  -1.12913
 Alpha  occ. eigenvalues --   -1.12870  -1.12849  -1.12538  -1.12497  -1.12427
 Alpha  occ. eigenvalues --   -0.19005  -0.14533  -0.11369  -0.10710
 Alpha virt. eigenvalues --   -0.07011  -0.05141  -0.04736  -0.03045  -0.02817
 Alpha virt. eigenvalues --   -0.02211  -0.02056  -0.01103  -0.01052  -0.00061
 Alpha virt. eigenvalues --    0.00067   0.00263   0.00366   0.00609   0.00716

  Beta  occ. eigenvalues --  -38.45141 -38.44822 -38.43845 -38.43576 -38.43418
  Beta  occ. eigenvalues --  -38.43180 -38.42857  -2.21001  -2.20618  -2.19687
  Beta  occ. eigenvalues --   -2.19440  -2.19291  -2.19171  -2.18780  -1.14750
  Beta  occ. eigenvalues --   -1.14647  -1.14619  -1.14302  -1.14293  -1.14274
  Beta  occ. eigenvalues --   -1.13400  -1.13337  -1.13318  -1.13133  -1.13117
  Beta  occ. eigenvalues --   -1.13071  -1.13000  -1.12962  -1.12917  -1.12900
  Beta  occ. eigenvalues --   -1.12794  -1.12783  -1.12502  -1.12423  -1.12401
  Beta  occ. eigenvalues --   -0.18269  -0.14284  -0.10529
  Beta virt. eigenvalues --   -0.07455  -0.06739  -0.05078  -0.04123  -0.02768
  Beta virt. eigenvalues --   -0.02567  -0.01653  -0.01372  -0.01019  -0.00684
  Beta virt. eigenvalues --   -0.00011   0.00098   0.00330   0.00455   0.00688

 Mulliken charges and spin densities:
               1          2
     1  Na   0.591076   0.012030
     2  Na  -0.674749   0.332942
     3  Na   0.571864   0.297840
     4  Na  -0.399207   0.199235
     5  Na  -0.154189  -0.031362
     6  Na  -0.064916   0.178704
     7  Na   0.130121   0.010612
 Sum of Mulliken charges =  -0.00000   1.00000

 Dipole moment (field-independent basis, Debye):
    X=              0.4147    Y=              0.6758    Z=              0.4966  Tot=              0.9356
 Quadrupole moment (field-independent basis, Debye-Ang):
   XX=            -50.0191   YY=            -77.1997   ZZ=            -67.9587
   XY=             -2.0221   XZ=             -0.0438   YZ=              0.7432

 Normal termination of Gaussian 16 at Tue Dec  5 12:57:38 2023.
