 Gaussian 16, Revision B.01,
 Gaussian 16:  ES64L-G16RevB.01 20-Dec-2017

 -------------------------
 #P B3LYP/6-311+g(d) force
 -------------------------

 -----
 DPGEN
 -----
 Symbolic Z-matrix:
 Charge =  0 Multiplicity = 2

                         Standard orientation:
 ---------------------------------------------------------------------
 Center     Atomic      Atomic             Coordinates (Angstroms)
 Number     Number       Type             X           Y           Z
 ---------------------------------------------------------------------
      1         11           0        2.348188   -1.946099    0.030496
      2         11           0       -1.337269   -2.678224   -0.272712
      3         11           0        2.802182    1.415477   -0.010230
      4         11           0       -0.552972    2.996477   -0.164092
      5         11           0       -3.112055    0.429792   -0.218807
      6         11           0        0.228749   -0.108245   -1.552085
      7         11           0       -0.376822   -0.109178    2.187429
 ---------------------------------------------------------------------

 SCF Done:  E(UB3LYP) =  -1136.13899979     A.U. after   19 cycles

 The electronic state is 2-A.
 Alpha  occ. eigenvalues --  -38.44050 -38.43849 -38.43740 -38.43696 -38.43516
 Alpha  occ. eigenvalues --  -38.43485 -38.43079  -2.19868  -2.19678  -2.19588
 Alpha  occ. eigenvalues --   -2.19549  -2.19361  -2.19298  -2.19068  -1.13543
 Alpha  occ. eigenvalues --   -1.13531  -1.13508  -1.13369  -1.13346  -1.13322
 Alpha  occ. eigenvalues --   -1.13282  -1.13245  -1.13209  -1.13205  -1.13173
 Alpha  occ. eigenvalues --   -1.13168  -1.13062  -1.13018  -1.12988  -1.12982
 Alpha  occ. eigenvalues --   -1.12962  -1.12933  -1.12751  -1.12697  -1.12695
 Alpha  occ. eigenvalues --   -0.18445  -0.12979  -0.12417  -0.10657
 Alpha virt. eigenvalues --   -0.05579  -0.05288  -0.04849  -0.03157  -0.02814
 Alpha virt. eigenvalues --   -0.02597  -0.01474  -0.01184  -0.00514  -0.00482
 Alpha virt. eigenvalues --   -0.00022   0.00355   0.00786   0.00866   0.00872

  Beta  occ. eigenvalues --  -38.44046 -38.43848 -38.43736 -38.43592 -38.43508
  Beta  occ. eigenvalues --  -38.43482 -38.43024  -2.19863  -2.19678  -2.19585
  Beta  occ. eigenvalues --   -2.19358  -2.19350  -2.19296  -2.18969  -1.13530
  Beta  occ. eigenvalues --   -1.13515  -1.13508  -1.13368  -1.13332  -1.13323
  Beta  occ. eigenvalues --   -1.13275  -1.13225  -1.13211  -1.13080  -1.13050
  Beta  occ. eigenvalues --   -1.13037  -1.13033  -1.12989  -1.12984  -1.12973
  Beta  occ. eigenvalues --   -1.12948  -1.12934  -1.12681  -1.12625  -1.12622
  Beta  occ. eigenvalues --   -0.17733  -0.12775  -0.12200
  Beta virt. eigenvalues --   -0.06708  -0.05549  -0.05305  -0.04773  -0.02381
  Beta virt. eigenvalues --   -0.02069  -0.01504  -0.01386  -0.01112  -0.00567
  Beta virt. eigenvalues --   -0.00541   0.00143   0.00389   0.00842   0.00857

 Mulliken charges and spin densities:
               1          2
     1  Na   0.237608  -0.001479
     2  Na   0.257184  -0.021687
     3  Na   0.102466  -0.025814
     4  Na   0.052313  -0.059369
     5  Na   0.181769  -0.030559
     6  Na  -0.207776   0.326839
     7  Na  -0.623563   0.812070
 Sum of Mulliken charges =  -0.00000   1.00000

 Dipole moment (field-independent basis, Debye):
    X=             -0.0295    Y=             -0.0192    Z=              0.1402  Tot=              0.1446
 Quadrupole moment (field-independent basis, Debye-Ang):
   XX=            -56.7781   YY=            -61.4747   ZZ=            -75.0498
   XY=              0.0355   XZ=              1.3455   YZ=              0.0252

 Normal termination of Gaussian 16 at Thu Dec  7 12:49:13 2023.
