 Gaussian 16, Revision B.01,
 Gaussian 16:  ES64L-G16RevB.01 20-Dec-2017

 -------------------------
 #P B3LYP/6-311+g(d) force
 -------------------------

 -----
 DPGEN
 -----
 Symbolic Z-matrix:
 Charge =  0 Multiplicity = 2

                         Standard orientation:
 ---------------------------------------------------------------------
 Center     Atomic      Atomic             Coordinates (Angstroms)
 Number     Number       Type             X           Y           Z
 ---------------------------------------------------------------------
      1         11           0        0.336302   -0.241940   -1.680657
      2         11           0        3.428344    1.155626    0.355518
      3         11           0        2.393753   -2.079827   -0.252386
      4         11           0       -0.138643   -0.313402    1.964784
      5         11           0       -2.284216   -1.944718   -0.052331
      6         11           0       -3.622970    0.855192   -0.018712
      7         11           0       -0.112570    2.569068   -0.316216
 ---------------------------------------------------------------------

 SCF Done:  E(UB3LYP) =  -1136.12116421     A.U. after   23 cycles

 The electronic state is 2-A.
 Alpha  occ. eigenvalues --  -38.45462 -38.45337 -38.44149 -38.43777 -38.43709
 Alpha  occ. eigenvalues --  -38.43384 -38.42621  -2.21250  -2.21107  -2.20006
 Alpha  occ. eigenvalues --   -2.19641  -2.19555  -2.19343  -2.18459  -1.14945
 Alpha  occ. eigenvalues --   -1.14910  -1.14874  -1.14780  -1.14765  -1.14738
 Alpha  occ. eigenvalues --   -1.13695  -1.13641  -1.13619  -1.13314  -1.13303
 Alpha  occ. eigenvalues --   -1.13290  -1.13285  -1.13201  -1.13188  -1.13026
 Alpha  occ. eigenvalues --   -1.12972  -1.12949  -1.12176  -1.12127  -1.12060
 Alpha  occ. eigenvalues --   -0.18298  -0.13807  -0.11396  -0.10507
 Alpha virt. eigenvalues --   -0.07203  -0.05595  -0.03608  -0.03538  -0.02683
 Alpha virt. eigenvalues --   -0.02451  -0.02354  -0.01596  -0.00481  -0.00227
 Alpha virt. eigenvalues --   -0.00101   0.00200   0.00525   0.00610   0.00739

  Beta  occ. eigenvalues --  -38.45466 -38.45328 -38.44070 -38.43773 -38.43701
  Beta  occ. eigenvalues --  -38.43306 -38.42612  -2.21258  -2.21093  -2.19859
  Beta  occ. eigenvalues --   -2.19637  -2.19544  -2.19201  -2.18448  -1.14955
  Beta  occ. eigenvalues --   -1.14903  -1.14880  -1.14761  -1.14754  -1.14730
  Beta  occ. eigenvalues --   -1.13594  -1.13538  -1.13514  -1.13313  -1.13292
  Beta  occ. eigenvalues --   -1.13265  -1.13265  -1.13185  -1.13177  -1.12927
  Beta  occ. eigenvalues --   -1.12872  -1.12853  -1.12165  -1.12100  -1.12054
  Beta  occ. eigenvalues --   -0.17589  -0.13643  -0.11128
  Beta virt. eigenvalues --   -0.07082  -0.06658  -0.05579  -0.03560  -0.02884
  Beta virt. eigenvalues --   -0.02528  -0.01717  -0.01574  -0.01297  -0.00534
  Beta virt. eigenvalues --   -0.00133  -0.00004   0.00221   0.00669   0.00734

 Mulliken charges and spin densities:
               1          2
     1  Na  -0.147887   0.426196
     2  Na  -0.065192   0.063203
     3  Na   0.327516  -0.004117
     4  Na  -0.449066   0.574328
     5  Na   0.492219   0.027418
     6  Na  -0.102760  -0.064206
     7  Na  -0.054831  -0.022821
 Sum of Mulliken charges =  -0.00000   1.00000

 Dipole moment (field-independent basis, Debye):
    X=             -0.0650    Y=              0.1402    Z=              0.3005  Tot=              0.3379
 Quadrupole moment (field-independent basis, Debye-Ang):
   XX=            -44.0256   YY=            -71.6988   ZZ=            -75.8818
   XY=             -0.4624   XZ=              1.4147   YZ=              0.8217

 Normal termination of Gaussian 16 at Thu Dec  7 04:37:14 2023.
