 Gaussian 16, Revision B.01,
 Gaussian 16:  ES64L-G16RevB.01 20-Dec-2017

 -------------------------
 #P B3LYP/6-311+g(d) force
 -------------------------

 -----
 DPGEN
 -----
 Symbolic Z-matrix:
 Charge =  0 Multiplicity = 2

                         Standard orientation:
 ---------------------------------------------------------------------
 Center     Atomic      Atomic             Coordinates (Angstroms)
 Number     Number       Type             X           Y           Z
 ---------------------------------------------------------------------
      1         11           0        3.445306   -1.307610    0.425110
      2         11           0       -3.967630    0.554160    0.270994
      3         11           0        2.475841    2.065143   -0.222163
      4         11           0       -0.883003    1.703297   -0.901123
      5         11           0        1.015390   -0.884013   -1.091208
      6         11           0       -1.815105   -2.211622   -0.572486
      7         11           0       -0.270799    0.080645    2.090877
 ---------------------------------------------------------------------

 SCF Done:  E(UB3LYP) =  -1136.11495098     A.U. after   33 cycles

 The electronic state is 2-A.
 Alpha  occ. eigenvalues --  -38.45878 -38.45015 -38.44878 -38.43688 -38.43514
 Alpha  occ. eigenvalues --  -38.42864 -38.42730  -2.21648  -2.20832  -2.20708
 Alpha  occ. eigenvalues --   -2.19528  -2.19357  -2.18908  -2.18639  -1.15321
 Alpha  occ. eigenvalues --   -1.15304  -1.15274  -1.14526  -1.14467  -1.14454
 Alpha  occ. eigenvalues --   -1.14434  -1.14343  -1.14335  -1.13207  -1.13184
 Alpha  occ. eigenvalues --   -1.13168  -1.13070  -1.13010  -1.12974  -1.12630
 Alpha  occ. eigenvalues --   -1.12566  -1.12509  -1.12344  -1.12301  -1.12235
 Alpha  occ. eigenvalues --   -0.18524  -0.14016  -0.11187  -0.10593
 Alpha virt. eigenvalues --   -0.07614  -0.05459  -0.03910  -0.03228  -0.03002
 Alpha virt. eigenvalues --   -0.02266  -0.02176  -0.01447  -0.00782  -0.00403
 Alpha virt. eigenvalues --   -0.00011   0.00155   0.00395   0.00608   0.00652

  Beta  occ. eigenvalues --  -38.45866 -38.44942 -38.44888 -38.43683 -38.43484
  Beta  occ. eigenvalues --  -38.42816 -38.42705  -2.21626  -2.20728  -2.20697
  Beta  occ. eigenvalues --   -2.19520  -2.19306  -2.18827  -2.18596  -1.15301
  Beta  occ. eigenvalues --   -1.15286  -1.15260  -1.14470  -1.14432  -1.14375
  Beta  occ. eigenvalues --   -1.14353  -1.14343  -1.14332  -1.13195  -1.13181
  Beta  occ. eigenvalues --   -1.13158  -1.13024  -1.12960  -1.12943  -1.12580
  Beta  occ. eigenvalues --   -1.12487  -1.12441  -1.12317  -1.12241  -1.12210
  Beta  occ. eigenvalues --   -0.17807  -0.13879  -0.10916
  Beta virt. eigenvalues --   -0.07407  -0.06716  -0.05470  -0.03483  -0.02970
  Beta virt. eigenvalues --   -0.02754  -0.01600  -0.01361  -0.01314  -0.00548
  Beta virt. eigenvalues --   -0.00334   0.00020   0.00176   0.00545   0.00658

 Mulliken charges and spin densities:
               1          2
     1  Na   0.381640   0.123242
     2  Na   0.417462   0.173368
     3  Na   0.269692   0.010139
     4  Na  -0.381845  -0.019551
     5  Na  -0.046921   0.128877
     6  Na  -0.198047  -0.014551
     7  Na  -0.441981   0.598474
 Sum of Mulliken charges =  -0.00000   1.00000

 Dipole moment (field-independent basis, Debye):
    X=             -0.6807    Y=              0.2821    Z=              0.6242  Tot=              0.9657
 Quadrupole moment (field-independent basis, Debye-Ang):
   XX=            -41.6918   YY=            -75.0998   ZZ=            -73.9346
   XY=              0.3938   XZ=              1.3589   YZ=             -0.5185

 Normal termination of Gaussian 16 at Thu Dec  7 17:55:03 2023.
