 Gaussian 16, Revision B.01,
 Gaussian 16:  ES64L-G16RevB.01 20-Dec-2017

 -------------------------
 #P B3LYP/6-311+g(d) force
 -------------------------

 -----
 DPGEN
 -----
 Symbolic Z-matrix:
 Charge =  0 Multiplicity = 2

                         Standard orientation:
 ---------------------------------------------------------------------
 Center     Atomic      Atomic             Coordinates (Angstroms)
 Number     Number       Type             X           Y           Z
 ---------------------------------------------------------------------
      1         11           0       -3.565960    0.584381    1.434991
      2         11           0        2.895420    1.520329   -0.426679
      3         11           0        2.590008   -1.367565    1.821822
      4         11           0       -0.416095    3.034934   -1.037817
      5         11           0        0.955628   -2.219584   -1.328958
      6         11           0       -2.324338   -2.008858   -1.100511
      7         11           0       -0.134662    0.456362    0.637153
 ---------------------------------------------------------------------

 SCF Done:  E(UB3LYP) =  -1136.12626501     A.U. after   21 cycles

 The electronic state is 2-A.
 Alpha  occ. eigenvalues --  -38.44572 -38.44184 -38.43897 -38.43865 -38.43703
 Alpha  occ. eigenvalues --  -38.43593 -38.43056  -2.20373  -2.19973  -2.19728
 Alpha  occ. eigenvalues --   -2.19672  -2.19517  -2.19438  -2.19033  -1.14061
 Alpha  occ. eigenvalues --   -1.14050  -1.13986  -1.13635  -1.13608  -1.13592
 Alpha  occ. eigenvalues --   -1.13400  -1.13364  -1.13359  -1.13345  -1.13341
 Alpha  occ. eigenvalues --   -1.13299  -1.13236  -1.13171  -1.13123  -1.13120
 Alpha  occ. eigenvalues --   -1.13095  -1.13048  -1.12758  -1.12688  -1.12650
 Alpha  occ. eigenvalues --   -0.17482  -0.13204  -0.12327  -0.10655
 Alpha virt. eigenvalues --   -0.05958  -0.05061  -0.04910  -0.03515  -0.02929
 Alpha virt. eigenvalues --   -0.01991  -0.01891  -0.01133  -0.00735  -0.00311
 Alpha virt. eigenvalues --   -0.00135   0.00179   0.00295   0.00564   0.00767

  Beta  occ. eigenvalues --  -38.44570 -38.44124 -38.43845 -38.43841 -38.43688
  Beta  occ. eigenvalues --  -38.43558 -38.43048  -2.20372  -2.19860  -2.19638
  Beta  occ. eigenvalues --   -2.19623  -2.19489  -2.19378  -2.19021  -1.14057
  Beta  occ. eigenvalues --   -1.14052  -1.13969  -1.13555  -1.13533  -1.13521
  Beta  occ. eigenvalues --   -1.13328  -1.13324  -1.13322  -1.13292  -1.13279
  Beta  occ. eigenvalues --   -1.13258  -1.13220  -1.13151  -1.13098  -1.13080
  Beta  occ. eigenvalues --   -1.13056  -1.12988  -1.12711  -1.12693  -1.12647
  Beta  occ. eigenvalues --   -0.17011  -0.12704  -0.11826
  Beta virt. eigenvalues --   -0.07336  -0.05883  -0.04794  -0.04410  -0.03204
  Beta virt. eigenvalues --   -0.02455  -0.01846  -0.01358  -0.01014  -0.00433
  Beta virt. eigenvalues --   -0.00077   0.00028   0.00282   0.00382   0.00677

 Mulliken charges and spin densities:
               1          2
     1  Na   0.610466   0.251772
     2  Na   1.096571  -0.109610
     3  Na   1.061455   0.170734
     4  Na  -0.282232   0.077648
     5  Na   0.032686   0.098677
     6  Na  -0.031851  -0.011667
     7  Na  -2.487096   0.522445
 Sum of Mulliken charges =  -0.00000   1.00000

 Dipole moment (field-independent basis, Debye):
    X=              0.4174    Y=              0.1670    Z=             -0.3058  Tot=              0.5437
 Quadrupole moment (field-independent basis, Debye-Ang):
   XX=            -54.9409   YY=            -69.2708   ZZ=            -68.5908
   XY=             -0.3713   XZ=             -0.7243   YZ=             -1.7057

 Normal termination of Gaussian 16 at Tue Dec  5 19:02:23 2023.
