 Gaussian 16, Revision B.01,
 Gaussian 16:  ES64L-G16RevB.01 20-Dec-2017

 -------------------------
 #P B3LYP/6-311+g(d) force
 -------------------------

 -----
 DPGEN
 -----
 Symbolic Z-matrix:
 Charge =  0 Multiplicity = 2

                         Standard orientation:
 ---------------------------------------------------------------------
 Center     Atomic      Atomic             Coordinates (Angstroms)
 Number     Number       Type             X           Y           Z
 ---------------------------------------------------------------------
      1         11           0       -1.221742   -2.273624   -0.153886
      2         11           0       -3.201305   -1.156087    1.855818
      3         11           0        2.471695   -2.996843   -0.974774
      4         11           0        2.707626    2.911287    0.392055
      5         11           0       -1.120583    2.804868   -0.415289
      6         11           0        4.136663   -0.143027    0.503226
      7         11           0       -3.772354    0.853426   -1.207150
 ---------------------------------------------------------------------

 SCF Done:  E(UB3LYP) =  -1136.11008124     A.U. after   22 cycles

 The electronic state is 2-A.
 Alpha  occ. eigenvalues --  -38.45194 -38.44841 -38.44808 -38.44650 -38.44403
 Alpha  occ. eigenvalues --  -38.43821 -38.43571  -2.20994  -2.20609  -2.20604
 Alpha  occ. eigenvalues --   -2.20500  -2.20160  -2.19604  -2.19353  -1.14670
 Alpha  occ. eigenvalues --   -1.14648  -1.14610  -1.14373  -1.14289  -1.14279
 Alpha  occ. eigenvalues --   -1.14275  -1.14257  -1.14242  -1.14138  -1.14114
 Alpha  occ. eigenvalues --   -1.14085  -1.13847  -1.13838  -1.13784  -1.13269
 Alpha  occ. eigenvalues --   -1.13261  -1.13234  -1.13011  -1.12995  -1.12988
 Alpha  occ. eigenvalues --   -0.16234  -0.13958  -0.12705  -0.10727
 Alpha virt. eigenvalues --   -0.07116  -0.05776  -0.04429  -0.03322  -0.03111
 Alpha virt. eigenvalues --   -0.02425  -0.02246  -0.01668  -0.01412  -0.00855
 Alpha virt. eigenvalues --   -0.00637  -0.00203   0.00138   0.00410   0.00554

  Beta  occ. eigenvalues --  -38.45152 -38.44836 -38.44793 -38.44583 -38.44395
  Beta  occ. eigenvalues --  -38.43785 -38.43516  -2.20920  -2.20599  -2.20589
  Beta  occ. eigenvalues --   -2.20378  -2.20149  -2.19538  -2.19251  -1.14621
  Beta  occ. eigenvalues --   -1.14594  -1.14545  -1.14322  -1.14290  -1.14274
  Beta  occ. eigenvalues --   -1.14264  -1.14238  -1.14210  -1.14056  -1.14026
  Beta  occ. eigenvalues --   -1.14014  -1.13842  -1.13835  -1.13758  -1.13224
  Beta  occ. eigenvalues --   -1.13217  -1.13189  -1.12941  -1.12926  -1.12921
  Beta  occ. eigenvalues --   -0.15689  -0.13353  -0.11968
  Beta virt. eigenvalues --   -0.07541  -0.07249  -0.05386  -0.04089  -0.02984
  Beta virt. eigenvalues --   -0.02808  -0.02213  -0.01992  -0.01334  -0.01133
  Beta virt. eigenvalues --   -0.00685  -0.00373   0.00031   0.00278   0.00484

 Mulliken charges and spin densities:
               1          2
     1  Na  -1.136619   0.210523
     2  Na   1.014438   0.192534
     3  Na   0.112215   0.255240
     4  Na   0.197837   0.227491
     5  Na  -0.425243   0.039586
     6  Na  -0.306698   0.000611
     7  Na   0.544070   0.074015
 Sum of Mulliken charges =  -0.00000   1.00000

 Dipole moment (field-independent basis, Debye):
    X=             -1.5864    Y=             -0.0113    Z=              0.2882  Tot=              1.6124
 Quadrupole moment (field-independent basis, Debye-Ang):
   XX=            -56.0690   YY=            -75.2708   ZZ=            -69.0057
   XY=             -0.3024   XZ=              1.4402   YZ=              2.5817

 Normal termination of Gaussian 16 at Sun Dec  3 21:32:18 2023.
