 Gaussian 16, Revision B.01,
 Gaussian 16:  ES64L-G16RevB.01 20-Dec-2017

 -------------------------
 #P B3LYP/6-311+g(d) force
 -------------------------

 -----
 DPGEN
 -----
 Symbolic Z-matrix:
 Charge =  0 Multiplicity = 2

                         Standard orientation:
 ---------------------------------------------------------------------
 Center     Atomic      Atomic             Coordinates (Angstroms)
 Number     Number       Type             X           Y           Z
 ---------------------------------------------------------------------
      1         11           0       -0.382293    2.342151   -0.893059
      2         11           0        2.190034   -1.930024    1.035623
      3         11           0       -2.022152    0.066238    1.658030
      4         11           0       -3.765208   -0.932765   -0.864044
      5         11           0       -0.313769   -0.845792   -0.819362
      6         11           0        2.950023   -0.166758   -1.624268
      7         11           0        1.343366    1.466951    1.507081
 ---------------------------------------------------------------------

 SCF Done:  E(UB3LYP) =  -1136.12625805     A.U. after   21 cycles

 The electronic state is 2-A.
 Alpha  occ. eigenvalues --  -38.44458 -38.44203 -38.43991 -38.43520 -38.43384
 Alpha  occ. eigenvalues --  -38.43027 -38.42927  -2.20298  -2.20097  -2.19811
 Alpha  occ. eigenvalues --   -2.19392  -2.19390  -2.18942  -2.18824  -1.13974
 Alpha  occ. eigenvalues --   -1.13946  -1.13919  -1.13823  -1.13755  -1.13701
 Alpha  occ. eigenvalues --   -1.13479  -1.13459  -1.13443  -1.13143  -1.13082
 Alpha  occ. eigenvalues --   -1.13062  -1.13045  -1.13016  -1.12965  -1.12668
 Alpha  occ. eigenvalues --   -1.12609  -1.12572  -1.12506  -1.12435  -1.12423
 Alpha  occ. eigenvalues --   -0.18675  -0.13739  -0.11351  -0.11230
 Alpha virt. eigenvalues --   -0.06129  -0.05214  -0.04287  -0.03052  -0.02794
 Alpha virt. eigenvalues --   -0.02471  -0.02107  -0.01113  -0.00589  -0.00013
 Alpha virt. eigenvalues --    0.00216   0.00321   0.00492   0.00656   0.00863

  Beta  occ. eigenvalues --  -38.44424 -38.44173 -38.43988 -38.43491 -38.43356
  Beta  occ. eigenvalues --  -38.42998 -38.42901  -2.20236  -2.20042  -2.19806
  Beta  occ. eigenvalues --   -2.19346  -2.19340  -2.18892  -2.18776  -1.13922
  Beta  occ. eigenvalues --   -1.13908  -1.13871  -1.13788  -1.13705  -1.13665
  Beta  occ. eigenvalues --   -1.13471  -1.13454  -1.13438  -1.13082  -1.13057
  Beta  occ. eigenvalues --   -1.13011  -1.13006  -1.12965  -1.12939  -1.12636
  Beta  occ. eigenvalues --   -1.12553  -1.12537  -1.12468  -1.12399  -1.12381
  Beta  occ. eigenvalues --   -0.17886  -0.13571  -0.11107
  Beta virt. eigenvalues --   -0.07442  -0.05930  -0.04630  -0.04095  -0.02839
  Beta virt. eigenvalues --   -0.02299  -0.02063  -0.01628  -0.00780  -0.00396
  Beta virt. eigenvalues --    0.00075   0.00260   0.00440   0.00591   0.00744

 Mulliken charges and spin densities:
               1          2
     1  Na  -0.359810   0.140765
     2  Na   0.147220   0.124703
     3  Na  -0.013375   0.106469
     4  Na   0.429768   0.038016
     5  Na  -0.767936   0.327625
     6  Na   0.240757   0.023804
     7  Na   0.323376   0.238618
 Sum of Mulliken charges =  -0.00000   1.00000

 Dipole moment (field-independent basis, Debye):
    X=             -0.1042    Y=              0.2459    Z=             -0.0797  Tot=              0.2786
 Quadrupole moment (field-independent basis, Debye-Ang):
   XX=            -54.0016   YY=            -75.0336   ZZ=            -64.3484
   XY=              0.6511   XZ=              0.1606   YZ=             -2.8578

 Normal termination of Gaussian 16 at Wed Dec  6 00:26:53 2023.
