 Gaussian 16, Revision B.01,
 Gaussian 16:  ES64L-G16RevB.01 20-Dec-2017

 -------------------------
 #P B3LYP/6-311+g(d) force
 -------------------------

 -----
 DPGEN
 -----
 Symbolic Z-matrix:
 Charge =  0 Multiplicity = 2

                         Standard orientation:
 ---------------------------------------------------------------------
 Center     Atomic      Atomic             Coordinates (Angstroms)
 Number     Number       Type             X           Y           Z
 ---------------------------------------------------------------------
      1         11           0       -1.150698   -0.528478    1.604858
      2         11           0        2.240277   -0.760219    1.774505
      3         11           0        2.398208    1.656286   -1.173439
      4         11           0       -0.290064    2.593452    0.178929
      5         11           0       -3.550944    0.634837   -0.258664
      6         11           0        2.202345   -1.609249   -1.015117
      7         11           0       -1.849124   -1.986629   -1.111072
 ---------------------------------------------------------------------

 SCF Done:  E(UB3LYP) =  -1136.12176764     A.U. after   22 cycles

 The electronic state is 2-A.
 Alpha  occ. eigenvalues --  -38.44958 -38.44392 -38.44181 -38.43943 -38.43903
 Alpha  occ. eigenvalues --  -38.43682 -38.42840  -2.20799  -2.20283  -2.20029
 Alpha  occ. eigenvalues --   -2.19841  -2.19823  -2.19544  -2.18667  -1.14480
 Alpha  occ. eigenvalues --   -1.14467  -1.14424  -1.14033  -1.13937  -1.13889
 Alpha  occ. eigenvalues --   -1.13740  -1.13686  -1.13645  -1.13511  -1.13488
 Alpha  occ. eigenvalues --   -1.13482  -1.13477  -1.13464  -1.13438  -1.13217
 Alpha  occ. eigenvalues --   -1.13198  -1.13169  -1.12351  -1.12336  -1.12302
 Alpha  occ. eigenvalues --   -0.18137  -0.14260  -0.11667  -0.11169
 Alpha virt. eigenvalues --   -0.06293  -0.05324  -0.04811  -0.03552  -0.02805
 Alpha virt. eigenvalues --   -0.02615  -0.01892  -0.00668  -0.00461  -0.00300
 Alpha virt. eigenvalues --   -0.00107   0.00316   0.00383   0.00648   0.00746

  Beta  occ. eigenvalues --  -38.44951 -38.44343 -38.44153 -38.43924 -38.43847
  Beta  occ. eigenvalues --  -38.43650 -38.42840  -2.20789  -2.20194  -2.19977
  Beta  occ. eigenvalues --   -2.19791  -2.19742  -2.19484  -2.18669  -1.14469
  Beta  occ. eigenvalues --   -1.14459  -1.14413  -1.13980  -1.13856  -1.13827
  Beta  occ. eigenvalues --   -1.13703  -1.13647  -1.13607  -1.13461  -1.13451
  Beta  occ. eigenvalues --   -1.13449  -1.13410  -1.13405  -1.13373  -1.13179
  Beta  occ. eigenvalues --   -1.13149  -1.13132  -1.12354  -1.12322  -1.12306
  Beta  occ. eigenvalues --   -0.17497  -0.13992  -0.11499
  Beta virt. eigenvalues --   -0.07339  -0.06175  -0.05069  -0.04192  -0.03436
  Beta virt. eigenvalues --   -0.02272  -0.01826  -0.01709  -0.00602  -0.00241
  Beta virt. eigenvalues --   -0.00078  -0.00034   0.00372   0.00528   0.00733

 Mulliken charges and spin densities:
               1          2
     1  Na  -0.409051   0.196808
     2  Na   0.235141   0.091202
     3  Na   0.105014   0.003006
     4  Na  -0.472160   0.044746
     5  Na   0.803182   0.078757
     6  Na  -0.210382   0.454607
     7  Na  -0.051744   0.130874
 Sum of Mulliken charges =  -0.00000   1.00000

 Dipole moment (field-independent basis, Debye):
    X=             -0.8632    Y=             -0.2734    Z=             -0.2240  Tot=              0.9327
 Quadrupole moment (field-independent basis, Debye-Ang):
   XX=            -54.0430   YY=            -74.3112   ZZ=            -68.8292
   XY=             -2.5459   XZ=              1.7301   YZ=              1.3063

 Normal termination of Gaussian 16 at Wed Nov 29 03:55:04 2023.
