 Gaussian 16, Revision B.01,
 Gaussian 16:  ES64L-G16RevB.01 20-Dec-2017

 -------------------------
 #P B3LYP/6-311+g(d) force
 -------------------------

 -----
 DPGEN
 -----
 Symbolic Z-matrix:
 Charge =  0 Multiplicity = 2

                         Standard orientation:
 ---------------------------------------------------------------------
 Center     Atomic      Atomic             Coordinates (Angstroms)
 Number     Number       Type             X           Y           Z
 ---------------------------------------------------------------------
      1         11           0        3.102595   -1.941750    0.150888
      2         11           0       -1.652699   -2.858605   -0.636017
      3         11           0        1.125562   -0.064550   -1.512005
      4         11           0       -1.335589    2.632025   -0.641891
      5         11           0        2.408331    2.410054    0.357381
      6         11           0       -3.481603    0.285284    0.348509
      7         11           0       -0.166598   -0.462458    1.933134
 ---------------------------------------------------------------------

 SCF Done:  E(UB3LYP) =  -1136.12285850     A.U. after   22 cycles

 The electronic state is 2-A.
 Alpha  occ. eigenvalues --  -38.45014 -38.44689 -38.44504 -38.44393 -38.43613
 Alpha  occ. eigenvalues --  -38.43542 -38.43307  -2.20785  -2.20460  -2.20256
 Alpha  occ. eigenvalues --   -2.20185  -2.19413  -2.19374  -2.19206  -1.14477
 Alpha  occ. eigenvalues --   -1.14431  -1.14424  -1.14140  -1.14121  -1.14094
 Alpha  occ. eigenvalues --   -1.13930  -1.13910  -1.13896  -1.13862  -1.13854
 Alpha  occ. eigenvalues --   -1.13818  -1.13093  -1.13079  -1.13054  -1.13046
 Alpha  occ. eigenvalues --   -1.13007  -1.12986  -1.12888  -1.12865  -1.12824
 Alpha  occ. eigenvalues --   -0.17495  -0.13119  -0.12045  -0.09972
 Alpha virt. eigenvalues --   -0.06760  -0.05792  -0.04731  -0.03202  -0.02730
 Alpha virt. eigenvalues --   -0.02154  -0.01944  -0.01748  -0.01059  -0.00531
 Alpha virt. eigenvalues --   -0.00062   0.00294   0.00427   0.00591   0.00693

  Beta  occ. eigenvalues --  -38.45015 -38.44688 -38.44487 -38.44393 -38.43603
  Beta  occ. eigenvalues --  -38.43455 -38.43262  -2.20790  -2.20460  -2.20226
  Beta  occ. eigenvalues --   -2.20186  -2.19395  -2.19215  -2.19125  -1.14474
  Beta  occ. eigenvalues --   -1.14432  -1.14423  -1.14134  -1.14116  -1.14092
  Beta  occ. eigenvalues --   -1.13900  -1.13890  -1.13875  -1.13864  -1.13838
  Beta  occ. eigenvalues --   -1.13820  -1.13078  -1.13055  -1.13037  -1.12944
  Beta  occ. eigenvalues --   -1.12896  -1.12871  -1.12827  -1.12805  -1.12764
  Beta  occ. eigenvalues --   -0.16856  -0.12979  -0.11825
  Beta virt. eigenvalues --   -0.06728  -0.06283  -0.05615  -0.04586  -0.02583
  Beta virt. eigenvalues --   -0.02165  -0.01904  -0.01623  -0.01195  -0.01027
  Beta virt. eigenvalues --   -0.00519   0.00115   0.00346   0.00525   0.00608

 Mulliken charges and spin densities:
               1          2
     1  Na   0.072542  -0.072380
     2  Na  -0.230480  -0.000269
     3  Na   0.355988   0.353852
     4  Na  -0.297965  -0.008058
     5  Na  -0.005834   0.032147
     6  Na   0.247863   0.052208
     7  Na  -0.142113   0.642499
 Sum of Mulliken charges =  -0.00000   1.00000

 Dipole moment (field-independent basis, Debye):
    X=              0.5645    Y=             -0.2658    Z=              0.2049  Tot=              0.6567
 Quadrupole moment (field-independent basis, Debye-Ang):
   XX=            -51.7316   YY=            -62.3506   ZZ=            -77.8832
   XY=              0.0415   XZ=              2.2789   YZ=              1.0752

 Normal termination of Gaussian 16 at Thu Dec  7 05:28:07 2023.
