 Gaussian 16, Revision B.01,
 Gaussian 16:  ES64L-G16RevB.01 20-Dec-2017

 -------------------------
 #P B3LYP/6-311+g(d) force
 -------------------------

 -----
 DPGEN
 -----
 Symbolic Z-matrix:
 Charge =  0 Multiplicity = 2

                         Standard orientation:
 ---------------------------------------------------------------------
 Center     Atomic      Atomic             Coordinates (Angstroms)
 Number     Number       Type             X           Y           Z
 ---------------------------------------------------------------------
      1         11           0        4.507182    0.430290   -0.599555
      2         11           0       -4.230392   -0.657364   -0.310869
      3         11           0       -1.995690    2.091953    0.016691
      4         11           0        1.357572    2.048657    0.252842
      5         11           0        2.475904   -2.126381    0.248014
      6         11           0       -1.294501   -0.995948   -1.655459
      7         11           0       -0.820075   -0.791206    2.048335
 ---------------------------------------------------------------------

 SCF Done:  E(UB3LYP) =  -1136.11687669     A.U. after   25 cycles

 The electronic state is 2-A.
 Alpha  occ. eigenvalues --  -38.45577 -38.45030 -38.44548 -38.44392 -38.43926
 Alpha  occ. eigenvalues --  -38.43109 -38.42754  -2.21383  -2.20846  -2.20376
 Alpha  occ. eigenvalues --   -2.20196  -2.19699  -2.18972  -2.18563  -1.15051
 Alpha  occ. eigenvalues --   -1.15046  -1.15028  -1.14501  -1.14484  -1.14454
 Alpha  occ. eigenvalues --   -1.14036  -1.14026  -1.14008  -1.13851  -1.13839
 Alpha  occ. eigenvalues --   -1.13828  -1.13385  -1.13365  -1.13341  -1.12671
 Alpha  occ. eigenvalues --   -1.12637  -1.12593  -1.12264  -1.12239  -1.12180
 Alpha  occ. eigenvalues --   -0.17592  -0.14153  -0.11152  -0.10898
 Alpha virt. eigenvalues --   -0.07236  -0.05671  -0.04487  -0.03238  -0.03032
 Alpha virt. eigenvalues --   -0.02446  -0.02259  -0.01474  -0.01120  -0.00611
 Alpha virt. eigenvalues --   -0.00454   0.00086   0.00271   0.00542   0.00671

  Beta  occ. eigenvalues --  -38.45571 -38.44934 -38.44518 -38.44339 -38.43922
  Beta  occ. eigenvalues --  -38.43103 -38.42755  -2.21374  -2.20669  -2.20323
  Beta  occ. eigenvalues --   -2.20097  -2.19696  -2.18962  -2.18566  -1.15047
  Beta  occ. eigenvalues --   -1.15044  -1.14998  -1.14378  -1.14367  -1.14324
  Beta  occ. eigenvalues --   -1.13995  -1.13982  -1.13978  -1.13783  -1.13771
  Beta  occ. eigenvalues --   -1.13765  -1.13386  -1.13364  -1.13311  -1.12667
  Beta  occ. eigenvalues --   -1.12628  -1.12577  -1.12269  -1.12234  -1.12175
  Beta  occ. eigenvalues --   -0.17000  -0.13605  -0.10802
  Beta virt. eigenvalues --   -0.07545  -0.06936  -0.05420  -0.04022  -0.02926
  Beta virt. eigenvalues --   -0.02824  -0.01904  -0.01799  -0.01312  -0.00681
  Beta virt. eigenvalues --   -0.00497  -0.00341   0.00128   0.00378   0.00612

 Mulliken charges and spin densities:
               1          2
     1  Na   0.296748   0.215751
     2  Na   0.544209   0.132620
     3  Na  -0.096903   0.065771
     4  Na  -0.384695   0.043196
     5  Na  -0.074307   0.051655
     6  Na  -0.179883   0.075929
     7  Na  -0.105168   0.415078
 Sum of Mulliken charges =  -0.00000   1.00000

 Dipole moment (field-independent basis, Debye):
    X=             -0.9331    Y=             -0.4669    Z=              0.1576  Tot=              1.0553
 Quadrupole moment (field-independent basis, Debye-Ang):
   XX=            -54.9077   YY=            -78.0834   ZZ=            -66.6765
   XY=             -0.0942   XZ=             -5.0921   YZ=             -2.2947

 Normal termination of Gaussian 16 at Thu Dec  7 18:45:42 2023.
