 Gaussian 16, Revision B.01,
 Gaussian 16:  ES64L-G16RevB.01 20-Dec-2017

 -------------------------
 #P B3LYP/6-311+g(d) force
 -------------------------

 -----
 DPGEN
 -----
 Symbolic Z-matrix:
 Charge =  0 Multiplicity = 2

                         Standard orientation:
 ---------------------------------------------------------------------
 Center     Atomic      Atomic             Coordinates (Angstroms)
 Number     Number       Type             X           Y           Z
 ---------------------------------------------------------------------
      1         11           0        2.655015    1.392965   -0.004844
      2         11           0        0.352965    0.020998   -1.766491
      3         11           0        2.012288   -1.937452    0.241598
      4         11           0       -1.300099   -2.381532   -0.445552
      5         11           0       -0.164716   -0.314393    1.926173
      6         11           0       -0.555156    2.741822    0.014550
      7         11           0       -3.000296    0.477593    0.034566
 ---------------------------------------------------------------------

 SCF Done:  E(UB3LYP) =  -1136.13931319     A.U. after   18 cycles

 The electronic state is 2-A.
 Alpha  occ. eigenvalues --  -38.43681 -38.43612 -38.43502 -38.43375 -38.43283
 Alpha  occ. eigenvalues --  -38.43237 -38.43227  -2.19542  -2.19486  -2.19459
 Alpha  occ. eigenvalues --   -2.19300  -2.19294  -2.19147  -2.19109  -1.13221
 Alpha  occ. eigenvalues --   -1.13204  -1.13203  -1.13202  -1.13167  -1.13140
 Alpha  occ. eigenvalues --   -1.13128  -1.13095  -1.13080  -1.13027  -1.12961
 Alpha  occ. eigenvalues --   -1.12952  -1.12942  -1.12918  -1.12890  -1.12804
 Alpha  occ. eigenvalues --   -1.12798  -1.12779  -1.12774  -1.12762  -1.12735
 Alpha  occ. eigenvalues --   -0.19261  -0.13093  -0.12688  -0.11078
 Alpha virt. eigenvalues --   -0.05299  -0.05004  -0.04586  -0.03249  -0.03055
 Alpha virt. eigenvalues --   -0.02668  -0.01293  -0.00974  -0.00096  -0.00066
 Alpha virt. eigenvalues --    0.00044   0.00374   0.00877   0.00949   0.00961

  Beta  occ. eigenvalues --  -38.43679 -38.43608 -38.43416 -38.43364 -38.43233
  Beta  occ. eigenvalues --  -38.43212 -38.43207  -2.19541  -2.19482  -2.19302
  Beta  occ. eigenvalues --   -2.19284  -2.19155  -2.19125  -2.19105  -1.13216
  Beta  occ. eigenvalues --   -1.13206  -1.13190  -1.13181  -1.13131  -1.13122
  Beta  occ. eigenvalues --   -1.13079  -1.12993  -1.12975  -1.12974  -1.12916
  Beta  occ. eigenvalues --   -1.12896  -1.12888  -1.12856  -1.12814  -1.12776
  Beta  occ. eigenvalues --   -1.12766  -1.12753  -1.12751  -1.12740  -1.12728
  Beta  occ. eigenvalues --   -0.18505  -0.12844  -0.12420
  Beta virt. eigenvalues --   -0.07101  -0.05274  -0.05005  -0.04556  -0.02440
  Beta virt. eigenvalues --   -0.02236  -0.01585  -0.01220  -0.00907  -0.00127
  Beta virt. eigenvalues --   -0.00083   0.00125   0.00393   0.00936   0.00941

 Mulliken charges and spin densities:
               1          2
     1  Na   0.127904  -0.085428
     2  Na  -0.370478   0.580614
     3  Na   0.397828  -0.002036
     4  Na   0.299837  -0.012549
     5  Na  -0.519686   0.696144
     6  Na   0.035517  -0.105109
     7  Na   0.029080  -0.071636
 Sum of Mulliken charges =  -0.00000   1.00000

 Dipole moment (field-independent basis, Debye):
    X=              0.0141    Y=              0.0568    Z=              0.1155  Tot=              0.1295
 Quadrupole moment (field-independent basis, Debye-Ang):
   XX=            -58.1146   YY=            -63.6661   ZZ=            -72.5968
   XY=              0.1915   XZ=              0.9904   YZ=              0.7072

 Normal termination of Gaussian 16 at Fri Dec  8 03:49:35 2023.
