 Gaussian 16, Revision B.01,
 Gaussian 16:  ES64L-G16RevB.01 20-Dec-2017

 -------------------------
 #P B3LYP/6-311+g(d) force
 -------------------------

 -----
 DPGEN
 -----
 Symbolic Z-matrix:
 Charge =  0 Multiplicity = 2

                         Standard orientation:
 ---------------------------------------------------------------------
 Center     Atomic      Atomic             Coordinates (Angstroms)
 Number     Number       Type             X           Y           Z
 ---------------------------------------------------------------------
      1         11           0       -3.268511   -0.207573   -0.586004
      2         11           0        2.874573   -1.700180   -0.249099
      3         11           0       -0.762168   -2.435329    0.804096
      4         11           0       -0.298441   -0.562356   -1.749540
      5         11           0        2.622059    1.827952   -0.177855
      6         11           0       -0.283767    0.185983    1.814214
      7         11           0       -0.883744    2.891502    0.144188
 ---------------------------------------------------------------------

 SCF Done:  E(UB3LYP) =  -1136.13089137     A.U. after   19 cycles

 The electronic state is 2-A.
 Alpha  occ. eigenvalues --  -38.44298 -38.44002 -38.43864 -38.43768 -38.43601
 Alpha  occ. eigenvalues --  -38.43461 -38.43314  -2.20134  -2.19789  -2.19696
 Alpha  occ. eigenvalues --   -2.19655  -2.19580  -2.19402  -2.19137  -1.13832
 Alpha  occ. eigenvalues --   -1.13772  -1.13764  -1.13476  -1.13454  -1.13453
 Alpha  occ. eigenvalues --   -1.13423  -1.13389  -1.13339  -1.13335  -1.13314
 Alpha  occ. eigenvalues --   -1.13302  -1.13288  -1.13221  -1.13172  -1.13032
 Alpha  occ. eigenvalues --   -1.13013  -1.12970  -1.12824  -1.12796  -1.12757
 Alpha  occ. eigenvalues --   -0.18516  -0.13000  -0.12295  -0.11006
 Alpha virt. eigenvalues --   -0.05760  -0.05289  -0.04467  -0.03231  -0.02931
 Alpha virt. eigenvalues --   -0.02621  -0.01770  -0.01069  -0.00418  -0.00322
 Alpha virt. eigenvalues --    0.00003   0.00305   0.00765   0.00838   0.00860

  Beta  occ. eigenvalues --  -38.44274 -38.44003 -38.43863 -38.43709 -38.43514
  Beta  occ. eigenvalues --  -38.43425 -38.43311  -2.20093  -2.19791  -2.19654
  Beta  occ. eigenvalues --   -2.19587  -2.19424  -2.19340  -2.19133  -1.13789
  Beta  occ. eigenvalues --   -1.13743  -1.13735  -1.13472  -1.13455  -1.13422
  Beta  occ. eigenvalues --   -1.13364  -1.13324  -1.13308  -1.13304  -1.13294
  Beta  occ. eigenvalues --   -1.13264  -1.13215  -1.13111  -1.13070  -1.12985
  Beta  occ. eigenvalues --   -1.12935  -1.12923  -1.12807  -1.12789  -1.12756
  Beta  occ. eigenvalues --   -0.17816  -0.12725  -0.12070
  Beta virt. eigenvalues --   -0.07064  -0.05621  -0.05293  -0.04407  -0.02567
  Beta virt. eigenvalues --   -0.02235  -0.01674  -0.01510  -0.01041  -0.00423
  Beta virt. eigenvalues --   -0.00268   0.00115   0.00365   0.00840   0.00843

 Mulliken charges and spin densities:
               1          2
     1  Na   0.130645   0.054539
     2  Na  -0.068640  -0.053481
     3  Na   0.301704   0.023152
     4  Na  -0.207231   0.694886
     5  Na  -0.179374  -0.058731
     6  Na   0.170578   0.453018
     7  Na  -0.147682  -0.113383
 Sum of Mulliken charges =  -0.00000   1.00000

 Dipole moment (field-independent basis, Debye):
    X=             -0.1383    Y=             -0.0102    Z=             -0.2454  Tot=              0.2819
 Quadrupole moment (field-independent basis, Debye-Ang):
   XX=            -55.3947   YY=            -64.9257   ZZ=            -73.6601
   XY=             -0.5572   XZ=              0.2385   YZ=             -1.3426

 Normal termination of Gaussian 16 at Tue Dec  5 23:35:40 2023.
