 Gaussian 16, Revision B.01,
 Gaussian 16:  ES64L-G16RevB.01 20-Dec-2017

 -------------------------
 #P B3LYP/6-311+g(d) force
 -------------------------

 -----
 DPGEN
 -----
 Symbolic Z-matrix:
 Charge =  0 Multiplicity = 2

                         Standard orientation:
 ---------------------------------------------------------------------
 Center     Atomic      Atomic             Coordinates (Angstroms)
 Number     Number       Type             X           Y           Z
 ---------------------------------------------------------------------
      1         11           0        1.613861   -0.536772    1.882652
      2         11           0       -2.854224   -2.080901   -0.649615
      3         11           0       -1.454443    0.038868    2.149085
      4         11           0        1.092221    2.503415   -0.443182
      5         11           0       -0.020849   -0.913632   -1.472103
      6         11           0        3.654210   -1.013441   -0.755010
      7         11           0       -2.030777    2.002464   -0.711827
 ---------------------------------------------------------------------

 SCF Done:  E(UB3LYP) =  -1136.12714595     A.U. after   21 cycles

 The electronic state is 2-A.
 Alpha  occ. eigenvalues --  -38.44697 -38.44302 -38.44281 -38.43958 -38.43444
 Alpha  occ. eigenvalues --  -38.43388 -38.43207  -2.20571  -2.20161  -2.20092
 Alpha  occ. eigenvalues --   -2.19845  -2.19302  -2.19205  -2.19037  -1.14300
 Alpha  occ. eigenvalues --   -1.14192  -1.14164  -1.13847  -1.13804  -1.13795
 Alpha  occ. eigenvalues --   -1.13756  -1.13745  -1.13705  -1.13531  -1.13505
 Alpha  occ. eigenvalues --   -1.13478  -1.12995  -1.12974  -1.12928  -1.12887
 Alpha  occ. eigenvalues --   -1.12853  -1.12834  -1.12716  -1.12696  -1.12654
 Alpha  occ. eigenvalues --   -0.18214  -0.13177  -0.12162  -0.11480
 Alpha virt. eigenvalues --   -0.05969  -0.05069  -0.04558  -0.03596  -0.02982
 Alpha virt. eigenvalues --   -0.02765  -0.01860  -0.01074  -0.00711  -0.00009
 Alpha virt. eigenvalues --    0.00180   0.00258   0.00320   0.00673   0.00801

  Beta  occ. eigenvalues --  -38.44610 -38.44294 -38.44219 -38.43914 -38.43436
  Beta  occ. eigenvalues --  -38.43380 -38.43202  -2.20413  -2.20077  -2.20052
  Beta  occ. eigenvalues --   -2.19767  -2.19288  -2.19191  -2.19029  -1.14175
  Beta  occ. eigenvalues --   -1.14083  -1.14055  -1.13770  -1.13761  -1.13740
  Beta  occ. eigenvalues --   -1.13728  -1.13723  -1.13647  -1.13478  -1.13446
  Beta  occ. eigenvalues --   -1.13417  -1.12981  -1.12959  -1.12920  -1.12868
  Beta  occ. eigenvalues --   -1.12842  -1.12829  -1.12702  -1.12688  -1.12650
  Beta  occ. eigenvalues --   -0.17427  -0.13063  -0.11283
  Beta virt. eigenvalues --   -0.07968  -0.05764  -0.04954  -0.04070  -0.03138
  Beta virt. eigenvalues --   -0.02278  -0.02218  -0.01758  -0.00909  -0.00353
  Beta virt. eigenvalues --    0.00010   0.00258   0.00379   0.00428   0.00761

 Mulliken charges and spin densities:
               1          2
     1  Na  -0.121107   0.156163
     2  Na   0.270202  -0.092363
     3  Na   0.102188   0.338240
     4  Na  -0.250918   0.073282
     5  Na  -0.787762   0.510582
     6  Na   0.605696   0.034497
     7  Na   0.181701  -0.020401
 Sum of Mulliken charges =  -0.00000   1.00000

 Dipole moment (field-independent basis, Debye):
    X=              0.3420    Y=             -0.0435    Z=              0.0553  Tot=              0.3492
 Quadrupole moment (field-independent basis, Debye-Ang):
   XX=            -54.0289   YY=            -74.8223   ZZ=            -67.1145
   XY=             -0.4853   XZ=             -2.5476   YZ=              0.8233

 Normal termination of Gaussian 16 at Sun Dec  3 23:09:16 2023.
