 Gaussian 16, Revision B.01,
 Gaussian 16:  ES64L-G16RevB.01 20-Dec-2017

 -------------------------
 #P B3LYP/6-311+g(d) force
 -------------------------

 -----
 DPGEN
 -----
 Symbolic Z-matrix:
 Charge =  0 Multiplicity = 2

                         Standard orientation:
 ---------------------------------------------------------------------
 Center     Atomic      Atomic             Coordinates (Angstroms)
 Number     Number       Type             X           Y           Z
 ---------------------------------------------------------------------
      1         11           0       -0.101682   -0.126130    2.191249
      2         11           0        0.343210   -0.362174   -1.859683
      3         11           0       -2.953750    0.464087   -0.077786
      4         11           0       -0.523915    2.950830   -0.136778
      5         11           0        2.540291    1.545660   -0.073751
      6         11           0       -1.698707   -2.396849   -0.207798
      7         11           0        2.394552   -2.075424    0.164546
 ---------------------------------------------------------------------

 SCF Done:  E(UB3LYP) =  -1136.13827383     A.U. after   19 cycles

 The electronic state is 2-A.
 Alpha  occ. eigenvalues --  -38.44037 -38.43836 -38.43778 -38.43688 -38.43607
 Alpha  occ. eigenvalues --  -38.43596 -38.43205  -2.19890  -2.19651  -2.19620
 Alpha  occ. eigenvalues --   -2.19548  -2.19527  -2.19464  -2.19035  -1.13548
 Alpha  occ. eigenvalues --   -1.13519  -1.13513  -1.13343  -1.13319  -1.13310
 Alpha  occ. eigenvalues --   -1.13295  -1.13286  -1.13283  -1.13244  -1.13218
 Alpha  occ. eigenvalues --   -1.13204  -1.13198  -1.13173  -1.13142  -1.13113
 Alpha  occ. eigenvalues --   -1.13099  -1.13069  -1.12702  -1.12696  -1.12685
 Alpha  occ. eigenvalues --   -0.18474  -0.13003  -0.12362  -0.11063
 Alpha virt. eigenvalues --   -0.05454  -0.05240  -0.04701  -0.03372  -0.03031
 Alpha virt. eigenvalues --   -0.02914  -0.01316  -0.01104  -0.00332  -0.00271
 Alpha virt. eigenvalues --   -0.00066   0.00385   0.00801   0.00873   0.00905

  Beta  occ. eigenvalues --  -38.43938 -38.43833 -38.43775 -38.43685 -38.43589
  Beta  occ. eigenvalues --  -38.43539 -38.43204  -2.19708  -2.19648  -2.19616
  Beta  occ. eigenvalues --   -2.19546  -2.19456  -2.19402  -2.19035  -1.13429
  Beta  occ. eigenvalues --   -1.13392  -1.13382  -1.13332  -1.13304  -1.13296
  Beta  occ. eigenvalues --   -1.13292  -1.13282  -1.13268  -1.13245  -1.13205
  Beta  occ. eigenvalues --   -1.13182  -1.13154  -1.13100  -1.13088  -1.13071
  Beta  occ. eigenvalues --   -1.13056  -1.13044  -1.12699  -1.12692  -1.12678
  Beta  occ. eigenvalues --   -0.17722  -0.12793  -0.12157
  Beta virt. eigenvalues --   -0.07129  -0.05473  -0.05148  -0.04626  -0.02562
  Beta virt. eigenvalues --   -0.02253  -0.01878  -0.01227  -0.01029  -0.00399
  Beta virt. eigenvalues --   -0.00322   0.00093   0.00411   0.00863   0.00903

 Mulliken charges and spin densities:
               1          2
     1  Na  -0.507432   0.750668
     2  Na  -0.136571   0.520527
     3  Na   0.036742  -0.012966
     4  Na  -0.032626  -0.065095
     5  Na   0.113265  -0.040689
     6  Na   0.340235  -0.056633
     7  Na   0.186386  -0.095811
 Sum of Mulliken charges =  -0.00000   1.00000

 Dipole moment (field-independent basis, Debye):
    X=              0.2138    Y=             -0.2449    Z=              0.1297  Tot=              0.3500
 Quadrupole moment (field-independent basis, Debye-Ang):
   XX=            -59.6931   YY=            -63.4385   ZZ=            -72.3079
   XY=             -0.6010   XZ=              0.8692   YZ=             -0.5540

 Normal termination of Gaussian 16 at Fri Dec  8 06:50:37 2023.
