 Gaussian 16, Revision B.01,
 Gaussian 16:  ES64L-G16RevB.01 20-Dec-2017

 -------------------------
 #P B3LYP/6-311+g(d) force
 -------------------------

 -----
 DPGEN
 -----
 Symbolic Z-matrix:
 Charge =  0 Multiplicity = 2

                         Standard orientation:
 ---------------------------------------------------------------------
 Center     Atomic      Atomic             Coordinates (Angstroms)
 Number     Number       Type             X           Y           Z
 ---------------------------------------------------------------------
      1         11           0       -2.713662    1.917116   -0.225455
      2         11           0       -2.928210   -1.237422    0.043945
      3         11           0        2.073236    2.558792    0.094233
      4         11           0        0.188378    0.192010    2.000673
      5         11           0        3.007654   -1.158989   -0.215113
      6         11           0        0.132306   -2.495529    0.002770
      7         11           0        0.240299    0.224022   -1.701052
 ---------------------------------------------------------------------

 SCF Done:  E(UB3LYP) =  -1136.13121742     A.U. after   21 cycles

 The electronic state is 2-A.
 Alpha  occ. eigenvalues --  -38.44536 -38.44310 -38.44057 -38.43708 -38.43602
 Alpha  occ. eigenvalues --  -38.43521 -38.42591  -2.20383  -2.20113  -2.19909
 Alpha  occ. eigenvalues --   -2.19505  -2.19490  -2.19456  -2.18538  -1.14064
 Alpha  occ. eigenvalues --   -1.14048  -1.14010  -1.13812  -1.13777  -1.13752
 Alpha  occ. eigenvalues --   -1.13574  -1.13563  -1.13548  -1.13191  -1.13183
 Alpha  occ. eigenvalues --   -1.13169  -1.13150  -1.13147  -1.13116  -1.13095
 Alpha  occ. eigenvalues --   -1.13086  -1.13067  -1.12231  -1.12191  -1.12178
 Alpha  occ. eigenvalues --   -0.18593  -0.13444  -0.11975  -0.10690
 Alpha virt. eigenvalues --   -0.06167  -0.05641  -0.04055  -0.03312  -0.02712
 Alpha virt. eigenvalues --   -0.02526  -0.01922  -0.01306  -0.00614  -0.00108
 Alpha virt. eigenvalues --   -0.00041   0.00317   0.00699   0.00779   0.00885

  Beta  occ. eigenvalues --  -38.44528 -38.44307 -38.44055 -38.43706 -38.43507
  Beta  occ. eigenvalues --  -38.43457 -38.42580  -2.20372  -2.20110  -2.19909
  Beta  occ. eigenvalues --   -2.19504  -2.19341  -2.19315  -2.18524  -1.14058
  Beta  occ. eigenvalues --   -1.14020  -1.14003  -1.13813  -1.13761  -1.13750
  Beta  occ. eigenvalues --   -1.13577  -1.13553  -1.13539  -1.13177  -1.13157
  Beta  occ. eigenvalues --   -1.13152  -1.13087  -1.13044  -1.13004  -1.12993
  Beta  occ. eigenvalues --   -1.12982  -1.12972  -1.12225  -1.12179  -1.12133
  Beta  occ. eigenvalues --   -0.17853  -0.13235  -0.11730
  Beta virt. eigenvalues --   -0.06788  -0.06113  -0.05587  -0.04050  -0.02582
  Beta virt. eigenvalues --   -0.01945  -0.01807  -0.01524  -0.01184  -0.00670
  Beta virt. eigenvalues --   -0.00138   0.00111   0.00350   0.00754   0.00800

 Mulliken charges and spin densities:
               1          2
     1  Na   0.183094  -0.054081
     2  Na   0.010586   0.005253
     3  Na  -0.042196  -0.127962
     4  Na  -0.423857   0.636474
     5  Na   0.387001   0.025889
     6  Na   0.163655   0.099929
     7  Na  -0.278283   0.414498
 Sum of Mulliken charges =  -0.00000   1.00000

 Dipole moment (field-independent basis, Debye):
    X=              0.1331    Y=              0.3020    Z=              0.0516  Tot=              0.3340
 Quadrupole moment (field-independent basis, Debye-Ang):
   XX=            -52.7393   YY=            -65.8214   ZZ=            -74.8530
   XY=             -0.6443   XZ=             -0.1723   YZ=             -0.0632

 Normal termination of Gaussian 16 at Thu Dec  7 02:14:21 2023.
