 Gaussian 16, Revision B.01,
 Gaussian 16:  ES64L-G16RevB.01 20-Dec-2017

 -------------------------
 #P B3LYP/6-311+g(d) force
 -------------------------

 -----
 DPGEN
 -----
 Symbolic Z-matrix:
 Charge =  0 Multiplicity = 2

                         Standard orientation:
 ---------------------------------------------------------------------
 Center     Atomic      Atomic             Coordinates (Angstroms)
 Number     Number       Type             X           Y           Z
 ---------------------------------------------------------------------
      1         11           0        1.799776    1.973370   -0.237038
      2         11           0       -0.075644    0.079246   -1.869976
      3         11           0       -0.208524   -2.585249   -0.243959
      4         11           0       -2.748245   -0.491256   -0.060256
      5         11           0       -1.266608    2.265223    0.283601
      6         11           0       -0.086556   -0.241055    1.898594
      7         11           0        2.585801   -1.000279    0.229035
 ---------------------------------------------------------------------

 SCF Done:  E(UB3LYP) =  -1136.13243872     A.U. after   19 cycles

 The electronic state is 2-A.
 Alpha  occ. eigenvalues --  -38.43615 -38.43585 -38.43427 -38.43396 -38.43188
 Alpha  occ. eigenvalues --  -38.43115 -38.43090  -2.19644  -2.19632  -2.19371
 Alpha  occ. eigenvalues --   -2.19332  -2.19148  -2.19087  -2.19056  -1.13354
 Alpha  occ. eigenvalues --   -1.13310  -1.13306  -1.13301  -1.13277  -1.13261
 Alpha  occ. eigenvalues --   -1.13057  -1.13035  -1.13024  -1.13020  -1.12995
 Alpha  occ. eigenvalues --   -1.12980  -1.12869  -1.12804  -1.12769  -1.12746
 Alpha  occ. eigenvalues --   -1.12736  -1.12730  -1.12715  -1.12671  -1.12657
 Alpha  occ. eigenvalues --   -0.20007  -0.13204  -0.12861  -0.11606
 Alpha virt. eigenvalues --   -0.05019  -0.04598  -0.04497  -0.03391  -0.03247
 Alpha virt. eigenvalues --   -0.02948  -0.01083  -0.00787  -0.00079   0.00332
 Alpha virt. eigenvalues --    0.00366   0.00388   0.00968   0.01033   0.01052

  Beta  occ. eigenvalues --  -38.43528 -38.43498 -38.43420 -38.43389 -38.43181
  Beta  occ. eigenvalues --  -38.43104 -38.43079  -2.19485  -2.19473  -2.19363
  Beta  occ. eigenvalues --   -2.19323  -2.19138  -2.19073  -2.19042  -1.13262
  Beta  occ. eigenvalues --   -1.13202  -1.13196  -1.13192  -1.13168  -1.13152
  Beta  occ. eigenvalues --   -1.13048  -1.13030  -1.13015  -1.12988  -1.12977
  Beta  occ. eigenvalues --   -1.12941  -1.12863  -1.12781  -1.12748  -1.12736
  Beta  occ. eigenvalues --   -1.12725  -1.12690  -1.12671  -1.12663  -1.12649
  Beta  occ. eigenvalues --   -0.19215  -0.12906  -0.12558
  Beta virt. eigenvalues --   -0.07567  -0.05013  -0.04600  -0.04500  -0.02514
  Beta virt. eigenvalues --   -0.02374  -0.01832  -0.01016  -0.00731   0.00060
  Beta virt. eigenvalues --    0.00281   0.00318   0.00387   0.01005   0.01014

 Mulliken charges and spin densities:
               1          2
     1  Na   0.279351  -0.002873
     2  Na  -0.758897   0.544492
     3  Na   0.405694  -0.030742
     4  Na   0.305101  -0.062740
     5  Na   0.327519   0.015077
     6  Na  -0.779352   0.563047
     7  Na   0.220584  -0.026260
 Sum of Mulliken charges =  -0.00000   1.00000

 Dipole moment (field-independent basis, Debye):
    X=             -0.0505    Y=             -0.1044    Z=              0.0461  Tot=              0.1248
 Quadrupole moment (field-independent basis, Debye-Ang):
   XX=            -60.7141   YY=            -65.0510   ZZ=            -70.1061
   XY=              0.0280   XZ=              0.1159   YZ=              0.5514

 Normal termination of Gaussian 16 at Thu Dec  7 14:18:12 2023.
