 Gaussian 16, Revision B.01,
 Gaussian 16:  ES64L-G16RevB.01 20-Dec-2017

 -------------------------
 #P B3LYP/6-311+g(d) force
 -------------------------

 -----
 DPGEN
 -----
 Symbolic Z-matrix:
 Charge =  0 Multiplicity = 2

                         Standard orientation:
 ---------------------------------------------------------------------
 Center     Atomic      Atomic             Coordinates (Angstroms)
 Number     Number       Type             X           Y           Z
 ---------------------------------------------------------------------
      1         11           0        2.389110    2.649223   -0.708501
      2         11           0        5.319173   -0.080214    0.849237
      3         11           0        2.760673   -1.869089   -0.475715
      4         11           0       -0.381820   -2.294154   -0.016969
      5         11           0       -0.371070    1.578086    0.385731
      6         11           0       -3.517302   -0.347923   -0.590733
      7         11           0       -6.198764    0.364071    0.556949
 ---------------------------------------------------------------------

 SCF Done:  E(UB3LYP) =  -1136.10824372     A.U. after  109 cycles

 The electronic state is 2-A.
 Alpha  occ. eigenvalues --  -38.45752 -38.45169 -38.44994 -38.44133 -38.44075
 Alpha  occ. eigenvalues --  -38.43782 -38.42721  -2.21530  -2.20989  -2.20817
 Alpha  occ. eigenvalues --   -2.19943  -2.19908  -2.19575  -2.18544  -1.15180
 Alpha  occ. eigenvalues --   -1.15179  -1.15137  -1.14665  -1.14639  -1.14600
 Alpha  occ. eigenvalues --   -1.14501  -1.14443  -1.14440  -1.13631  -1.13617
 Alpha  occ. eigenvalues --   -1.13589  -1.13581  -1.13575  -1.13554  -1.13267
 Alpha  occ. eigenvalues --   -1.13238  -1.13193  -1.12220  -1.12212  -1.12180
 Alpha  occ. eigenvalues --   -0.16393  -0.14372  -0.12453  -0.11454
 Alpha virt. eigenvalues --   -0.06663  -0.05283  -0.04496  -0.03323  -0.02996
 Alpha virt. eigenvalues --   -0.02897  -0.02363  -0.01513  -0.01109  -0.00880
 Alpha virt. eigenvalues --   -0.00370  -0.00097   0.00030   0.00254   0.00590

  Beta  occ. eigenvalues --  -38.45674 -38.45097 -38.44925 -38.44132 -38.44075
  Beta  occ. eigenvalues --  -38.43762 -38.42718  -2.21386  -2.20860  -2.20689
  Beta  occ. eigenvalues --   -2.19943  -2.19914  -2.19543  -2.18538  -1.15083
  Beta  occ. eigenvalues --   -1.15072  -1.15045  -1.14575  -1.14559  -1.14495
  Beta  occ. eigenvalues --   -1.14415  -1.14355  -1.14353  -1.13632  -1.13613
  Beta  occ. eigenvalues --   -1.13589  -1.13587  -1.13575  -1.13521  -1.13232
  Beta  occ. eigenvalues --   -1.13218  -1.13165  -1.12222  -1.12207  -1.12176
  Beta  occ. eigenvalues --   -0.15745  -0.13489  -0.11219
  Beta virt. eigenvalues --   -0.08977  -0.06150  -0.05067  -0.04264  -0.03080
  Beta virt. eigenvalues --   -0.02690  -0.02482  -0.02002  -0.01236  -0.00807
  Beta virt. eigenvalues --   -0.00600  -0.00206   0.00025   0.00181   0.00237

 Mulliken charges and spin densities:
               1          2
     1  Na   0.316022  -0.054579
     2  Na   0.387325   0.205060
     3  Na  -0.335038   0.251183
     4  Na   0.045698  -0.148137
     5  Na  -0.573585   0.335200
     6  Na  -0.043462   0.207888
     7  Na   0.203040   0.203386
 Sum of Mulliken charges =  -0.00000   1.00000

 Dipole moment (field-independent basis, Debye):
    X=              0.3030    Y=              0.4165    Z=              0.7052  Tot=              0.8732
 Quadrupole moment (field-independent basis, Debye-Ang):
   XX=            -43.8649   YY=            -76.9422   ZZ=            -69.4117
   XY=             -1.1382   XZ=             -0.6694   YZ=              0.4232

 Normal termination of Gaussian 16 at Wed Nov 29 00:02:47 2023.
