 Gaussian 16, Revision B.01,
 Gaussian 16:  ES64L-G16RevB.01 20-Dec-2017

 -------------------------
 #P B3LYP/6-311+g(d) force
 -------------------------

 -----
 DPGEN
 -----
 Symbolic Z-matrix:
 Charge =  0 Multiplicity = 2

                         Standard orientation:
 ---------------------------------------------------------------------
 Center     Atomic      Atomic             Coordinates (Angstroms)
 Number     Number       Type             X           Y           Z
 ---------------------------------------------------------------------
      1         11           0        0.022142    0.122728   -1.571375
      2         11           0       -0.240220    0.026485    1.933113
      3         11           0        3.098452   -0.133266    0.284346
      4         11           0        0.919530   -2.663767   -0.385028
      5         11           0       -2.584778    1.660648   -0.111803
      6         11           0       -2.248900   -1.869778    0.049507
      7         11           0        1.033773    2.856951   -0.198760
 ---------------------------------------------------------------------

 SCF Done:  E(UB3LYP) =  -1136.13951354     A.U. after   18 cycles

 The electronic state is 2-A.
 Alpha  occ. eigenvalues --  -38.43821 -38.43808 -38.43718 -38.43485 -38.43350
 Alpha  occ. eigenvalues --  -38.43231 -38.42920  -2.19664  -2.19638  -2.19551
 Alpha  occ. eigenvalues --   -2.19375  -2.19277  -2.19133  -2.18949  -1.13349
 Alpha  occ. eigenvalues --   -1.13333  -1.13306  -1.13305  -1.13295  -1.13286
 Alpha  occ. eigenvalues --   -1.13252  -1.13209  -1.13170  -1.13080  -1.13045
 Alpha  occ. eigenvalues --   -1.13014  -1.12950  -1.12897  -1.12887  -1.12856
 Alpha  occ. eigenvalues --   -1.12776  -1.12757  -1.12624  -1.12575  -1.12562
 Alpha  occ. eigenvalues --   -0.18932  -0.12911  -0.12731  -0.10656
 Alpha virt. eigenvalues --   -0.05517  -0.05099  -0.04780  -0.03060  -0.02915
 Alpha virt. eigenvalues --   -0.02385  -0.01417  -0.01217  -0.00352  -0.00233
 Alpha virt. eigenvalues --    0.00031   0.00363   0.00853   0.00883   0.00913

  Beta  occ. eigenvalues --  -38.43816 -38.43803 -38.43713 -38.43478 -38.43261
  Beta  occ. eigenvalues --  -38.43221 -38.42854  -2.19659  -2.19631  -2.19546
  Beta  occ. eigenvalues --   -2.19367  -2.19119  -2.19111  -2.18829  -1.13342
  Beta  occ. eigenvalues --   -1.13313  -1.13304  -1.13291  -1.13286  -1.13280
  Beta  occ. eigenvalues --   -1.13240  -1.13194  -1.13168  -1.13071  -1.13016
  Beta  occ. eigenvalues --   -1.13003  -1.12850  -1.12829  -1.12785  -1.12768
  Beta  occ. eigenvalues --   -1.12753  -1.12741  -1.12541  -1.12487  -1.12479
  Beta  occ. eigenvalues --   -0.18206  -0.12672  -0.12454
  Beta virt. eigenvalues --   -0.06742  -0.05513  -0.05059  -0.04759  -0.02275
  Beta virt. eigenvalues --   -0.02134  -0.01336  -0.01330  -0.01140  -0.00401
  Beta virt. eigenvalues --   -0.00273   0.00151   0.00384   0.00855   0.00904

 Mulliken charges and spin densities:
               1          2
     1  Na  -0.253223   0.454982
     2  Na  -0.446809   0.768622
     3  Na   0.032366  -0.000635
     4  Na   0.226256   0.010366
     5  Na   0.108991  -0.113588
     6  Na   0.290978  -0.013578
     7  Na   0.041440  -0.106170
 Sum of Mulliken charges =  -0.00000   1.00000

 Dipole moment (field-independent basis, Debye):
    X=             -0.0342    Y=              0.2853    Z=              0.1742  Tot=              0.3361
 Quadrupole moment (field-independent basis, Debye-Ang):
   XX=            -57.0673   YY=            -60.5295   ZZ=            -74.9853
   XY=             -0.0439   XZ=              0.7629   YZ=              0.2119

 Normal termination of Gaussian 16 at Thu Dec  7 09:23:17 2023.
