 Gaussian 16, Revision B.01,
 Gaussian 16:  ES64L-G16RevB.01 20-Dec-2017

 -------------------------
 #P B3LYP/6-311+g(d) force
 -------------------------

 -----
 DPGEN
 -----
 Symbolic Z-matrix:
 Charge =  0 Multiplicity = 2

                         Standard orientation:
 ---------------------------------------------------------------------
 Center     Atomic      Atomic             Coordinates (Angstroms)
 Number     Number       Type             X           Y           Z
 ---------------------------------------------------------------------
      1         11           0        2.042074   -2.401529   -0.645590
      2         11           0       -2.049746    1.814004   -0.026093
      3         11           0        2.878145    2.438473    0.292943
      4         11           0       -4.877204   -0.142241    1.109445
      5         11           0       -1.793595   -1.765442   -0.793726
      6         11           0        0.690133    1.005188   -1.740903
      7         11           0        3.110192   -0.948454    1.803924
 ---------------------------------------------------------------------

 SCF Done:  E(UB3LYP) =  -1136.11783721     A.U. after   21 cycles

 The electronic state is 2-A.
 Alpha  occ. eigenvalues --  -38.44766 -38.44749 -38.44747 -38.44389 -38.44018
 Alpha  occ. eigenvalues --  -38.43558 -38.43299  -2.20545  -2.20538  -2.20532
 Alpha  occ. eigenvalues --   -2.20215  -2.19803  -2.19426  -2.19124  -1.14250
 Alpha  occ. eigenvalues --   -1.14239  -1.14228  -1.14215  -1.14188  -1.14186
 Alpha  occ. eigenvalues --   -1.14163  -1.14135  -1.14122  -1.13900  -1.13865
 Alpha  occ. eigenvalues --   -1.13832  -1.13485  -1.13463  -1.13436  -1.13110
 Alpha  occ. eigenvalues --   -1.13080  -1.13042  -1.12811  -1.12787  -1.12760
 Alpha  occ. eigenvalues --   -0.16973  -0.14089  -0.11492  -0.11324
 Alpha virt. eigenvalues --   -0.06381  -0.05805  -0.04239  -0.03689  -0.03134
 Alpha virt. eigenvalues --   -0.02683  -0.01961  -0.01197  -0.01020  -0.00593
 Alpha virt. eigenvalues --   -0.00144   0.00109   0.00228   0.00276   0.00552

  Beta  occ. eigenvalues --  -38.44743 -38.44743 -38.44674 -38.44343 -38.44006
  Beta  occ. eigenvalues --  -38.43520 -38.43299  -2.20538  -2.20499  -2.20396
  Beta  occ. eigenvalues --   -2.20130  -2.19782  -2.19359  -2.19128  -1.14239
  Beta  occ. eigenvalues --   -1.14228  -1.14206  -1.14179  -1.14139  -1.14102
  Beta  occ. eigenvalues --   -1.14092  -1.14084  -1.14045  -1.13850  -1.13806
  Beta  occ. eigenvalues --   -1.13769  -1.13474  -1.13450  -1.13411  -1.13063
  Beta  occ. eigenvalues --   -1.13038  -1.12983  -1.12811  -1.12793  -1.12743
  Beta  occ. eigenvalues --   -0.16320  -0.13454  -0.11358
  Beta virt. eigenvalues --   -0.07920  -0.06160  -0.05254  -0.03800  -0.03526
  Beta virt. eigenvalues --   -0.02821  -0.02147  -0.01640  -0.01078  -0.00817
  Beta virt. eigenvalues --   -0.00290  -0.00096   0.00274   0.00335   0.00425

 Mulliken charges and spin densities:
               1          2
     1  Na  -0.087625  -0.015605
     2  Na  -0.268688  -0.029303
     3  Na   0.004895   0.067990
     4  Na   0.424572   0.419928
     5  Na  -0.299703   0.023737
     6  Na   0.318405   0.277153
     7  Na  -0.091857   0.256101
 Sum of Mulliken charges =  -0.00000   1.00000

 Dipole moment (field-independent basis, Debye):
    X=             -0.9734    Y=              0.1878    Z=              0.5368  Tot=              1.1273
 Quadrupole moment (field-independent basis, Debye-Ang):
   XX=            -59.9865   YY=            -72.0583   ZZ=            -66.2050
   XY=              3.0745   XZ=             -0.7486   YZ=              3.1565

 Normal termination of Gaussian 16 at Sun Dec  3 17:22:35 2023.
