 Gaussian 16, Revision B.01,
 Gaussian 16:  ES64L-G16RevB.01 20-Dec-2017

 -------------------------
 #P B3LYP/6-311+g(d) force
 -------------------------

 -----
 DPGEN
 -----
 Symbolic Z-matrix:
 Charge =  0 Multiplicity = 2

                         Standard orientation:
 ---------------------------------------------------------------------
 Center     Atomic      Atomic             Coordinates (Angstroms)
 Number     Number       Type             X           Y           Z
 ---------------------------------------------------------------------
      1         11           0        3.175901   -2.423056   -0.252331
      2         11           0        4.762094    0.523137   -0.886202
      3         11           0       -3.819885   -1.822220   -0.935169
      4         11           0       -0.054528   -1.985125    1.254804
      5         11           0       -5.396804    0.650120    0.166948
      6         11           0       -0.571443    3.226174   -0.475335
      7         11           0        1.904666    1.830971    1.127286
 ---------------------------------------------------------------------

 SCF Done:  E(UB3LYP) =  -1136.10559754     A.U. after   20 cycles

 The electronic state is 2-A.
 Alpha  occ. eigenvalues --  -38.45058 -38.44909 -38.44880 -38.44602 -38.44170
 Alpha  occ. eigenvalues --  -38.43589 -38.43542  -2.20836  -2.20696  -2.20685
 Alpha  occ. eigenvalues --   -2.20375  -2.19939  -2.19353  -2.19334  -1.14487
 Alpha  occ. eigenvalues --   -1.14470  -1.14445  -1.14367  -1.14346  -1.14338
 Alpha  occ. eigenvalues --   -1.14333  -1.14314  -1.14308  -1.14041  -1.14029
 Alpha  occ. eigenvalues --   -1.14018  -1.13627  -1.13605  -1.13596  -1.13056
 Alpha  occ. eigenvalues --   -1.13024  -1.13017  -1.13005  -1.12991  -1.12924
 Alpha  occ. eigenvalues --   -0.15724  -0.13806  -0.11806  -0.11420
 Alpha virt. eigenvalues --   -0.06479  -0.05761  -0.04589  -0.03391  -0.03199
 Alpha virt. eigenvalues --   -0.02771  -0.01959  -0.01779  -0.01302  -0.00655
 Alpha virt. eigenvalues --   -0.00503  -0.00215  -0.00178   0.00449   0.00512

  Beta  occ. eigenvalues --  -38.44957 -38.44876 -38.44792 -38.44610 -38.44181
  Beta  occ. eigenvalues --  -38.43587 -38.43538  -2.20648  -2.20634  -2.20520
  Beta  occ. eigenvalues --   -2.20393  -2.19966  -2.19349  -2.19330  -1.14359
  Beta  occ. eigenvalues --   -1.14341  -1.14329  -1.14319  -1.14303  -1.14295
  Beta  occ. eigenvalues --   -1.14221  -1.14204  -1.14198  -1.14055  -1.14042
  Beta  occ. eigenvalues --   -1.14010  -1.13651  -1.13628  -1.13571  -1.13052
  Beta  occ. eigenvalues --   -1.13017  -1.13011  -1.12996  -1.12991  -1.12919
  Beta  occ. eigenvalues --   -0.14953  -0.13356  -0.11462
  Beta virt. eigenvalues --   -0.08020  -0.06285  -0.05508  -0.03971  -0.03180
  Beta virt. eigenvalues --   -0.02780  -0.02541  -0.01785  -0.01386  -0.01209
  Beta virt. eigenvalues --   -0.00467  -0.00236  -0.00052   0.00063   0.00436

 Mulliken charges and spin densities:
               1          2
     1  Na   0.092406  -0.130043
     2  Na   0.296068   0.477812
     3  Na   0.027654  -0.032296
     4  Na  -0.247737   0.622543
     5  Na   0.042114   0.124496
     6  Na   0.072607   0.030236
     7  Na  -0.283111  -0.092747
 Sum of Mulliken charges =  -0.00000   1.00000

 Dipole moment (field-independent basis, Debye):
    X=             -0.6948    Y=             -0.2889    Z=             -0.3749  Tot=              0.8407
 Quadrupole moment (field-independent basis, Debye-Ang):
   XX=            -58.9652   YY=            -70.5757   ZZ=            -68.9056
   XY=             -3.7466   XZ=             -2.2753   YZ=              0.3298

 Normal termination of Gaussian 16 at Sun Dec  3 15:27:13 2023.
