 Gaussian 16, Revision B.01,
 Gaussian 16:  ES64L-G16RevB.01 20-Dec-2017

 -------------------------
 #P B3LYP/6-311+g(d) force
 -------------------------

 -----
 DPGEN
 -----
 Symbolic Z-matrix:
 Charge =  0 Multiplicity = 2

                         Standard orientation:
 ---------------------------------------------------------------------
 Center     Atomic      Atomic             Coordinates (Angstroms)
 Number     Number       Type             X           Y           Z
 ---------------------------------------------------------------------
      1         11           0       -0.056753   -1.942817    0.312792
      2         11           0        0.045199    0.411059    1.834600
      3         11           0       -1.504832    1.782699   -0.157793
      4         11           0        1.450117    1.741841   -0.236830
      5         11           0       -2.421561   -0.856839    0.069797
      6         11           0        2.598328   -0.801992    0.003115
      7         11           0       -0.110497   -0.333951   -1.825681
 ---------------------------------------------------------------------

 SCF Done:  E(UB3LYP) =  -1136.08036609     A.U. after   19 cycles

 The electronic state is 2-A.
 Alpha  occ. eigenvalues --  -38.44290 -38.44280 -38.44113 -38.43880 -38.43670
 Alpha  occ. eigenvalues --  -38.43407 -38.43318  -2.20496  -2.20493  -2.20250
 Alpha  occ. eigenvalues --   -2.19929  -2.19898  -2.19543  -2.19448  -1.14481
 Alpha  occ. eigenvalues --   -1.14290  -1.14251  -1.14208  -1.14146  -1.14109
 Alpha  occ. eigenvalues --   -1.14096  -1.13928  -1.13801  -1.13722  -1.13674
 Alpha  occ. eigenvalues --   -1.13522  -1.13464  -1.13437  -1.13306  -1.13290
 Alpha  occ. eigenvalues --   -1.13169  -1.13124  -1.13088  -1.13068  -1.12976
 Alpha  occ. eigenvalues --   -0.21687  -0.14011  -0.12738  -0.12426
 Alpha virt. eigenvalues --   -0.05289  -0.04286  -0.03911  -0.03835  -0.03160
 Alpha virt. eigenvalues --   -0.02965  -0.01162  -0.00413  -0.00132   0.00336
 Alpha virt. eigenvalues --    0.00746   0.00850   0.01035   0.01137   0.01228

  Beta  occ. eigenvalues --  -38.44196 -38.44187 -38.44102 -38.43874 -38.43645
  Beta  occ. eigenvalues --  -38.43392 -38.43304  -2.20329  -2.20326  -2.20233
  Beta  occ. eigenvalues --   -2.19916  -2.19869  -2.19522  -2.19429  -1.14419
  Beta  occ. eigenvalues --   -1.14194  -1.14180  -1.14099  -1.14044  -1.14009
  Beta  occ. eigenvalues --   -1.13983  -1.13890  -1.13736  -1.13717  -1.13663
  Beta  occ. eigenvalues --   -1.13480  -1.13420  -1.13360  -1.13295  -1.13278
  Beta  occ. eigenvalues --   -1.13122  -1.13093  -1.13079  -1.13000  -1.12969
  Beta  occ. eigenvalues --   -0.20818  -0.13639  -0.12361
  Beta virt. eigenvalues --   -0.08216  -0.05306  -0.04272  -0.03835  -0.02868
  Beta virt. eigenvalues --   -0.02297  -0.01875  -0.01083  -0.00370   0.00025
  Beta virt. eigenvalues --    0.00365   0.00745   0.00835   0.01062   0.01159

 Mulliken charges and spin densities:
               1          2
     1  Na   0.082495   0.099772
     2  Na  -0.130406   0.450974
     3  Na   0.127153   0.029902
     4  Na   0.083490   0.049877
     5  Na   0.129186  -0.039361
     6  Na  -0.153105  -0.086078
     7  Na  -0.138812   0.494914
 Sum of Mulliken charges =  -0.00000   1.00000

 Dipole moment (field-independent basis, Debye):
    X=              0.1939    Y=              0.1236    Z=             -0.0364  Tot=              0.2328
 Quadrupole moment (field-independent basis, Debye-Ang):
   XX=            -59.1496   YY=            -71.6933   ZZ=            -67.2893
   XY=             -0.5548   XZ=             -0.2127   YZ=             -1.0939

 Normal termination of Gaussian 16 at Thu Dec  7 20:47:56 2023.
