 Gaussian 16, Revision B.01,
 Gaussian 16:  ES64L-G16RevB.01 20-Dec-2017

 -------------------------
 #P B3LYP/6-311+g(d) force
 -------------------------

 -----
 DPGEN
 -----
 Symbolic Z-matrix:
 Charge =  0 Multiplicity = 2

                         Standard orientation:
 ---------------------------------------------------------------------
 Center     Atomic      Atomic             Coordinates (Angstroms)
 Number     Number       Type             X           Y           Z
 ---------------------------------------------------------------------
      1         11           0       -0.037134   -1.700776    0.058679
      2         11           0       -3.162084    0.463295    0.377521
      3         11           0        1.150280    1.344063   -0.933331
      4         11           0        2.901599   -0.380509    1.922343
      5         11           0        3.466079   -0.865069   -1.201184
      6         11           0       -1.067460    3.508281    0.058005
      7         11           0       -3.251281   -2.369284   -0.282033
 ---------------------------------------------------------------------

 SCF Done:  E(UB3LYP) =  -1136.11932272     A.U. after   23 cycles

 The electronic state is 2-A.
 Alpha  occ. eigenvalues --  -38.45151 -38.45013 -38.44730 -38.44216 -38.43583
 Alpha  occ. eigenvalues --  -38.43507 -38.42879  -2.20983  -2.20857  -2.20605
 Alpha  occ. eigenvalues --   -2.20092  -2.19458  -2.19412  -2.18685  -1.14704
 Alpha  occ. eigenvalues --   -1.14681  -1.14584  -1.14565  -1.14527  -1.14496
 Alpha  occ. eigenvalues --   -1.14283  -1.14266  -1.14231  -1.13767  -1.13723
 Alpha  occ. eigenvalues --   -1.13717  -1.13119  -1.13112  -1.13094  -1.13079
 Alpha  occ. eigenvalues --   -1.13063  -1.13028  -1.12357  -1.12343  -1.12324
 Alpha  occ. eigenvalues --   -0.17777  -0.14689  -0.12162  -0.10076
 Alpha virt. eigenvalues --   -0.06982  -0.05555  -0.04953  -0.03593  -0.02857
 Alpha virt. eigenvalues --   -0.02223  -0.01885  -0.01383  -0.01038  -0.00560
 Alpha virt. eigenvalues --   -0.00277   0.00115   0.00339   0.00578   0.00601

  Beta  occ. eigenvalues --  -38.45142 -38.45010 -38.44696 -38.44216 -38.43485
  Beta  occ. eigenvalues --  -38.43475 -38.42880  -2.20970  -2.20852  -2.20550
  Beta  occ. eigenvalues --   -2.20092  -2.19357  -2.19276  -2.18686  -1.14698
  Beta  occ. eigenvalues --   -1.14639  -1.14580  -1.14561  -1.14523  -1.14494
  Beta  occ. eigenvalues --   -1.14250  -1.14202  -1.14180  -1.13768  -1.13721
  Beta  occ. eigenvalues --   -1.13717  -1.13085  -1.13032  -1.12986  -1.12978
  Beta  occ. eigenvalues --   -1.12963  -1.12946  -1.12357  -1.12342  -1.12324
  Beta  occ. eigenvalues --   -0.17275  -0.14395  -0.12079
  Beta virt. eigenvalues --   -0.06820  -0.06122  -0.05301  -0.04851  -0.03269
  Beta virt. eigenvalues --   -0.02716  -0.01771  -0.01305  -0.01151  -0.00986
  Beta virt. eigenvalues --   -0.00199  -0.00002   0.00248   0.00638   0.00654

 Mulliken charges and spin densities:
               1          2
     1  Na  -1.037162   0.244247
     2  Na  -0.555896   0.000832
     3  Na  -0.975428   0.178796
     4  Na   0.048774   0.443293
     5  Na   1.434022   0.064540
     6  Na   0.471916   0.096631
     7  Na   0.613773  -0.028339
 Sum of Mulliken charges =  -0.00000   1.00000

 Dipole moment (field-independent basis, Debye):
    X=             -0.6406    Y=             -1.0855    Z=             -0.4844  Tot=              1.3503
 Quadrupole moment (field-independent basis, Debye-Ang):
   XX=            -52.4032   YY=            -66.9002   ZZ=            -77.3813
   XY=              1.0154   XZ=             -4.2042   YZ=              3.5847

 Normal termination of Gaussian 16 at Tue Nov 28 20:33:29 2023.
