 Gaussian 16, Revision B.01,
 Gaussian 16:  ES64L-G16RevB.01 20-Dec-2017

 -------------------------
 #P B3LYP/6-311+g(d) force
 -------------------------

 -----
 DPGEN
 -----
 Symbolic Z-matrix:
 Charge =  0 Multiplicity = 2

                         Standard orientation:
 ---------------------------------------------------------------------
 Center     Atomic      Atomic             Coordinates (Angstroms)
 Number     Number       Type             X           Y           Z
 ---------------------------------------------------------------------
      1         11           0        1.796211    0.432315    1.794211
      2         11           0       -0.994995   -0.610215   -1.812204
      3         11           0       -1.030577    2.461059    0.242406
      4         11           0        2.510164    1.440972   -1.108461
      5         11           0        2.855156   -2.002513   -0.280019
      6         11           0       -1.023522   -1.238952    1.163182
      7         11           0       -4.112437   -0.482667    0.000885
 ---------------------------------------------------------------------

 SCF Done:  E(UB3LYP) =  -1136.12081682     A.U. after   24 cycles

 The electronic state is 2-A.
 Alpha  occ. eigenvalues --  -38.45696 -38.44876 -38.44168 -38.43783 -38.43668
 Alpha  occ. eigenvalues --  -38.43429 -38.42665  -2.21472  -2.20730  -2.20008
 Alpha  occ. eigenvalues --   -2.19700  -2.19588  -2.19234  -2.18464  -1.15154
 Alpha  occ. eigenvalues --   -1.15124  -1.15099  -1.14477  -1.14354  -1.14320
 Alpha  occ. eigenvalues --   -1.13722  -1.13666  -1.13607  -1.13426  -1.13369
 Alpha  occ. eigenvalues --   -1.13301  -1.13255  -1.13242  -1.13177  -1.12903
 Alpha  occ. eigenvalues --   -1.12897  -1.12878  -1.12149  -1.12142  -1.12087
 Alpha  occ. eigenvalues --   -0.18216  -0.13987  -0.10980  -0.10820
 Alpha virt. eigenvalues --   -0.07069  -0.05105  -0.04618  -0.03039  -0.02814
 Alpha virt. eigenvalues --   -0.02559  -0.02325  -0.01009  -0.00802  -0.00287
 Alpha virt. eigenvalues --    0.00131   0.00211   0.00262   0.00610   0.00778

  Beta  occ. eigenvalues --  -38.45699 -38.44826 -38.44140 -38.43737 -38.43614
  Beta  occ. eigenvalues --  -38.43427 -38.42661  -2.21479  -2.20637  -2.19955
  Beta  occ. eigenvalues --   -2.19620  -2.19491  -2.19233  -2.18460  -1.15152
  Beta  occ. eigenvalues --   -1.15130  -1.15105  -1.14413  -1.14288  -1.14250
  Beta  occ. eigenvalues --   -1.13685  -1.13624  -1.13570  -1.13371  -1.13282
  Beta  occ. eigenvalues --   -1.13245  -1.13183  -1.13170  -1.13112  -1.12903
  Beta  occ. eigenvalues --   -1.12884  -1.12874  -1.12149  -1.12119  -1.12088
  Beta  occ. eigenvalues --   -0.17483  -0.13845  -0.10658
  Beta virt. eigenvalues --   -0.07083  -0.06868  -0.05099  -0.03939  -0.02954
  Beta virt. eigenvalues --   -0.02625  -0.01782  -0.01654  -0.00927  -0.00441
  Beta virt. eigenvalues --   -0.00211   0.00164   0.00228   0.00420   0.00679

 Mulliken charges and spin densities:
               1          2
     1  Na   0.425165   0.270437
     2  Na  -0.208213   0.433050
     3  Na  -0.403160  -0.108466
     4  Na  -0.059242   0.288610
     5  Na  -0.026650  -0.025360
     6  Na  -0.221166   0.156228
     7  Na   0.493267  -0.014500
 Sum of Mulliken charges =  -0.00000   1.00000

 Dipole moment (field-independent basis, Debye):
    X=             -1.5726    Y=             -0.0520    Z=             -0.3562  Tot=              1.6133
 Quadrupole moment (field-independent basis, Debye-Ang):
   XX=            -45.4245   YY=            -76.8194   ZZ=            -69.8818
   XY=              0.3411   XZ=             -1.2573   YZ=              0.5294

 Normal termination of Gaussian 16 at Thu Dec  7 13:22:08 2023.
