 Gaussian 16, Revision B.01,
 Gaussian 16:  ES64L-G16RevB.01 20-Dec-2017

 -------------------------
 #P B3LYP/6-311+g(d) force
 -------------------------

 -----
 DPGEN
 -----
 Symbolic Z-matrix:
 Charge =  0 Multiplicity = 2

                         Standard orientation:
 ---------------------------------------------------------------------
 Center     Atomic      Atomic             Coordinates (Angstroms)
 Number     Number       Type             X           Y           Z
 ---------------------------------------------------------------------
      1         11           0        0.078625   -0.022126   -1.806547
      2         11           0       -0.209634    2.760087    0.054808
      3         11           0        0.174475    0.085442    1.946064
      4         11           0        2.006654   -2.340876   -0.355914
      5         11           0        2.833726    1.078051    0.057430
      6         11           0       -3.093149    0.450423   -0.423788
      7         11           0       -1.790698   -2.011000    0.527947
 ---------------------------------------------------------------------

 SCF Done:  E(UB3LYP) =  -1136.13600353     A.U. after   19 cycles

 The electronic state is 2-A.
 Alpha  occ. eigenvalues --  -38.44057 -38.44041 -38.43639 -38.43495 -38.43430
 Alpha  occ. eigenvalues --  -38.43375 -38.42959  -2.19917  -2.19915  -2.19588
 Alpha  occ. eigenvalues --   -2.19454  -2.19346  -2.19206  -2.18837  -1.13660
 Alpha  occ. eigenvalues --   -1.13602  -1.13590  -1.13569  -1.13539  -1.13538
 Alpha  occ. eigenvalues --   -1.13274  -1.13236  -1.13203  -1.13134  -1.13098
 Alpha  occ. eigenvalues --   -1.13081  -1.13009  -1.12993  -1.12958  -1.12881
 Alpha  occ. eigenvalues --   -1.12857  -1.12844  -1.12522  -1.12511  -1.12455
 Alpha  occ. eigenvalues --   -0.18972  -0.13336  -0.12204  -0.11150
 Alpha virt. eigenvalues --   -0.05693  -0.04979  -0.04306  -0.03469  -0.02912
 Alpha virt. eigenvalues --   -0.02773  -0.01564  -0.00990  -0.00208  -0.00035
 Alpha virt. eigenvalues --    0.00051   0.00371   0.00804   0.00906   0.00943

  Beta  occ. eigenvalues --  -38.44053 -38.44035 -38.43550 -38.43422 -38.43415
  Beta  occ. eigenvalues --  -38.43370 -38.42954  -2.19911  -2.19906  -2.19424
  Beta  occ. eigenvalues --   -2.19324  -2.19318  -2.19199  -2.18831  -1.13657
  Beta  occ. eigenvalues --   -1.13592  -1.13573  -1.13541  -1.13535  -1.13533
  Beta  occ. eigenvalues --   -1.13170  -1.13118  -1.13091  -1.13046  -1.13008
  Beta  occ. eigenvalues --   -1.12991  -1.12978  -1.12957  -1.12933  -1.12858
  Beta  occ. eigenvalues --   -1.12853  -1.12834  -1.12520  -1.12484  -1.12448
  Beta  occ. eigenvalues --   -0.18220  -0.13089  -0.11931
  Beta virt. eigenvalues --   -0.07213  -0.05645  -0.04956  -0.04267  -0.02678
  Beta virt. eigenvalues --   -0.02134  -0.01714  -0.01470  -0.00923  -0.00201
  Beta virt. eigenvalues --   -0.00039   0.00114   0.00391   0.00869   0.00913

 Mulliken charges and spin densities:
               1          2
     1  Na  -0.323196   0.633075
     2  Na   0.077834  -0.064961
     3  Na  -0.211325   0.567870
     4  Na   0.021951  -0.062759
     5  Na   0.150188  -0.089678
     6  Na   0.028753  -0.029138
     7  Na   0.255794   0.045590
 Sum of Mulliken charges =  -0.00000   1.00000

 Dipole moment (field-independent basis, Debye):
    X=              0.1998    Y=              0.1202    Z=             -0.0383  Tot=              0.2363
 Quadrupole moment (field-independent basis, Debye-Ang):
   XX=            -56.2761   YY=            -65.7656   ZZ=            -72.3962
   XY=             -0.4779   XZ=              0.5094   YZ=             -0.4360

 Normal termination of Gaussian 16 at Fri Dec  8 05:20:50 2023.
