 Gaussian 16, Revision B.01,
 Gaussian 16:  ES64L-G16RevB.01 20-Dec-2017

 -------------------------
 #P B3LYP/6-311+g(d) force
 -------------------------

 -----
 DPGEN
 -----
 Symbolic Z-matrix:
 Charge =  0 Multiplicity = 2

                         Standard orientation:
 ---------------------------------------------------------------------
 Center     Atomic      Atomic             Coordinates (Angstroms)
 Number     Number       Type             X           Y           Z
 ---------------------------------------------------------------------
      1         11           0        2.382656   -1.776253   -0.404882
      2         11           0       -0.014374    0.120477   -1.591696
      3         11           0        2.854507    1.492814   -0.236154
      4         11           0       -1.147196    2.774370    0.408083
      5         11           0       -3.066143    0.005911   -0.535267
      6         11           0       -1.425680   -2.314422    0.292850
      7         11           0        0.416231   -0.302897    2.067067
 ---------------------------------------------------------------------

 SCF Done:  E(UB3LYP) =  -1136.13260857     A.U. after   20 cycles

 The electronic state is 2-A.
 Alpha  occ. eigenvalues --  -38.44306 -38.44028 -38.43812 -38.43690 -38.43369
 Alpha  occ. eigenvalues --  -38.43274 -38.43088  -2.20128  -2.19932  -2.19686
 Alpha  occ. eigenvalues --   -2.19594  -2.19361  -2.19084  -2.19013  -1.13806
 Alpha  occ. eigenvalues --   -1.13792  -1.13766  -1.13655  -1.13600  -1.13550
 Alpha  occ. eigenvalues --   -1.13385  -1.13353  -1.13308  -1.13267  -1.13220
 Alpha  occ. eigenvalues --   -1.13204  -1.13048  -1.12997  -1.12992  -1.12754
 Alpha  occ. eigenvalues --   -1.12746  -1.12723  -1.12692  -1.12664  -1.12642
 Alpha  occ. eigenvalues --   -0.18825  -0.13574  -0.11965  -0.11013
 Alpha virt. eigenvalues --   -0.05843  -0.05234  -0.04249  -0.03446  -0.02850
 Alpha virt. eigenvalues --   -0.02639  -0.01691  -0.01056  -0.00355  -0.00075
 Alpha virt. eigenvalues --    0.00021   0.00359   0.00747   0.00855   0.00901

  Beta  occ. eigenvalues --  -38.44302 -38.44017 -38.43801 -38.43591 -38.43315
  Beta  occ. eigenvalues --  -38.43268 -38.43079  -2.20123  -2.19914  -2.19670
  Beta  occ. eigenvalues --   -2.19414  -2.19263  -2.19074  -2.19002  -1.13796
  Beta  occ. eigenvalues --   -1.13787  -1.13755  -1.13645  -1.13576  -1.13533
  Beta  occ. eigenvalues --   -1.13367  -1.13328  -1.13289  -1.13150  -1.13095
  Beta  occ. eigenvalues --   -1.13074  -1.12981  -1.12924  -1.12920  -1.12743
  Beta  occ. eigenvalues --   -1.12732  -1.12715  -1.12688  -1.12641  -1.12615
  Beta  occ. eigenvalues --   -0.18100  -0.13298  -0.11732
  Beta virt. eigenvalues --   -0.07093  -0.05786  -0.05205  -0.04141  -0.02732
  Beta virt. eigenvalues --   -0.02088  -0.01619  -0.01567  -0.01003  -0.00333
  Beta virt. eigenvalues --   -0.00089   0.00129   0.00397   0.00830   0.00867

 Mulliken charges and spin densities:
               1          2
     1  Na   0.234990   0.004086
     2  Na  -0.096953   0.261927
     3  Na  -0.046978  -0.036136
     4  Na  -0.170825  -0.001927
     5  Na   0.245459   0.025780
     6  Na   0.222783   0.026980
     7  Na  -0.388475   0.719291
 Sum of Mulliken charges =  -0.00000   1.00000

 Dipole moment (field-independent basis, Debye):
    X=              0.5051    Y=              0.1313    Z=              0.0660  Tot=              0.5260
 Quadrupole moment (field-independent basis, Debye-Ang):
   XX=            -55.1691   YY=            -66.1434   ZZ=            -72.9083
   XY=              0.4108   XZ=             -0.1639   YZ=              1.1587

 Normal termination of Gaussian 16 at Fri Dec  8 04:53:43 2023.
