 Gaussian 16, Revision B.01,
 Gaussian 16:  ES64L-G16RevB.01 20-Dec-2017

 -------------------------
 #P B3LYP/6-311+g(d) force
 -------------------------

 -----
 DPGEN
 -----
 Symbolic Z-matrix:
 Charge =  0 Multiplicity = 2

                         Standard orientation:
 ---------------------------------------------------------------------
 Center     Atomic      Atomic             Coordinates (Angstroms)
 Number     Number       Type             X           Y           Z
 ---------------------------------------------------------------------
      1         11           0        0.954841    3.192610   -0.423247
      2         11           0       -1.719000    1.594076    0.800371
      3         11           0       -4.147070    0.200456   -0.746784
      4         11           0       -1.158209   -2.558277   -0.212653
      5         11           0        1.044836   -1.036695    2.266295
      6         11           0        1.901185   -2.447631   -1.087016
      7         11           0        3.123417    1.055460   -0.596967
 ---------------------------------------------------------------------

 SCF Done:  E(UB3LYP) =  -1136.11947169     A.U. after   19 cycles

 The electronic state is 2-A.
 Alpha  occ. eigenvalues --  -38.44702 -38.44323 -38.44321 -38.44271 -38.44179
 Alpha  occ. eigenvalues --  -38.44096 -38.43897  -2.20497  -2.20141  -2.20110
 Alpha  occ. eigenvalues --   -2.20090  -2.20003  -2.19921  -2.19721  -1.14202
 Alpha  occ. eigenvalues --   -1.14168  -1.14123  -1.13884  -1.13801  -1.13789
 Alpha  occ. eigenvalues --   -1.13779  -1.13766  -1.13746  -1.13744  -1.13727
 Alpha  occ. eigenvalues --   -1.13699  -1.13667  -1.13649  -1.13619  -1.13597
 Alpha  occ. eigenvalues --   -1.13562  -1.13552  -1.13399  -1.13379  -1.13358
 Alpha  occ. eigenvalues --   -0.17113  -0.13185  -0.13022  -0.10565
 Alpha virt. eigenvalues --   -0.06844  -0.05950  -0.04392  -0.03427  -0.03094
 Alpha virt. eigenvalues --   -0.02386  -0.01829  -0.01423  -0.01031  -0.00836
 Alpha virt. eigenvalues --   -0.00454   0.00244   0.00381   0.00573   0.00698

  Beta  occ. eigenvalues --  -38.44699 -38.44302 -38.44299 -38.44181 -38.44172
  Beta  occ. eigenvalues --  -38.44071 -38.43889  -2.20493  -2.20102  -2.20069
  Beta  occ. eigenvalues --   -2.20007  -2.19907  -2.19874  -2.19708  -1.14198
  Beta  occ. eigenvalues --   -1.14148  -1.14121  -1.13865  -1.13765  -1.13764
  Beta  occ. eigenvalues --   -1.13753  -1.13737  -1.13715  -1.13668  -1.13645
  Beta  occ. eigenvalues --   -1.13617  -1.13615  -1.13603  -1.13574  -1.13566
  Beta  occ. eigenvalues --   -1.13529  -1.13513  -1.13393  -1.13367  -1.13335
  Beta  occ. eigenvalues --   -0.16539  -0.12976  -0.12805
  Beta virt. eigenvalues --   -0.07031  -0.06490  -0.05652  -0.04074  -0.03179
  Beta virt. eigenvalues --   -0.02596  -0.01668  -0.01579  -0.01219  -0.00993
  Beta virt. eigenvalues --   -0.00779  -0.00085   0.00396   0.00501   0.00652

 Mulliken charges and spin densities:
               1          2
     1  Na   0.549750  -0.113070
     2  Na  -0.667260   0.156502
     3  Na   0.363971   0.038884
     4  Na  -0.209246   0.134343
     5  Na   0.106306   0.476514
     6  Na   0.227454   0.086343
     7  Na  -0.370975   0.220485
 Sum of Mulliken charges =  -0.00000   1.00000

 Dipole moment (field-independent basis, Debye):
    X=             -0.0813    Y=             -0.3116    Z=             -0.2417  Tot=              0.4027
 Quadrupole moment (field-independent basis, Debye-Ang):
   XX=            -60.4611   YY=            -65.3675   ZZ=            -73.0211
   XY=             -0.2442   XZ=              2.5026   YZ=              0.4600

 Normal termination of Gaussian 16 at Sun Dec  3 18:32:07 2023.
