 Gaussian 16, Revision B.01,
 Gaussian 16:  ES64L-G16RevB.01 20-Dec-2017

 -------------------------
 #P B3LYP/6-311+g(d) force
 -------------------------

 -----
 DPGEN
 -----
 Symbolic Z-matrix:
 Charge =  0 Multiplicity = 2

                         Standard orientation:
 ---------------------------------------------------------------------
 Center     Atomic      Atomic             Coordinates (Angstroms)
 Number     Number       Type             X           Y           Z
 ---------------------------------------------------------------------
      1         11           0       -1.464108   -1.968019   -1.113359
      2         11           0        2.728362   -0.129481   -1.519314
      3         11           0        3.023752   -0.597930    1.345064
      4         11           0        0.432717   -0.139344    0.172988
      5         11           0       -2.130977   -1.071910    1.569263
      6         11           0       -2.381411    0.980244   -0.746644
      7         11           0       -0.208335    2.926440    0.292002
 ---------------------------------------------------------------------

 SCF Done:  E(UB3LYP) =  -1136.10044146     A.U. after   23 cycles

 The electronic state is 2-A.
 Alpha  occ. eigenvalues --  -38.44817 -38.44788 -38.44139 -38.43687 -38.43527
 Alpha  occ. eigenvalues --  -38.42869 -38.42452  -2.20744  -2.20698  -2.20124
 Alpha  occ. eigenvalues --   -2.19701  -2.19528  -2.19175  -2.18320  -1.14603
 Alpha  occ. eigenvalues --   -1.14446  -1.14404  -1.14338  -1.14285  -1.14221
 Alpha  occ. eigenvalues --   -1.13885  -1.13771  -1.13753  -1.13432  -1.13362
 Alpha  occ. eigenvalues --   -1.13334  -1.13271  -1.13132  -1.13113  -1.12877
 Alpha  occ. eigenvalues --   -1.12843  -1.12764  -1.12005  -1.11970  -1.11949
 Alpha  occ. eigenvalues --   -0.19272  -0.14463  -0.11583  -0.10735
 Alpha virt. eigenvalues --   -0.06004  -0.05339  -0.04176  -0.03628  -0.02249
 Alpha virt. eigenvalues --   -0.02047  -0.01806  -0.00816  -0.00523   0.00190
 Alpha virt. eigenvalues --    0.00314   0.00406   0.00444   0.00794   0.00845

  Beta  occ. eigenvalues --  -38.44792 -38.44765 -38.44096 -38.43673 -38.43497
  Beta  occ. eigenvalues --  -38.42828 -38.42452  -2.20698  -2.20656  -2.20043
  Beta  occ. eigenvalues --   -2.19677  -2.19475  -2.19116  -2.18322  -1.14579
  Beta  occ. eigenvalues --   -1.14403  -1.14366  -1.14307  -1.14256  -1.14186
  Beta  occ. eigenvalues --   -1.13840  -1.13711  -1.13689  -1.13409  -1.13329
  Beta  occ. eigenvalues --   -1.13311  -1.13237  -1.13088  -1.13060  -1.12822
  Beta  occ. eigenvalues --   -1.12733  -1.12720  -1.12007  -1.11969  -1.11943
  Beta  occ. eigenvalues --   -0.18502  -0.14300  -0.11444
  Beta virt. eigenvalues --   -0.06912  -0.05780  -0.04511  -0.04079  -0.03499
  Beta virt. eigenvalues --   -0.01826  -0.01625  -0.01408  -0.00535  -0.00227
  Beta virt. eigenvalues --    0.00230   0.00393   0.00563   0.00677   0.00853

 Mulliken charges and spin densities:
               1          2
     1  Na   0.572418   0.093105
     2  Na   0.711740   0.045017
     3  Na  -0.180636  -0.110809
     4  Na  -1.840051   1.343630
     5  Na   0.065034  -0.400842
     6  Na   0.620721   0.078148
     7  Na   0.050775  -0.048249
 Sum of Mulliken charges =  -0.00000   1.00000

 Dipole moment (field-independent basis, Debye):
    X=              0.7058    Y=             -0.3365    Z=              0.0102  Tot=              0.7820
 Quadrupole moment (field-independent basis, Debye-Ang):
   XX=            -53.3727   YY=            -73.0653   ZZ=            -65.7161
   XY=              1.1567   XZ=             -0.0694   YZ=              0.0251

 Normal termination of Gaussian 16 at Fri Dec  8 01:55:54 2023.
