 Gaussian 16, Revision B.01,
 Gaussian 16:  ES64L-G16RevB.01 20-Dec-2017

 -------------------------
 #P B3LYP/6-311+g(d) force
 -------------------------

 -----
 DPGEN
 -----
 Symbolic Z-matrix:
 Charge =  0 Multiplicity = 2

                         Standard orientation:
 ---------------------------------------------------------------------
 Center     Atomic      Atomic             Coordinates (Angstroms)
 Number     Number       Type             X           Y           Z
 ---------------------------------------------------------------------
      1         11           0       -2.222161   -2.033393    0.090406
      2         11           0       -1.260442    1.594288    0.221766
      3         11           0       -4.868635    0.563007   -0.199681
      4         11           0        2.307920    2.072864    0.641024
      5         11           0        0.269337   -0.290417   -1.048721
      6         11           0        3.850570   -0.418769   -1.170911
      7         11           0        1.923411   -1.487581    1.466117
 ---------------------------------------------------------------------

 SCF Done:  E(UB3LYP) =  -1136.11002227     A.U. after   27 cycles

 The electronic state is 2-A.
 Alpha  occ. eigenvalues --  -38.44914 -38.44621 -38.44558 -38.44333 -38.43821
 Alpha  occ. eigenvalues --  -38.43394 -38.43193  -2.20728  -2.20474  -2.20380
 Alpha  occ. eigenvalues --   -2.20359  -2.19636  -2.19248  -2.19105  -1.14433
 Alpha  occ. eigenvalues --   -1.14406  -1.14359  -1.14205  -1.14142  -1.14102
 Alpha  occ. eigenvalues --   -1.14085  -1.14014  -1.14004  -1.13997  -1.13960
 Alpha  occ. eigenvalues --   -1.13959  -1.13336  -1.13307  -1.13248  -1.12943
 Alpha  occ. eigenvalues --   -1.12906  -1.12871  -1.12857  -1.12754  -1.12642
 Alpha  occ. eigenvalues --   -0.18244  -0.14572  -0.10955  -0.10904
 Alpha virt. eigenvalues --   -0.07146  -0.05608  -0.04468  -0.03333  -0.02963
 Alpha virt. eigenvalues --   -0.02016  -0.01778  -0.01557  -0.01096  -0.00655
 Alpha virt. eigenvalues --   -0.00468   0.00141   0.00317   0.00549   0.00628

  Beta  occ. eigenvalues --  -38.44936 -38.44555 -38.44451 -38.44297 -38.43815
  Beta  occ. eigenvalues --  -38.43383 -38.43179  -2.20772  -2.20350  -2.20319
  Beta  occ. eigenvalues --   -2.20159  -2.19630  -2.19229  -2.19084  -1.14462
  Beta  occ. eigenvalues --   -1.14432  -1.14372  -1.14142  -1.14056  -1.14018
  Beta  occ. eigenvalues --   -1.14009  -1.13985  -1.13914  -1.13867  -1.13859
  Beta  occ. eigenvalues --   -1.13830  -1.13332  -1.13301  -1.13224  -1.12933
  Beta  occ. eigenvalues --   -1.12899  -1.12835  -1.12829  -1.12736  -1.12622
  Beta  occ. eigenvalues --   -0.17753  -0.13808  -0.10683
  Beta virt. eigenvalues --   -0.07368  -0.06961  -0.05444  -0.03685  -0.03107
  Beta virt. eigenvalues --   -0.02857  -0.01746  -0.01468  -0.01168  -0.00662
  Beta virt. eigenvalues --   -0.00387  -0.00187   0.00220   0.00450   0.00632

 Mulliken charges and spin densities:
               1          2
     1  Na   0.110940   0.026257
     2  Na  -0.456621  -0.004838
     3  Na   0.276832   0.540418
     4  Na   0.096843   0.027936
     5  Na  -0.549517   0.103934
     6  Na   0.538277   0.412264
     7  Na  -0.016753  -0.105971
 Sum of Mulliken charges =  -0.00000   1.00000

 Dipole moment (field-independent basis, Debye):
    X=              0.8526    Y=             -0.3951    Z=              0.2710  Tot=              0.9780
 Quadrupole moment (field-independent basis, Debye-Ang):
   XX=            -61.4648   YY=            -77.7141   ZZ=            -61.8168
   XY=              2.4077   XZ=              0.1013   YZ=             -0.0440

 Normal termination of Gaussian 16 at Tue Dec  5 17:55:16 2023.
