 Gaussian 16, Revision B.01,
 Gaussian 16:  ES64L-G16RevB.01 20-Dec-2017

 -------------------------
 #P B3LYP/6-311+g(d) force
 -------------------------

 -----
 DPGEN
 -----
 Symbolic Z-matrix:
 Charge =  0 Multiplicity = 2

                         Standard orientation:
 ---------------------------------------------------------------------
 Center     Atomic      Atomic             Coordinates (Angstroms)
 Number     Number       Type             X           Y           Z
 ---------------------------------------------------------------------
      1         11           0        1.958722    2.337006   -0.402903
      2         11           0        0.391231   -2.706602   -0.593339
      3         11           0       -3.050386   -1.103323   -0.082266
      4         11           0        2.877190   -0.758610    0.334450
      5         11           0       -2.183623    2.091591    0.417891
      6         11           0        0.189640   -0.291913    2.095032
      7         11           0       -0.182775    0.431851   -1.768864
 ---------------------------------------------------------------------

 SCF Done:  E(UB3LYP) =  -1136.13555365     A.U. after   19 cycles

 The electronic state is 2-A.
 Alpha  occ. eigenvalues --  -38.44242 -38.44051 -38.43848 -38.43825 -38.43449
 Alpha  occ. eigenvalues --  -38.43350 -38.43007  -2.20051  -2.19929  -2.19715
 Alpha  occ. eigenvalues --   -2.19679  -2.19394  -2.19198  -2.18871  -1.13725
 Alpha  occ. eigenvalues --   -1.13717  -1.13695  -1.13609  -1.13569  -1.13550
 Alpha  occ. eigenvalues --   -1.13384  -1.13373  -1.13356  -1.13355  -1.13344
 Alpha  occ. eigenvalues --   -1.13307  -1.13085  -1.13051  -1.13025  -1.12862
 Alpha  occ. eigenvalues --   -1.12844  -1.12828  -1.12557  -1.12521  -1.12505
 Alpha  occ. eigenvalues --   -0.18569  -0.13293  -0.12056  -0.11131
 Alpha virt. eigenvalues --   -0.05701  -0.05291  -0.04293  -0.03518  -0.02981
 Alpha virt. eigenvalues --   -0.02772  -0.01560  -0.01031  -0.00334  -0.00145
 Alpha virt. eigenvalues --   -0.00023   0.00375   0.00753   0.00862   0.00890

  Beta  occ. eigenvalues --  -38.44242 -38.43964 -38.43839 -38.43817 -38.43380
  Beta  occ. eigenvalues --  -38.43343 -38.42992  -2.20053  -2.19768  -2.19704
  Beta  occ. eigenvalues --   -2.19665  -2.19270  -2.19188  -2.18847  -1.13723
  Beta  occ. eigenvalues --   -1.13710  -1.13694  -1.13510  -1.13456  -1.13440
  Beta  occ. eigenvalues --   -1.13363  -1.13362  -1.13345  -1.13331  -1.13320
  Beta  occ. eigenvalues --   -1.13299  -1.13010  -1.12965  -1.12937  -1.12842
  Beta  occ. eigenvalues --   -1.12821  -1.12819  -1.12537  -1.12498  -1.12481
  Beta  occ. eigenvalues --   -0.17828  -0.13077  -0.11805
  Beta virt. eigenvalues --   -0.07226  -0.05635  -0.05240  -0.04185  -0.02767
  Beta virt. eigenvalues --   -0.02249  -0.01761  -0.01471  -0.00951  -0.00334
  Beta virt. eigenvalues --   -0.00167   0.00102   0.00400   0.00835   0.00874

 Mulliken charges and spin densities:
               1          2
     1  Na   0.066857  -0.081379
     2  Na  -0.041817  -0.007762
     3  Na   0.024664  -0.080779
     4  Na   0.313992   0.127939
     5  Na  -0.006305   0.010598
     6  Na  -0.318664   0.554209
     7  Na  -0.038726   0.477174
 Sum of Mulliken charges =  -0.00000   1.00000

 Dipole moment (field-independent basis, Debye):
    X=             -0.4000    Y=              0.0285    Z=              0.2594  Tot=              0.4776
 Quadrupole moment (field-independent basis, Debye-Ang):
   XX=            -56.5738   YY=            -66.1147   ZZ=            -72.1823
   XY=              0.4732   XZ=             -0.3395   YZ=              1.6404

 Normal termination of Gaussian 16 at Tue Dec  5 14:49:29 2023.
