 Gaussian 16, Revision B.01,
 Gaussian 16:  ES64L-G16RevB.01 20-Dec-2017

 -------------------------
 #P B3LYP/6-311+g(d) force
 -------------------------

 -----
 DPGEN
 -----
 Symbolic Z-matrix:
 Charge =  0 Multiplicity = 2

                         Standard orientation:
 ---------------------------------------------------------------------
 Center     Atomic      Atomic             Coordinates (Angstroms)
 Number     Number       Type             X           Y           Z
 ---------------------------------------------------------------------
      1         11           0        0.880855   -2.315781   -1.360712
      2         11           0       -4.292637    0.657926   -0.245325
      3         11           0        1.512090   -0.436891    1.519789
      4         11           0       -1.102052    0.916871   -0.679884
      5         11           0        1.102703    3.169037    0.168276
      6         11           0       -1.394365   -2.047533    1.078629
      7         11           0        3.293406    0.056370   -0.480773
 ---------------------------------------------------------------------

 SCF Done:  E(UB3LYP) =  -1136.11666330     A.U. after   22 cycles

 The electronic state is 2-A.
 Alpha  occ. eigenvalues --  -38.44725 -38.44664 -38.44088 -38.43861 -38.43793
 Alpha  occ. eigenvalues --  -38.43491 -38.43349  -2.20565  -2.20507  -2.20069
 Alpha  occ. eigenvalues --   -2.19660  -2.19656  -2.19370  -2.19249  -1.14483
 Alpha  occ. eigenvalues --   -1.14190  -1.14169  -1.14159  -1.14137  -1.14127
 Alpha  occ. eigenvalues --   -1.13735  -1.13702  -1.13626  -1.13359  -1.13338
 Alpha  occ. eigenvalues --   -1.13323  -1.13302  -1.13292  -1.13277  -1.13054
 Alpha  occ. eigenvalues --   -1.13025  -1.12980  -1.12939  -1.12915  -1.12881
 Alpha  occ. eigenvalues --   -0.18288  -0.13444  -0.12338  -0.10316
 Alpha virt. eigenvalues --   -0.07214  -0.05057  -0.04256  -0.03291  -0.02816
 Alpha virt. eigenvalues --   -0.02532  -0.01807  -0.01165  -0.00827  -0.00318
 Alpha virt. eigenvalues --   -0.00112   0.00045   0.00252   0.00610   0.00856

  Beta  occ. eigenvalues --  -38.44691 -38.44634 -38.44050 -38.43857 -38.43760
  Beta  occ. eigenvalues --  -38.43448 -38.43347  -2.20511  -2.20445  -2.20004
  Beta  occ. eigenvalues --   -2.19653  -2.19596  -2.19294  -2.19248  -1.14446
  Beta  occ. eigenvalues --   -1.14149  -1.14125  -1.14115  -1.14096  -1.14074
  Beta  occ. eigenvalues --   -1.13682  -1.13642  -1.13579  -1.13357  -1.13311
  Beta  occ. eigenvalues --   -1.13300  -1.13273  -1.13257  -1.13234  -1.13004
  Beta  occ. eigenvalues --   -1.12967  -1.12929  -1.12927  -1.12901  -1.12876
  Beta  occ. eigenvalues --   -0.17716  -0.13061  -0.12074
  Beta virt. eigenvalues --   -0.07104  -0.06557  -0.04930  -0.04085  -0.02749
  Beta virt. eigenvalues --   -0.02533  -0.02154  -0.01326  -0.00896  -0.00674
  Beta virt. eigenvalues --   -0.00079   0.00019   0.00164   0.00379   0.00633

 Mulliken charges and spin densities:
               1          2
     1  Na  -0.099909   0.225621
     2  Na   0.394952   0.142121
     3  Na   0.049646   0.257778
     4  Na  -1.307221   0.114336
     5  Na   0.275490  -0.126729
     6  Na   0.124118   0.069465
     7  Na   0.562923   0.317408
 Sum of Mulliken charges =  -0.00000   1.00000

 Dipole moment (field-independent basis, Debye):
    X=             -0.3071    Y=              0.0158    Z=              0.3142  Tot=              0.4396
 Quadrupole moment (field-independent basis, Debye-Ang):
   XX=            -55.9935   YY=            -66.4663   ZZ=            -71.6376
   XY=              3.9324   XZ=             -0.6205   YZ=              0.3421

 Normal termination of Gaussian 16 at Tue Dec  5 21:56:33 2023.
