 Gaussian 16, Revision B.01,
 Gaussian 16:  ES64L-G16RevB.01 20-Dec-2017

 -------------------------
 #P B3LYP/6-311+g(d) force
 -------------------------

 -----
 DPGEN
 -----
 Symbolic Z-matrix:
 Charge =  0 Multiplicity = 2

                         Standard orientation:
 ---------------------------------------------------------------------
 Center     Atomic      Atomic             Coordinates (Angstroms)
 Number     Number       Type             X           Y           Z
 ---------------------------------------------------------------------
      1         11           0        1.719050   -2.070292   -0.142442
      2         11           0       -0.039823    2.870861   -0.473385
      3         11           0        0.026104   -0.525457   -1.813731
      4         11           0       -1.592995   -2.416037    0.311877
      5         11           0       -2.990419    0.916925   -0.109952
      6         11           0        3.125563    0.854762    0.294295
      7         11           0       -0.247481    0.369237    1.933338
 ---------------------------------------------------------------------

 SCF Done:  E(UB3LYP) =  -1136.13551914     A.U. after   19 cycles

 The electronic state is 2-A.
 Alpha  occ. eigenvalues --  -38.43997 -38.43895 -38.43567 -38.43565 -38.43558
 Alpha  occ. eigenvalues --  -38.43382 -38.43334  -2.19825  -2.19708  -2.19550
 Alpha  occ. eigenvalues --   -2.19474  -2.19385  -2.19329  -2.19219  -1.13502
 Alpha  occ. eigenvalues --   -1.13489  -1.13464  -1.13413  -1.13388  -1.13370
 Alpha  occ. eigenvalues --   -1.13348  -1.13191  -1.13158  -1.13147  -1.13122
 Alpha  occ. eigenvalues --   -1.13091  -1.13059  -1.13042  -1.13009  -1.12967
 Alpha  occ. eigenvalues --   -1.12949  -1.12934  -1.12881  -1.12879  -1.12836
 Alpha  occ. eigenvalues --   -0.18798  -0.12974  -0.12553  -0.10912
 Alpha virt. eigenvalues --   -0.05632  -0.04964  -0.04669  -0.03278  -0.03094
 Alpha virt. eigenvalues --   -0.02580  -0.01489  -0.01025  -0.00303  -0.00127
 Alpha virt. eigenvalues --   -0.00002   0.00370   0.00828   0.00902   0.00925

  Beta  occ. eigenvalues --  -38.43994 -38.43892 -38.43547 -38.43492 -38.43487
  Beta  occ. eigenvalues --  -38.43373 -38.43325  -2.19822  -2.19705  -2.19414
  Beta  occ. eigenvalues --   -2.19368  -2.19330  -2.19314  -2.19206  -1.13492
  Beta  occ. eigenvalues --   -1.13478  -1.13459  -1.13391  -1.13354  -1.13350
  Beta  occ. eigenvalues --   -1.13331  -1.13102  -1.13075  -1.13058  -1.13044
  Beta  occ. eigenvalues --   -1.13028  -1.12999  -1.12992  -1.12983  -1.12945
  Beta  occ. eigenvalues --   -1.12931  -1.12888  -1.12872  -1.12848  -1.12824
  Beta  occ. eigenvalues --   -0.18057  -0.12734  -0.12314
  Beta virt. eigenvalues --   -0.07013  -0.05599  -0.04951  -0.04571  -0.02482
  Beta virt. eigenvalues --   -0.02346  -0.01556  -0.01402  -0.00958  -0.00328
  Beta virt. eigenvalues --   -0.00155   0.00117   0.00390   0.00862   0.00909

 Mulliken charges and spin densities:
               1          2
     1  Na   0.489279   0.057412
     2  Na  -0.035545  -0.025992
     3  Na  -0.265393   0.511876
     4  Na   0.177395  -0.064634
     5  Na   0.095028  -0.100619
     6  Na  -0.052600  -0.064929
     7  Na  -0.408164   0.686885
 Sum of Mulliken charges =  -0.00000   1.00000

 Dipole moment (field-independent basis, Debye):
    X=             -0.2095    Y=              0.2748    Z=              0.1103  Tot=              0.3627
 Quadrupole moment (field-independent basis, Debye-Ang):
   XX=            -57.1826   YY=            -63.9368   ZZ=            -73.0264
   XY=              0.9896   XZ=              0.7365   YZ=             -1.7933

 Normal termination of Gaussian 16 at Wed Nov 29 17:24:56 2023.
