 Gaussian 16, Revision B.01,
 Gaussian 16:  ES64L-G16RevB.01 20-Dec-2017

 -------------------------
 #P B3LYP/6-311+g(d) force
 -------------------------

 -----
 DPGEN
 -----
 Symbolic Z-matrix:
 Charge =  0 Multiplicity = 2

                         Standard orientation:
 ---------------------------------------------------------------------
 Center     Atomic      Atomic             Coordinates (Angstroms)
 Number     Number       Type             X           Y           Z
 ---------------------------------------------------------------------
      1         11           0       -2.505624   -0.507790   -1.174580
      2         11           0        1.576023    2.524890    0.887955
      3         11           0       -1.415710   -3.052884    1.400840
      4         11           0       -0.473225    0.477566    1.419416
      5         11           0       -2.196515    2.715847   -0.670230
      6         11           0        4.147606   -0.460524   -0.470521
      7         11           0        0.867444   -1.697106   -1.392880
 ---------------------------------------------------------------------

 SCF Done:  E(UB3LYP) =  -1136.12314999     A.U. after   20 cycles

 The electronic state is 2-A.
 Alpha  occ. eigenvalues --  -38.44291 -38.44206 -38.44132 -38.44112 -38.43953
 Alpha  occ. eigenvalues --  -38.43849 -38.43708  -2.20091  -2.19957  -2.19950
 Alpha  occ. eigenvalues --   -2.19909  -2.19770  -2.19724  -2.19650  -1.13758
 Alpha  occ. eigenvalues --   -1.13749  -1.13747  -1.13700  -1.13625  -1.13613
 Alpha  occ. eigenvalues --   -1.13607  -1.13599  -1.13590  -1.13579  -1.13538
 Alpha  occ. eigenvalues --   -1.13503  -1.13482  -1.13440  -1.13406  -1.13398
 Alpha  occ. eigenvalues --   -1.13388  -1.13321  -1.13308  -1.13287  -1.13240
 Alpha  occ. eigenvalues --   -0.17567  -0.12797  -0.12623  -0.10922
 Alpha virt. eigenvalues --   -0.06215  -0.05163  -0.05063  -0.03256  -0.02997
 Alpha virt. eigenvalues --   -0.02277  -0.01663  -0.01596  -0.00696  -0.00474
 Alpha virt. eigenvalues --   -0.00247   0.00252   0.00419   0.00548   0.00698

  Beta  occ. eigenvalues --  -38.44243 -38.44194 -38.44102 -38.44088 -38.43938
  Beta  occ. eigenvalues --  -38.43813 -38.43663  -2.20001  -2.19930  -2.19901
  Beta  occ. eigenvalues --   -2.19865  -2.19744  -2.19658  -2.19569  -1.13702
  Beta  occ. eigenvalues --   -1.13688  -1.13681  -1.13645  -1.13612  -1.13590
  Beta  occ. eigenvalues --   -1.13579  -1.13574  -1.13559  -1.13547  -1.13507
  Beta  occ. eigenvalues --   -1.13473  -1.13452  -1.13422  -1.13372  -1.13361
  Beta  occ. eigenvalues --   -1.13344  -1.13268  -1.13253  -1.13224  -1.13182
  Beta  occ. eigenvalues --   -0.17020  -0.12448  -0.12143
  Beta virt. eigenvalues --   -0.07523  -0.05736  -0.04940  -0.04890  -0.02842
  Beta virt. eigenvalues --   -0.02566  -0.01855  -0.01430  -0.01229  -0.00520
  Beta virt. eigenvalues --   -0.00364  -0.00066   0.00332   0.00572   0.00729

 Mulliken charges and spin densities:
               1          2
     1  Na   0.214245   0.299892
     2  Na   0.096956   0.094804
     3  Na   0.291816   0.110274
     4  Na  -0.053345   0.239384
     5  Na  -0.177819   0.053375
     6  Na  -0.017582   0.008665
     7  Na  -0.354272   0.193605
 Sum of Mulliken charges =  -0.00000   1.00000

 Dipole moment (field-independent basis, Debye):
    X=             -0.2489    Y=             -0.0858    Z=              0.0242  Tot=              0.2644
 Quadrupole moment (field-independent basis, Debye-Ang):
   XX=            -61.8325   YY=            -60.5873   ZZ=            -71.8074
   XY=              2.4533   XZ=              1.1960   YZ=             -2.8371

 Normal termination of Gaussian 16 at Sun Dec  3 16:07:07 2023.
