 Gaussian 16, Revision B.01,
 Gaussian 16:  ES64L-G16RevB.01 20-Dec-2017

 -------------------------
 #P B3LYP/6-311+g(d) force
 -------------------------

 -----
 DPGEN
 -----
 Symbolic Z-matrix:
 Charge =  0 Multiplicity = 2

                         Standard orientation:
 ---------------------------------------------------------------------
 Center     Atomic      Atomic             Coordinates (Angstroms)
 Number     Number       Type             X           Y           Z
 ---------------------------------------------------------------------
      1         11           0       -0.084464   -0.280143   -1.531174
      2         11           0       -3.329733   -1.225033   -0.419599
      3         11           0       -1.039191    0.291512    1.750180
      4         11           0        1.980682    1.438661    0.618024
      5         11           0       -1.322539    2.875410   -0.476555
      6         11           0        0.198244   -2.443755    0.522176
      7         11           0        3.597002   -0.656653   -0.463052
 ---------------------------------------------------------------------

 SCF Done:  E(UB3LYP) =  -1136.12591782     A.U. after   21 cycles

 The electronic state is 2-A.
 Alpha  occ. eigenvalues --  -38.44997 -38.44423 -38.43646 -38.43593 -38.43555
 Alpha  occ. eigenvalues --  -38.43142 -38.42939  -2.20786  -2.20269  -2.19569
 Alpha  occ. eigenvalues --   -2.19532  -2.19480  -2.18960  -2.18909  -1.14466
 Alpha  occ. eigenvalues --   -1.14438  -1.14409  -1.14050  -1.13904  -1.13874
 Alpha  occ. eigenvalues --   -1.13416  -1.13247  -1.13215  -1.13173  -1.13147
 Alpha  occ. eigenvalues --   -1.13140  -1.13130  -1.13098  -1.13094  -1.12636
 Alpha  occ. eigenvalues --   -1.12628  -1.12606  -1.12596  -1.12538  -1.12496
 Alpha  occ. eigenvalues --   -0.18708  -0.13429  -0.11959  -0.10548
 Alpha virt. eigenvalues --   -0.06663  -0.04937  -0.04096  -0.03259  -0.02686
 Alpha virt. eigenvalues --   -0.02371  -0.02155  -0.01131  -0.00535  -0.00015
 Alpha virt. eigenvalues --    0.00038   0.00246   0.00587   0.00773   0.00848

  Beta  occ. eigenvalues --  -38.44985 -38.44420 -38.43625 -38.43543 -38.43542
  Beta  occ. eigenvalues --  -38.43136 -38.42863  -2.20766  -2.20264  -2.19503
  Beta  occ. eigenvalues --   -2.19471  -2.19462  -2.18950  -2.18772  -1.14441
  Beta  occ. eigenvalues --   -1.14419  -1.14397  -1.14048  -1.13891  -1.13871
  Beta  occ. eigenvalues --   -1.13371  -1.13190  -1.13161  -1.13133  -1.13107
  Beta  occ. eigenvalues --   -1.13098  -1.13087  -1.13080  -1.13065  -1.12623
  Beta  occ. eigenvalues --   -1.12615  -1.12585  -1.12513  -1.12437  -1.12399
  Beta  occ. eigenvalues --   -0.17982  -0.13224  -0.11743
  Beta virt. eigenvalues --   -0.06694  -0.06500  -0.04850  -0.04034  -0.02698
  Beta virt. eigenvalues --   -0.02281  -0.01968  -0.01193  -0.01082  -0.00344
  Beta virt. eigenvalues --    0.00015   0.00098   0.00284   0.00701   0.00812

 Mulliken charges and spin densities:
               1          2
     1  Na  -0.641081   0.642601
     2  Na   0.110460   0.002487
     3  Na   0.060544   0.319889
     4  Na  -0.084152   0.051159
     5  Na   0.035222  -0.001930
     6  Na   0.127360   0.017660
     7  Na   0.391646  -0.031867
 Sum of Mulliken charges =  -0.00000   1.00000

 Dipole moment (field-independent basis, Debye):
    X=             -0.4678    Y=             -0.4524    Z=             -0.1148  Tot=              0.6608
 Quadrupole moment (field-independent basis, Debye-Ang):
   XX=            -49.7912   YY=            -67.2453   ZZ=            -74.1750
   XY=             -0.6670   XZ=              0.3073   YZ=             -0.5444

 Normal termination of Gaussian 16 at Fri Dec  8 02:26:20 2023.
