 Gaussian 16, Revision B.01,
 Gaussian 16:  ES64L-G16RevB.01 20-Dec-2017

 -------------------------
 #P B3LYP/6-311+g(d) force
 -------------------------

 -----
 DPGEN
 -----
 Symbolic Z-matrix:
 Charge =  0 Multiplicity = 2

                         Standard orientation:
 ---------------------------------------------------------------------
 Center     Atomic      Atomic             Coordinates (Angstroms)
 Number     Number       Type             X           Y           Z
 ---------------------------------------------------------------------
      1         11           0       -0.139711   -2.429100   -1.669122
      2         11           0       -2.197438    0.834613   -1.443503
      3         11           0       -0.515845   -0.395557    1.967733
      4         11           0        0.778024    2.923212   -1.360382
      5         11           0        3.166147    1.181192    1.372336
      6         11           0        2.621437   -1.985043   -0.232174
      7         11           0       -3.712615   -0.129316    1.365112
 ---------------------------------------------------------------------

 SCF Done:  E(UB3LYP) =  -1136.11782173     A.U. after   21 cycles

 The electronic state is 2-A.
 Alpha  occ. eigenvalues --  -38.45420 -38.44625 -38.44457 -38.44235 -38.44100
 Alpha  occ. eigenvalues --  -38.43684 -38.43415  -2.21219  -2.20454  -2.20279
 Alpha  occ. eigenvalues --   -2.19986  -2.19865  -2.19496  -2.19235  -1.14888
 Alpha  occ. eigenvalues --   -1.14874  -1.14848  -1.14122  -1.14105  -1.14093
 Alpha  occ. eigenvalues --   -1.13954  -1.13935  -1.13900  -1.13659  -1.13647
 Alpha  occ. eigenvalues --   -1.13606  -1.13545  -1.13521  -1.13498  -1.13202
 Alpha  occ. eigenvalues --   -1.13165  -1.13136  -1.12895  -1.12872  -1.12862
 Alpha  occ. eigenvalues --   -0.17108  -0.13398  -0.12006  -0.11527
 Alpha virt. eigenvalues --   -0.06299  -0.05550  -0.04896  -0.03422  -0.03150
 Alpha virt. eigenvalues --   -0.02864  -0.02119  -0.00988  -0.00639  -0.00313
 Alpha virt. eigenvalues --   -0.00215   0.00001   0.00180   0.00283   0.00666

  Beta  occ. eigenvalues --  -38.45364 -38.44597 -38.44416 -38.44198 -38.44088
  Beta  occ. eigenvalues --  -38.43690 -38.43379  -2.21117  -2.20405  -2.20206
  Beta  occ. eigenvalues --   -2.19919  -2.19843  -2.19509  -2.19167  -1.14822
  Beta  occ. eigenvalues --   -1.14805  -1.14761  -1.14081  -1.14068  -1.14061
  Beta  occ. eigenvalues --   -1.13903  -1.13881  -1.13839  -1.13614  -1.13599
  Beta  occ. eigenvalues --   -1.13555  -1.13529  -1.13502  -1.13485  -1.13202
  Beta  occ. eigenvalues --   -1.13177  -1.13138  -1.12846  -1.12829  -1.12819
  Beta  occ. eigenvalues --   -0.16413  -0.13188  -0.11274
  Beta virt. eigenvalues --   -0.08252  -0.06040  -0.04942  -0.04625  -0.03076
  Beta virt. eigenvalues --   -0.02848  -0.02245  -0.01940  -0.00688  -0.00570
  Beta virt. eigenvalues --   -0.00138  -0.00043   0.00156   0.00278   0.00335

 Mulliken charges and spin densities:
               1          2
     1  Na  -0.033092   0.117466
     2  Na  -0.251804   0.379647
     3  Na  -0.549480   0.403130
     4  Na  -0.010283   0.095944
     5  Na   0.265521  -0.000966
     6  Na   0.098741   0.004592
     7  Na   0.480398   0.000188
 Sum of Mulliken charges =  -0.00000   1.00000

 Dipole moment (field-independent basis, Debye):
    X=             -0.9075    Y=              0.0029    Z=              0.6011  Tot=              1.0885
 Quadrupole moment (field-independent basis, Debye-Ang):
   XX=            -55.3500   YY=            -76.1763   ZZ=            -67.0660
   XY=              0.9163   XZ=              0.9885   YZ=             -1.8683

 Normal termination of Gaussian 16 at Mon Dec  4 01:00:42 2023.
