 Gaussian 16, Revision B.01,
 Gaussian 16:  ES64L-G16RevB.01 20-Dec-2017

 -------------------------
 #P B3LYP/6-311+g(d) force
 -------------------------

 -----
 DPGEN
 -----
 Symbolic Z-matrix:
 Charge =  0 Multiplicity = 2

                         Standard orientation:
 ---------------------------------------------------------------------
 Center     Atomic      Atomic             Coordinates (Angstroms)
 Number     Number       Type             X           Y           Z
 ---------------------------------------------------------------------
      1         11           0       -1.532642    3.100510   -0.354533
      2         11           0        1.527350   -2.045158    0.192864
      3         11           0       -3.497086   -0.039159    0.108779
      4         11           0        3.714667   -0.018301   -0.612466
      5         11           0       -2.101815   -2.833336   -0.096336
      6         11           0        1.264425    1.101474    1.781506
      7         11           0        0.625102    0.733971   -1.019813
 ---------------------------------------------------------------------

 SCF Done:  E(UB3LYP) =  -1136.11608663     A.U. after   22 cycles

 The electronic state is 2-A.
 Alpha  occ. eigenvalues --  -38.44817 -38.44479 -38.44311 -38.44143 -38.43717
 Alpha  occ. eigenvalues --  -38.43622 -38.43510  -2.20607  -2.20387  -2.20213
 Alpha  occ. eigenvalues --   -2.20148  -2.19643  -2.19427  -2.19315  -1.14289
 Alpha  occ. eigenvalues --   -1.14282  -1.14233  -1.14105  -1.14061  -1.14015
 Alpha  occ. eigenvalues --   -1.13970  -1.13927  -1.13860  -1.13810  -1.13785
 Alpha  occ. eigenvalues --   -1.13732  -1.13307  -1.13266  -1.13213  -1.13110
 Alpha  occ. eigenvalues --   -1.13075  -1.13068  -1.12994  -1.12975  -1.12955
 Alpha  occ. eigenvalues --   -0.18369  -0.13927  -0.12352  -0.10024
 Alpha virt. eigenvalues --   -0.06792  -0.05851  -0.04899  -0.03088  -0.02495
 Alpha virt. eigenvalues --   -0.02359  -0.01708  -0.01456  -0.01052  -0.00671
 Alpha virt. eigenvalues --   -0.00175   0.00160   0.00530   0.00679   0.00719

  Beta  occ. eigenvalues --  -38.44813 -38.44430 -38.44298 -38.44126 -38.43624
  Beta  occ. eigenvalues --  -38.43621 -38.43512  -2.20599  -2.20299  -2.20194
  Beta  occ. eigenvalues --   -2.20122  -2.19471  -2.19426  -2.19319  -1.14285
  Beta  occ. eigenvalues --   -1.14272  -1.14229  -1.14060  -1.14005  -1.13947
  Beta  occ. eigenvalues --   -1.13929  -1.13878  -1.13817  -1.13781  -1.13766
  Beta  occ. eigenvalues --   -1.13708  -1.13198  -1.13144  -1.13108  -1.13094
  Beta  occ. eigenvalues --   -1.13075  -1.13057  -1.12999  -1.12976  -1.12954
  Beta  occ. eigenvalues --   -0.17720  -0.13667  -0.12207
  Beta virt. eigenvalues --   -0.06623  -0.06196  -0.05627  -0.04766  -0.02580
  Beta virt. eigenvalues --   -0.02302  -0.01888  -0.01363  -0.01150  -0.00914
  Beta virt. eigenvalues --   -0.00458   0.00137   0.00294   0.00626   0.00738

 Mulliken charges and spin densities:
               1          2
     1  Na   0.552769   0.008064
     2  Na  -0.111588   0.298330
     3  Na  -0.216439   0.094862
     4  Na   1.165313   0.331636
     5  Na   0.058790  -0.100487
     6  Na  -0.291588   0.350481
     7  Na  -1.157257   0.017114
 Sum of Mulliken charges =  -0.00000   1.00000

 Dipole moment (field-independent basis, Debye):
    X=              0.2666    Y=              0.2761    Z=              0.5707  Tot=              0.6878
 Quadrupole moment (field-independent basis, Debye-Ang):
   XX=            -55.8459   YY=            -64.9628   ZZ=            -75.9383
   XY=             -1.8767   XZ=              0.9557   YZ=              0.3468

 Normal termination of Gaussian 16 at Thu Dec  7 22:17:39 2023.
