 Gaussian 16, Revision B.01,
 Gaussian 16:  ES64L-G16RevB.01 20-Dec-2017

 -------------------------
 #P B3LYP/6-311+g(d) force
 -------------------------

 -----
 DPGEN
 -----
 Symbolic Z-matrix:
 Charge =  0 Multiplicity = 2

                         Standard orientation:
 ---------------------------------------------------------------------
 Center     Atomic      Atomic             Coordinates (Angstroms)
 Number     Number       Type             X           Y           Z
 ---------------------------------------------------------------------
      1         11           0        8.336982   -0.494094    0.071914
      2         11           0       -6.570068   -2.467904   -0.112443
      3         11           0       -1.400990    1.537418    0.271245
      4         11           0       -3.827745    3.445808   -0.128687
      5         11           0        2.275342   -0.631032    0.663421
      6         11           0       -3.987732   -1.296397   -0.109171
      7         11           0        5.174211   -0.093798   -0.656279
 ---------------------------------------------------------------------

 SCF Done:  E(UB3LYP) =  -1136.10279594     A.U. after   20 cycles

 The electronic state is 2-A.
 Alpha  occ. eigenvalues --  -38.45691 -38.45288 -38.45256 -38.44397 -38.44284
 Alpha  occ. eigenvalues --  -38.43203 -38.42977  -2.21493  -2.21095  -2.21051
 Alpha  occ. eigenvalues --   -2.20205  -2.20079  -2.19046  -2.18806  -1.15123
 Alpha  occ. eigenvalues --   -1.15123  -1.15118  -1.14740  -1.14731  -1.14714
 Alpha  occ. eigenvalues --   -1.14706  -1.14696  -1.14684  -1.13883  -1.13876
 Alpha  occ. eigenvalues --   -1.13872  -1.13752  -1.13751  -1.13731  -1.12872
 Alpha  occ. eigenvalues --   -1.12699  -1.12683  -1.12439  -1.12437  -1.12396
 Alpha  occ. eigenvalues --   -0.15476  -0.14572  -0.12458  -0.11774
 Alpha virt. eigenvalues --   -0.06986  -0.05050  -0.04377  -0.03476  -0.03115
 Alpha virt. eigenvalues --   -0.02873  -0.02434  -0.01933  -0.01498  -0.01268
 Alpha virt. eigenvalues --   -0.01126  -0.00408  -0.00276   0.00282   0.00504

  Beta  occ. eigenvalues --  -38.45589 -38.45214 -38.45195 -38.44406 -38.44294
  Beta  occ. eigenvalues --  -38.43202 -38.42983  -2.21302  -2.20971  -2.20920
  Beta  occ. eigenvalues --   -2.20230  -2.20102  -2.19042  -2.18817  -1.14994
  Beta  occ. eigenvalues --   -1.14992  -1.14992  -1.14654  -1.14641  -1.14629
  Beta  occ. eigenvalues --   -1.14626  -1.14613  -1.14599  -1.13902  -1.13902
  Beta  occ. eigenvalues --   -1.13832  -1.13771  -1.13767  -1.13720  -1.12877
  Beta  occ. eigenvalues --   -1.12696  -1.12678  -1.12446  -1.12445  -1.12402
  Beta  occ. eigenvalues --   -0.14821  -0.13948  -0.11763
  Beta virt. eigenvalues --   -0.08745  -0.06467  -0.04721  -0.04118  -0.03232
  Beta virt. eigenvalues --   -0.02910  -0.02567  -0.02286  -0.01398  -0.01251
  Beta virt. eigenvalues --   -0.00914  -0.00771  -0.00251  -0.00158   0.00369

 Mulliken charges and spin densities:
               1          2
     1  Na   0.359413   0.409261
     2  Na   0.816305  -0.033021
     3  Na  -0.985729   0.152374
     4  Na   1.133723   0.130768
     5  Na  -0.260693   0.292063
     6  Na  -0.855686   0.003640
     7  Na  -0.207331   0.044914
 Sum of Mulliken charges =  -0.00000   1.00000

 Dipole moment (field-independent basis, Debye):
    X=              2.3250    Y=              1.4216    Z=              0.2297  Tot=              2.7349
 Quadrupole moment (field-independent basis, Debye-Ang):
   XX=            -43.5383   YY=            -69.2709   ZZ=            -73.9903
   XY=            -12.9662   XZ=              2.3509   YZ=             -2.0912

 Normal termination of Gaussian 16 at Mon Dec  4 04:51:22 2023.
