 Gaussian 16, Revision B.01,
 Gaussian 16:  ES64L-G16RevB.01 20-Dec-2017

 -------------------------
 #P B3LYP/6-311+g(d) force
 -------------------------

 -----
 DPGEN
 -----
 Symbolic Z-matrix:
 Charge =  0 Multiplicity = 2

                         Standard orientation:
 ---------------------------------------------------------------------
 Center     Atomic      Atomic             Coordinates (Angstroms)
 Number     Number       Type             X           Y           Z
 ---------------------------------------------------------------------
      1         11           0        2.985632    2.386716   -0.221143
      2         11           0       -0.129081    1.608596   -0.628260
      3         11           0        1.762196   -2.241695    0.113725
      4         11           0       -4.418616   -1.290513   -0.858374
      5         11           0       -3.611802    1.996878    0.891619
      6         11           0       -1.167511   -1.706519    0.593437
      7         11           0        4.579183   -0.753462    0.108998
 ---------------------------------------------------------------------

 SCF Done:  E(UB3LYP) =  -1136.11034102     A.U. after   26 cycles

 The electronic state is 2-A.
 Alpha  occ. eigenvalues --  -38.45976 -38.45532 -38.44310 -38.44193 -38.43630
 Alpha  occ. eigenvalues --  -38.43418 -38.43280  -2.21700  -2.21303  -2.20144
 Alpha  occ. eigenvalues --   -2.19982  -2.19455  -2.19288  -2.19140  -1.15390
 Alpha  occ. eigenvalues --   -1.15358  -1.15334  -1.14965  -1.14950  -1.14916
 Alpha  occ. eigenvalues --   -1.13808  -1.13785  -1.13764  -1.13672  -1.13654
 Alpha  occ. eigenvalues --   -1.13616  -1.13130  -1.13098  -1.13084  -1.13044
 Alpha  occ. eigenvalues --   -1.12950  -1.12930  -1.12793  -1.12772  -1.12765
 Alpha  occ. eigenvalues --   -0.16737  -0.14380  -0.11739  -0.10959
 Alpha virt. eigenvalues --   -0.07589  -0.05090  -0.04538  -0.03431  -0.03331
 Alpha virt. eigenvalues --   -0.02669  -0.02036  -0.01334  -0.00936  -0.00690
 Alpha virt. eigenvalues --   -0.00258  -0.00127   0.00161   0.00307   0.00537

  Beta  occ. eigenvalues --  -38.45979 -38.45476 -38.44233 -38.44193 -38.43583
  Beta  occ. eigenvalues --  -38.43384 -38.43264  -2.21709  -2.21199  -2.20001
  Beta  occ. eigenvalues --   -2.19985  -2.19368  -2.19229  -2.19118  -1.15397
  Beta  occ. eigenvalues --   -1.15359  -1.15331  -1.14894  -1.14878  -1.14845
  Beta  occ. eigenvalues --   -1.13714  -1.13688  -1.13675  -1.13665  -1.13658
  Beta  occ. eigenvalues --   -1.13596  -1.13070  -1.13037  -1.13032  -1.12978
  Beta  occ. eigenvalues --   -1.12915  -1.12889  -1.12784  -1.12764  -1.12705
  Beta  occ. eigenvalues --   -0.16087  -0.13669  -0.11447
  Beta virt. eigenvalues --   -0.07636  -0.07487  -0.04799  -0.03985  -0.03107
  Beta virt. eigenvalues --   -0.02970  -0.02313  -0.01846  -0.01165  -0.00626
  Beta virt. eigenvalues --   -0.00400  -0.00141  -0.00055   0.00319   0.00396

 Mulliken charges and spin densities:
               1          2
     1  Na   0.499675   0.100175
     2  Na  -1.003610   0.021724
     3  Na   0.036118   0.101446
     4  Na   0.662977   0.357607
     5  Na   0.464269   0.075141
     6  Na  -0.477455  -0.029851
     7  Na  -0.181973   0.373759
 Sum of Mulliken charges =  -0.00000   1.00000

 Dipole moment (field-independent basis, Debye):
    X=             -1.6499    Y=              0.5817    Z=              0.1136  Tot=              1.7531
 Quadrupole moment (field-independent basis, Debye-Ang):
   XX=            -55.2144   YY=            -70.7071   ZZ=            -69.3390
   XY=             -0.1514   XZ=              0.1425   YZ=              4.6298

 Normal termination of Gaussian 16 at Sun Dec  3 19:34:02 2023.
