 Gaussian 16, Revision B.01,
 Gaussian 16:  ES64L-G16RevB.01 20-Dec-2017

 -------------------------
 #P B3LYP/6-311+g(d) force
 -------------------------

 -----
 DPGEN
 -----
 Symbolic Z-matrix:
 Charge =  0 Multiplicity = 2

                         Standard orientation:
 ---------------------------------------------------------------------
 Center     Atomic      Atomic             Coordinates (Angstroms)
 Number     Number       Type             X           Y           Z
 ---------------------------------------------------------------------
      1         11           0        0.249157   -0.162435    2.067862
      2         11           0       -0.981723    2.853330    0.247692
      3         11           0        2.215934    1.722749   -0.407866
      4         11           0       -3.132228   -0.204841   -0.082741
      5         11           0       -0.048911    0.034996   -1.706007
      6         11           0       -0.932113   -2.679663   -0.168990
      7         11           0        2.629884   -1.564135    0.050050
 ---------------------------------------------------------------------

 SCF Done:  E(UB3LYP) =  -1136.13967094     A.U. after   19 cycles

 The electronic state is 2-A.
 Alpha  occ. eigenvalues --  -38.43903 -38.43698 -38.43580 -38.43473 -38.43373
 Alpha  occ. eigenvalues --  -38.43371 -38.43290  -2.19731  -2.19592  -2.19437
 Alpha  occ. eigenvalues --   -2.19375  -2.19281  -2.19248  -2.19202  -1.13408
 Alpha  occ. eigenvalues --   -1.13398  -1.13373  -1.13264  -1.13224  -1.13218
 Alpha  occ. eigenvalues --   -1.13150  -1.13106  -1.13099  -1.13083  -1.13024
 Alpha  occ. eigenvalues --   -1.12999  -1.12984  -1.12931  -1.12909  -1.12894
 Alpha  occ. eigenvalues --   -1.12872  -1.12868  -1.12864  -1.12850  -1.12841
 Alpha  occ. eigenvalues --   -0.18821  -0.13007  -0.12501  -0.10962
 Alpha virt. eigenvalues --   -0.05409  -0.05014  -0.04758  -0.03209  -0.03015
 Alpha virt. eigenvalues --   -0.02718  -0.01383  -0.01071  -0.00250  -0.00211
 Alpha virt. eigenvalues --   -0.00006   0.00369   0.00831   0.00911   0.00924

  Beta  occ. eigenvalues --  -38.43902 -38.43604 -38.43575 -38.43460 -38.43369
  Beta  occ. eigenvalues --  -38.43364 -38.43221  -2.19732  -2.19433  -2.19418
  Beta  occ. eigenvalues --   -2.19356  -2.19239  -2.19198  -2.19156  -1.13405
  Beta  occ. eigenvalues --   -1.13392  -1.13370  -1.13167  -1.13126  -1.13107
  Beta  occ. eigenvalues --   -1.13099  -1.13088  -1.13076  -1.13051  -1.12990
  Beta  occ. eigenvalues --   -1.12978  -1.12961  -1.12889  -1.12873  -1.12859
  Beta  occ. eigenvalues --   -1.12851  -1.12847  -1.12839  -1.12796  -1.12791
  Beta  occ. eigenvalues --   -0.18076  -0.12757  -0.12266
  Beta virt. eigenvalues --   -0.07019  -0.05389  -0.05009  -0.04704  -0.02413
  Beta virt. eigenvalues --   -0.02223  -0.01644  -0.01303  -0.00995  -0.00296
  Beta virt. eigenvalues --   -0.00252   0.00121   0.00389   0.00877   0.00916

 Mulliken charges and spin densities:
               1          2
     1  Na  -0.561891   0.800563
     2  Na  -0.013521  -0.043405
     3  Na   0.298941   0.002442
     4  Na   0.007880  -0.078432
     5  Na  -0.176907   0.448413
     6  Na   0.185617  -0.083234
     7  Na   0.259881  -0.046348
 Sum of Mulliken charges =  -0.00000   1.00000

 Dipole moment (field-independent basis, Debye):
    X=             -0.1183    Y=             -0.0720    Z=              0.1752  Tot=              0.2233
 Quadrupole moment (field-independent basis, Debye-Ang):
   XX=            -58.1021   YY=            -62.6942   ZZ=            -73.2448
   XY=             -0.9626   XZ=             -0.7219   YZ=              0.4719

 Normal termination of Gaussian 16 at Tue Dec  5 11:17:13 2023.
