 Gaussian 16, Revision B.01,
 Gaussian 16:  ES64L-G16RevB.01 20-Dec-2017

 -------------------------
 #P B3LYP/6-311+g(d) force
 -------------------------

 -----
 DPGEN
 -----
 Symbolic Z-matrix:
 Charge =  0 Multiplicity = 2

                         Standard orientation:
 ---------------------------------------------------------------------
 Center     Atomic      Atomic             Coordinates (Angstroms)
 Number     Number       Type             X           Y           Z
 ---------------------------------------------------------------------
      1         11           0        1.101858    2.664676   -0.271496
      2         11           0        3.199601   -0.427609   -0.276741
      3         11           0        0.517951   -2.670688    0.381087
      4         11           0       -2.772264   -1.481468   -0.424380
      5         11           0        0.085858    0.265205    2.014828
      6         11           0       -2.278901    1.878563    0.063757
      7         11           0        0.145897   -0.228678   -1.487055
 ---------------------------------------------------------------------

 SCF Done:  E(UB3LYP) =  -1136.13874838     A.U. after   18 cycles

 The electronic state is 2-A.
 Alpha  occ. eigenvalues --  -38.44072 -38.43630 -38.43585 -38.43426 -38.43366
 Alpha  occ. eigenvalues --  -38.43302 -38.42982  -2.19903  -2.19471  -2.19444
 Alpha  occ. eigenvalues --   -2.19349  -2.19232  -2.19199  -2.19023  -1.13590
 Alpha  occ. eigenvalues --   -1.13554  -1.13540  -1.13164  -1.13143  -1.13123
 Alpha  occ. eigenvalues --   -1.13115  -1.13112  -1.13063  -1.13031  -1.12988
 Alpha  occ. eigenvalues --   -1.12964  -1.12944  -1.12926  -1.12889  -1.12857
 Alpha  occ. eigenvalues --   -1.12848  -1.12801  -1.12697  -1.12646  -1.12632
 Alpha  occ. eigenvalues --   -0.18903  -0.12999  -0.12588  -0.10757
 Alpha virt. eigenvalues --   -0.05593  -0.05055  -0.04635  -0.03070  -0.02921
 Alpha virt. eigenvalues --   -0.02449  -0.01616  -0.01079  -0.00279  -0.00213
 Alpha virt. eigenvalues --    0.00020   0.00343   0.00816   0.00887   0.00912

  Beta  occ. eigenvalues --  -38.44066 -38.43622 -38.43581 -38.43359 -38.43328
  Beta  occ. eigenvalues --  -38.43290 -38.42928  -2.19895  -2.19458  -2.19439
  Beta  occ. eigenvalues --   -2.19223  -2.19180  -2.19169  -2.18926  -1.13575
  Beta  occ. eigenvalues --   -1.13544  -1.13532  -1.13156  -1.13128  -1.13112
  Beta  occ. eigenvalues --   -1.13102  -1.13092  -1.13058  -1.12945  -1.12934
  Beta  occ. eigenvalues --   -1.12891  -1.12884  -1.12849  -1.12840  -1.12832
  Beta  occ. eigenvalues --   -1.12799  -1.12790  -1.12628  -1.12582  -1.12557
  Beta  occ. eigenvalues --   -0.18184  -0.12738  -0.12336
  Beta virt. eigenvalues --   -0.06832  -0.05550  -0.05035  -0.04595  -0.02310
  Beta virt. eigenvalues --   -0.02159  -0.01523  -0.01383  -0.01023  -0.00293
  Beta virt. eigenvalues --   -0.00238   0.00140   0.00374   0.00870   0.00881

 Mulliken charges and spin densities:
               1          2
     1  Na   0.104370  -0.055824
     2  Na   0.185447  -0.049224
     3  Na   0.263534   0.082090
     4  Na   0.120778  -0.003278
     5  Na  -0.365830   0.639815
     6  Na   0.185995  -0.000442
     7  Na  -0.494294   0.386864
 Sum of Mulliken charges =  -0.00000   1.00000

 Dipole moment (field-independent basis, Debye):
    X=              0.1880    Y=              0.0503    Z=              0.1514  Tot=              0.2465
 Quadrupole moment (field-independent basis, Debye-Ang):
   XX=            -55.4030   YY=            -62.8547   ZZ=            -74.3593
   XY=              0.0039   XZ=              0.0976   YZ=             -0.8216

 Normal termination of Gaussian 16 at Tue Dec  5 10:32:33 2023.
