 Gaussian 16, Revision B.01,
 Gaussian 16:  ES64L-G16RevB.01 20-Dec-2017

 -------------------------
 #P B3LYP/6-311+g(d) force
 -------------------------

 -----
 DPGEN
 -----
 Symbolic Z-matrix:
 Charge =  0 Multiplicity = 2

                         Standard orientation:
 ---------------------------------------------------------------------
 Center     Atomic      Atomic             Coordinates (Angstroms)
 Number     Number       Type             X           Y           Z
 ---------------------------------------------------------------------
      1         11           0       -1.322488    2.580904   -0.093883
      2         11           0       -3.011351   -0.009128    0.744063
      3         11           0        2.402649    1.961004   -0.185936
      4         11           0        2.194945   -1.784894   -0.188035
      5         11           0       -0.129620    0.163284   -1.816720
      6         11           0        1.037626   -0.361262    2.057389
      7         11           0       -1.171761   -2.549909   -0.516878
 ---------------------------------------------------------------------

 SCF Done:  E(UB3LYP) =  -1136.13276045     A.U. after   18 cycles

 The electronic state is 2-A.
 Alpha  occ. eigenvalues --  -38.44142 -38.43845 -38.43799 -38.43756 -38.43489
 Alpha  occ. eigenvalues --  -38.43483 -38.43322  -2.20044  -2.19670  -2.19666
 Alpha  occ. eigenvalues --   -2.19643  -2.19454  -2.19345  -2.19195  -1.13822
 Alpha  occ. eigenvalues --   -1.13668  -1.13642  -1.13351  -1.13338  -1.13337
 Alpha  occ. eigenvalues --   -1.13329  -1.13327  -1.13299  -1.13298  -1.13291
 Alpha  occ. eigenvalues --   -1.13263  -1.13151  -1.13133  -1.13081  -1.13004
 Alpha  occ. eigenvalues --   -1.12995  -1.12960  -1.12871  -1.12844  -1.12820
 Alpha  occ. eigenvalues --   -0.18679  -0.13156  -0.12477  -0.11140
 Alpha virt. eigenvalues --   -0.05481  -0.05117  -0.04490  -0.03660  -0.03111
 Alpha virt. eigenvalues --   -0.02790  -0.01261  -0.00977  -0.00234  -0.00092
 Alpha virt. eigenvalues --    0.00006   0.00384   0.00873   0.00891   0.00930

  Beta  occ. eigenvalues --  -38.44064 -38.43841 -38.43781 -38.43748 -38.43486
  Beta  occ. eigenvalues --  -38.43407 -38.43311  -2.19899  -2.19664  -2.19659
  Beta  occ. eigenvalues --   -2.19610  -2.19344  -2.19316  -2.19179  -1.13737
  Beta  occ. eigenvalues --   -1.13568  -1.13540  -1.13336  -1.13328  -1.13320
  Beta  occ. eigenvalues --   -1.13308  -1.13294  -1.13284  -1.13277  -1.13259
  Beta  occ. eigenvalues --   -1.13256  -1.13090  -1.13047  -1.12994  -1.12988
  Beta  occ. eigenvalues --   -1.12965  -1.12940  -1.12844  -1.12816  -1.12811
  Beta  occ. eigenvalues --   -0.17961  -0.12883  -0.12221
  Beta virt. eigenvalues --   -0.07320  -0.05476  -0.04890  -0.04448  -0.02919
  Beta virt. eigenvalues --   -0.02363  -0.01808  -0.01196  -0.00912  -0.00191
  Beta virt. eigenvalues --   -0.00108   0.00117   0.00426   0.00877   0.00932

 Mulliken charges and spin densities:
               1          2
     1  Na   0.015209   0.009783
     2  Na  -0.150629   0.103281
     3  Na  -0.016693  -0.133926
     4  Na   0.433127  -0.063236
     5  Na   0.078865   0.380767
     6  Na  -0.477651   0.648024
     7  Na   0.117773   0.055307
 Sum of Mulliken charges =  -0.00000   1.00000

 Dipole moment (field-independent basis, Debye):
    X=              0.2440    Y=              0.1088    Z=              0.2092  Tot=              0.3393
 Quadrupole moment (field-independent basis, Debye-Ang):
   XX=            -60.6566   YY=            -64.3048   ZZ=            -71.0254
   XY=              1.1712   XZ=             -2.3936   YZ=              0.8644

 Normal termination of Gaussian 16 at Fri Dec  8 07:52:46 2023.
