 Gaussian 16, Revision B.01,
 Gaussian 16:  ES64L-G16RevB.01 20-Dec-2017

 -------------------------
 #P B3LYP/6-311+g(d) force
 -------------------------

 -----
 DPGEN
 -----
 Symbolic Z-matrix:
 Charge =  0 Multiplicity = 2

                         Standard orientation:
 ---------------------------------------------------------------------
 Center     Atomic      Atomic             Coordinates (Angstroms)
 Number     Number       Type             X           Y           Z
 ---------------------------------------------------------------------
      1         11           0        2.682305    1.450861    0.049993
      2         11           0        2.200918   -1.871313   -0.263157
      3         11           0       -1.342430   -2.603943   -0.336976
      4         11           0       -0.271378    0.307878   -1.471871
      5         11           0       -3.009813    0.568657    0.261351
      6         11           0        0.216621   -0.650499    1.758516
      7         11           0       -0.476223    2.798358    0.002145
 ---------------------------------------------------------------------

 SCF Done:  E(UB3LYP) =  -1136.13512497     A.U. after   20 cycles

 The electronic state is 2-A.
 Alpha  occ. eigenvalues --  -38.43900 -38.43717 -38.43691 -38.43583 -38.43515
 Alpha  occ. eigenvalues --  -38.43032 -38.42803  -2.19760  -2.19615  -2.19548
 Alpha  occ. eigenvalues --   -2.19462  -2.19425  -2.19013  -2.18879  -1.13449
 Alpha  occ. eigenvalues --   -1.13422  -1.13397  -1.13339  -1.13283  -1.13257
 Alpha  occ. eigenvalues --   -1.13234  -1.13211  -1.13194  -1.13176  -1.13151
 Alpha  occ. eigenvalues --   -1.13136  -1.13081  -1.13061  -1.13026  -1.12702
 Alpha  occ. eigenvalues --   -1.12639  -1.12619  -1.12547  -1.12510  -1.12477
 Alpha  occ. eigenvalues --   -0.19178  -0.13163  -0.12895  -0.10346
 Alpha virt. eigenvalues --   -0.05462  -0.05278  -0.04853  -0.03038  -0.02849
 Alpha virt. eigenvalues --   -0.01973  -0.01450  -0.01195  -0.00309  -0.00287
 Alpha virt. eigenvalues --    0.00049   0.00364   0.00855   0.00888   0.00907

  Beta  occ. eigenvalues --  -38.43893 -38.43708 -38.43687 -38.43571 -38.43510
  Beta  occ. eigenvalues --  -38.42956 -38.42740  -2.19751  -2.19603  -2.19545
  Beta  occ. eigenvalues --   -2.19445  -2.19418  -2.18872  -2.18766  -1.13444
  Beta  occ. eigenvalues --   -1.13400  -1.13387  -1.13328  -1.13266  -1.13233
  Beta  occ. eigenvalues --   -1.13229  -1.13189  -1.13184  -1.13171  -1.13142
  Beta  occ. eigenvalues --   -1.13093  -1.13071  -1.13036  -1.13026  -1.12609
  Beta  occ. eigenvalues --   -1.12538  -1.12518  -1.12462  -1.12429  -1.12397
  Beta  occ. eigenvalues --   -0.18465  -0.12917  -0.12637
  Beta virt. eigenvalues --   -0.06446  -0.05437  -0.05272  -0.04799  -0.02249
  Beta virt. eigenvalues --   -0.02084  -0.01372  -0.01130  -0.00971  -0.00363
  Beta virt. eigenvalues --   -0.00323   0.00189   0.00401   0.00883   0.00898

 Mulliken charges and spin densities:
               1          2
     1  Na   0.077238  -0.057533
     2  Na   0.302520  -0.014155
     3  Na   0.195238  -0.038222
     4  Na  -0.441606   0.436606
     5  Na   0.118761  -0.010206
     6  Na  -0.514625   0.701990
     7  Na   0.262475  -0.018480
 Sum of Mulliken charges =  -0.00000   1.00000

 Dipole moment (field-independent basis, Debye):
    X=             -0.0657    Y=             -0.0860    Z=              0.1298  Tot=              0.1690
 Quadrupole moment (field-independent basis, Debye-Ang):
   XX=            -55.7204   YY=            -60.1629   ZZ=            -76.1691
   XY=              0.4758   XZ=             -1.1214   YZ=              2.0953

 Normal termination of Gaussian 16 at Wed Nov 29 02:38:01 2023.
