 Gaussian 16, Revision B.01,
 Gaussian 16:  ES64L-G16RevB.01 20-Dec-2017

 -------------------------
 #P B3LYP/6-311+g(d) force
 -------------------------

 -----
 DPGEN
 -----
 Symbolic Z-matrix:
 Charge =  0 Multiplicity = 2

                         Standard orientation:
 ---------------------------------------------------------------------
 Center     Atomic      Atomic             Coordinates (Angstroms)
 Number     Number       Type             X           Y           Z
 ---------------------------------------------------------------------
      1         11           0       -0.043610   -0.460192    2.017315
      2         11           0        2.027739    2.051262    0.079863
      3         11           0        0.296179   -0.366110   -1.912420
      4         11           0       -3.160566    0.246406    0.015429
      5         11           0       -1.069214   -2.859152   -0.179034
      6         11           0        2.782209   -1.436719    0.091890
      7         11           0       -0.832737    2.824504   -0.113042
 ---------------------------------------------------------------------

 SCF Done:  E(UB3LYP) =  -1136.13624454     A.U. after   19 cycles

 The electronic state is 2-A.
 Alpha  occ. eigenvalues --  -38.43990 -38.43972 -38.43929 -38.43714 -38.43581
 Alpha  occ. eigenvalues --  -38.43533 -38.43350  -2.19804  -2.19785  -2.19758
 Alpha  occ. eigenvalues --   -2.19595  -2.19491  -2.19416  -2.19216  -1.13496
 Alpha  occ. eigenvalues --   -1.13484  -1.13460  -1.13453  -1.13441  -1.13435
 Alpha  occ. eigenvalues --   -1.13427  -1.13410  -1.13393  -1.13257  -1.13230
 Alpha  occ. eigenvalues --   -1.13210  -1.13196  -1.13154  -1.13125  -1.13113
 Alpha  occ. eigenvalues --   -1.13065  -1.13046  -1.12863  -1.12857  -1.12839
 Alpha  occ. eigenvalues --   -0.18474  -0.12817  -0.12631  -0.10893
 Alpha virt. eigenvalues --   -0.05809  -0.05031  -0.04774  -0.03221  -0.03066
 Alpha virt. eigenvalues --   -0.02773  -0.01420  -0.01195  -0.00421  -0.00251
 Alpha virt. eigenvalues --   -0.00044   0.00378   0.00825   0.00858   0.00921

  Beta  occ. eigenvalues --  -38.43990 -38.43965 -38.43924 -38.43627 -38.43529
  Beta  occ. eigenvalues --  -38.43502 -38.43349  -2.19794  -2.19787  -2.19752
  Beta  occ. eigenvalues --   -2.19436  -2.19412  -2.19345  -2.19216  -1.13487
  Beta  occ. eigenvalues --   -1.13456  -1.13451  -1.13443  -1.13439  -1.13431
  Beta  occ. eigenvalues --   -1.13411  -1.13399  -1.13394  -1.13198  -1.13152
  Beta  occ. eigenvalues --   -1.13117  -1.13094  -1.13069  -1.13050  -1.13039
  Beta  occ. eigenvalues --   -1.13010  -1.13005  -1.12859  -1.12848  -1.12839
  Beta  occ. eigenvalues --   -0.17732  -0.12588  -0.12429
  Beta virt. eigenvalues --   -0.06981  -0.05822  -0.04905  -0.04760  -0.02413
  Beta virt. eigenvalues --   -0.02313  -0.01720  -0.01346  -0.01123  -0.00486
  Beta virt. eigenvalues --   -0.00295   0.00106   0.00408   0.00821   0.00902

 Mulliken charges and spin densities:
               1          2
     1  Na  -0.339161   0.736259
     2  Na   0.094670  -0.002272
     3  Na  -0.207944   0.689303
     4  Na  -0.005427  -0.072771
     5  Na   0.211243  -0.168661
     6  Na   0.343584  -0.101119
     7  Na  -0.096965  -0.080741
 Sum of Mulliken charges =  -0.00000   1.00000

 Dipole moment (field-independent basis, Debye):
    X=             -0.0381    Y=             -0.5326    Z=              0.0413  Tot=              0.5356
 Quadrupole moment (field-independent basis, Debye-Ang):
   XX=            -59.1385   YY=            -62.3920   ZZ=            -73.4463
   XY=             -0.3435   XZ=              0.7189   YZ=              0.1243

 Normal termination of Gaussian 16 at Tue Dec  5 19:54:24 2023.
