 Gaussian 16, Revision B.01,
 Gaussian 16:  ES64L-G16RevB.01 20-Dec-2017

 -------------------------
 #P B3LYP/6-311+g(d) force
 -------------------------

 -----
 DPGEN
 -----
 Symbolic Z-matrix:
 Charge =  0 Multiplicity = 2

                         Standard orientation:
 ---------------------------------------------------------------------
 Center     Atomic      Atomic             Coordinates (Angstroms)
 Number     Number       Type             X           Y           Z
 ---------------------------------------------------------------------
      1         11           0        3.319480    0.123964   -0.342478
      2         11           0       -2.662770    1.741164    0.080559
      3         11           0       -0.227086   -0.063363    2.016339
      4         11           0        0.100558   -0.051502   -1.850095
      5         11           0       -2.727861   -1.951624   -0.467662
      6         11           0        0.844694    2.716125    0.083853
      7         11           0        1.352985   -2.514764    0.479484
 ---------------------------------------------------------------------

 SCF Done:  E(UB3LYP) =  -1136.13668047     A.U. after   19 cycles

 The electronic state is 2-A.
 Alpha  occ. eigenvalues --  -38.44189 -38.44084 -38.44017 -38.43796 -38.43724
 Alpha  occ. eigenvalues --  -38.43383 -38.43071  -2.20008  -2.19888  -2.19793
 Alpha  occ. eigenvalues --   -2.19686  -2.19613  -2.19230  -2.18914  -1.13681
 Alpha  occ. eigenvalues --   -1.13663  -1.13655  -1.13571  -1.13551  -1.13521
 Alpha  occ. eigenvalues --   -1.13470  -1.13440  -1.13437  -1.13371  -1.13327
 Alpha  occ. eigenvalues --   -1.13298  -1.13287  -1.13245  -1.13235  -1.12915
 Alpha  occ. eigenvalues --   -1.12887  -1.12854  -1.12596  -1.12593  -1.12537
 Alpha  occ. eigenvalues --   -0.18257  -0.13019  -0.12073  -0.10917
 Alpha virt. eigenvalues --   -0.05804  -0.05456  -0.04387  -0.03287  -0.02932
 Alpha virt. eigenvalues --   -0.02706  -0.01746  -0.01208  -0.00472  -0.00262
 Alpha virt. eigenvalues --   -0.00055   0.00338   0.00703   0.00832   0.00872

  Beta  occ. eigenvalues --  -38.44184 -38.44082 -38.44008 -38.43729 -38.43634
  Beta  occ. eigenvalues --  -38.43369 -38.43068  -2.20002  -2.19887  -2.19778
  Beta  occ. eigenvalues --   -2.19562  -2.19447  -2.19209  -2.18911  -1.13669
  Beta  occ. eigenvalues --   -1.13656  -1.13649  -1.13558  -1.13551  -1.13518
  Beta  occ. eigenvalues --   -1.13446  -1.13432  -1.13426  -1.13288  -1.13243
  Beta  occ. eigenvalues --   -1.13204  -1.13177  -1.13123  -1.13120  -1.12892
  Beta  occ. eigenvalues --   -1.12853  -1.12845  -1.12596  -1.12573  -1.12530
  Beta  occ. eigenvalues --   -0.17530  -0.12796  -0.11809
  Beta virt. eigenvalues --   -0.07066  -0.05696  -0.05448  -0.04304  -0.02590
  Beta virt. eigenvalues --   -0.02169  -0.01717  -0.01613  -0.01143  -0.00486
  Beta virt. eigenvalues --   -0.00296   0.00075   0.00367   0.00791   0.00830

 Mulliken charges and spin densities:
               1          2
     1  Na   0.135773  -0.021320
     2  Na   0.067591  -0.090915
     3  Na  -0.118260   0.603103
     4  Na  -0.197629   0.650732
     5  Na  -0.018304  -0.035005
     6  Na   0.001636  -0.083003
     7  Na   0.129192  -0.023591
 Sum of Mulliken charges =  -0.00000   1.00000

 Dipole moment (field-independent basis, Debye):
    X=             -0.1117    Y=              0.0039    Z=             -0.0721  Tot=              0.1330
 Quadrupole moment (field-independent basis, Debye-Ang):
   XX=            -54.7007   YY=            -65.7152   ZZ=            -73.3628
   XY=             -0.0528   XZ=              0.1032   YZ=              0.2918

 Normal termination of Gaussian 16 at Tue Dec  5 13:55:06 2023.
