 Gaussian 16, Revision B.01,
 Gaussian 16:  ES64L-G16RevB.01 20-Dec-2017

 -------------------------
 #P B3LYP/6-311+g(d) force
 -------------------------

 -----
 DPGEN
 -----
 Symbolic Z-matrix:
 Charge =  0 Multiplicity = 2

                         Standard orientation:
 ---------------------------------------------------------------------
 Center     Atomic      Atomic             Coordinates (Angstroms)
 Number     Number       Type             X           Y           Z
 ---------------------------------------------------------------------
      1         11           0       -0.935564    3.609929   -0.199715
      2         11           0        2.851668    0.069694    1.549334
      3         11           0        3.047867   -2.137037   -0.594477
      4         11           0       -0.122898   -3.732757   -0.782344
      5         11           0       -2.914102   -1.922153    0.792363
      6         11           0       -4.187087    0.878280   -0.178230
      7         11           0        2.260117    3.234043   -0.586931
 ---------------------------------------------------------------------

 SCF Done:  E(UB3LYP) =  -1136.10866217     A.U. after   20 cycles

 The electronic state is 2-A.
 Alpha  occ. eigenvalues --  -38.44691 -38.44690 -38.44562 -38.44560 -38.44433
 Alpha  occ. eigenvalues --  -38.44041 -38.43967  -2.20509  -2.20461  -2.20368
 Alpha  occ. eigenvalues --   -2.20334  -2.20218  -2.19838  -2.19765  -1.14236
 Alpha  occ. eigenvalues --   -1.14152  -1.14134  -1.14131  -1.14126  -1.14101
 Alpha  occ. eigenvalues --   -1.14031  -1.14018  -1.14016  -1.14010  -1.13995
 Alpha  occ. eigenvalues --   -1.13988  -1.13887  -1.13869  -1.13851  -1.13488
 Alpha  occ. eigenvalues --   -1.13480  -1.13474  -1.13417  -1.13402  -1.13389
 Alpha  occ. eigenvalues --   -0.15636  -0.13629  -0.13434  -0.10627
 Alpha virt. eigenvalues --   -0.07221  -0.05305  -0.04202  -0.03636  -0.03130
 Alpha virt. eigenvalues --   -0.02523  -0.02157  -0.01603  -0.01486  -0.01066
 Alpha virt. eigenvalues --   -0.00468   0.00052   0.00127   0.00420   0.00711

  Beta  occ. eigenvalues --  -38.44664 -38.44632 -38.44561 -38.44561 -38.44419
  Beta  occ. eigenvalues --  -38.43993 -38.43885  -2.20415  -2.20403  -2.20373
  Beta  occ. eigenvalues --   -2.20343  -2.20195  -2.19749  -2.19614  -1.14176
  Beta  occ. eigenvalues --   -1.14103  -1.14098  -1.14079  -1.14064  -1.14057
  Beta  occ. eigenvalues --   -1.14035  -1.14028  -1.14019  -1.14016  -1.13956
  Beta  occ. eigenvalues --   -1.13950  -1.13874  -1.13857  -1.13814  -1.13427
  Beta  occ. eigenvalues --   -1.13421  -1.13413  -1.13314  -1.13301  -1.13291
  Beta  occ. eigenvalues --   -0.15111  -0.12964  -0.12697
  Beta virt. eigenvalues --   -0.07497  -0.07278  -0.05036  -0.03696  -0.03410
  Beta virt. eigenvalues --   -0.02751  -0.02276  -0.01871  -0.01503  -0.01308
  Beta virt. eigenvalues --   -0.00805  -0.00188   0.00199   0.00332   0.00412

 Mulliken charges and spin densities:
               1          2
     1  Na  -0.122768   0.067199
     2  Na  -0.120798   0.317634
     3  Na   0.164871  -0.036314
     4  Na  -0.022082   0.407073
     5  Na  -0.229069  -0.049161
     6  Na   0.180551   0.238396
     7  Na   0.149295   0.055172
 Sum of Mulliken charges =  -0.00000   1.00000

 Dipole moment (field-independent basis, Debye):
    X=              0.6545    Y=              0.4749    Z=              0.0449  Tot=              0.8098
 Quadrupole moment (field-independent basis, Debye-Ang):
   XX=            -65.1274   YY=            -69.8176   ZZ=            -68.0848
   XY=             -2.2161   XZ=             -2.1938   YZ=             -0.1370

 Normal termination of Gaussian 16 at Sun Dec  3 19:50:07 2023.
