 Gaussian 16, Revision B.01,
 Gaussian 16:  ES64L-G16RevB.01 20-Dec-2017

 -------------------------
 #P B3LYP/6-311+g(d) force
 -------------------------

 -----
 DPGEN
 -----
 Symbolic Z-matrix:
 Charge =  0 Multiplicity = 2

                         Standard orientation:
 ---------------------------------------------------------------------
 Center     Atomic      Atomic             Coordinates (Angstroms)
 Number     Number       Type             X           Y           Z
 ---------------------------------------------------------------------
      1         11           0       -0.740669    2.360597    0.679801
      2         11           0       -3.884666   -0.034925    0.996217
      3         11           0       -2.421352   -0.689100   -2.220465
      4         11           0        0.884811   -2.419975   -1.112748
      5         11           0        0.534788   -1.244984    2.409889
      6         11           0        2.045259    2.937787   -0.903807
      7         11           0        3.581830   -0.909400    0.151113
 ---------------------------------------------------------------------

 SCF Done:  E(UB3LYP) =  -1136.11318768     A.U. after   20 cycles

 The electronic state is 2-A.
 Alpha  occ. eigenvalues --  -38.45258 -38.45196 -38.45066 -38.44604 -38.44242
 Alpha  occ. eigenvalues --  -38.43509 -38.42988  -2.21023  -2.20973  -2.20805
 Alpha  occ. eigenvalues --   -2.20372  -2.20035  -2.19287  -2.18772  -1.14713
 Alpha  occ. eigenvalues --   -1.14677  -1.14657  -1.14632  -1.14623  -1.14568
 Alpha  occ. eigenvalues --   -1.14479  -1.14466  -1.14450  -1.14034  -1.14025
 Alpha  occ. eigenvalues --   -1.13991  -1.13716  -1.13707  -1.13654  -1.12979
 Alpha  occ. eigenvalues --   -1.12974  -1.12914  -1.12436  -1.12421  -1.12415
 Alpha  occ. eigenvalues --   -0.16510  -0.13119  -0.11797  -0.11108
 Alpha virt. eigenvalues --   -0.06960  -0.05574  -0.04801  -0.03628  -0.03209
 Alpha virt. eigenvalues --   -0.02672  -0.02159  -0.01077  -0.00958  -0.00514
 Alpha virt. eigenvalues --   -0.00226  -0.00192   0.00175   0.00320   0.00595

  Beta  occ. eigenvalues --  -38.45261 -38.45107 -38.45069 -38.44551 -38.44221
  Beta  occ. eigenvalues --  -38.43511 -38.42973  -2.21029  -2.20812  -2.20808
  Beta  occ. eigenvalues --   -2.20275  -2.19997  -2.19292  -2.18744  -1.14711
  Beta  occ. eigenvalues --   -1.14681  -1.14658  -1.14521  -1.14512  -1.14484
  Beta  occ. eigenvalues --   -1.14460  -1.14456  -1.14451  -1.13968  -1.13957
  Beta  occ. eigenvalues --   -1.13923  -1.13688  -1.13681  -1.13616  -1.12981
  Beta  occ. eigenvalues --   -1.12969  -1.12916  -1.12416  -1.12406  -1.12395
  Beta  occ. eigenvalues --   -0.15873  -0.13084  -0.11512
  Beta virt. eigenvalues --   -0.07592  -0.06615  -0.04991  -0.04507  -0.03359
  Beta virt. eigenvalues --   -0.02654  -0.02222  -0.02012  -0.00985  -0.00629
  Beta virt. eigenvalues --   -0.00349  -0.00112   0.00031   0.00263   0.00468

 Mulliken charges and spin densities:
               1          2
     1  Na  -0.340318   0.133360
     2  Na   0.228558  -0.000343
     3  Na   0.017390   0.189308
     4  Na  -0.133947   0.252123
     5  Na  -0.072659   0.329508
     6  Na   0.001376   0.035594
     7  Na   0.299600   0.060449
 Sum of Mulliken charges =  -0.00000   1.00000

 Dipole moment (field-independent basis, Debye):
    X=             -0.0008    Y=             -1.1501    Z=              0.3908  Tot=              1.2147
 Quadrupole moment (field-independent basis, Debye-Ang):
   XX=            -52.9539   YY=            -78.3460   ZZ=            -67.1640
   XY=             -2.2330   XZ=             -2.6202   YZ=             -1.0091

 Normal termination of Gaussian 16 at Sun Dec  3 20:51:41 2023.
