 Gaussian 16, Revision B.01,
 Gaussian 16:  ES64L-G16RevB.01 20-Dec-2017

 -------------------------
 #P B3LYP/6-311+g(d) force
 -------------------------

 -----
 DPGEN
 -----
 Symbolic Z-matrix:
 Charge =  0 Multiplicity = 2

                         Standard orientation:
 ---------------------------------------------------------------------
 Center     Atomic      Atomic             Coordinates (Angstroms)
 Number     Number       Type             X           Y           Z
 ---------------------------------------------------------------------
      1         11           0       -2.688265    1.479460   -0.834836
      2         11           0       -0.560184    3.342811    0.545789
      3         11           0        3.388218   -0.272605    1.432921
      4         11           0       -4.808309   -1.381282    0.167744
      5         11           0        6.044873   -0.969092   -0.857432
      6         11           0        0.699659    0.513071   -0.629339
      7         11           0       -2.075992   -2.712363    0.175152
 ---------------------------------------------------------------------

 SCF Done:  E(UB3LYP) =  -1136.11380410     A.U. after   20 cycles

 The electronic state is 2-A.
 Alpha  occ. eigenvalues --  -38.44543 -38.44420 -38.44171 -38.44161 -38.44128
 Alpha  occ. eigenvalues --  -38.43979 -38.43954  -2.20348  -2.20255  -2.19997
 Alpha  occ. eigenvalues --   -2.19985  -2.19937  -2.19833  -2.19716  -1.14045
 Alpha  occ. eigenvalues --   -1.14008  -1.13990  -1.13943  -1.13912  -1.13907
 Alpha  occ. eigenvalues --   -1.13677  -1.13652  -1.13649  -1.13644  -1.13632
 Alpha  occ. eigenvalues --   -1.13585  -1.13584  -1.13570  -1.13544  -1.13521
 Alpha  occ. eigenvalues --   -1.13496  -1.13443  -1.13399  -1.13381  -1.13357
 Alpha  occ. eigenvalues --   -0.16589  -0.13627  -0.12623  -0.10320
 Alpha virt. eigenvalues --   -0.06325  -0.06059  -0.04669  -0.03674  -0.02870
 Alpha virt. eigenvalues --   -0.02401  -0.01943  -0.01484  -0.01090  -0.00892
 Alpha virt. eigenvalues --   -0.00391  -0.00249   0.00147   0.00272   0.00587

  Beta  occ. eigenvalues --  -38.44521 -38.44415 -38.44163 -38.44094 -38.44073
  Beta  occ. eigenvalues --  -38.43974 -38.43938  -2.20306  -2.20248  -2.19982
  Beta  occ. eigenvalues --   -2.19923  -2.19772  -2.19758  -2.19755  -1.14016
  Beta  occ. eigenvalues --   -1.13980  -1.13959  -1.13933  -1.13905  -1.13895
  Beta  occ. eigenvalues --   -1.13641  -1.13630  -1.13623  -1.13622  -1.13606
  Beta  occ. eigenvalues --   -1.13530  -1.13473  -1.13472  -1.13470  -1.13446
  Beta  occ. eigenvalues --   -1.13441  -1.13430  -1.13420  -1.13380  -1.13348
  Beta  occ. eigenvalues --   -0.16121  -0.13389  -0.12167
  Beta virt. eigenvalues --   -0.07086  -0.06023  -0.05379  -0.04391  -0.03416
  Beta virt. eigenvalues --   -0.02608  -0.02293  -0.01728  -0.01135  -0.00992
  Beta virt. eigenvalues --   -0.00498  -0.00197   0.00020   0.00339   0.00464

 Mulliken charges and spin densities:
               1          2
     1  Na   0.429708   0.462710
     2  Na   0.525215   0.095371
     3  Na   0.145252  -0.066851
     4  Na   0.140910   0.013186
     5  Na   0.078496   0.452257
     6  Na  -1.377930  -0.102930
     7  Na   0.058350   0.146256
 Sum of Mulliken charges =  -0.00000   1.00000

 Dipole moment (field-independent basis, Debye):
    X=             -1.3160    Y=              0.5674    Z=              0.3510  Tot=              1.4755
 Quadrupole moment (field-independent basis, Debye-Ang):
   XX=            -70.1912   YY=            -65.9170   ZZ=            -66.2552
   XY=              2.8124   XZ=             -1.9403   YZ=              3.1779

 Normal termination of Gaussian 16 at Tue Nov 28 21:50:08 2023.
