 Gaussian 16, Revision B.01,
 Gaussian 16:  ES64L-G16RevB.01 20-Dec-2017

 -------------------------
 #P B3LYP/6-311+g(d) force
 -------------------------

 -----
 DPGEN
 -----
 Symbolic Z-matrix:
 Charge =  0 Multiplicity = 2

                         Standard orientation:
 ---------------------------------------------------------------------
 Center     Atomic      Atomic             Coordinates (Angstroms)
 Number     Number       Type             X           Y           Z
 ---------------------------------------------------------------------
      1         11           0        3.013159    0.236042   -1.411656
      2         11           0        1.524290   -1.003961    2.043006
      3         11           0        1.400218   -2.045553   -1.113484
      4         11           0       -0.739107    1.253743   -0.967749
      5         11           0       -1.885219   -1.464295    0.743370
      6         11           0       -5.070893    0.507499   -0.313826
      7         11           0        1.757552    2.516524    1.020339
 ---------------------------------------------------------------------

 SCF Done:  E(UB3LYP) =  -1136.11436394     A.U. after   26 cycles

 The electronic state is 2-A.
 Alpha  occ. eigenvalues --  -38.45612 -38.44887 -38.44617 -38.44253 -38.43949
 Alpha  occ. eigenvalues --  -38.43285 -38.42885  -2.21328  -2.20681  -2.20527
 Alpha  occ. eigenvalues --   -2.20110  -2.19758  -2.19216  -2.18720  -1.15004
 Alpha  occ. eigenvalues --   -1.14998  -1.14941  -1.14396  -1.14377  -1.14301
 Alpha  occ. eigenvalues --   -1.14268  -1.14160  -1.14104  -1.13774  -1.13759
 Alpha  occ. eigenvalues --   -1.13723  -1.13477  -1.13448  -1.13331  -1.12921
 Alpha  occ. eigenvalues --   -1.12852  -1.12815  -1.12388  -1.12379  -1.12353
 Alpha  occ. eigenvalues --   -0.18084  -0.13299  -0.11602  -0.11363
 Alpha virt. eigenvalues --   -0.07528  -0.04740  -0.03845  -0.03363  -0.03013
 Alpha virt. eigenvalues --   -0.03002  -0.02654  -0.01378  -0.00925  -0.00184
 Alpha virt. eigenvalues --   -0.00089  -0.00052   0.00208   0.00737   0.00846

  Beta  occ. eigenvalues --  -38.45604 -38.44885 -38.44553 -38.44183 -38.43937
  Beta  occ. eigenvalues --  -38.43250 -38.42862  -2.21313  -2.20679  -2.20414
  Beta  occ. eigenvalues --   -2.19981  -2.19737  -2.19159  -2.18679  -1.14994
  Beta  occ. eigenvalues --   -1.14988  -1.14931  -1.14392  -1.14366  -1.14271
  Beta  occ. eigenvalues --   -1.14213  -1.14080  -1.14021  -1.13680  -1.13676
  Beta  occ. eigenvalues --   -1.13626  -1.13466  -1.13428  -1.13309  -1.12876
  Beta  occ. eigenvalues --   -1.12817  -1.12747  -1.12360  -1.12346  -1.12322
  Beta  occ. eigenvalues --   -0.17383  -0.13024  -0.11265
  Beta virt. eigenvalues --   -0.07654  -0.07200  -0.04601  -0.03602  -0.03042
  Beta virt. eigenvalues --   -0.02730  -0.02520  -0.01761  -0.01255  -0.00611
  Beta virt. eigenvalues --   -0.00086  -0.00029   0.00013   0.00328   0.00782

 Mulliken charges and spin densities:
               1          2
     1  Na   0.302640   0.179954
     2  Na  -0.305551   0.499326
     3  Na   0.202027   0.143447
     4  Na  -0.853315   0.201344
     5  Na   0.013568  -0.073545
     6  Na   0.278450   0.046331
     7  Na   0.362181   0.003144
 Sum of Mulliken charges =  -0.00000   1.00000

 Dipole moment (field-independent basis, Debye):
    X=             -1.0640    Y=              0.0838    Z=              0.1725  Tot=              1.0811
 Quadrupole moment (field-independent basis, Debye-Ang):
   XX=            -49.0398   YY=            -75.7459   ZZ=            -68.5438
   XY=             -0.9324   XZ=              1.7116   YZ=             -0.2750

 Normal termination of Gaussian 16 at Tue Dec  5 21:44:49 2023.
