 Gaussian 16, Revision B.01,
 Gaussian 16:  ES64L-G16RevB.01 20-Dec-2017

 -------------------------
 #P B3LYP/6-311+g(d) force
 -------------------------

 -----
 DPGEN
 -----
 Symbolic Z-matrix:
 Charge =  0 Multiplicity = 2

                         Standard orientation:
 ---------------------------------------------------------------------
 Center     Atomic      Atomic             Coordinates (Angstroms)
 Number     Number       Type             X           Y           Z
 ---------------------------------------------------------------------
      1         11           0       -0.613154    1.791727    0.292779
      2         11           0        2.644577    3.441930   -0.286258
      3         11           0        2.581513    0.387942    0.635690
      4         11           0        3.293464   -2.884062   -0.944208
      5         11           0        0.294063   -2.350682    1.215009
      6         11           0       -2.686604   -0.335516   -1.056248
      7         11           0       -5.513859   -0.051340    0.143236
 ---------------------------------------------------------------------

 SCF Done:  E(UB3LYP) =  -1136.11880511     A.U. after   20 cycles

 The electronic state is 2-A.
 Alpha  occ. eigenvalues --  -38.44651 -38.44398 -38.44273 -38.44130 -38.43811
 Alpha  occ. eigenvalues --  -38.43675 -38.43632  -2.20422  -2.20170  -2.20104
 Alpha  occ. eigenvalues --   -2.19955  -2.19679  -2.19522  -2.19451  -1.14118
 Alpha  occ. eigenvalues --   -1.14083  -1.14030  -1.13836  -1.13831  -1.13806
 Alpha  occ. eigenvalues --   -1.13780  -1.13777  -1.13703  -1.13627  -1.13585
 Alpha  occ. eigenvalues --   -1.13580  -1.13397  -1.13373  -1.13297  -1.13208
 Alpha  occ. eigenvalues --   -1.13180  -1.13158  -1.13108  -1.13106  -1.13062
 Alpha  occ. eigenvalues --   -0.16679  -0.13778  -0.12486  -0.10399
 Alpha virt. eigenvalues --   -0.06509  -0.05367  -0.04812  -0.03313  -0.03059
 Alpha virt. eigenvalues --   -0.02572  -0.01576  -0.01306  -0.01152  -0.00716
 Alpha virt. eigenvalues --   -0.00654  -0.00042   0.00307   0.00412   0.00468

  Beta  occ. eigenvalues --  -38.44632 -38.44359 -38.44244 -38.44044 -38.43801
  Beta  occ. eigenvalues --  -38.43676 -38.43614  -2.20389  -2.20096  -2.20052
  Beta  occ. eigenvalues --   -2.19794  -2.19663  -2.19533  -2.19416  -1.14097
  Beta  occ. eigenvalues --   -1.14059  -1.13997  -1.13786  -1.13775  -1.13772
  Beta  occ. eigenvalues --   -1.13738  -1.13731  -1.13669  -1.13528  -1.13475
  Beta  occ. eigenvalues --   -1.13470  -1.13377  -1.13343  -1.13287  -1.13212
  Beta  occ. eigenvalues --   -1.13190  -1.13120  -1.13082  -1.13079  -1.13043
  Beta  occ. eigenvalues --   -0.16146  -0.13108  -0.12307
  Beta virt. eigenvalues --   -0.07172  -0.05928  -0.05118  -0.04555  -0.02976
  Beta virt. eigenvalues --   -0.02805  -0.02392  -0.01417  -0.01078  -0.00845
  Beta virt. eigenvalues --   -0.00433  -0.00276   0.00163   0.00436   0.00515

 Mulliken charges and spin densities:
               1          2
     1  Na  -0.669898  -0.084734
     2  Na   0.719985   0.115878
     3  Na  -0.403377   0.298524
     4  Na   0.240422   0.218621
     5  Na  -0.032736   0.063066
     6  Na  -0.046412  -0.049590
     7  Na   0.192016   0.438235
 Sum of Mulliken charges =  -0.00000   1.00000

 Dipole moment (field-independent basis, Debye):
    X=              0.3932    Y=             -0.2694    Z=              0.0832  Tot=              0.4838
 Quadrupole moment (field-independent basis, Debye-Ang):
   XX=            -70.7332   YY=            -62.8791   ZZ=            -66.7680
   XY=             -0.0299   XZ=             -6.1678   YZ=             -0.0115

 Normal termination of Gaussian 16 at Wed Nov 29 00:17:47 2023.
