 Gaussian 16, Revision B.01,
 Gaussian 16:  ES64L-G16RevB.01 20-Dec-2017

 -------------------------
 #P B3LYP/6-311+g(d) force
 -------------------------

 -----
 DPGEN
 -----
 Symbolic Z-matrix:
 Charge =  0 Multiplicity = 2

                         Standard orientation:
 ---------------------------------------------------------------------
 Center     Atomic      Atomic             Coordinates (Angstroms)
 Number     Number       Type             X           Y           Z
 ---------------------------------------------------------------------
      1         11           0        2.590289    1.541542   -1.293967
      2         11           0        3.911911   -1.539721    0.168682
      3         11           0        1.119522    0.586360    1.810676
      4         11           0       -2.427567   -0.246874    1.705431
      5         11           0       -3.823338   -0.734503   -1.103407
      6         11           0       -1.182798    1.970146   -0.345888
      7         11           0       -0.188020   -1.576949   -0.941527
 ---------------------------------------------------------------------

 SCF Done:  E(UB3LYP) =  -1136.12038495     A.U. after   29 cycles

 The electronic state is 2-A.
 Alpha  occ. eigenvalues --  -38.45462 -38.44642 -38.44314 -38.44118 -38.43976
 Alpha  occ. eigenvalues --  -38.43204 -38.43184  -2.21225  -2.20449  -2.20219
 Alpha  occ. eigenvalues --   -2.19889  -2.19810  -2.19079  -2.19060  -1.14943
 Alpha  occ. eigenvalues --   -1.14921  -1.14812  -1.14129  -1.14096  -1.14058
 Alpha  occ. eigenvalues --   -1.13907  -1.13886  -1.13838  -1.13559  -1.13553
 Alpha  occ. eigenvalues --   -1.13515  -1.13482  -1.13458  -1.13432  -1.12790
 Alpha  occ. eigenvalues --   -1.12757  -1.12736  -1.12723  -1.12693  -1.12661
 Alpha  occ. eigenvalues --   -0.18125  -0.14234  -0.10875  -0.10833
 Alpha virt. eigenvalues --   -0.07072  -0.05589  -0.04987  -0.03015  -0.02814
 Alpha virt. eigenvalues --   -0.02433  -0.02110  -0.01358  -0.01160  -0.00368
 Alpha virt. eigenvalues --    0.00013   0.00229   0.00269   0.00340   0.00496

  Beta  occ. eigenvalues --  -38.45461 -38.44593 -38.44278 -38.44100 -38.43960
  Beta  occ. eigenvalues --  -38.43169 -38.43168  -2.21228  -2.20357  -2.20155
  Beta  occ. eigenvalues --   -2.19857  -2.19780  -2.19034  -2.19016  -1.14930
  Beta  occ. eigenvalues --   -1.14917  -1.14818  -1.14065  -1.14038  -1.13985
  Beta  occ. eigenvalues --   -1.13859  -1.13841  -1.13787  -1.13535  -1.13528
  Beta  occ. eigenvalues --   -1.13496  -1.13459  -1.13436  -1.13413  -1.12759
  Beta  occ. eigenvalues --   -1.12728  -1.12689  -1.12679  -1.12655  -1.12626
  Beta  occ. eigenvalues --   -0.17529  -0.13964  -0.10618
  Beta virt. eigenvalues --   -0.07184  -0.06954  -0.05151  -0.04567  -0.02806
  Beta virt. eigenvalues --   -0.02745  -0.01903  -0.01494  -0.01187  -0.00662
  Beta virt. eigenvalues --   -0.00227   0.00050   0.00243   0.00387   0.00493

 Mulliken charges and spin densities:
               1          2
     1  Na   0.112572   0.189032
     2  Na   0.326776   0.065463
     3  Na  -0.204157   0.322687
     4  Na   0.380899   0.015608
     5  Na   0.545044   0.078903
     6  Na  -0.367058   0.267028
     7  Na  -0.794077   0.061280
 Sum of Mulliken charges =  -0.00000   1.00000

 Dipole moment (field-independent basis, Debye):
    X=             -0.1332    Y=              0.2235    Z=             -0.0147  Tot=              0.2606
 Quadrupole moment (field-independent basis, Debye-Ang):
   XX=            -52.5587   YY=            -74.9200   ZZ=            -69.8593
   XY=             -0.0195   XZ=             -1.0092   YZ=             -3.5503

 Normal termination of Gaussian 16 at Fri Dec  8 04:58:29 2023.
