 Gaussian 16, Revision B.01,
 Gaussian 16:  ES64L-G16RevB.01 20-Dec-2017

 -------------------------
 #P B3LYP/6-311+g(d) force
 -------------------------

 -----
 DPGEN
 -----
 Symbolic Z-matrix:
 Charge =  0 Multiplicity = 2

                         Standard orientation:
 ---------------------------------------------------------------------
 Center     Atomic      Atomic             Coordinates (Angstroms)
 Number     Number       Type             X           Y           Z
 ---------------------------------------------------------------------
      1         11           0       -4.957875   -0.390021    0.068170
      2         11           0        0.733256    3.884344   -0.285753
      3         11           0       -1.391077   -2.159693    0.628821
      4         11           0       -2.812503    1.629374   -0.398352
      5         11           0        0.996152   -3.384915   -0.367298
      6         11           0        4.214183   -1.190499   -0.474427
      7         11           0        3.217863    1.611409    0.828839
 ---------------------------------------------------------------------

 SCF Done:  E(UB3LYP) =  -1136.10941537     A.U. after   20 cycles

 The electronic state is 2-A.
 Alpha  occ. eigenvalues --  -38.45003 -38.44657 -38.44631 -38.44529 -38.44350
 Alpha  occ. eigenvalues --  -38.43943 -38.43681  -2.20804  -2.20469  -2.20463
 Alpha  occ. eigenvalues --   -2.20370  -2.20130  -2.19722  -2.19520  -1.14520
 Alpha  occ. eigenvalues --   -1.14476  -1.14464  -1.14131  -1.14111  -1.14110
 Alpha  occ. eigenvalues --   -1.14105  -1.14104  -1.14078  -1.14076  -1.14021
 Alpha  occ. eigenvalues --   -1.13997  -1.13811  -1.13803  -1.13772  -1.13377
 Alpha  occ. eigenvalues --   -1.13363  -1.13350  -1.13209  -1.13159  -1.13133
 Alpha  occ. eigenvalues --   -0.15849  -0.14228  -0.13032  -0.11123
 Alpha virt. eigenvalues --   -0.06721  -0.05303  -0.04161  -0.03757  -0.03220
 Alpha virt. eigenvalues --   -0.02450  -0.02268  -0.01670  -0.01301  -0.00924
 Alpha virt. eigenvalues --   -0.00417  -0.00239   0.00399   0.00528   0.00564

  Beta  occ. eigenvalues --  -38.44997 -38.44588 -38.44582 -38.44489 -38.44352
  Beta  occ. eigenvalues --  -38.43880 -38.43666  -2.20798  -2.20390  -2.20325
  Beta  occ. eigenvalues --   -2.20300  -2.20139  -2.19605  -2.19497  -1.14485
  Beta  occ. eigenvalues --   -1.14472  -1.14462  -1.14053  -1.14050  -1.14045
  Beta  occ. eigenvalues --   -1.14036  -1.14027  -1.14017  -1.13987  -1.13976
  Beta  occ. eigenvalues --   -1.13947  -1.13823  -1.13814  -1.13736  -1.13297
  Beta  occ. eigenvalues --   -1.13282  -1.13276  -1.13174  -1.13147  -1.13113
  Beta  occ. eigenvalues --   -0.15371  -0.13515  -0.12285
  Beta virt. eigenvalues --   -0.07950  -0.06708  -0.04909  -0.03763  -0.03555
  Beta virt. eigenvalues --   -0.02824  -0.02277  -0.02005  -0.01367  -0.01120
  Beta virt. eigenvalues --   -0.00490  -0.00185  -0.00057   0.00444   0.00557

 Mulliken charges and spin densities:
               1          2
     1  Na   1.223604   0.171052
     2  Na   0.040963   0.246219
     3  Na  -0.898758   0.162082
     4  Na  -0.792891   0.157132
     5  Na   0.662675  -0.045482
     6  Na   0.019158   0.354924
     7  Na  -0.254752  -0.045927
 Sum of Mulliken charges =  -0.00000   1.00000

 Dipole moment (field-independent basis, Debye):
    X=             -1.0597    Y=             -0.4531    Z=             -0.1341  Tot=              1.1602
 Quadrupole moment (field-independent basis, Debye-Ang):
   XX=            -57.5872   YY=            -69.3901   ZZ=            -71.2278
   XY=             -0.8624   XZ=             -1.7627   YZ=              0.4726

 Normal termination of Gaussian 16 at Sun Dec  3 19:12:55 2023.
