 Gaussian 16, Revision B.01,
 Gaussian 16:  ES64L-G16RevB.01 20-Dec-2017

 -------------------------
 #P B3LYP/6-311+g(d) force
 -------------------------

 -----
 DPGEN
 -----
 Symbolic Z-matrix:
 Charge =  0 Multiplicity = 2

                         Standard orientation:
 ---------------------------------------------------------------------
 Center     Atomic      Atomic             Coordinates (Angstroms)
 Number     Number       Type             X           Y           Z
 ---------------------------------------------------------------------
      1         11           0        0.670803   -1.187793    1.988956
      2         11           0        1.653258   -1.466038   -1.808898
      3         11           0       -1.537102    3.270218    0.035317
      4         11           0        0.717716    1.613984   -0.477244
      5         11           0        3.324781    0.192606    0.563060
      6         11           0       -1.185579   -0.968398   -0.372764
      7         11           0       -3.643878   -1.454578    0.071573
 ---------------------------------------------------------------------

 SCF Done:  E(UB3LYP) =  -1136.10013266     A.U. after   21 cycles

 The electronic state is 2-A.
 Alpha  occ. eigenvalues --  -38.45705 -38.45148 -38.44881 -38.44250 -38.43654
 Alpha  occ. eigenvalues --  -38.43172 -38.42577  -2.21557  -2.21029  -2.20770
 Alpha  occ. eigenvalues --   -2.20156  -2.19739  -2.19001  -2.18597  -1.15501
 Alpha  occ. eigenvalues --   -1.15146  -1.15136  -1.14716  -1.14688  -1.14662
 Alpha  occ. eigenvalues --   -1.14488  -1.14393  -1.14356  -1.13846  -1.13785
 Alpha  occ. eigenvalues --   -1.13756  -1.13455  -1.13362  -1.13276  -1.12805
 Alpha  occ. eigenvalues --   -1.12640  -1.12621  -1.12283  -1.12236  -1.12193
 Alpha  occ. eigenvalues --   -0.19027  -0.13508  -0.11828  -0.11408
 Alpha virt. eigenvalues --   -0.07071  -0.05238  -0.03679  -0.03395  -0.02807
 Alpha virt. eigenvalues --   -0.02535  -0.02351  -0.01044  -0.00460  -0.00016
 Alpha virt. eigenvalues --    0.00074   0.00176   0.00219   0.00632   0.00897

  Beta  occ. eigenvalues --  -38.45719 -38.45128 -38.44799 -38.44164 -38.43633
  Beta  occ. eigenvalues --  -38.43180 -38.42563  -2.21582  -2.20997  -2.20621
  Beta  occ. eigenvalues --   -2.19998  -2.19705  -2.19017  -2.18573  -1.15517
  Beta  occ. eigenvalues --   -1.15159  -1.15153  -1.14698  -1.14648  -1.14621
  Beta  occ. eigenvalues --   -1.14387  -1.14285  -1.14252  -1.13734  -1.13671
  Beta  occ. eigenvalues --   -1.13652  -1.13445  -1.13287  -1.13253  -1.12814
  Beta  occ. eigenvalues --   -1.12648  -1.12632  -1.12267  -1.12207  -1.12168
  Beta  occ. eigenvalues --   -0.18200  -0.13394  -0.11738
  Beta virt. eigenvalues --   -0.07221  -0.06913  -0.04991  -0.03399  -0.02980
  Beta virt. eigenvalues --   -0.02452  -0.01903  -0.01764  -0.00892  -0.00199
  Beta virt. eigenvalues --    0.00074   0.00085   0.00303   0.00371   0.00677

 Mulliken charges and spin densities:
               1          2
     1  Na  -0.323510   0.344622
     2  Na   0.380408   0.134068
     3  Na   0.003766  -0.146734
     4  Na  -0.467469   0.474327
     5  Na   0.955267   0.076390
     6  Na  -0.753347   0.152045
     7  Na   0.204884  -0.034719
 Sum of Mulliken charges =  -0.00000   1.00000

 Dipole moment (field-independent basis, Debye):
    X=              0.3447    Y=             -0.8595    Z=              0.4663  Tot=              1.0369
 Quadrupole moment (field-independent basis, Debye-Ang):
   XX=            -48.1413   YY=            -73.1363   ZZ=            -71.2215
   XY=              0.0613   XZ=             -1.1625   YZ=              1.6145

 Normal termination of Gaussian 16 at Thu Dec  7 04:16:52 2023.
