 Gaussian 16, Revision B.01,
 Gaussian 16:  ES64L-G16RevB.01 20-Dec-2017

 -------------------------
 #P B3LYP/6-311+g(d) force
 -------------------------

 -----
 DPGEN
 -----
 Symbolic Z-matrix:
 Charge =  0 Multiplicity = 2

                         Standard orientation:
 ---------------------------------------------------------------------
 Center     Atomic      Atomic             Coordinates (Angstroms)
 Number     Number       Type             X           Y           Z
 ---------------------------------------------------------------------
      1         11           0       -2.748240    0.252912    1.565050
      2         11           0       -0.030809   -1.251183   -0.890094
      3         11           0        2.943412    1.075443   -1.008160
      4         11           0       -0.580863    2.164195   -1.093547
      5         11           0       -3.553652   -1.043956   -1.021281
      6         11           0        0.965504    0.668868    2.147376
      7         11           0        3.004647   -1.866278    0.300655
 ---------------------------------------------------------------------

 SCF Done:  E(UB3LYP) =  -1136.12205110     A.U. after   27 cycles

 The electronic state is 2-A.
 Alpha  occ. eigenvalues --  -38.44998 -38.44761 -38.44238 -38.44094 -38.44075
 Alpha  occ. eigenvalues --  -38.43151 -38.42975  -2.20837  -2.20611  -2.20110
 Alpha  occ. eigenvalues --   -2.19930  -2.19919  -2.19015  -2.18802  -1.14519
 Alpha  occ. eigenvalues --   -1.14495  -1.14456  -1.14310  -1.14275  -1.14234
 Alpha  occ. eigenvalues --   -1.13824  -1.13786  -1.13727  -1.13616  -1.13598
 Alpha  occ. eigenvalues --   -1.13561  -1.13555  -1.13549  -1.13540  -1.12685
 Alpha  occ. eigenvalues --   -1.12674  -1.12658  -1.12504  -1.12439  -1.12426
 Alpha  occ. eigenvalues --   -0.18229  -0.14275  -0.11378  -0.10882
 Alpha virt. eigenvalues --   -0.06829  -0.05322  -0.04818  -0.03274  -0.02823
 Alpha virt. eigenvalues --   -0.02507  -0.02154  -0.01034  -0.00847  -0.00345
 Alpha virt. eigenvalues --    0.00000   0.00205   0.00265   0.00471   0.00790

  Beta  occ. eigenvalues --  -38.44977 -38.44733 -38.44214 -38.44070 -38.44023
  Beta  occ. eigenvalues --  -38.43147 -38.42947  -2.20799  -2.20560  -2.20070
  Beta  occ. eigenvalues --   -2.19909  -2.19799  -2.19008  -2.18752  -1.14481
  Beta  occ. eigenvalues --   -1.14470  -1.14430  -1.14265  -1.14237  -1.14204
  Beta  occ. eigenvalues --   -1.13776  -1.13753  -1.13702  -1.13590  -1.13549
  Beta  occ. eigenvalues --   -1.13537  -1.13527  -1.13465  -1.13447  -1.12681
  Beta  occ. eigenvalues --   -1.12671  -1.12644  -1.12465  -1.12398  -1.12390
  Beta  occ. eigenvalues --   -0.17554  -0.14136  -0.10629
  Beta virt. eigenvalues --   -0.07517  -0.06669  -0.04985  -0.04369  -0.02885
  Beta virt. eigenvalues --   -0.02519  -0.02178  -0.01557  -0.00787  -0.00512
  Beta virt. eigenvalues --   -0.00240   0.00060   0.00255   0.00378   0.00570

 Mulliken charges and spin densities:
               1          2
     1  Na   0.019642   0.063971
     2  Na  -1.414735   0.348748
     3  Na   0.279368   0.068048
     4  Na  -0.197171   0.156065
     5  Na   0.525461   0.001820
     6  Na  -0.328272   0.373015
     7  Na   1.115707  -0.011668
 Sum of Mulliken charges =  -0.00000   1.00000

 Dipole moment (field-independent basis, Debye):
    X=              0.0049    Y=              0.5472    Z=              0.0533  Tot=              0.5498
 Quadrupole moment (field-independent basis, Debye-Ang):
   XX=            -51.4717   YY=            -77.2077   ZZ=            -67.7955
   XY=              1.3249   XZ=             -0.2388   YZ=             -1.3089

 Normal termination of Gaussian 16 at Fri Dec  8 02:14:47 2023.
