 Gaussian 16, Revision B.01,
 Gaussian 16:  ES64L-G16RevB.01 20-Dec-2017

 -------------------------
 #P B3LYP/6-311+g(d) force
 -------------------------

 -----
 DPGEN
 -----
 Symbolic Z-matrix:
 Charge =  0 Multiplicity = 2

                         Standard orientation:
 ---------------------------------------------------------------------
 Center     Atomic      Atomic             Coordinates (Angstroms)
 Number     Number       Type             X           Y           Z
 ---------------------------------------------------------------------
      1         11           0        0.772458   -1.446413   -1.284329
      2         11           0        2.340899    0.647576    1.031885
      3         11           0       -0.828101   -1.444978    2.188146
      4         11           0       -0.431483    3.156838   -0.069598
      5         11           0       -3.494845    1.639717   -0.498522
      6         11           0        4.522268   -0.250892   -0.719123
      7         11           0       -2.881196   -2.301848   -0.648458
 ---------------------------------------------------------------------

 SCF Done:  E(UB3LYP) =  -1136.11425723     A.U. after   21 cycles

 The electronic state is 2-A.
 Alpha  occ. eigenvalues --  -38.45765 -38.44719 -38.44527 -38.44071 -38.44040
 Alpha  occ. eigenvalues --  -38.44001 -38.43249  -2.21523  -2.20556  -2.20325
 Alpha  occ. eigenvalues --   -2.19953  -2.19823  -2.19764  -2.19010  -1.15229
 Alpha  occ. eigenvalues --   -1.15217  -1.15110  -1.14290  -1.14190  -1.14169
 Alpha  occ. eigenvalues --   -1.13985  -1.13972  -1.13938  -1.13628  -1.13601
 Alpha  occ. eigenvalues --   -1.13587  -1.13500  -1.13478  -1.13453  -1.13442
 Alpha  occ. eigenvalues --   -1.13417  -1.13393  -1.12691  -1.12673  -1.12650
 Alpha  occ. eigenvalues --   -0.16981  -0.13770  -0.11669  -0.10729
 Alpha virt. eigenvalues --   -0.07044  -0.05706  -0.04791  -0.03486  -0.02762
 Alpha virt. eigenvalues --   -0.02475  -0.02293  -0.01658  -0.00914  -0.00661
 Alpha virt. eigenvalues --   -0.00283   0.00051   0.00258   0.00358   0.00586

  Beta  occ. eigenvalues --  -38.45761 -38.44684 -38.44453 -38.44051 -38.44021
  Beta  occ. eigenvalues --  -38.43977 -38.43252  -2.21517  -2.20490  -2.20188
  Beta  occ. eigenvalues --   -2.19920  -2.19788  -2.19719  -2.19015  -1.15223
  Beta  occ. eigenvalues --   -1.15200  -1.15108  -1.14250  -1.14144  -1.14121
  Beta  occ. eigenvalues --   -1.13890  -1.13876  -1.13838  -1.13609  -1.13570
  Beta  occ. eigenvalues --   -1.13538  -1.13473  -1.13451  -1.13426  -1.13411
  Beta  occ. eigenvalues --   -1.13388  -1.13360  -1.12695  -1.12675  -1.12650
  Beta  occ. eigenvalues --   -0.16395  -0.13368  -0.11615
  Beta virt. eigenvalues --   -0.07245  -0.06726  -0.05259  -0.04279  -0.03371
  Beta virt. eigenvalues --   -0.02577  -0.02003  -0.01833  -0.01444  -0.00585
  Beta virt. eigenvalues --   -0.00499  -0.00144   0.00118   0.00399   0.00504

 Mulliken charges and spin densities:
               1          2
     1  Na  -0.262426  -0.021679
     2  Na  -0.739993   0.201517
     3  Na   0.147658   0.239087
     4  Na   0.015593  -0.052460
     5  Na  -0.052314   0.137432
     6  Na   0.836580   0.133947
     7  Na   0.054902   0.362156
 Sum of Mulliken charges =  -0.00000   1.00000

 Dipole moment (field-independent basis, Debye):
    X=              0.9098    Y=             -1.1883    Z=             -0.1036  Tot=              1.5001
 Quadrupole moment (field-independent basis, Debye-Ang):
   XX=            -55.7669   YY=            -75.1377   ZZ=            -68.2672
   XY=              4.7176   XZ=             -2.2428   YZ=              1.2792

 Normal termination of Gaussian 16 at Sun Dec  3 15:33:47 2023.
