 Gaussian 16, Revision B.01,
 Gaussian 16:  ES64L-G16RevB.01 20-Dec-2017

 -------------------------
 #P B3LYP/6-311+g(d) force
 -------------------------

 -----
 DPGEN
 -----
 Symbolic Z-matrix:
 Charge =  0 Multiplicity = 2

                         Standard orientation:
 ---------------------------------------------------------------------
 Center     Atomic      Atomic             Coordinates (Angstroms)
 Number     Number       Type             X           Y           Z
 ---------------------------------------------------------------------
      1         11           0       -1.026619   -2.803458   -0.550107
      2         11           0        2.580982   -1.522990    0.971163
      3         11           0       -4.422633    1.606455   -0.288249
      4         11           0       -0.481260    3.174057   -0.230167
      5         11           0        2.429078    2.233493    0.542054
      6         11           0       -4.291833   -1.922117    0.363602
      7         11           0        5.212284   -0.765442   -0.808296
 ---------------------------------------------------------------------

 SCF Done:  E(UB3LYP) =  -1136.10792228     A.U. after   20 cycles

 The electronic state is 2-A.
 Alpha  occ. eigenvalues --  -38.44996 -38.44980 -38.44889 -38.44690 -38.44405
 Alpha  occ. eigenvalues --  -38.44274 -38.43295  -2.20760  -2.20755  -2.20688
 Alpha  occ. eigenvalues --   -2.20443  -2.20179  -2.20081  -2.19072  -1.14454
 Alpha  occ. eigenvalues --   -1.14429  -1.14419  -1.14414  -1.14397  -1.14379
 Alpha  occ. eigenvalues --   -1.14334  -1.14331  -1.14282  -1.14129  -1.14112
 Alpha  occ. eigenvalues --   -1.14095  -1.13835  -1.13827  -1.13792  -1.13760
 Alpha  occ. eigenvalues --   -1.13758  -1.13697  -1.12745  -1.12741  -1.12720
 Alpha  occ. eigenvalues --   -0.15628  -0.14076  -0.12385  -0.11061
 Alpha virt. eigenvalues --   -0.06993  -0.06047  -0.04151  -0.03351  -0.03130
 Alpha virt. eigenvalues --   -0.02912  -0.02179  -0.01703  -0.01290  -0.00655
 Alpha virt. eigenvalues --   -0.00552  -0.00406  -0.00050   0.00247   0.00412

  Beta  occ. eigenvalues --  -38.44987 -38.44918 -38.44826 -38.44707 -38.44333
  Beta  occ. eigenvalues --  -38.44250 -38.43299  -2.20773  -2.20616  -2.20569
  Beta  occ. eigenvalues --   -2.20479  -2.20045  -2.20038  -2.19084  -1.14460
  Beta  occ. eigenvalues --   -1.14441  -1.14396  -1.14321  -1.14302  -1.14282
  Beta  occ. eigenvalues --   -1.14253  -1.14250  -1.14214  -1.14158  -1.14139
  Beta  occ. eigenvalues --   -1.14089  -1.13743  -1.13736  -1.13730  -1.13726
  Beta  occ. eigenvalues --   -1.13708  -1.13664  -1.12753  -1.12748  -1.12717
  Beta  occ. eigenvalues --   -0.15154  -0.13471  -0.11847
  Beta virt. eigenvalues --   -0.07873  -0.06775  -0.05563  -0.03930  -0.03033
  Beta virt. eigenvalues --   -0.02854  -0.02600  -0.01958  -0.01519  -0.01010
  Beta virt. eigenvalues --   -0.00471  -0.00247  -0.00159   0.00077   0.00339

 Mulliken charges and spin densities:
               1          2
     1  Na  -0.183716   0.343867
     2  Na  -0.317466  -0.002897
     3  Na   0.015470   0.435718
     4  Na  -0.211581  -0.052479
     5  Na   0.234515   0.056356
     6  Na   0.119305  -0.085067
     7  Na   0.343472   0.304502
 Sum of Mulliken charges =  -0.00000   1.00000

 Dipole moment (field-independent basis, Debye):
    X=              0.7796    Y=             -0.6121    Z=             -0.1964  Tot=              1.0104
 Quadrupole moment (field-independent basis, Debye-Ang):
   XX=            -53.9836   YY=            -73.2638   ZZ=            -70.0784
   XY=              1.1807   XZ=             -3.0299   YZ=             -1.6999

 Normal termination of Gaussian 16 at Sun Dec  3 17:57:41 2023.
