 Gaussian 16, Revision B.01,
 Gaussian 16:  ES64L-G16RevB.01 20-Dec-2017

 -------------------------
 #P B3LYP/6-311+g(d) force
 -------------------------

 -----
 DPGEN
 -----
 Symbolic Z-matrix:
 Charge =  0 Multiplicity = 2

                         Standard orientation:
 ---------------------------------------------------------------------
 Center     Atomic      Atomic             Coordinates (Angstroms)
 Number     Number       Type             X           Y           Z
 ---------------------------------------------------------------------
      1         11           0       -0.475664   -0.131322   -1.707469
      2         11           0        3.293207    1.319683    0.137177
      3         11           0        2.205913   -2.634180   -0.532315
      4         11           0       -0.150757    3.244756   -0.204839
      5         11           0       -3.148295    1.001325    0.150123
      6         11           0        0.435378   -0.386874    1.931058
      7         11           0       -2.159782   -2.413387    0.226265
 ---------------------------------------------------------------------

 SCF Done:  E(UB3LYP) =  -1136.12910606     A.U. after   20 cycles

 The electronic state is 2-A.
 Alpha  occ. eigenvalues --  -38.44755 -38.44297 -38.44258 -38.44077 -38.43702
 Alpha  occ. eigenvalues --  -38.43699 -38.43511  -2.20493  -2.20061  -2.20055
 Alpha  occ. eigenvalues --   -2.19886  -2.19530  -2.19471  -2.19391  -1.14174
 Alpha  occ. eigenvalues --   -1.14144  -1.14135  -1.13742  -1.13728  -1.13727
 Alpha  occ. eigenvalues --   -1.13702  -1.13698  -1.13697  -1.13563  -1.13549
 Alpha  occ. eigenvalues --   -1.13520  -1.13212  -1.13167  -1.13155  -1.13144
 Alpha  occ. eigenvalues --   -1.13138  -1.13105  -1.13077  -1.13032  -1.13002
 Alpha  occ. eigenvalues --   -0.17591  -0.12805  -0.12174  -0.10153
 Alpha virt. eigenvalues --   -0.06134  -0.05751  -0.05087  -0.03099  -0.02718
 Alpha virt. eigenvalues --   -0.02221  -0.01790  -0.01594  -0.00963  -0.00875
 Alpha virt. eigenvalues --   -0.00055   0.00320   0.00671   0.00687   0.00745

  Beta  occ. eigenvalues --  -38.44754 -38.44278 -38.44256 -38.44069 -38.43701
  Beta  occ. eigenvalues --  -38.43625 -38.43449  -2.20493  -2.20060  -2.20022
  Beta  occ. eigenvalues --   -2.19875  -2.19472  -2.19392  -2.19277  -1.14162
  Beta  occ. eigenvalues --   -1.14145  -1.14138  -1.13734  -1.13723  -1.13692
  Beta  occ. eigenvalues --   -1.13692  -1.13682  -1.13675  -1.13551  -1.13526
  Beta  occ. eigenvalues --   -1.13511  -1.13145  -1.13140  -1.13117  -1.13104
  Beta  occ. eigenvalues --   -1.13072  -1.13040  -1.12997  -1.12955  -1.12915
  Beta  occ. eigenvalues --   -0.16934  -0.12612  -0.11946
  Beta virt. eigenvalues --   -0.06498  -0.06007  -0.05658  -0.04957  -0.02437
  Beta virt. eigenvalues --   -0.02087  -0.01673  -0.01465  -0.01288  -0.01021
  Beta virt. eigenvalues --   -0.00881   0.00110   0.00370   0.00695   0.00760

 Mulliken charges and spin densities:
               1          2
     1  Na   0.124118   0.611285
     2  Na  -0.044372  -0.082210
     3  Na  -0.075911  -0.015266
     4  Na  -0.134785  -0.108312
     5  Na   0.020843  -0.039047
     6  Na  -0.108002   0.623221
     7  Na   0.218108   0.010329
 Sum of Mulliken charges =  -0.00000   1.00000

 Dipole moment (field-independent basis, Debye):
    X=              0.0756    Y=             -0.1383    Z=              0.0609  Tot=              0.1690
 Quadrupole moment (field-independent basis, Debye-Ang):
   XX=            -54.2747   YY=            -61.0646   ZZ=            -77.2004
   XY=              0.4916   XZ=             -1.8820   YZ=              0.5499

 Normal termination of Gaussian 16 at Thu Dec  7 02:15:40 2023.
