 Gaussian 16, Revision B.01,
 Gaussian 16:  ES64L-G16RevB.01 20-Dec-2017

 -------------------------
 #P B3LYP/6-311+g(d) force
 -------------------------

 -----
 DPGEN
 -----
 Symbolic Z-matrix:
 Charge =  0 Multiplicity = 2

                         Standard orientation:
 ---------------------------------------------------------------------
 Center     Atomic      Atomic             Coordinates (Angstroms)
 Number     Number       Type             X           Y           Z
 ---------------------------------------------------------------------
      1         11           0       -0.812962    0.019402   -1.284665
      2         11           0        2.590331   -2.161889    0.142511
      3         11           0       -0.124182    0.540316    1.854249
      4         11           0        2.483641    0.874939   -0.602854
      5         11           0       -0.843206   -2.290717    0.023557
      6         11           0        0.180366    3.300889   -0.034882
      7         11           0       -3.473988   -0.282939   -0.097916
 ---------------------------------------------------------------------

 SCF Done:  E(UB3LYP) =  -1136.12188760     A.U. after   21 cycles

 The electronic state is 2-A.
 Alpha  occ. eigenvalues --  -38.44583 -38.43993 -38.43666 -38.43648 -38.43605
 Alpha  occ. eigenvalues --  -38.43561 -38.43129  -2.20455  -2.19984  -2.19742
 Alpha  occ. eigenvalues --   -2.19567  -2.19441  -2.19397  -2.19069  -1.14209
 Alpha  occ. eigenvalues --   -1.14104  -1.14078  -1.14022  -1.13617  -1.13539
 Alpha  occ. eigenvalues --   -1.13372  -1.13342  -1.13279  -1.13261  -1.13231
 Alpha  occ. eigenvalues --   -1.13217  -1.13096  -1.13086  -1.13067  -1.13066
 Alpha  occ. eigenvalues --   -1.13051  -1.13033  -1.12760  -1.12682  -1.12672
 Alpha  occ. eigenvalues --   -0.18996  -0.13513  -0.12548  -0.10333
 Alpha virt. eigenvalues --   -0.06003  -0.05162  -0.04664  -0.03169  -0.02651
 Alpha virt. eigenvalues --   -0.02034  -0.01960  -0.01312  -0.00278  -0.00085
 Alpha virt. eigenvalues --    0.00020   0.00278   0.00780   0.00816   0.00897

  Beta  occ. eigenvalues --  -38.44577 -38.43978 -38.43646 -38.43607 -38.43601
  Beta  occ. eigenvalues --  -38.43559 -38.43037  -2.20447  -2.19962  -2.19661
  Beta  occ. eigenvalues --   -2.19532  -2.19446  -2.19397  -2.18900  -1.14197
  Beta  occ. eigenvalues --   -1.14097  -1.14055  -1.13997  -1.13563  -1.13529
  Beta  occ. eigenvalues --   -1.13302  -1.13285  -1.13263  -1.13221  -1.13190
  Beta  occ. eigenvalues --   -1.13184  -1.13099  -1.13073  -1.13068  -1.13055
  Beta  occ. eigenvalues --   -1.13045  -1.13027  -1.12648  -1.12566  -1.12548
  Beta  occ. eigenvalues --   -0.18279  -0.13236  -0.12351
  Beta virt. eigenvalues --   -0.06471  -0.05883  -0.05121  -0.04592  -0.02401
  Beta virt. eigenvalues --   -0.01998  -0.01889  -0.01258  -0.01077  -0.00282
  Beta virt. eigenvalues --   -0.00038   0.00171   0.00339   0.00802   0.00824

 Mulliken charges and spin densities:
               1          2
     1  Na  -0.318175  -0.055420
     2  Na  -0.193515  -0.024657
     3  Na  -0.398021   0.535797
     4  Na   0.190246   0.165884
     5  Na   0.122068   0.229935
     6  Na   0.087414   0.053811
     7  Na   0.509983   0.094650
 Sum of Mulliken charges =  -0.00000   1.00000

 Dipole moment (field-independent basis, Debye):
    X=             -0.6281    Y=              0.2570    Z=              0.3364  Tot=              0.7575
 Quadrupole moment (field-independent basis, Debye-Ang):
   XX=            -54.6801   YY=            -60.9268   ZZ=            -76.3203
   XY=             -1.3752   XZ=             -1.0283   YZ=             -1.3255

 Normal termination of Gaussian 16 at Thu Dec  7 18:07:45 2023.
