 Gaussian 16, Revision B.01,
 Gaussian 16:  ES64L-G16RevB.01 20-Dec-2017

 -------------------------
 #P B3LYP/6-311+g(d) force
 -------------------------

 -----
 DPGEN
 -----
 Symbolic Z-matrix:
 Charge =  0 Multiplicity = 2

                         Standard orientation:
 ---------------------------------------------------------------------
 Center     Atomic      Atomic             Coordinates (Angstroms)
 Number     Number       Type             X           Y           Z
 ---------------------------------------------------------------------
      1         11           0        0.541324    0.261098    2.261687
      2         11           0       -1.129093   -2.519757    0.014899
      3         11           0        0.401214    0.218705   -1.491083
      4         11           0        2.323014   -2.113530    0.019676
      5         11           0        3.004055    1.585664   -0.598273
      6         11           0       -1.526555    3.043114    0.189015
      7         11           0       -3.613959   -0.475294   -0.395921
 ---------------------------------------------------------------------

 SCF Done:  E(UB3LYP) =  -1136.12630077     A.U. after   22 cycles

 The electronic state is 2-A.
 Alpha  occ. eigenvalues --  -38.44471 -38.44426 -38.44236 -38.44070 -38.43988
 Alpha  occ. eigenvalues --  -38.43665 -38.43038  -2.20293  -2.20203  -2.19973
 Alpha  occ. eigenvalues --   -2.19898  -2.19825  -2.19600  -2.18897  -1.14008
 Alpha  occ. eigenvalues --   -1.13932  -1.13912  -1.13881  -1.13868  -1.13831
 Alpha  occ. eigenvalues --   -1.13651  -1.13629  -1.13618  -1.13555  -1.13536
 Alpha  occ. eigenvalues --   -1.13513  -1.13508  -1.13478  -1.13459  -1.13282
 Alpha  occ. eigenvalues --   -1.13253  -1.13216  -1.12583  -1.12564  -1.12532
 Alpha  occ. eigenvalues --   -0.17922  -0.13003  -0.12014  -0.10752
 Alpha virt. eigenvalues --   -0.06364  -0.05572  -0.04471  -0.03019  -0.02824
 Alpha virt. eigenvalues --   -0.02671  -0.01921  -0.01482  -0.00925  -0.00295
 Alpha virt. eigenvalues --   -0.00117   0.00254   0.00653   0.00663   0.00756

  Beta  occ. eigenvalues --  -38.44446 -38.44420 -38.44236 -38.43983 -38.43963
  Beta  occ. eigenvalues --  -38.43625 -38.43035  -2.20250  -2.20192  -2.19974
  Beta  occ. eigenvalues --   -2.19818  -2.19700  -2.19526  -2.18894  -1.13970
  Beta  occ. eigenvalues --   -1.13897  -1.13882  -1.13876  -1.13855  -1.13824
  Beta  occ. eigenvalues --   -1.13644  -1.13629  -1.13620  -1.13509  -1.13472
  Beta  occ. eigenvalues --   -1.13447  -1.13419  -1.13401  -1.13356  -1.13228
  Beta  occ. eigenvalues --   -1.13197  -1.13161  -1.12582  -1.12558  -1.12517
  Beta  occ. eigenvalues --   -0.17258  -0.12734  -0.11826
  Beta virt. eigenvalues --   -0.06937  -0.06166  -0.05476  -0.04408  -0.02455
  Beta virt. eigenvalues --   -0.02120  -0.01789  -0.01685  -0.01374  -0.00908
  Beta virt. eigenvalues --   -0.00320   0.00078   0.00320   0.00681   0.00762

 Mulliken charges and spin densities:
               1          2
     1  Na  -0.380542   0.652745
     2  Na  -0.109152   0.044556
     3  Na   0.017972   0.144393
     4  Na   0.310227   0.097948
     5  Na   0.244016   0.052154
     6  Na  -0.094364  -0.000014
     7  Na   0.011844   0.008218
 Sum of Mulliken charges =  -0.00000   1.00000

 Dipole moment (field-independent basis, Debye):
    X=              0.3761    Y=              0.3084    Z=              0.1517  Tot=              0.5095
 Quadrupole moment (field-independent basis, Debye-Ang):
   XX=            -54.2949   YY=            -64.9536   ZZ=            -74.7461
   XY=             -1.2979   XZ=              0.5189   YZ=             -0.1333

 Normal termination of Gaussian 16 at Fri Dec  8 06:29:13 2023.
