 Gaussian 16, Revision B.01,
 Gaussian 16:  ES64L-G16RevB.01 20-Dec-2017

 -------------------------
 #P B3LYP/6-311+g(d) force
 -------------------------

 -----
 DPGEN
 -----
 Symbolic Z-matrix:
 Charge =  0 Multiplicity = 2

                         Standard orientation:
 ---------------------------------------------------------------------
 Center     Atomic      Atomic             Coordinates (Angstroms)
 Number     Number       Type             X           Y           Z
 ---------------------------------------------------------------------
      1         11           0       -1.591751    2.529204   -0.294901
      2         11           0       -0.269689   -2.785144   -0.047330
      3         11           0       -0.373458   -0.027467    2.007507
      4         11           0        0.240137   -0.016342   -1.853449
      5         11           0        1.988639    2.267261    0.258163
      6         11           0       -2.835058   -0.766299   -0.070132
      7         11           0        2.841180   -1.201212    0.000143
 ---------------------------------------------------------------------

 SCF Done:  E(UB3LYP) =  -1136.14144968     A.U. after   18 cycles

 The electronic state is 2-A.
 Alpha  occ. eigenvalues --  -38.43694 -38.43652 -38.43645 -38.43526 -38.43511
 Alpha  occ. eigenvalues --  -38.43418 -38.43241  -2.19554  -2.19515  -2.19485
 Alpha  occ. eigenvalues --   -2.19410  -2.19360  -2.19348  -2.19139  -1.13242
 Alpha  occ. eigenvalues --   -1.13207  -1.13193  -1.13188  -1.13175  -1.13166
 Alpha  occ. eigenvalues --   -1.13158  -1.13145  -1.13115  -1.13091  -1.13068
 Alpha  occ. eigenvalues --   -1.13066  -1.13036  -1.13030  -1.13006  -1.12985
 Alpha  occ. eigenvalues --   -1.12977  -1.12968  -1.12809  -1.12802  -1.12761
 Alpha  occ. eigenvalues --   -0.18774  -0.12848  -0.12625  -0.10965
 Alpha virt. eigenvalues --   -0.05283  -0.05133  -0.04798  -0.03222  -0.03080
 Alpha virt. eigenvalues --   -0.02718  -0.01250  -0.01107  -0.00302  -0.00193
 Alpha virt. eigenvalues --   -0.00031   0.00386   0.00850   0.00906   0.00926

  Beta  occ. eigenvalues --  -38.43689 -38.43650 -38.43558 -38.43520 -38.43505
  Beta  occ. eigenvalues --  -38.43342 -38.43234  -2.19510  -2.19485  -2.19404
  Beta  occ. eigenvalues --   -2.19394  -2.19340  -2.19221  -2.19130  -1.13194
  Beta  occ. eigenvalues --   -1.13167  -1.13164  -1.13158  -1.13153  -1.13137
  Beta  occ. eigenvalues --   -1.13115  -1.13089  -1.13081  -1.13062  -1.13051
  Beta  occ. eigenvalues --   -1.13017  -1.13011  -1.12987  -1.12975  -1.12948
  Beta  occ. eigenvalues --   -1.12894  -1.12874  -1.12801  -1.12771  -1.12751
  Beta  occ. eigenvalues --   -0.18015  -0.12620  -0.12382
  Beta virt. eigenvalues --   -0.07045  -0.05294  -0.05089  -0.04730  -0.02424
  Beta virt. eigenvalues --   -0.02283  -0.01670  -0.01168  -0.01032  -0.00352
  Beta virt. eigenvalues --   -0.00255   0.00107   0.00399   0.00890   0.00910

 Mulliken charges and spin densities:
               1          2
     1  Na   0.101142  -0.078933
     2  Na   0.240579  -0.073203
     3  Na  -0.476070   0.726031
     4  Na  -0.281880   0.630510
     5  Na   0.012990  -0.076919
     6  Na   0.319148  -0.033702
     7  Na   0.084090  -0.093784
 Sum of Mulliken charges =  -0.00000   1.00000

 Dipole moment (field-independent basis, Debye):
    X=              0.0955    Y=              0.1307    Z=              0.0757  Tot=              0.1787
 Quadrupole moment (field-independent basis, Debye-Ang):
   XX=            -59.3954   YY=            -62.1691   ZZ=            -72.7734
   XY=             -0.1792   XZ=              1.3756   YZ=              0.0432

 Normal termination of Gaussian 16 at Tue Dec  5 21:45:52 2023.
