 Gaussian 16, Revision B.01,
 Gaussian 16:  ES64L-G16RevB.01 20-Dec-2017

 -------------------------
 #P B3LYP/6-311+g(d) force
 -------------------------

 -----
 DPGEN
 -----
 Symbolic Z-matrix:
 Charge =  0 Multiplicity = 2

                         Standard orientation:
 ---------------------------------------------------------------------
 Center     Atomic      Atomic             Coordinates (Angstroms)
 Number     Number       Type             X           Y           Z
 ---------------------------------------------------------------------
      1         11           0       -0.433259    0.234182    1.861840
      2         11           0        0.315052   -0.238262   -1.798002
      3         11           0       -1.626001   -1.869988   -0.252505
      4         11           0       -3.096374    0.715877   -0.101939
      5         11           0        0.286204    2.507324   -0.135306
      6         11           0        2.894330    0.708557   -0.017338
      7         11           0        1.660046   -2.057689    0.443250
 ---------------------------------------------------------------------

 SCF Done:  E(UB3LYP) =  -1136.12731232     A.U. after   19 cycles

 The electronic state is 2-A.
 Alpha  occ. eigenvalues --  -38.44374 -38.44080 -38.43553 -38.43539 -38.43170
 Alpha  occ. eigenvalues --  -38.43023 -38.42832  -2.20251  -2.20006  -2.19588
 Alpha  occ. eigenvalues --   -2.19556  -2.19178  -2.18977  -2.18766  -1.13973
 Alpha  occ. eigenvalues --   -1.13905  -1.13873  -1.13703  -1.13677  -1.13646
 Alpha  occ. eigenvalues --   -1.13328  -1.13252  -1.13228  -1.13215  -1.13203
 Alpha  occ. eigenvalues --   -1.13163  -1.12846  -1.12818  -1.12799  -1.12653
 Alpha  occ. eigenvalues --   -1.12620  -1.12609  -1.12462  -1.12435  -1.12373
 Alpha  occ. eigenvalues --   -0.19781  -0.13741  -0.12260  -0.11313
 Alpha virt. eigenvalues --   -0.05973  -0.04638  -0.03963  -0.03621  -0.02895
 Alpha virt. eigenvalues --   -0.02638  -0.01720  -0.00716  -0.00063   0.00107
 Alpha virt. eigenvalues --    0.00257   0.00386   0.00892   0.00984   0.00991

  Beta  occ. eigenvalues --  -38.44372 -38.44076 -38.43471 -38.43459 -38.43155
  Beta  occ. eigenvalues --  -38.43009 -38.42823  -2.20250  -2.20002  -2.19442
  Beta  occ. eigenvalues --   -2.19406  -2.19157  -2.18956  -2.18755  -1.13976
  Beta  occ. eigenvalues --   -1.13882  -1.13872  -1.13704  -1.13669  -1.13623
  Beta  occ. eigenvalues --   -1.13236  -1.13152  -1.13128  -1.13109  -1.13099
  Beta  occ. eigenvalues --   -1.13051  -1.12826  -1.12792  -1.12756  -1.12642
  Beta  occ. eigenvalues --   -1.12601  -1.12569  -1.12457  -1.12390  -1.12370
  Beta  occ. eigenvalues --   -0.19003  -0.13477  -0.11977
  Beta virt. eigenvalues --   -0.07296  -0.05921  -0.04642  -0.03956  -0.02780
  Beta virt. eigenvalues --   -0.02060  -0.01644  -0.01554  -0.00663   0.00071
  Beta virt. eigenvalues --    0.00086   0.00231   0.00397   0.00936   0.00983

 Mulliken charges and spin densities:
               1          2
     1  Na  -0.791713   0.608297
     2  Na  -0.678547   0.480356
     3  Na   0.570679   0.096049
     4  Na   0.094839  -0.111080
     5  Na   0.324573  -0.098999
     6  Na   0.146055  -0.032361
     7  Na   0.334114   0.057738
 Sum of Mulliken charges =  -0.00000   1.00000

 Dipole moment (field-independent basis, Debye):
    X=             -0.1783    Y=              0.2392    Z=              0.0710  Tot=              0.3066
 Quadrupole moment (field-independent basis, Debye-Ang):
   XX=            -53.8994   YY=            -69.3238   ZZ=            -71.4720
   XY=             -1.0738   XZ=              1.2923   YZ=             -1.1001

 Normal termination of Gaussian 16 at Thu Dec  7 20:46:15 2023.
