 Gaussian 16, Revision B.01,
 Gaussian 16:  ES64L-G16RevB.01 20-Dec-2017

 -------------------------
 #P B3LYP/6-311+g(d) force
 -------------------------

 -----
 DPGEN
 -----
 Symbolic Z-matrix:
 Charge =  0 Multiplicity = 2

                         Standard orientation:
 ---------------------------------------------------------------------
 Center     Atomic      Atomic             Coordinates (Angstroms)
 Number     Number       Type             X           Y           Z
 ---------------------------------------------------------------------
      1         11           0       -4.381821   -0.945611   -0.444398
      2         11           0       -3.056031    2.006147   -0.045016
      3         11           0        1.302124   -3.050819    1.129545
      4         11           0       -1.384715   -2.096170   -0.359015
      5         11           0        3.797165   -1.468060   -0.406733
      6         11           0        0.576063    3.441835    1.129335
      7         11           0        3.147214    2.112677   -1.003719
 ---------------------------------------------------------------------

 SCF Done:  E(UB3LYP) =  -1136.11103964     A.U. after   23 cycles

 The electronic state is 2-A.
 Alpha  occ. eigenvalues --  -38.45816 -38.44965 -38.44609 -38.44426 -38.44032
 Alpha  occ. eigenvalues --  -38.43669 -38.43556  -2.21576  -2.20790  -2.20395
 Alpha  occ. eigenvalues --   -2.20181  -2.19889  -2.19437  -2.19392  -1.15265
 Alpha  occ. eigenvalues --   -1.15243  -1.15204  -1.14474  -1.14467  -1.14422
 Alpha  occ. eigenvalues --   -1.14072  -1.14053  -1.14024  -1.13868  -1.13851
 Alpha  occ. eigenvalues --   -1.13808  -1.13555  -1.13526  -1.13520  -1.13104
 Alpha  occ. eigenvalues --   -1.13089  -1.13067  -1.13063  -1.13039  -1.13033
 Alpha  occ. eigenvalues --   -0.16051  -0.14051  -0.12954  -0.10498
 Alpha virt. eigenvalues --   -0.07434  -0.05018  -0.04420  -0.03759  -0.03338
 Alpha virt. eigenvalues --   -0.02436  -0.01979  -0.01787  -0.01012  -0.00890
 Alpha virt. eigenvalues --   -0.00422  -0.00166   0.00020   0.00522   0.00647

  Beta  occ. eigenvalues --  -38.45795 -38.44935 -38.44573 -38.44415 -38.43996
  Beta  occ. eigenvalues --  -38.43629 -38.43532  -2.21542  -2.20739  -2.20330
  Beta  occ. eigenvalues --   -2.20165  -2.19821  -2.19362  -2.19349  -1.15246
  Beta  occ. eigenvalues --   -1.15225  -1.15145  -1.14438  -1.14433  -1.14365
  Beta  occ. eigenvalues --   -1.14029  -1.14011  -1.13967  -1.13860  -1.13843
  Beta  occ. eigenvalues --   -1.13775  -1.13506  -1.13481  -1.13476  -1.13053
  Beta  occ. eigenvalues --   -1.13040  -1.13020  -1.13014  -1.13012  -1.13007
  Beta  occ. eigenvalues --   -0.15556  -0.13553  -0.12415
  Beta virt. eigenvalues --   -0.07481  -0.07129  -0.04665  -0.03890  -0.03577
  Beta virt. eigenvalues --   -0.02914  -0.02262  -0.01812  -0.01580  -0.00816
  Beta virt. eigenvalues --   -0.00684  -0.00142   0.00149   0.00196   0.00534

 Mulliken charges and spin densities:
               1          2
     1  Na   0.809318   0.197072
     2  Na  -0.101562   0.179344
     3  Na   0.372426   0.044689
     4  Na  -1.100710   0.184418
     5  Na   0.092155   0.184294
     6  Na  -0.090135   0.183755
     7  Na   0.018508   0.026427
 Sum of Mulliken charges =  -0.00000   1.00000

 Dipole moment (field-independent basis, Debye):
    X=             -1.2073    Y=             -0.4296    Z=             -0.1770  Tot=              1.2936
 Quadrupole moment (field-independent basis, Debye-Ang):
   XX=            -60.7314   YY=            -68.9921   ZZ=            -70.1816
   XY=             -2.5987   XZ=              0.8854   YZ=             -0.8952

 Normal termination of Gaussian 16 at Sun Dec  3 18:44:44 2023.
