 Gaussian 16, Revision B.01,
 Gaussian 16:  ES64L-G16RevB.01 20-Dec-2017

 -------------------------
 #P B3LYP/6-311+g(d) force
 -------------------------

 -----
 DPGEN
 -----
 Symbolic Z-matrix:
 Charge =  0 Multiplicity = 2

                         Standard orientation:
 ---------------------------------------------------------------------
 Center     Atomic      Atomic             Coordinates (Angstroms)
 Number     Number       Type             X           Y           Z
 ---------------------------------------------------------------------
      1         11           0       -1.874817   -2.849367    0.072019
      2         11           0        0.170849    2.669469    0.625857
      3         11           0       -4.795511   -1.070560    0.015045
      4         11           0       -3.432839    2.345744   -0.326919
      5         11           0        2.981557    2.643331   -0.340462
      6         11           0        4.605399   -0.881521    0.044201
      7         11           0        2.345362   -2.857097   -0.089741
 ---------------------------------------------------------------------

 SCF Done:  E(UB3LYP) =  -1136.10403387     A.U. after   21 cycles

 The electronic state is 2-A.
 Alpha  occ. eigenvalues --  -38.45295 -38.44689 -38.44550 -38.44508 -38.44441
 Alpha  occ. eigenvalues --  -38.44251 -38.44219  -2.21048  -2.20509  -2.20345
 Alpha  occ. eigenvalues --   -2.20285  -2.20230  -2.20084  -2.20025  -1.14732
 Alpha  occ. eigenvalues --   -1.14713  -1.14700  -1.14262  -1.14157  -1.14136
 Alpha  occ. eigenvalues --   -1.14002  -1.13993  -1.13955  -1.13942  -1.13934
 Alpha  occ. eigenvalues --   -1.13901  -1.13892  -1.13882  -1.13867  -1.13846
 Alpha  occ. eigenvalues --   -1.13728  -1.13712  -1.13677  -1.13673  -1.13597
 Alpha  occ. eigenvalues --   -0.15583  -0.14183  -0.13179  -0.10831
 Alpha virt. eigenvalues --   -0.07809  -0.04647  -0.04559  -0.03668  -0.03571
 Alpha virt. eigenvalues --   -0.02715  -0.02229  -0.02005  -0.00997  -0.00679
 Alpha virt. eigenvalues --   -0.00647  -0.00213   0.00086   0.00236   0.00456

  Beta  occ. eigenvalues --  -38.45308 -38.44659 -38.44541 -38.44438 -38.44353
  Beta  occ. eigenvalues --  -38.44219 -38.44209  -2.21076  -2.20455  -2.20333
  Beta  occ. eigenvalues --   -2.20156  -2.20066  -2.20034  -2.20003  -1.14756
  Beta  occ. eigenvalues --   -1.14734  -1.14685  -1.14221  -1.14122  -1.14096
  Beta  occ. eigenvalues --   -1.13997  -1.13987  -1.13920  -1.13854  -1.13846
  Beta  occ. eigenvalues --   -1.13844  -1.13817  -1.13769  -1.13759  -1.13739
  Beta  occ. eigenvalues --   -1.13699  -1.13697  -1.13659  -1.13644  -1.13556
  Beta  occ. eigenvalues --   -0.15086  -0.13520  -0.12454
  Beta virt. eigenvalues --   -0.07837  -0.07675  -0.04244  -0.04168  -0.03395
  Beta virt. eigenvalues --   -0.03253  -0.02531  -0.01960  -0.01805  -0.00825
  Beta virt. eigenvalues --   -0.00494  -0.00277   0.00038   0.00239   0.00271

 Mulliken charges and spin densities:
               1          2
     1  Na   0.069912   0.339096
     2  Na  -0.979574   0.000968
     3  Na   0.165325  -0.035468
     4  Na   0.206689   0.416498
     5  Na   0.447188   0.167655
     6  Na  -0.200297   0.101513
     7  Na   0.290758   0.009739
 Sum of Mulliken charges =  -0.00000   1.00000

 Dipole moment (field-independent basis, Debye):
    X=              0.0395    Y=             -0.1718    Z=             -0.0956  Tot=              0.2005
 Quadrupole moment (field-independent basis, Debye-Ang):
   XX=            -51.6971   YY=            -74.2532   ZZ=            -73.7954
   XY=              4.6334   XZ=             -0.9068   YZ=             -0.8088

 Normal termination of Gaussian 16 at Sun Dec  3 19:39:01 2023.
