 Gaussian 16, Revision B.01,
 Gaussian 16:  ES64L-G16RevB.01 20-Dec-2017

 -------------------------
 #P B3LYP/6-311+g(d) force
 -------------------------

 -----
 DPGEN
 -----
 Symbolic Z-matrix:
 Charge =  0 Multiplicity = 2

                         Standard orientation:
 ---------------------------------------------------------------------
 Center     Atomic      Atomic             Coordinates (Angstroms)
 Number     Number       Type             X           Y           Z
 ---------------------------------------------------------------------
      1         11           0        2.835919    1.278784    1.017368
      2         11           0        1.218031    3.510757   -0.536160
      3         11           0       -3.858956    0.239741   -1.014118
      4         11           0        4.430809   -1.749433   -0.116888
      5         11           0       -5.696769   -1.188223    0.813221
      6         11           0       -0.714627    0.904090    0.281217
      7         11           0        1.785592   -2.995715   -0.444640
 ---------------------------------------------------------------------

 SCF Done:  E(UB3LYP) =  -1136.11277138     A.U. after   18 cycles

 The electronic state is 2-A.
 Alpha  occ. eigenvalues --  -38.44609 -38.44568 -38.44187 -38.44089 -38.43962
 Alpha  occ. eigenvalues --  -38.43897 -38.43572  -2.20433  -2.20382  -2.20041
 Alpha  occ. eigenvalues --   -2.19928  -2.19794  -2.19744  -2.19412  -1.14117
 Alpha  occ. eigenvalues --   -1.14109  -1.14092  -1.14083  -1.14030  -1.14013
 Alpha  occ. eigenvalues --   -1.13725  -1.13697  -1.13649  -1.13578  -1.13572
 Alpha  occ. eigenvalues --   -1.13562  -1.13517  -1.13428  -1.13423  -1.13418
 Alpha  occ. eigenvalues --   -1.13403  -1.13345  -1.13066  -1.13060  -1.13059
 Alpha  occ. eigenvalues --   -0.16446  -0.13986  -0.12889  -0.10244
 Alpha virt. eigenvalues --   -0.06396  -0.05786  -0.04326  -0.03775  -0.02875
 Alpha virt. eigenvalues --   -0.02480  -0.02122  -0.01503  -0.01100  -0.00598
 Alpha virt. eigenvalues --   -0.00231  -0.00138   0.00025   0.00387   0.00598

  Beta  occ. eigenvalues --  -38.44610 -38.44543 -38.44140 -38.44084 -38.43900
  Beta  occ. eigenvalues --  -38.43841 -38.43576  -2.20437  -2.20335  -2.19956
  Beta  occ. eigenvalues --   -2.19920  -2.19677  -2.19641  -2.19425  -1.14112
  Beta  occ. eigenvalues --   -1.14094  -1.14081  -1.14076  -1.13997  -1.13979
  Beta  occ. eigenvalues --   -1.13661  -1.13635  -1.13597  -1.13573  -1.13561
  Beta  occ. eigenvalues --   -1.13542  -1.13449  -1.13353  -1.13343  -1.13337
  Beta  occ. eigenvalues --   -1.13332  -1.13281  -1.13081  -1.13072  -1.13016
  Beta  occ. eigenvalues --   -0.15902  -0.13514  -0.12643
  Beta virt. eigenvalues --   -0.07060  -0.05921  -0.05307  -0.03964  -0.03467
  Beta virt. eigenvalues --   -0.02594  -0.02387  -0.01995  -0.01123  -0.01027
  Beta virt. eigenvalues --   -0.00284   0.00011   0.00076   0.00231   0.00555

 Mulliken charges and spin densities:
               1          2
     1  Na  -0.053354   0.441684
     2  Na   0.872003   0.136784
     3  Na   0.037335   0.011270
     4  Na   0.277580   0.020365
     5  Na   0.173015   0.261415
     6  Na  -1.262208  -0.026972
     7  Na  -0.044371   0.155455
 Sum of Mulliken charges =  -0.00000   1.00000

 Dipole moment (field-independent basis, Debye):
    X=              1.0302    Y=              0.4524    Z=             -0.2213  Tot=              1.1467
 Quadrupole moment (field-independent basis, Debye-Ang):
   XX=            -70.7668   YY=            -62.0584   ZZ=            -67.8914
   XY=              1.2648   XZ=             -2.6049   YZ=             -4.6512

 Normal termination of Gaussian 16 at Tue Nov 28 20:08:33 2023.
