 Gaussian 16, Revision B.01,
 Gaussian 16:  ES64L-G16RevB.01 20-Dec-2017

 -------------------------
 #P B3LYP/6-311+g(d) force
 -------------------------

 -----
 DPGEN
 -----
 Symbolic Z-matrix:
 Charge =  0 Multiplicity = 2

                         Standard orientation:
 ---------------------------------------------------------------------
 Center     Atomic      Atomic             Coordinates (Angstroms)
 Number     Number       Type             X           Y           Z
 ---------------------------------------------------------------------
      1         11           0        1.242112    1.892649    0.940000
      2         11           0       -1.438430   -2.826829   -0.701236
      3         11           0        4.061853    0.336888    0.154160
      4         11           0        1.471406   -1.951001   -1.569960
      5         11           0       -0.973674   -1.108719    2.640305
      6         11           0       -3.113180    0.763622   -0.133754
      7         11           0       -1.250087    2.893389   -1.329513
 ---------------------------------------------------------------------

 SCF Done:  E(UB3LYP) =  -1136.11846172     A.U. after   19 cycles

 The electronic state is 2-A.
 Alpha  occ. eigenvalues --  -38.44848 -38.44671 -38.44321 -38.44297 -38.44191
 Alpha  occ. eigenvalues --  -38.43783 -38.43612  -2.20638  -2.20473  -2.20119
 Alpha  occ. eigenvalues --   -2.20070  -2.19988  -2.19616  -2.19423  -1.14279
 Alpha  occ. eigenvalues --   -1.14277  -1.14244  -1.14173  -1.14135  -1.14107
 Alpha  occ. eigenvalues --   -1.13794  -1.13784  -1.13755  -1.13742  -1.13736
 Alpha  occ. eigenvalues --   -1.13712  -1.13671  -1.13662  -1.13596  -1.13279
 Alpha  occ. eigenvalues --   -1.13259  -1.13250  -1.13107  -1.13084  -1.13054
 Alpha  occ. eigenvalues --   -0.16778  -0.12934  -0.12680  -0.11323
 Alpha virt. eigenvalues --   -0.06456  -0.05464  -0.04468  -0.03633  -0.03345
 Alpha virt. eigenvalues --   -0.02762  -0.01893  -0.01021  -0.00724  -0.00448
 Alpha virt. eigenvalues --   -0.00301  -0.00010   0.00311   0.00591   0.00636

  Beta  occ. eigenvalues --  -38.44738 -38.44663 -38.44302 -38.44275 -38.44179
  Beta  occ. eigenvalues --  -38.43760 -38.43607  -2.20463  -2.20434  -2.20079
  Beta  occ. eigenvalues --   -2.20034  -2.19966  -2.19573  -2.19416  -1.14157
  Beta  occ. eigenvalues --   -1.14139  -1.14138  -1.14128  -1.14109  -1.14090
  Beta  occ. eigenvalues --   -1.13756  -1.13742  -1.13739  -1.13727  -1.13724
  Beta  occ. eigenvalues --   -1.13670  -1.13650  -1.13640  -1.13587  -1.13247
  Beta  occ. eigenvalues --   -1.13229  -1.13224  -1.13096  -1.13080  -1.13036
  Beta  occ. eigenvalues --   -0.16189  -0.12733  -0.12303
  Beta virt. eigenvalues --   -0.07606  -0.06363  -0.05065  -0.04057  -0.03274
  Beta virt. eigenvalues --   -0.02884  -0.02148  -0.01771  -0.00959  -0.00608
  Beta virt. eigenvalues --   -0.00305  -0.00037   0.00230   0.00369   0.00679

 Mulliken charges and spin densities:
               1          2
     1  Na  -0.377444   0.214264
     2  Na   0.187812   0.000909
     3  Na   0.337462  -0.105442
     4  Na  -0.307045   0.226414
     5  Na   0.019475   0.512069
     6  Na  -0.209223   0.121570
     7  Na   0.348963   0.030216
 Sum of Mulliken charges =  -0.00000   1.00000

 Dipole moment (field-independent basis, Debye):
    X=              0.1392    Y=              0.0100    Z=              0.0266  Tot=              0.1421
 Quadrupole moment (field-independent basis, Debye-Ang):
   XX=            -58.7110   YY=            -71.2123   ZZ=            -69.3011
   XY=              1.5981   XZ=             -0.3701   YZ=             -1.4711

 Normal termination of Gaussian 16 at Mon Dec  4 05:41:40 2023.
