 Gaussian 16, Revision B.01,
 Gaussian 16:  ES64L-G16RevB.01 20-Dec-2017

 -------------------------
 #P B3LYP/6-311+g(d) force
 -------------------------

 -----
 DPGEN
 -----
 Symbolic Z-matrix:
 Charge =  0 Multiplicity = 2

                         Standard orientation:
 ---------------------------------------------------------------------
 Center     Atomic      Atomic             Coordinates (Angstroms)
 Number     Number       Type             X           Y           Z
 ---------------------------------------------------------------------
      1         11           0       -3.980477    0.956481    0.700619
      2         11           0        0.143353   -0.072778    2.057255
      3         11           0       -2.130803   -1.858742   -0.392062
      4         11           0        1.144788   -1.953850   -1.127181
      5         11           0        2.012129    2.346881   -0.760638
      6         11           0       -1.005321    1.005785   -1.307341
      7         11           0        3.816330   -0.423778    0.829348
 ---------------------------------------------------------------------

 SCF Done:  E(UB3LYP) =  -1136.12066576     A.U. after   25 cycles

 The electronic state is 2-A.
 Alpha  occ. eigenvalues --  -38.45967 -38.45200 -38.44632 -38.43489 -38.43350
 Alpha  occ. eigenvalues --  -38.43325 -38.42706  -2.21739  -2.20978  -2.20413
 Alpha  occ. eigenvalues --   -2.19409  -2.19239  -2.19137  -2.18556  -1.15428
 Alpha  occ. eigenvalues --   -1.15385  -1.15350  -1.14651  -1.14623  -1.14608
 Alpha  occ. eigenvalues --   -1.14081  -1.14077  -1.14044  -1.13108  -1.13095
 Alpha  occ. eigenvalues --   -1.13036  -1.12918  -1.12904  -1.12845  -1.12808
 Alpha  occ. eigenvalues --   -1.12797  -1.12763  -1.12235  -1.12212  -1.12191
 Alpha  occ. eigenvalues --   -0.18026  -0.13814  -0.11246  -0.10963
 Alpha virt. eigenvalues --   -0.07336  -0.05068  -0.04629  -0.03239  -0.02915
 Alpha virt. eigenvalues --   -0.02481  -0.02354  -0.01212  -0.01099  -0.00301
 Alpha virt. eigenvalues --   -0.00003   0.00152   0.00218   0.00643   0.00674

  Beta  occ. eigenvalues --  -38.45919 -38.45176 -38.44620 -38.43432 -38.43342
  Beta  occ. eigenvalues --  -38.43295 -38.42689  -2.21648  -2.20933  -2.20392
  Beta  occ. eigenvalues --   -2.19310  -2.19228  -2.19085  -2.18527  -1.15360
  Beta  occ. eigenvalues --   -1.15328  -1.15279  -1.14616  -1.14592  -1.14579
  Beta  occ. eigenvalues --   -1.14066  -1.14060  -1.14030  -1.13051  -1.13025
  Beta  occ. eigenvalues --   -1.12949  -1.12900  -1.12884  -1.12830  -1.12765
  Beta  occ. eigenvalues --   -1.12758  -1.12721  -1.12213  -1.12189  -1.12163
  Beta  occ. eigenvalues --   -0.17357  -0.13591  -0.10721
  Beta virt. eigenvalues --   -0.07530  -0.06945  -0.05081  -0.04143  -0.02909
  Beta virt. eigenvalues --   -0.02598  -0.01930  -0.01651  -0.01104  -0.00817
  Beta virt. eigenvalues --   -0.00266   0.00046   0.00177   0.00369   0.00714

 Mulliken charges and spin densities:
               1          2
     1  Na   0.401491   0.077580
     2  Na  -0.405488   0.343859
     3  Na   0.526676   0.055883
     4  Na  -0.336541  -0.006034
     5  Na  -0.163432  -0.017403
     6  Na  -0.425066   0.324127
     7  Na   0.402360   0.221989
 Sum of Mulliken charges =  -0.00000   1.00000

 Dipole moment (field-independent basis, Debye):
    X=              0.1054    Y=             -0.3039    Z=              0.9103  Tot=              0.9655
 Quadrupole moment (field-independent basis, Debye-Ang):
   XX=            -48.3155   YY=            -77.1365   ZZ=            -69.4486
   XY=             -1.0453   XZ=             -0.8057   YZ=              0.0117

 Normal termination of Gaussian 16 at Thu Dec  7 01:49:44 2023.
