 Gaussian 16, Revision B.01,
 Gaussian 16:  ES64L-G16RevB.01 20-Dec-2017

 -------------------------
 #P B3LYP/6-311+g(d) force
 -------------------------

 -----
 DPGEN
 -----
 Symbolic Z-matrix:
 Charge =  0 Multiplicity = 2

                         Standard orientation:
 ---------------------------------------------------------------------
 Center     Atomic      Atomic             Coordinates (Angstroms)
 Number     Number       Type             X           Y           Z
 ---------------------------------------------------------------------
      1         11           0       -3.631484    1.446940    0.486976
      2         11           0        4.551739   -0.973195   -0.020545
      3         11           0        0.215258    1.786815    1.006967
      4         11           0        2.261348    1.675257   -1.692482
      5         11           0       -4.644902   -1.445942   -0.533522
      6         11           0        1.584794   -1.063427    1.690191
      7         11           0       -0.336752   -1.426447   -0.937584
 ---------------------------------------------------------------------

 SCF Done:  E(UB3LYP) =  -1136.10159704     A.U. after   27 cycles

 The electronic state is 2-A.
 Alpha  occ. eigenvalues --  -38.46815 -38.45121 -38.44690 -38.44266 -38.44099
 Alpha  occ. eigenvalues --  -38.43785 -38.42651  -2.22580  -2.20897  -2.20501
 Alpha  occ. eigenvalues --   -2.20157  -2.19880  -2.19570  -2.18521  -1.16283
 Alpha  occ. eigenvalues --   -1.16222  -1.16188  -1.14578  -1.14550  -1.14530
 Alpha  occ. eigenvalues --   -1.14183  -1.14136  -1.14106  -1.13838  -1.13813
 Alpha  occ. eigenvalues --   -1.13779  -1.13555  -1.13525  -1.13515  -1.13237
 Alpha  occ. eigenvalues --   -1.13231  -1.13212  -1.12210  -1.12171  -1.12168
 Alpha  occ. eigenvalues --   -0.17530  -0.13844  -0.11283  -0.10826
 Alpha virt. eigenvalues --   -0.07973  -0.05745  -0.04161  -0.03523  -0.03160
 Alpha virt. eigenvalues --   -0.02633  -0.02022  -0.01976  -0.01222  -0.00770
 Alpha virt. eigenvalues --   -0.00566   0.00038   0.00171   0.00457   0.00552

  Beta  occ. eigenvalues --  -38.46781 -38.45106 -38.44616 -38.44219 -38.44074
  Beta  occ. eigenvalues --  -38.43778 -38.42640  -2.22521  -2.20870  -2.20362
  Beta  occ. eigenvalues --   -2.20074  -2.19833  -2.19559  -2.18503  -1.16219
  Beta  occ. eigenvalues --   -1.16185  -1.16152  -1.14560  -1.14534  -1.14506
  Beta  occ. eigenvalues --   -1.14089  -1.14047  -1.14000  -1.13771  -1.13760
  Beta  occ. eigenvalues --   -1.13713  -1.13525  -1.13487  -1.13478  -1.13228
  Beta  occ. eigenvalues --   -1.13219  -1.13207  -1.12191  -1.12163  -1.12140
  Beta  occ. eigenvalues --   -0.16809  -0.13471  -0.10696
  Beta virt. eigenvalues --   -0.07829  -0.07462  -0.05569  -0.03823  -0.02980
  Beta virt. eigenvalues --   -0.02800  -0.02462  -0.01827  -0.01449  -0.00885
  Beta virt. eigenvalues --   -0.00579  -0.00460   0.00088   0.00293   0.00530

 Mulliken charges and spin densities:
               1          2
     1  Na   0.106035   0.027945
     2  Na  -0.236891   0.133087
     3  Na  -0.859301   0.291868
     4  Na   0.429196   0.386597
     5  Na   0.129864   0.076037
     6  Na   0.919010  -0.001538
     7  Na  -0.487913   0.086004
 Sum of Mulliken charges =  -0.00000   1.00000

 Dipole moment (field-independent basis, Debye):
    X=             -0.4810    Y=             -0.1287    Z=             -0.2336  Tot=              0.5500
 Quadrupole moment (field-independent basis, Debye-Ang):
   XX=            -69.0191   YY=            -74.0499   ZZ=            -63.9293
   XY=              0.3185   XZ=             -0.3983   YZ=              3.8071

 Normal termination of Gaussian 16 at Sun Dec  3 16:10:40 2023.
