 Gaussian 16, Revision B.01,
 Gaussian 16:  ES64L-G16RevB.01 20-Dec-2017

 -------------------------
 #P B3LYP/6-311+g(d) force
 -------------------------

 -----
 DPGEN
 -----
 Symbolic Z-matrix:
 Charge =  0 Multiplicity = 2

                         Standard orientation:
 ---------------------------------------------------------------------
 Center     Atomic      Atomic             Coordinates (Angstroms)
 Number     Number       Type             X           Y           Z
 ---------------------------------------------------------------------
      1         11           0        1.702752   -2.324000   -1.714919
      2         11           0        5.047915   -0.787624    1.793882
      3         11           0        3.159114    0.732412   -0.370842
      4         11           0        0.710432    2.974448   -0.804901
      5         11           0       -0.432442    0.010386   -0.201910
      6         11           0       -4.129201   -0.082189    1.756515
      7         11           0       -6.058570   -0.523433   -0.457826
 ---------------------------------------------------------------------

 SCF Done:  E(UB3LYP) =  -1136.10738766     A.U. after   20 cycles

 The electronic state is 2-A.
 Alpha  occ. eigenvalues --  -38.45040 -38.45005 -38.44647 -38.44289 -38.43494
 Alpha  occ. eigenvalues --  -38.43362 -38.43278  -2.20835  -2.20814  -2.20457
 Alpha  occ. eigenvalues --   -2.20122  -2.19341  -2.19161  -2.19151  -1.14561
 Alpha  occ. eigenvalues --   -1.14484  -1.14480  -1.14463  -1.14452  -1.14415
 Alpha  occ. eigenvalues --   -1.14107  -1.14095  -1.14090  -1.13813  -1.13783
 Alpha  occ. eigenvalues --   -1.13765  -1.13013  -1.12983  -1.12971  -1.12883
 Alpha  occ. eigenvalues --   -1.12840  -1.12826  -1.12802  -1.12786  -1.12722
 Alpha  occ. eigenvalues --   -0.16528  -0.13919  -0.11652  -0.11382
 Alpha virt. eigenvalues --   -0.06853  -0.05082  -0.04517  -0.03271  -0.03176
 Alpha virt. eigenvalues --   -0.02603  -0.02160  -0.01508  -0.01146  -0.00842
 Alpha virt. eigenvalues --   -0.00670  -0.00252   0.00168   0.00460   0.00569

  Beta  occ. eigenvalues --  -38.45044 -38.44899 -38.44646 -38.44281 -38.43454
  Beta  occ. eigenvalues --  -38.43321 -38.43258  -2.20842  -2.20619  -2.20454
  Beta  occ. eigenvalues --   -2.20111  -2.19267  -2.19129  -2.19075  -1.14565
  Beta  occ. eigenvalues --   -1.14489  -1.14485  -1.14331  -1.14315  -1.14282
  Beta  occ. eigenvalues --   -1.14104  -1.14093  -1.14091  -1.13810  -1.13763
  Beta  occ. eigenvalues --   -1.13740  -1.12956  -1.12933  -1.12929  -1.12852
  Beta  occ. eigenvalues --   -1.12802  -1.12788  -1.12752  -1.12736  -1.12684
  Beta  occ. eigenvalues --   -0.15821  -0.13857  -0.11028
  Beta virt. eigenvalues --   -0.07652  -0.06694  -0.04908  -0.04061  -0.03052
  Beta virt. eigenvalues --   -0.02938  -0.02331  -0.01635  -0.01306  -0.00948
  Beta virt. eigenvalues --   -0.00578  -0.00440  -0.00019   0.00240   0.00530

 Mulliken charges and spin densities:
               1          2
     1  Na   0.737192   0.300504
     2  Na   0.325390   0.134968
     3  Na  -0.444597   0.329354
     4  Na   0.581848   0.163915
     5  Na  -1.134500   0.088208
     6  Na  -0.281329   0.006494
     7  Na   0.215997  -0.023444
 Sum of Mulliken charges =  -0.00000   1.00000

 Dipole moment (field-independent basis, Debye):
    X=             -2.4556    Y=             -0.3429    Z=             -0.5556  Tot=              2.5409
 Quadrupole moment (field-independent basis, Debye-Ang):
   XX=            -66.5117   YY=            -68.2300   ZZ=            -63.0376
   XY=              0.5077   XZ=              3.3851   YZ=              0.6226

 Normal termination of Gaussian 16 at Tue Nov 28 22:30:12 2023.
