 Gaussian 16, Revision B.01,
 Gaussian 16:  ES64L-G16RevB.01 20-Dec-2017

 -------------------------
 #P B3LYP/6-311+g(d) force
 -------------------------

 -----
 DPGEN
 -----
 Symbolic Z-matrix:
 Charge =  0 Multiplicity = 2

                         Standard orientation:
 ---------------------------------------------------------------------
 Center     Atomic      Atomic             Coordinates (Angstroms)
 Number     Number       Type             X           Y           Z
 ---------------------------------------------------------------------
      1         11           0       -0.564754    3.301845   -0.372376
      2         11           0        0.271046   -0.322111   -1.705367
      3         11           0       -3.629355   -0.555219   -0.540137
      4         11           0       -0.644225   -3.079262   -0.040375
      5         11           0       -1.756322    0.867489    2.053802
      6         11           0        3.117465   -1.791667    0.735789
      7         11           0        3.206146    1.578925   -0.131337
 ---------------------------------------------------------------------

 SCF Done:  E(UB3LYP) =  -1136.11968332     A.U. after   21 cycles

 The electronic state is 2-A.
 Alpha  occ. eigenvalues --  -38.45438 -38.44610 -38.44134 -38.44079 -38.44013
 Alpha  occ. eigenvalues --  -38.43868 -38.43724  -2.21185  -2.20368  -2.19911
 Alpha  occ. eigenvalues --   -2.19880  -2.19769  -2.19652  -2.19562  -1.14865
 Alpha  occ. eigenvalues --   -1.14844  -1.14824  -1.14053  -1.14032  -1.14002
 Alpha  occ. eigenvalues --   -1.13603  -1.13586  -1.13535  -1.13531  -1.13520
 Alpha  occ. eigenvalues --   -1.13512  -1.13445  -1.13427  -1.13406  -1.13322
 Alpha  occ. eigenvalues --   -1.13297  -1.13283  -1.13247  -1.13198  -1.13181
 Alpha  occ. eigenvalues --   -0.16830  -0.13187  -0.12150  -0.10096
 Alpha virt. eigenvalues --   -0.06763  -0.05360  -0.05192  -0.03391  -0.02971
 Alpha virt. eigenvalues --   -0.02197  -0.02029  -0.01267  -0.01183  -0.00930
 Alpha virt. eigenvalues --   -0.00169   0.00237   0.00323   0.00586   0.00669

  Beta  occ. eigenvalues --  -38.45441 -38.44607 -38.44130 -38.44014 -38.44005
  Beta  occ. eigenvalues --  -38.43829 -38.43660  -2.21193  -2.20366  -2.19907
  Beta  occ. eigenvalues --   -2.19760  -2.19755  -2.19580  -2.19443  -1.14863
  Beta  occ. eigenvalues --   -1.14849  -1.14818  -1.14051  -1.14034  -1.13982
  Beta  occ. eigenvalues --   -1.13596  -1.13573  -1.13531  -1.13450  -1.13448
  Beta  occ. eigenvalues --   -1.13436  -1.13427  -1.13409  -1.13386  -1.13271
  Beta  occ. eigenvalues --   -1.13250  -1.13231  -1.13167  -1.13118  -1.13090
  Beta  occ. eigenvalues --   -0.16264  -0.12730  -0.11926
  Beta virt. eigenvalues --   -0.06771  -0.06671  -0.05195  -0.04819  -0.02901
  Beta virt. eigenvalues --   -0.02354  -0.02018  -0.01467  -0.01254  -0.01118
  Beta virt. eigenvalues --   -0.00818   0.00056   0.00362   0.00440   0.00650

 Mulliken charges and spin densities:
               1          2
     1  Na  -0.158090  -0.103176
     2  Na   0.717458   0.422909
     3  Na   0.136181  -0.073349
     4  Na  -0.197132  -0.000620
     5  Na  -0.191532   0.497835
     6  Na  -0.271136   0.228800
     7  Na  -0.035750   0.027601
 Sum of Mulliken charges =  -0.00000   1.00000

 Dipole moment (field-independent basis, Debye):
    X=             -0.7353    Y=             -0.0797    Z=             -0.2233  Tot=              0.7725
 Quadrupole moment (field-independent basis, Debye-Ang):
   XX=            -59.3266   YY=            -63.7964   ZZ=            -73.4477
   XY=              3.4414   XZ=              4.4280   YZ=             -2.5242

 Normal termination of Gaussian 16 at Sun Dec  3 19:40:50 2023.
