 Gaussian 16, Revision B.01,
 Gaussian 16:  ES64L-G16RevB.01 20-Dec-2017

 -------------------------
 #P B3LYP/6-311+g(d) force
 -------------------------

 -----
 DPGEN
 -----
 Symbolic Z-matrix:
 Charge =  0 Multiplicity = 2

                         Standard orientation:
 ---------------------------------------------------------------------
 Center     Atomic      Atomic             Coordinates (Angstroms)
 Number     Number       Type             X           Y           Z
 ---------------------------------------------------------------------
      1         11           0        1.031368   -3.009471   -0.678631
      2         11           0       -0.497181    0.476833   -0.525918
      3         11           0        1.984523    3.050253    0.275298
      4         11           0       -3.917287    2.004578   -0.173852
      5         11           0        0.823169   -1.005450    1.785595
      6         11           0        2.851099    0.490789   -0.743527
      7         11           0       -2.275690   -2.007532    0.061036
 ---------------------------------------------------------------------

 SCF Done:  E(UB3LYP) =  -1136.11493549     A.U. after   22 cycles

 The electronic state is 2-A.
 Alpha  occ. eigenvalues --  -38.45045 -38.44864 -38.44456 -38.43875 -38.43562
 Alpha  occ. eigenvalues --  -38.43521 -38.43226  -2.20869  -2.20699  -2.20182
 Alpha  occ. eigenvalues --   -2.19794  -2.19497  -2.19428  -2.19185  -1.14595
 Alpha  occ. eigenvalues --   -1.14538  -1.14458  -1.14444  -1.14339  -1.14325
 Alpha  occ. eigenvalues --   -1.13858  -1.13853  -1.13804  -1.13470  -1.13436
 Alpha  occ. eigenvalues --   -1.13429  -1.13265  -1.13159  -1.13125  -1.13113
 Alpha  occ. eigenvalues --   -1.13074  -1.13064  -1.12854  -1.12808  -1.12761
 Alpha  occ. eigenvalues --   -0.18410  -0.13624  -0.12146  -0.09687
 Alpha virt. eigenvalues --   -0.06762  -0.05895  -0.04911  -0.03046  -0.02330
 Alpha virt. eigenvalues --   -0.02096  -0.02053  -0.01383  -0.01147  -0.00702
 Alpha virt. eigenvalues --   -0.00132   0.00200   0.00445   0.00554   0.00688

  Beta  occ. eigenvalues --  -38.45039 -38.44865 -38.44456 -38.43850 -38.43529
  Beta  occ. eigenvalues --  -38.43505 -38.43142  -2.20861  -2.20703  -2.20183
  Beta  occ. eigenvalues --   -2.19750  -2.19472  -2.19369  -2.19031  -1.14593
  Beta  occ. eigenvalues --   -1.14508  -1.14457  -1.14446  -1.14342  -1.14316
  Beta  occ. eigenvalues --   -1.13857  -1.13853  -1.13805  -1.13443  -1.13401
  Beta  occ. eigenvalues --   -1.13383  -1.13210  -1.13138  -1.13098  -1.13071
  Beta  occ. eigenvalues --   -1.13035  -1.13011  -1.12755  -1.12694  -1.12654
  Beta  occ. eigenvalues --   -0.17741  -0.13453  -0.11976
  Beta virt. eigenvalues --   -0.06628  -0.05952  -0.05663  -0.04742  -0.02458
  Beta virt. eigenvalues --   -0.02059  -0.02000  -0.01780  -0.01062  -0.00774
  Beta virt. eigenvalues --   -0.00492   0.00135   0.00327   0.00548   0.00649

 Mulliken charges and spin densities:
               1          2
     1  Na   0.689043   0.473842
     2  Na  -2.348675   0.041445
     3  Na   0.211491   0.010744
     4  Na   0.288516  -0.064169
     5  Na  -0.577386   0.122982
     6  Na   1.384910   0.378512
     7  Na   0.352101   0.036644
 Sum of Mulliken charges =  -0.00000   1.00000

 Dipole moment (field-independent basis, Debye):
    X=             -0.1493    Y=              0.3854    Z=              0.6556  Tot=              0.7750
 Quadrupole moment (field-independent basis, Debye-Ang):
   XX=            -59.1619   YY=            -54.4178   ZZ=            -78.2121
   XY=              3.5761   XZ=              0.1630   YZ=              1.3583

 Normal termination of Gaussian 16 at Tue Dec  5 11:06:02 2023.
