 Gaussian 16, Revision B.01,
 Gaussian 16:  ES64L-G16RevB.01 20-Dec-2017

 -------------------------
 #P B3LYP/6-311+g(d) force
 -------------------------

 -----
 DPGEN
 -----
 Symbolic Z-matrix:
 Charge =  0 Multiplicity = 2

                         Standard orientation:
 ---------------------------------------------------------------------
 Center     Atomic      Atomic             Coordinates (Angstroms)
 Number     Number       Type             X           Y           Z
 ---------------------------------------------------------------------
      1         11           0       -3.429811   -0.498402   -0.235714
      2         11           0        2.590176    1.917675    0.109829
      3         11           0       -0.653643    1.335614   -1.926900
      4         11           0       -0.878050   -2.207926    0.059545
      5         11           0        1.140805   -1.007595    2.134689
      6         11           0        2.487256   -1.606263   -1.312284
      7         11           0       -1.256733    2.066898    1.170836
 ---------------------------------------------------------------------

 SCF Done:  E(UB3LYP) =  -1136.12872922     A.U. after   21 cycles

 The electronic state is 2-A.
 Alpha  occ. eigenvalues --  -38.44275 -38.44190 -38.44185 -38.44160 -38.43959
 Alpha  occ. eigenvalues --  -38.43955 -38.42876  -2.20064  -2.20010  -2.19993
 Alpha  occ. eigenvalues --   -2.19954  -2.19807  -2.19784  -2.18765  -1.13735
 Alpha  occ. eigenvalues --   -1.13710  -1.13708  -1.13696  -1.13694  -1.13670
 Alpha  occ. eigenvalues --   -1.13653  -1.13636  -1.13630  -1.13612  -1.13604
 Alpha  occ. eigenvalues --   -1.13594  -1.13504  -1.13455  -1.13443  -1.13431
 Alpha  occ. eigenvalues --   -1.13418  -1.13400  -1.12460  -1.12425  -1.12401
 Alpha  occ. eigenvalues --   -0.17854  -0.13070  -0.11875  -0.11159
 Alpha virt. eigenvalues --   -0.05949  -0.05407  -0.04439  -0.03529  -0.03183
 Alpha virt. eigenvalues --   -0.02901  -0.01632  -0.00994  -0.00402  -0.00232
 Alpha virt. eigenvalues --    0.00105   0.00352   0.00407   0.00559   0.00789

  Beta  occ. eigenvalues --  -38.44238 -38.44190 -38.44160 -38.44146 -38.43933
  Beta  occ. eigenvalues --  -38.43892 -38.42869  -2.19995  -2.19994  -2.19957
  Beta  occ. eigenvalues --   -2.19938  -2.19737  -2.19689  -2.18756  -1.13698
  Beta  occ. eigenvalues --   -1.13681  -1.13666  -1.13663  -1.13647  -1.13643
  Beta  occ. eigenvalues --   -1.13621  -1.13620  -1.13616  -1.13611  -1.13598
  Beta  occ. eigenvalues --   -1.13564  -1.13427  -1.13422  -1.13395  -1.13367
  Beta  occ. eigenvalues --   -1.13351  -1.13331  -1.12442  -1.12410  -1.12392
  Beta  occ. eigenvalues --   -0.17157  -0.12871  -0.11713
  Beta virt. eigenvalues --   -0.07416  -0.05871  -0.05101  -0.03938  -0.03341
  Beta virt. eigenvalues --   -0.02545  -0.01978  -0.01577  -0.00867  -0.00246
  Beta virt. eigenvalues --   -0.00070   0.00115   0.00438   0.00522   0.00706

 Mulliken charges and spin densities:
               1          2
     1  Na   0.472694  -0.162525
     2  Na   0.064115  -0.003722
     3  Na  -0.363667   0.366256
     4  Na  -0.273160   0.246152
     5  Na  -0.028047   0.259277
     6  Na   0.053168   0.146103
     7  Na   0.074896   0.148461
 Sum of Mulliken charges =  -0.00000   1.00000

 Dipole moment (field-independent basis, Debye):
    X=              0.0761    Y=              0.4265    Z=             -0.1762  Tot=              0.4677
 Quadrupole moment (field-independent basis, Debye-Ang):
   XX=            -56.5134   YY=            -72.3951   ZZ=            -66.9394
   XY=             -0.2297   XZ=             -0.8265   YZ=              2.4951

 Normal termination of Gaussian 16 at Sun Dec  3 13:47:58 2023.
