 Gaussian 16, Revision B.01,
 Gaussian 16:  ES64L-G16RevB.01 20-Dec-2017

 -------------------------
 #P B3LYP/6-311+g(d) force
 -------------------------

 -----
 DPGEN
 -----
 Symbolic Z-matrix:
 Charge =  0 Multiplicity = 2

                         Standard orientation:
 ---------------------------------------------------------------------
 Center     Atomic      Atomic             Coordinates (Angstroms)
 Number     Number       Type             X           Y           Z
 ---------------------------------------------------------------------
      1         11           0       -4.127850   -0.549157   -0.977194
      2         11           0       -1.564903   -1.264450    1.896917
      3         11           0        0.961922    1.368699    0.707031
      4         11           0        4.596198    1.006647   -0.664243
      5         11           0       -2.525713    2.058905    0.336927
      6         11           0        3.202117   -1.711722    0.388540
      7         11           0       -0.541771   -0.908922   -1.687977
 ---------------------------------------------------------------------

 SCF Done:  E(UB3LYP) =  -1136.10674958     A.U. after   28 cycles

 The electronic state is 2-A.
 Alpha  occ. eigenvalues --  -38.45855 -38.45738 -38.45107 -38.44663 -38.43896
 Alpha  occ. eigenvalues --  -38.42624 -38.42440  -2.21633  -2.21513  -2.20890
 Alpha  occ. eigenvalues --   -2.20468  -2.19748  -2.18454  -2.18281  -1.15310
 Alpha  occ. eigenvalues --   -1.15280  -1.15249  -1.15207  -1.15169  -1.15119
 Alpha  occ. eigenvalues --   -1.14566  -1.14559  -1.14538  -1.14123  -1.14112
 Alpha  occ. eigenvalues --   -1.14092  -1.13434  -1.13398  -1.13348  -1.12131
 Alpha  occ. eigenvalues --   -1.12121  -1.12082  -1.12011  -1.11956  -1.11877
 Alpha  occ. eigenvalues --   -0.17463  -0.14385  -0.10969  -0.10191
 Alpha virt. eigenvalues --   -0.07592  -0.06192  -0.04455  -0.03226  -0.02972
 Alpha virt. eigenvalues --   -0.02335  -0.02053  -0.01785  -0.01447  -0.00785
 Alpha virt. eigenvalues --   -0.00353   0.00084   0.00232   0.00372   0.00491

  Beta  occ. eigenvalues --  -38.45817 -38.45713 -38.45111 -38.44622 -38.43836
  Beta  occ. eigenvalues --  -38.42607 -38.42437  -2.21564  -2.21468  -2.20899
  Beta  occ. eigenvalues --   -2.20390  -2.19637  -2.18425  -2.18278  -1.15242
  Beta  occ. eigenvalues --   -1.15235  -1.15205  -1.15167  -1.15136  -1.15088
  Beta  occ. eigenvalues --   -1.14575  -1.14560  -1.14527  -1.14070  -1.14058
  Beta  occ. eigenvalues --   -1.14043  -1.13360  -1.13326  -1.13261  -1.12106
  Beta  occ. eigenvalues --   -1.12098  -1.12062  -1.12012  -1.11934  -1.11877
  Beta  occ. eigenvalues --   -0.16844  -0.13996  -0.10024
  Beta virt. eigenvalues --   -0.07519  -0.07354  -0.05544  -0.04270  -0.03069
  Beta virt. eigenvalues --   -0.02663  -0.01805  -0.01657  -0.01340  -0.01227
  Beta virt. eigenvalues --   -0.00526  -0.00278   0.00173   0.00257   0.00430

 Mulliken charges and spin densities:
               1          2
     1  Na   0.143748   0.018856
     2  Na   0.014591   0.306144
     3  Na  -0.480958  -0.047162
     4  Na   0.257350   0.157487
     5  Na  -0.118711   0.294268
     6  Na   0.399338   0.104588
     7  Na  -0.215358   0.165819
 Sum of Mulliken charges =  -0.00000   1.00000

 Dipole moment (field-independent basis, Debye):
    X=              1.1530    Y=             -0.6501    Z=              0.8649  Tot=              1.5811
 Quadrupole moment (field-independent basis, Debye-Ang):
   XX=            -65.7111   YY=            -69.4919   ZZ=            -68.8316
   XY=              0.3198   XZ=             -7.3727   YZ=            -10.3322

 Normal termination of Gaussian 16 at Thu Dec  7 23:06:55 2023.
