 Gaussian 16, Revision B.01,
 Gaussian 16:  ES64L-G16RevB.01 20-Dec-2017

 -------------------------
 #P B3LYP/6-311+g(d) force
 -------------------------

 -----
 DPGEN
 -----
 Symbolic Z-matrix:
 Charge =  0 Multiplicity = 2

                         Standard orientation:
 ---------------------------------------------------------------------
 Center     Atomic      Atomic             Coordinates (Angstroms)
 Number     Number       Type             X           Y           Z
 ---------------------------------------------------------------------
      1         11           0        1.522917   -0.000411    1.872230
      2         11           0        3.512840   -1.571087    0.301464
      3         11           0       -4.199271   -0.878205   -0.279092
      4         11           0       -1.421661   -2.032620   -0.382351
      5         11           0        1.466787   -0.309788   -1.705214
      6         11           0        0.780063    3.014002   -1.148352
      7         11           0       -1.661674    1.778107    1.341316
 ---------------------------------------------------------------------

 SCF Done:  E(UB3LYP) =  -1136.11828234     A.U. after   20 cycles

 The electronic state is 2-A.
 Alpha  occ. eigenvalues --  -38.44521 -38.44338 -38.44283 -38.44213 -38.43941
 Alpha  occ. eigenvalues --  -38.43924 -38.43531  -2.20323  -2.20218  -2.20170
 Alpha  occ. eigenvalues --   -2.20041  -2.19847  -2.19708  -2.19323  -1.14056
 Alpha  occ. eigenvalues --   -1.14019  -1.13977  -1.13962  -1.13898  -1.13853
 Alpha  occ. eigenvalues --   -1.13822  -1.13794  -1.13722  -1.13713  -1.13694
 Alpha  occ. eigenvalues --   -1.13650  -1.13518  -1.13488  -1.13458  -1.13396
 Alpha  occ. eigenvalues --   -1.13367  -1.13320  -1.12993  -1.12989  -1.12941
 Alpha  occ. eigenvalues --   -0.17672  -0.13633  -0.11881  -0.11219
 Alpha virt. eigenvalues --   -0.06709  -0.05440  -0.04217  -0.03308  -0.02978
 Alpha virt. eigenvalues --   -0.02797  -0.02407  -0.01158  -0.00740  -0.00243
 Alpha virt. eigenvalues --    0.00082   0.00165   0.00332   0.00542   0.00802

  Beta  occ. eigenvalues --  -38.44529 -38.44328 -38.44215 -38.44201 -38.43899
  Beta  occ. eigenvalues --  -38.43876 -38.43505  -2.20339  -2.20202  -2.20045
  Beta  occ. eigenvalues --   -2.20018  -2.19728  -2.19662  -2.19277  -1.14063
  Beta  occ. eigenvalues --   -1.13987  -1.13976  -1.13970  -1.13869  -1.13833
  Beta  occ. eigenvalues --   -1.13749  -1.13712  -1.13692  -1.13674  -1.13646
  Beta  occ. eigenvalues --   -1.13640  -1.13438  -1.13410  -1.13366  -1.13357
  Beta  occ. eigenvalues --   -1.13334  -1.13294  -1.12960  -1.12950  -1.12908
  Beta  occ. eigenvalues --   -0.16994  -0.13500  -0.11622
  Beta virt. eigenvalues --   -0.07426  -0.06447  -0.04991  -0.04075  -0.02945
  Beta virt. eigenvalues --   -0.02535  -0.02386  -0.01899  -0.00988  -0.00471
  Beta virt. eigenvalues --   -0.00117   0.00130   0.00236   0.00566   0.00690

 Mulliken charges and spin densities:
               1          2
     1  Na   0.066920   0.317403
     2  Na   0.151194   0.011008
     3  Na   0.557483  -0.135688
     4  Na  -0.809618   0.137752
     5  Na   0.475533   0.360347
     6  Na  -0.196963   0.078580
     7  Na  -0.244548   0.230599
 Sum of Mulliken charges =  -0.00000   1.00000

 Dipole moment (field-independent basis, Debye):
    X=             -0.1906    Y=             -0.1581    Z=              0.0141  Tot=              0.2480
 Quadrupole moment (field-independent basis, Debye-Ang):
   XX=            -53.0016   YY=            -70.7539   ZZ=            -72.1269
   XY=             -4.1949   XZ=             -0.9171   YZ=             -0.7059

 Normal termination of Gaussian 16 at Sun Dec  3 23:34:38 2023.
