 Gaussian 16, Revision B.01,
 Gaussian 16:  ES64L-G16RevB.01 20-Dec-2017

 -------------------------
 #P B3LYP/6-311+g(d) force
 -------------------------

 -----
 DPGEN
 -----
 Symbolic Z-matrix:
 Charge =  0 Multiplicity = 2

                         Standard orientation:
 ---------------------------------------------------------------------
 Center     Atomic      Atomic             Coordinates (Angstroms)
 Number     Number       Type             X           Y           Z
 ---------------------------------------------------------------------
      1         11           0       -2.347409   -2.776063   -0.293751
      2         11           0        3.104534   -2.123207    0.031777
      3         11           0       -3.245231    0.701590    0.324376
      4         11           0        0.310084   -0.331086    1.936300
      5         11           0        2.806273    1.541918   -0.143281
      6         11           0       -0.615511    3.043432   -0.070503
      7         11           0       -0.012741   -0.056584   -1.784918
 ---------------------------------------------------------------------

 SCF Done:  E(UB3LYP) =  -1136.12763160     A.U. after   21 cycles

 The electronic state is 2-A.
 Alpha  occ. eigenvalues --  -38.44684 -38.44545 -38.44475 -38.44045 -38.44033
 Alpha  occ. eigenvalues --  -38.43769 -38.43064  -2.20433  -2.20331  -2.20276
 Alpha  occ. eigenvalues --   -2.19852  -2.19802  -2.19617  -2.18878  -1.14104
 Alpha  occ. eigenvalues --   -1.14100  -1.14072  -1.14010  -1.13992  -1.13964
 Alpha  occ. eigenvalues --   -1.13959  -1.13946  -1.13895  -1.13534  -1.13492
 Alpha  occ. eigenvalues --   -1.13472  -1.13463  -1.13458  -1.13444  -1.13307
 Alpha  occ. eigenvalues --   -1.13252  -1.13230  -1.12553  -1.12540  -1.12527
 Alpha  occ. eigenvalues --   -0.17598  -0.13131  -0.11803  -0.10232
 Alpha virt. eigenvalues --   -0.06404  -0.05908  -0.04729  -0.03215  -0.02598
 Alpha virt. eigenvalues --   -0.02351  -0.02023  -0.01577  -0.01109  -0.00614
 Alpha virt. eigenvalues --   -0.00097   0.00291   0.00619   0.00655   0.00688

  Beta  occ. eigenvalues --  -38.44687 -38.44538 -38.44469 -38.44040 -38.43955
  Beta  occ. eigenvalues --  -38.43697 -38.43062  -2.20442  -2.20320  -2.20266
  Beta  occ. eigenvalues --   -2.19796  -2.19706  -2.19485  -2.18877  -1.14108
  Beta  occ. eigenvalues --   -1.14097  -1.14079  -1.13992  -1.13984  -1.13957
  Beta  occ. eigenvalues --   -1.13942  -1.13931  -1.13890  -1.13460  -1.13455
  Beta  occ. eigenvalues --   -1.13442  -1.13433  -1.13390  -1.13351  -1.13215
  Beta  occ. eigenvalues --   -1.13160  -1.13130  -1.12551  -1.12537  -1.12513
  Beta  occ. eigenvalues --   -0.16901  -0.12972  -0.11603
  Beta virt. eigenvalues --   -0.06581  -0.06219  -0.05746  -0.04696  -0.02547
  Beta virt. eigenvalues --   -0.01964  -0.01876  -0.01575  -0.01277  -0.01144
  Beta virt. eigenvalues --   -0.00637   0.00078   0.00331   0.00642   0.00731

 Mulliken charges and spin densities:
               1          2
     1  Na  -0.051892  -0.059368
     2  Na   0.003835  -0.116707
     3  Na   0.111649   0.051046
     4  Na  -0.140964   0.599961
     5  Na   0.143501  -0.002497
     6  Na  -0.130120  -0.045497
     7  Na   0.063990   0.573062
 Sum of Mulliken charges =  -0.00000   1.00000

 Dipole moment (field-independent basis, Debye):
    X=              0.4064    Y=             -0.3046    Z=              0.0392  Tot=              0.5093
 Quadrupole moment (field-independent basis, Debye-Ang):
   XX=            -53.6714   YY=            -62.0932   ZZ=            -77.1901
   XY=             -1.0717   XZ=             -1.1925   YZ=              0.8232

 Normal termination of Gaussian 16 at Thu Dec  7 20:17:19 2023.
