 Gaussian 16, Revision B.01,
 Gaussian 16:  ES64L-G16RevB.01 20-Dec-2017

 -------------------------
 #P B3LYP/6-311+g(d) force
 -------------------------

 -----
 DPGEN
 -----
 Symbolic Z-matrix:
 Charge =  0 Multiplicity = 2

                         Standard orientation:
 ---------------------------------------------------------------------
 Center     Atomic      Atomic             Coordinates (Angstroms)
 Number     Number       Type             X           Y           Z
 ---------------------------------------------------------------------
      1         11           0       -3.511837   -0.625735    0.488261
      2         11           0       -0.776534   -0.117913    0.585253
      3         11           0       -0.030474   -1.184029   -1.839901
      4         11           0        1.416465    0.556380    1.967602
      5         11           0       -0.591630    2.460026   -0.651500
      6         11           0        1.834074    0.858116   -0.843577
      7         11           0        1.659936   -1.946846    0.293862
 ---------------------------------------------------------------------

 SCF Done:  E(UB3LYP) =  -1136.08266623     A.U. after   23 cycles

 The electronic state is 2-A.
 Alpha  occ. eigenvalues --  -38.44683 -38.44523 -38.44230 -38.43604 -38.43435
 Alpha  occ. eigenvalues --  -38.43179 -38.43169  -2.20766  -2.20358  -2.20316
 Alpha  occ. eigenvalues --   -2.19817  -2.19600  -2.19393  -2.19258  -1.14652
 Alpha  occ. eigenvalues --   -1.14439  -1.14302  -1.14216  -1.14149  -1.13974
 Alpha  occ. eigenvalues --   -1.13964  -1.13949  -1.13941  -1.13563  -1.13490
 Alpha  occ. eigenvalues --   -1.13427  -1.13328  -1.13217  -1.13204  -1.13033
 Alpha  occ. eigenvalues --   -1.12970  -1.12956  -1.12910  -1.12896  -1.12838
 Alpha  occ. eigenvalues --   -0.20753  -0.13197  -0.12561  -0.12132
 Alpha virt. eigenvalues --   -0.05682  -0.04190  -0.03718  -0.03363  -0.03005
 Alpha virt. eigenvalues --   -0.02905  -0.01338  -0.00676  -0.00399   0.00287
 Alpha virt. eigenvalues --    0.00580   0.00753   0.00809   0.00968   0.01075

  Beta  occ. eigenvalues --  -38.44603 -38.44512 -38.44165 -38.43563 -38.43417
  Beta  occ. eigenvalues --  -38.43154 -38.43142  -2.20622  -2.20339  -2.20201
  Beta  occ. eigenvalues --   -2.19751  -2.19543  -2.19362  -2.19237  -1.14556
  Beta  occ. eigenvalues --   -1.14342  -1.14194  -1.14157  -1.14116  -1.13958
  Beta  occ. eigenvalues --   -1.13951  -1.13864  -1.13844  -1.13517  -1.13436
  Beta  occ. eigenvalues --   -1.13341  -1.13281  -1.13182  -1.13128  -1.12988
  Beta  occ. eigenvalues --   -1.12947  -1.12938  -1.12891  -1.12840  -1.12819
  Beta  occ. eigenvalues --   -0.19851  -0.12887  -0.11938
  Beta virt. eigenvalues --   -0.08268  -0.05441  -0.04091  -0.03310  -0.02843
  Beta virt. eigenvalues --   -0.02505  -0.01867  -0.01250  -0.00591  -0.00159
  Beta virt. eigenvalues --    0.00337   0.00626   0.00779   0.00959   0.00988

 Mulliken charges and spin densities:
               1          2
     1  Na   0.053723  -0.078893
     2  Na  -0.587682  -0.192018
     3  Na   0.247792   0.431639
     4  Na   0.441336   0.261085
     5  Na  -0.201032   0.161611
     6  Na   0.214848   0.248998
     7  Na  -0.168985   0.167578
 Sum of Mulliken charges =  -0.00000   1.00000

 Dipole moment (field-independent basis, Debye):
    X=             -0.1988    Y=              0.1355    Z=             -0.0346  Tot=              0.2431
 Quadrupole moment (field-independent basis, Debye-Ang):
   XX=            -58.9815   YY=            -69.9941   ZZ=            -64.2376
   XY=             -0.7425   XZ=              0.8048   YZ=             -1.7066

 Normal termination of Gaussian 16 at Fri Dec  8 17:19:54 2023.
