 Gaussian 16, Revision B.01,
 Gaussian 16:  ES64L-G16RevB.01 20-Dec-2017

 -------------------------
 #P B3LYP/6-311+g(d) force
 -------------------------

 -----
 DPGEN
 -----
 Symbolic Z-matrix:
 Charge =  0 Multiplicity = 2

                         Standard orientation:
 ---------------------------------------------------------------------
 Center     Atomic      Atomic             Coordinates (Angstroms)
 Number     Number       Type             X           Y           Z
 ---------------------------------------------------------------------
      1         11           0       -4.199577    0.482020   -0.406624
      2         11           0        1.692176    2.871729    0.202731
      3         11           0        4.684900    0.586506    0.512989
      4         11           0       -0.349467   -2.757824   -0.464655
      5         11           0       -3.700367   -2.313894    0.905279
      6         11           0        3.816098   -2.241312   -0.472894
      7         11           0       -1.943763    3.372775   -0.276827
 ---------------------------------------------------------------------

 SCF Done:  E(UB3LYP) =  -1136.10386224     A.U. after   27 cycles

 The electronic state is 2-A.
 Alpha  occ. eigenvalues --  -38.45496 -38.45257 -38.44619 -38.44482 -38.44273
 Alpha  occ. eigenvalues --  -38.44241 -38.44164  -2.21269  -2.20998  -2.20415
 Alpha  occ. eigenvalues --   -2.20297  -2.20015  -2.20014  -2.19985  -1.14947
 Alpha  occ. eigenvalues --   -1.14938  -1.14912  -1.14679  -1.14667  -1.14607
 Alpha  occ. eigenvalues --   -1.14145  -1.14084  -1.14060  -1.13953  -1.13935
 Alpha  occ. eigenvalues --   -1.13903  -1.13701  -1.13690  -1.13674  -1.13665
 Alpha  occ. eigenvalues --   -1.13656  -1.13646  -1.13632  -1.13619  -1.13615
 Alpha  occ. eigenvalues --   -0.15505  -0.14295  -0.12811  -0.10632
 Alpha virt. eigenvalues --   -0.07980  -0.04985  -0.04677  -0.03632  -0.03330
 Alpha virt. eigenvalues --   -0.02670  -0.02260  -0.01639  -0.01168  -0.00984
 Alpha virt. eigenvalues --   -0.00606  -0.00257   0.00079   0.00357   0.00534

  Beta  occ. eigenvalues --  -38.45483 -38.45219 -38.44627 -38.44435 -38.44288
  Beta  occ. eigenvalues --  -38.44150 -38.44125  -2.21249  -2.20929  -2.20435
  Beta  occ. eigenvalues --   -2.20209  -2.20045  -2.19913  -2.19845  -1.14933
  Beta  occ. eigenvalues --   -1.14928  -1.14868  -1.14633  -1.14621  -1.14549
  Beta  occ. eigenvalues --   -1.14135  -1.14101  -1.14059  -1.13893  -1.13877
  Beta  occ. eigenvalues --   -1.13858  -1.13723  -1.13713  -1.13659  -1.13595
  Beta  occ. eigenvalues --   -1.13584  -1.13569  -1.13559  -1.13550  -1.13503
  Beta  occ. eigenvalues --   -0.14986  -0.13816  -0.12200
  Beta virt. eigenvalues --   -0.08085  -0.07300  -0.04622  -0.04078  -0.03451
  Beta virt. eigenvalues --   -0.02915  -0.02536  -0.02216  -0.01521  -0.01015
  Beta virt. eigenvalues --   -0.00635  -0.00300  -0.00112   0.00220   0.00471

 Mulliken charges and spin densities:
               1          2
     1  Na  -0.224314   0.258421
     2  Na  -0.164640   0.222725
     3  Na   0.302756   0.240893
     4  Na  -0.325421   0.432423
     5  Na   0.307243  -0.004372
     6  Na   0.019648   0.054881
     7  Na   0.084728  -0.204971
 Sum of Mulliken charges =  -0.00000   1.00000

 Dipole moment (field-independent basis, Debye):
    X=              0.3857    Y=             -0.2401    Z=              0.1559  Tot=              0.4803
 Quadrupole moment (field-independent basis, Debye-Ang):
   XX=            -61.0783   YY=            -66.8007   ZZ=            -71.9038
   XY=             -0.1659   XZ=             -0.4154   YZ=             -0.5776

 Normal termination of Gaussian 16 at Sun Dec  3 22:28:37 2023.
