 Gaussian 16, Revision B.01,
 Gaussian 16:  ES64L-G16RevB.01 20-Dec-2017

 -------------------------
 #P B3LYP/6-311+g(d) force
 -------------------------

 -----
 DPGEN
 -----
 Symbolic Z-matrix:
 Charge =  0 Multiplicity = 2

                         Standard orientation:
 ---------------------------------------------------------------------
 Center     Atomic      Atomic             Coordinates (Angstroms)
 Number     Number       Type             X           Y           Z
 ---------------------------------------------------------------------
      1         11           0        1.666157   -2.002989    0.750519
      2         11           0       -2.123699    2.066276    0.161745
      3         11           0       -3.794452   -0.833291   -1.290709
      4         11           0       -1.496253   -0.930460    1.710516
      5         11           0        1.673185    1.491309    1.316912
      6         11           0        3.926105    0.170755   -1.338048
      7         11           0        0.148959    0.038399   -1.310934
 ---------------------------------------------------------------------

 SCF Done:  E(UB3LYP) =  -1136.12184176     A.U. after   31 cycles

 The electronic state is 2-A.
 Alpha  occ. eigenvalues --  -38.44893 -38.44600 -38.44583 -38.44360 -38.43636
 Alpha  occ. eigenvalues --  -38.43220 -38.42658  -2.20737  -2.20476  -2.20389
 Alpha  occ. eigenvalues --   -2.20209  -2.19426  -2.19103  -2.18527  -1.14443
 Alpha  occ. eigenvalues --   -1.14381  -1.14337  -1.14216  -1.14154  -1.14072
 Alpha  occ. eigenvalues --   -1.14052  -1.14043  -1.13999  -1.13893  -1.13874
 Alpha  occ. eigenvalues --   -1.13807  -1.13100  -1.13093  -1.13052  -1.12812
 Alpha  occ. eigenvalues --   -1.12755  -1.12693  -1.12213  -1.12212  -1.12140
 Alpha  occ. eigenvalues --   -0.18344  -0.14034  -0.11459  -0.10467
 Alpha virt. eigenvalues --   -0.06642  -0.05626  -0.04810  -0.03093  -0.02672
 Alpha virt. eigenvalues --   -0.02293  -0.02101  -0.01503  -0.00873  -0.00370
 Alpha virt. eigenvalues --    0.00057   0.00210   0.00346   0.00486   0.00504

  Beta  occ. eigenvalues --  -38.44843 -38.44573 -38.44554 -38.44322 -38.43628
  Beta  occ. eigenvalues --  -38.43193 -38.42653  -2.20648  -2.20463  -2.20301
  Beta  occ. eigenvalues --   -2.20142  -2.19412  -2.19053  -2.18522  -1.14382
  Beta  occ. eigenvalues --   -1.14310  -1.14270  -1.14164  -1.14149  -1.14067
  Beta  occ. eigenvalues --   -1.13992  -1.13978  -1.13945  -1.13849  -1.13832
  Beta  occ. eigenvalues --   -1.13735  -1.13089  -1.13079  -1.13045  -1.12774
  Beta  occ. eigenvalues --   -1.12724  -1.12655  -1.12213  -1.12182  -1.12139
  Beta  occ. eigenvalues --   -0.17636  -0.13748  -0.10338
  Beta virt. eigenvalues --   -0.07660  -0.06373  -0.05077  -0.04587  -0.02675
  Beta virt. eigenvalues --   -0.02493  -0.01816  -0.01717  -0.01110  -0.00625
  Beta virt. eigenvalues --   -0.00174   0.00102   0.00329   0.00420   0.00555

 Mulliken charges and spin densities:
               1          2
     1  Na  -0.048772  -0.015420
     2  Na   0.305120   0.202073
     3  Na   0.197459   0.147632
     4  Na  -0.101153   0.159369
     5  Na  -0.013509   0.240778
     6  Na   0.440747   0.014293
     7  Na  -0.779893   0.251274
 Sum of Mulliken charges =  -0.00000   1.00000

 Dipole moment (field-independent basis, Debye):
    X=             -0.2377    Y=              0.0994    Z=              0.5001  Tot=              0.5626
 Quadrupole moment (field-independent basis, Debye-Ang):
   XX=            -54.9854   YY=            -68.2677   ZZ=            -73.2669
   XY=              0.3420   XZ=              1.5170   YZ=              7.2948

 Normal termination of Gaussian 16 at Wed Nov 29 16:07:07 2023.
