 Gaussian 16, Revision B.01,
 Gaussian 16:  ES64L-G16RevB.01 20-Dec-2017

 -------------------------
 #P B3LYP/6-311+g(d) force
 -------------------------

 -----
 DPGEN
 -----
 Symbolic Z-matrix:
 Charge =  0 Multiplicity = 2

                         Standard orientation:
 ---------------------------------------------------------------------
 Center     Atomic      Atomic             Coordinates (Angstroms)
 Number     Number       Type             X           Y           Z
 ---------------------------------------------------------------------
      1         11           0       -2.369851   -2.487602    0.021341
      2         11           0        2.499867   -2.091683    0.003249
      3         11           0        0.359358   -0.092726   -1.673884
      4         11           0       -0.266091   -0.110278    2.139402
      5         11           0        2.975241    1.053052   -0.140946
      6         11           0       -2.712362    0.890492   -0.657107
      7         11           0       -0.486161    2.838745    0.307944
 ---------------------------------------------------------------------

 SCF Done:  E(UB3LYP) =  -1136.13181705     A.U. after   20 cycles

 The electronic state is 2-A.
 Alpha  occ. eigenvalues --  -38.44331 -38.44253 -38.43884 -38.43808 -38.43695
 Alpha  occ. eigenvalues --  -38.43630 -38.42829  -2.20184  -2.20082  -2.19737
 Alpha  occ. eigenvalues --   -2.19700  -2.19627  -2.19410  -2.18703  -1.13896
 Alpha  occ. eigenvalues --   -1.13866  -1.13820  -1.13755  -1.13729  -1.13697
 Alpha  occ. eigenvalues --   -1.13410  -1.13395  -1.13374  -1.13362  -1.13352
 Alpha  occ. eigenvalues --   -1.13330  -1.13307  -1.13257  -1.13249  -1.13078
 Alpha  occ. eigenvalues --   -1.13071  -1.13055  -1.12385  -1.12360  -1.12343
 Alpha  occ. eigenvalues --   -0.18381  -0.13516  -0.11838  -0.10896
 Alpha virt. eigenvalues --   -0.05757  -0.05592  -0.04334  -0.03528  -0.02831
 Alpha virt. eigenvalues --   -0.02689  -0.01650  -0.01215  -0.00529  -0.00259
 Alpha virt. eigenvalues --   -0.00013   0.00344   0.00712   0.00784   0.00908

  Beta  occ. eigenvalues --  -38.44326 -38.44252 -38.43790 -38.43783 -38.43638
  Beta  occ. eigenvalues --  -38.43633 -38.42822  -2.20179  -2.20082  -2.19670
  Beta  occ. eigenvalues --   -2.19552  -2.19523  -2.19417  -2.18695  -1.13893
  Beta  occ. eigenvalues --   -1.13855  -1.13807  -1.13749  -1.13721  -1.13696
  Beta  occ. eigenvalues --   -1.13379  -1.13334  -1.13311  -1.13277  -1.13238
  Beta  occ. eigenvalues --   -1.13234  -1.13217  -1.13185  -1.13173  -1.13082
  Beta  occ. eigenvalues --   -1.13065  -1.13061  -1.12383  -1.12345  -1.12319
  Beta  occ. eigenvalues --   -0.17649  -0.13298  -0.11649
  Beta virt. eigenvalues --   -0.06961  -0.05769  -0.05456  -0.04299  -0.02776
  Beta virt. eigenvalues --   -0.02041  -0.01728  -0.01544  -0.01113  -0.00567
  Beta virt. eigenvalues --   -0.00247   0.00117   0.00379   0.00779   0.00825

 Mulliken charges and spin densities:
               1          2
     1  Na  -0.102025  -0.079141
     2  Na  -0.008147  -0.065897
     3  Na   0.041368   0.264932
     4  Na  -0.459439   0.732382
     5  Na   0.202386   0.026858
     6  Na   0.271625   0.081264
     7  Na   0.054232   0.039602
 Sum of Mulliken charges =  -0.00000   1.00000

 Dipole moment (field-independent basis, Debye):
    X=              0.6789    Y=             -0.2870    Z=              0.0544  Tot=              0.7391
 Quadrupole moment (field-independent basis, Debye-Ang):
   XX=            -57.2069   YY=            -63.9218   ZZ=            -73.7156
   XY=             -0.1310   XZ=              1.3761   YZ=             -0.2755

 Normal termination of Gaussian 16 at Tue Dec  5 12:28:53 2023.
