 Gaussian 16, Revision B.01,
 Gaussian 16:  ES64L-G16RevB.01 20-Dec-2017

 -------------------------
 #P B3LYP/6-311+g(d) force
 -------------------------

 -----
 DPGEN
 -----
 Symbolic Z-matrix:
 Charge =  0 Multiplicity = 2

                         Standard orientation:
 ---------------------------------------------------------------------
 Center     Atomic      Atomic             Coordinates (Angstroms)
 Number     Number       Type             X           Y           Z
 ---------------------------------------------------------------------
      1         11           0       -0.592325   -2.257833   -0.169300
      2         11           0        2.771875   -2.416326   -0.659658
      3         11           0        3.306746    1.130442   -0.494875
      4         11           0        0.667534    2.798956   -0.413120
      5         11           0       -2.825788    1.619660   -0.356512
      6         11           0        1.006589    0.100793    2.191892
      7         11           0       -4.334630   -0.975691   -0.098427
 ---------------------------------------------------------------------

 SCF Done:  E(UB3LYP) =  -1136.11822122     A.U. after   21 cycles

 The electronic state is 2-A.
 Alpha  occ. eigenvalues --  -38.44603 -38.44572 -38.44558 -38.44247 -38.44125
 Alpha  occ. eigenvalues --  -38.43956 -38.43690  -2.20422  -2.20386  -2.20364
 Alpha  occ. eigenvalues --   -2.20024  -2.19977  -2.19757  -2.19510  -1.14204
 Alpha  occ. eigenvalues --   -1.14073  -1.14053  -1.14053  -1.14031  -1.14025
 Alpha  occ. eigenvalues --   -1.14007  -1.13996  -1.13943  -1.13720  -1.13700
 Alpha  occ. eigenvalues --   -1.13668  -1.13645  -1.13629  -1.13609  -1.13432
 Alpha  occ. eigenvalues --   -1.13406  -1.13387  -1.13185  -1.13166  -1.13151
 Alpha  occ. eigenvalues --   -0.17104  -0.14006  -0.12285  -0.10433
 Alpha virt. eigenvalues --   -0.06982  -0.06231  -0.04049  -0.03221  -0.02961
 Alpha virt. eigenvalues --   -0.02618  -0.02118  -0.01932  -0.01228  -0.00475
 Alpha virt. eigenvalues --   -0.00279   0.00152   0.00395   0.00458   0.00760

  Beta  occ. eigenvalues --  -38.44584 -38.44555 -38.44486 -38.44242 -38.44077
  Beta  occ. eigenvalues --  -38.43929 -38.43688  -2.20388  -2.20361  -2.20226
  Beta  occ. eigenvalues --   -2.20017  -2.19890  -2.19709  -2.19509  -1.14186
  Beta  occ. eigenvalues --   -1.14054  -1.14033  -1.14022  -1.13995  -1.13937
  Beta  occ. eigenvalues --   -1.13928  -1.13920  -1.13881  -1.13715  -1.13680
  Beta  occ. eigenvalues --   -1.13646  -1.13610  -1.13565  -1.13542  -1.13401
  Beta  occ. eigenvalues --   -1.13372  -1.13341  -1.13183  -1.13164  -1.13138
  Beta  occ. eigenvalues --   -0.16515  -0.13566  -0.12210
  Beta virt. eigenvalues --   -0.06919  -0.06647  -0.05968  -0.03876  -0.02783
  Beta virt. eigenvalues --   -0.02554  -0.02220  -0.01962  -0.01286  -0.01079
  Beta virt. eigenvalues --   -0.00466   0.00094   0.00255   0.00533   0.00565

 Mulliken charges and spin densities:
               1          2
     1  Na  -0.835377  -0.091047
     2  Na   0.603673   0.217997
     3  Na  -0.145134   0.340124
     4  Na   0.334721  -0.010619
     5  Na  -0.437267   0.056624
     6  Na  -0.232934   0.426833
     7  Na   0.712318   0.060088
 Sum of Mulliken charges =  -0.00000   1.00000

 Dipole moment (field-independent basis, Debye):
    X=             -0.7430    Y=             -0.3041    Z=              0.4436  Tot=              0.9173
 Quadrupole moment (field-independent basis, Debye-Ang):
   XX=            -61.3788   YY=            -67.4808   ZZ=            -71.6613
   XY=              1.6332   XZ=              1.6329   YZ=              0.2920

 Normal termination of Gaussian 16 at Sun Dec  3 11:45:02 2023.
