 Gaussian 16, Revision B.01,
 Gaussian 16:  ES64L-G16RevB.01 20-Dec-2017

 -------------------------
 #P B3LYP/6-311+g(d) force
 -------------------------

 -----
 DPGEN
 -----
 Symbolic Z-matrix:
 Charge =  0 Multiplicity = 2

                         Standard orientation:
 ---------------------------------------------------------------------
 Center     Atomic      Atomic             Coordinates (Angstroms)
 Number     Number       Type             X           Y           Z
 ---------------------------------------------------------------------
      1         11           0       -1.525122    0.015000    1.717385
      2         11           0        1.616972    1.703031    0.750146
      3         11           0       -3.453399   -1.374856   -0.908196
      4         11           0        1.042725   -1.896570    1.435145
      5         11           0        3.718009   -0.426004   -0.914180
      6         11           0        0.240226   -0.357658   -1.722730
      7         11           0       -1.639410    2.337058   -0.357570
 ---------------------------------------------------------------------

 SCF Done:  E(UB3LYP) =  -1136.12660814     A.U. after   24 cycles

 The electronic state is 2-A.
 Alpha  occ. eigenvalues --  -38.44677 -38.44583 -38.44221 -38.43918 -38.43692
 Alpha  occ. eigenvalues --  -38.43143 -38.42836  -2.20486  -2.20448  -2.19992
 Alpha  occ. eigenvalues --   -2.19775  -2.19633  -2.19023  -2.18709  -1.14159
 Alpha  occ. eigenvalues --   -1.14152  -1.14143  -1.14113  -1.14100  -1.14048
 Alpha  occ. eigenvalues --   -1.13665  -1.13645  -1.13624  -1.13503  -1.13417
 Alpha  occ. eigenvalues --   -1.13384  -1.13306  -1.13303  -1.13228  -1.12718
 Alpha  occ. eigenvalues --   -1.12703  -1.12634  -1.12400  -1.12377  -1.12312
 Alpha  occ. eigenvalues --   -0.18493  -0.13601  -0.11679  -0.11015
 Alpha virt. eigenvalues --   -0.06509  -0.05132  -0.04445  -0.03252  -0.02693
 Alpha virt. eigenvalues --   -0.02608  -0.02217  -0.01179  -0.00658  -0.00041
 Alpha virt. eigenvalues --    0.00147   0.00255   0.00351   0.00701   0.00717

  Beta  occ. eigenvalues --  -38.44660 -38.44538 -38.44204 -38.43855 -38.43642
  Beta  occ. eigenvalues --  -38.43133 -38.42832  -2.20455  -2.20365  -2.19960
  Beta  occ. eigenvalues --   -2.19664  -2.19546  -2.19009  -2.18703  -1.14134
  Beta  occ. eigenvalues --   -1.14118  -1.14098  -1.14085  -1.14044  -1.13985
  Beta  occ. eigenvalues --   -1.13642  -1.13621  -1.13604  -1.13414  -1.13332
  Beta  occ. eigenvalues --   -1.13310  -1.13251  -1.13215  -1.13166  -1.12712
  Beta  occ. eigenvalues --   -1.12665  -1.12630  -1.12394  -1.12369  -1.12304
  Beta  occ. eigenvalues --   -0.17731  -0.13374  -0.10828
  Beta virt. eigenvalues --   -0.07715  -0.06296  -0.04957  -0.04007  -0.02897
  Beta virt. eigenvalues --   -0.02245  -0.02031  -0.01766  -0.01001  -0.00424
  Beta virt. eigenvalues --    0.00040   0.00188   0.00314   0.00427   0.00763

 Mulliken charges and spin densities:
               1          2
     1  Na   0.353699  -0.051378
     2  Na  -0.256380   0.160638
     3  Na  -0.105023   0.129351
     4  Na  -0.195166   0.228193
     5  Na   0.534980   0.054538
     6  Na  -0.484702   0.390970
     7  Na   0.152591   0.087688
 Sum of Mulliken charges =  -0.00000   1.00000

 Dipole moment (field-independent basis, Debye):
    X=              0.7170    Y=             -0.1865    Z=             -0.4301  Tot=              0.8567
 Quadrupole moment (field-independent basis, Debye-Ang):
   XX=            -50.8829   YY=            -75.6317   ZZ=            -67.5249
   XY=             -1.2888   XZ=              0.0895   YZ=             -0.1974

 Normal termination of Gaussian 16 at Tue Dec  5 17:34:26 2023.
