 Gaussian 16, Revision B.01,
 Gaussian 16:  ES64L-G16RevB.01 20-Dec-2017

 -------------------------
 #P B3LYP/6-311+g(d) force
 -------------------------

 -----
 DPGEN
 -----
 Symbolic Z-matrix:
 Charge =  0 Multiplicity = 2

                         Standard orientation:
 ---------------------------------------------------------------------
 Center     Atomic      Atomic             Coordinates (Angstroms)
 Number     Number       Type             X           Y           Z
 ---------------------------------------------------------------------
      1         11           0       -1.298296   -2.394191    0.644253
      2         11           0        2.704879   -1.819159   -0.763131
      3         11           0       -1.124763    2.400751    0.504213
      4         11           0        2.497864    1.927930   -0.333620
      5         11           0        0.825689   -0.169830    2.163121
      6         11           0        0.005470    0.009352   -1.516026
      7         11           0       -3.610842    0.045146   -0.698810
 ---------------------------------------------------------------------

 SCF Done:  E(UB3LYP) =  -1136.13447673     A.U. after   20 cycles

 The electronic state is 2-A.
 Alpha  occ. eigenvalues --  -38.44242 -38.44002 -38.43893 -38.43844 -38.43510
 Alpha  occ. eigenvalues --  -38.43434 -38.43208  -2.20035  -2.19810  -2.19724
 Alpha  occ. eigenvalues --   -2.19718  -2.19465  -2.19258  -2.19047  -1.13709
 Alpha  occ. eigenvalues --   -1.13683  -1.13672  -1.13501  -1.13461  -1.13438
 Alpha  occ. eigenvalues --   -1.13413  -1.13399  -1.13389  -1.13343  -1.13340
 Alpha  occ. eigenvalues --   -1.13330  -1.13168  -1.13116  -1.13083  -1.12944
 Alpha  occ. eigenvalues --   -1.12925  -1.12872  -1.12739  -1.12723  -1.12655
 Alpha  occ. eigenvalues --   -0.18273  -0.13145  -0.11780  -0.11134
 Alpha virt. eigenvalues --   -0.05882  -0.05398  -0.04197  -0.03209  -0.02947
 Alpha virt. eigenvalues --   -0.02728  -0.01892  -0.01151  -0.00580  -0.00074
 Alpha virt. eigenvalues --    0.00045   0.00289   0.00622   0.00794   0.00802

  Beta  occ. eigenvalues --  -38.44231 -38.43983 -38.43888 -38.43746 -38.43469
  Beta  occ. eigenvalues --  -38.43420 -38.43201  -2.20015  -2.19776  -2.19712
  Beta  occ. eigenvalues --   -2.19544  -2.19390  -2.19235  -2.19036  -1.13689
  Beta  occ. eigenvalues --   -1.13671  -1.13659  -1.13467  -1.13442  -1.13410
  Beta  occ. eigenvalues --   -1.13399  -1.13378  -1.13326  -1.13278  -1.13226
  Beta  occ. eigenvalues --   -1.13199  -1.13110  -1.13069  -1.13024  -1.12924
  Beta  occ. eigenvalues --   -1.12893  -1.12857  -1.12734  -1.12698  -1.12646
  Beta  occ. eigenvalues --   -0.17570  -0.12865  -0.11550
  Beta virt. eigenvalues --   -0.07255  -0.05711  -0.05373  -0.04011  -0.02746
  Beta virt. eigenvalues --   -0.02195  -0.01765  -0.01723  -0.01126  -0.00430
  Beta virt. eigenvalues --    0.00028   0.00051   0.00337   0.00770   0.00831

 Mulliken charges and spin densities:
               1          2
     1  Na  -0.066367   0.006341
     2  Na   0.022563   0.009557
     3  Na  -0.068007   0.020160
     4  Na   0.115936  -0.008550
     5  Na  -0.022943   0.586464
     6  Na  -0.168281   0.337510
     7  Na   0.187100   0.048519
 Sum of Mulliken charges =  -0.00000   1.00000

 Dipole moment (field-independent basis, Debye):
    X=              0.1493    Y=              0.0015    Z=              0.0052  Tot=              0.1494
 Quadrupole moment (field-independent basis, Debye-Ang):
   XX=            -52.9275   YY=            -68.4241   ZZ=            -71.5277
   XY=              0.2406   XZ=              0.0719   YZ=              0.5250

 Normal termination of Gaussian 16 at Fri Dec  8 05:01:24 2023.
