 Gaussian 16, Revision B.01,
 Gaussian 16:  ES64L-G16RevB.01 20-Dec-2017

 -------------------------
 #P B3LYP/6-311+g(d) force
 -------------------------

 -----
 DPGEN
 -----
 Symbolic Z-matrix:
 Charge =  0 Multiplicity = 2

                         Standard orientation:
 ---------------------------------------------------------------------
 Center     Atomic      Atomic             Coordinates (Angstroms)
 Number     Number       Type             X           Y           Z
 ---------------------------------------------------------------------
      1         11           0        1.952587   -0.456799    1.690723
      2         11           0       -3.324975   -0.195110   -1.739970
      3         11           0       -2.639016   -1.215384    1.673532
      4         11           0       -0.000936   -1.246418   -1.061387
      5         11           0        1.353194    2.264591   -0.227518
      6         11           0       -1.460291    1.707558    0.534381
      7         11           0        4.119437   -0.858438   -0.869761
 ---------------------------------------------------------------------

 SCF Done:  E(UB3LYP) =  -1136.11901147     A.U. after   24 cycles

 The electronic state is 2-A.
 Alpha  occ. eigenvalues --  -38.44970 -38.44783 -38.44623 -38.44380 -38.44325
 Alpha  occ. eigenvalues --  -38.42680 -38.42567  -2.20790  -2.20632  -2.20392
 Alpha  occ. eigenvalues --   -2.20216  -2.20155  -2.18620  -2.18461  -1.14515
 Alpha  occ. eigenvalues --   -1.14472  -1.14389  -1.14324  -1.14291  -1.14237
 Alpha  occ. eigenvalues --   -1.14068  -1.14058  -1.14017  -1.13889  -1.13865
 Alpha  occ. eigenvalues --   -1.13828  -1.13814  -1.13810  -1.13763  -1.12399
 Alpha  occ. eigenvalues --   -1.12285  -1.12261  -1.12112  -1.12100  -1.12058
 Alpha  occ. eigenvalues --   -0.18178  -0.14183  -0.10958  -0.10894
 Alpha virt. eigenvalues --   -0.06941  -0.05670  -0.04741  -0.03076  -0.02783
 Alpha virt. eigenvalues --   -0.02385  -0.02192  -0.01522  -0.00840  -0.00289
 Alpha virt. eigenvalues --    0.00045   0.00144   0.00282   0.00459   0.00510

  Beta  occ. eigenvalues --  -38.44947 -38.44759 -38.44630 -38.44314 -38.44281
  Beta  occ. eigenvalues --  -38.42665 -38.42561  -2.20752  -2.20588  -2.20405
  Beta  occ. eigenvalues --   -2.20095  -2.20073  -2.18598  -2.18449  -1.14466
  Beta  occ. eigenvalues --   -1.14437  -1.14365  -1.14292  -1.14256  -1.14209
  Beta  occ. eigenvalues --   -1.14074  -1.14066  -1.14024  -1.13806  -1.13780
  Beta  occ. eigenvalues --   -1.13760  -1.13745  -1.13744  -1.13704  -1.12387
  Beta  occ. eigenvalues --   -1.12262  -1.12224  -1.12097  -1.12093  -1.12050
  Beta  occ. eigenvalues --   -0.17528  -0.14005  -0.10755
  Beta virt. eigenvalues --   -0.07233  -0.06713  -0.05086  -0.04507  -0.02862
  Beta virt. eigenvalues --   -0.02645  -0.01834  -0.01589  -0.01051  -0.00637
  Beta virt. eigenvalues --   -0.00193   0.00096   0.00293   0.00363   0.00546

 Mulliken charges and spin densities:
               1          2
     1  Na   0.074010   0.174691
     2  Na   0.267433   0.013152
     3  Na  -0.073084   0.301002
     4  Na  -0.505494   0.316406
     5  Na  -0.169682  -0.164287
     6  Na   0.101320   0.433777
     7  Na   0.305496  -0.074742
 Sum of Mulliken charges =  -0.00000   1.00000

 Dipole moment (field-independent basis, Debye):
    X=              0.3106    Y=             -0.3301    Z=             -0.1263  Tot=              0.4706
 Quadrupole moment (field-independent basis, Debye-Ang):
   XX=            -50.7457   YY=            -78.4510   ZZ=            -66.9585
   XY=              0.8083   XZ=             -0.9784   YZ=             -2.8617

 Normal termination of Gaussian 16 at Thu Dec  7 15:06:58 2023.
