 Gaussian 16, Revision B.01,
 Gaussian 16:  ES64L-G16RevB.01 20-Dec-2017

 -------------------------
 #P B3LYP/6-311+g(d) force
 -------------------------

 -----
 DPGEN
 -----
 Symbolic Z-matrix:
 Charge =  0 Multiplicity = 2

                         Standard orientation:
 ---------------------------------------------------------------------
 Center     Atomic      Atomic             Coordinates (Angstroms)
 Number     Number       Type             X           Y           Z
 ---------------------------------------------------------------------
      1         11           0       -2.962221   -1.327330   -0.550363
      2         11           0       -2.459782    1.559151    0.632415
      3         11           0       -0.286577    0.157757   -1.701325
      4         11           0        2.811535   -0.101167   -0.479274
      5         11           0        0.259563   -0.521894    1.869543
      6         11           0        1.308179   -2.748774    0.210064
      7         11           0        1.329303    2.982257    0.018941
 ---------------------------------------------------------------------

 SCF Done:  E(UB3LYP) =  -1136.13212425     A.U. after   19 cycles

 The electronic state is 2-A.
 Alpha  occ. eigenvalues --  -38.44062 -38.44046 -38.43804 -38.43654 -38.43496
 Alpha  occ. eigenvalues --  -38.43359 -38.43238  -2.19917  -2.19896  -2.19719
 Alpha  occ. eigenvalues --   -2.19590  -2.19439  -2.19262  -2.19035  -1.13653
 Alpha  occ. eigenvalues --   -1.13586  -1.13581  -1.13562  -1.13525  -1.13481
 Alpha  occ. eigenvalues --   -1.13429  -1.13393  -1.13356  -1.13316  -1.13233
 Alpha  occ. eigenvalues --   -1.13202  -1.13118  -1.13076  -1.13056  -1.12914
 Alpha  occ. eigenvalues --   -1.12903  -1.12877  -1.12709  -1.12693  -1.12684
 Alpha  occ. eigenvalues --   -0.18650  -0.13545  -0.12100  -0.10867
 Alpha virt. eigenvalues --   -0.05520  -0.05262  -0.04696  -0.03546  -0.02784
 Alpha virt. eigenvalues --   -0.02521  -0.01543  -0.01165  -0.00378  -0.00172
 Alpha virt. eigenvalues --    0.00002   0.00345   0.00784   0.00843   0.00884

  Beta  occ. eigenvalues --  -38.44046 -38.44032 -38.43791 -38.43576 -38.43431
  Beta  occ. eigenvalues --  -38.43354 -38.43241  -2.19891  -2.19872  -2.19698
  Beta  occ. eigenvalues --   -2.19446  -2.19320  -2.19256  -2.19044  -1.13640
  Beta  occ. eigenvalues --   -1.13559  -1.13546  -1.13537  -1.13504  -1.13465
  Beta  occ. eigenvalues --   -1.13413  -1.13355  -1.13342  -1.13230  -1.13133
  Beta  occ. eigenvalues --   -1.13105  -1.13038  -1.12991  -1.12965  -1.12900
  Beta  occ. eigenvalues --   -1.12886  -1.12858  -1.12714  -1.12694  -1.12684
  Beta  occ. eigenvalues --   -0.17936  -0.13302  -0.11879
  Beta virt. eigenvalues --   -0.07003  -0.05428  -0.05131  -0.04636  -0.02816
  Beta virt. eigenvalues --   -0.02122  -0.01553  -0.01426  -0.01067  -0.00385
  Beta virt. eigenvalues --   -0.00124   0.00120   0.00382   0.00851   0.00875

 Mulliken charges and spin densities:
               1          2
     1  Na   0.098141  -0.005600
     2  Na  -0.070640   0.083206
     3  Na  -0.017846   0.419616
     4  Na   0.124621   0.035659
     5  Na  -0.238114   0.525255
     6  Na   0.327506  -0.010445
     7  Na  -0.223668  -0.047691
 Sum of Mulliken charges =  -0.00000   1.00000

 Dipole moment (field-independent basis, Debye):
    X=             -0.4052    Y=             -0.1472    Z=              0.0274  Tot=              0.4319
 Quadrupole moment (field-independent basis, Debye-Ang):
   XX=            -58.1457   YY=            -62.7818   ZZ=            -73.7075
   XY=              0.1021   XZ=             -1.1957   YZ=              2.4238

 Normal termination of Gaussian 16 at Fri Dec  8 01:50:48 2023.
