 Gaussian 16, Revision B.01,
 Gaussian 16:  ES64L-G16RevB.01 20-Dec-2017

 -------------------------
 #P B3LYP/6-311+g(d) force
 -------------------------

 -----
 DPGEN
 -----
 Symbolic Z-matrix:
 Charge =  0 Multiplicity = 2

                         Standard orientation:
 ---------------------------------------------------------------------
 Center     Atomic      Atomic             Coordinates (Angstroms)
 Number     Number       Type             X           Y           Z
 ---------------------------------------------------------------------
      1         11           0       -0.745523    1.670699    1.392483
      2         11           0        0.884217   -1.441430    2.135967
      3         11           0       -4.602040    0.146803   -0.215907
      4         11           0       -2.118902   -1.791177   -0.912588
      5         11           0        1.737210    3.328552   -0.402537
      6         11           0        1.382621   -0.116890   -1.845065
      7         11           0        3.462417   -1.796557   -0.152353
 ---------------------------------------------------------------------

 SCF Done:  E(UB3LYP) =  -1136.11530186     A.U. after   20 cycles

 The electronic state is 2-A.
 Alpha  occ. eigenvalues --  -38.45004 -38.44624 -38.44407 -38.44404 -38.44264
 Alpha  occ. eigenvalues --  -38.43739 -38.43236  -2.20770  -2.20406  -2.20243
 Alpha  occ. eigenvalues --   -2.20228  -2.20074  -2.19537  -2.19010  -1.14437
 Alpha  occ. eigenvalues --   -1.14432  -1.14417  -1.14085  -1.14063  -1.14030
 Alpha  occ. eigenvalues --   -1.13952  -1.13901  -1.13883  -1.13877  -1.13856
 Alpha  occ. eigenvalues --   -1.13843  -1.13729  -1.13727  -1.13699  -1.13223
 Alpha  occ. eigenvalues --   -1.13200  -1.13150  -1.12681  -1.12671  -1.12649
 Alpha  occ. eigenvalues --   -0.17008  -0.13254  -0.11620  -0.11411
 Alpha virt. eigenvalues --   -0.07007  -0.05356  -0.04159  -0.03416  -0.03181
 Alpha virt. eigenvalues --   -0.02888  -0.02490  -0.01208  -0.00724  -0.00339
 Alpha virt. eigenvalues --   -0.00224  -0.00057   0.00161   0.00586   0.00638

  Beta  occ. eigenvalues --  -38.45003 -38.44614 -38.44348 -38.44311 -38.44262
  Beta  occ. eigenvalues --  -38.43705 -38.43235  -2.20769  -2.20389  -2.20135
  Beta  occ. eigenvalues --   -2.20074  -2.20056  -2.19476  -2.19008  -1.14434
  Beta  occ. eigenvalues --   -1.14431  -1.14418  -1.14071  -1.14047  -1.14020
  Beta  occ. eigenvalues --   -1.13888  -1.13827  -1.13782  -1.13770  -1.13760
  Beta  occ. eigenvalues --   -1.13738  -1.13727  -1.13693  -1.13678  -1.13179
  Beta  occ. eigenvalues --   -1.13149  -1.13110  -1.12680  -1.12661  -1.12650
  Beta  occ. eigenvalues --   -0.16257  -0.13051  -0.11530
  Beta virt. eigenvalues --   -0.07535  -0.06854  -0.04985  -0.03743  -0.02964
  Beta virt. eigenvalues --   -0.02872  -0.02399  -0.02115  -0.01146  -0.00427
  Beta virt. eigenvalues --   -0.00237  -0.00154   0.00076   0.00296   0.00681

 Mulliken charges and spin densities:
               1          2
     1  Na  -0.613275   0.302622
     2  Na   0.397501   0.246001
     3  Na   0.268835  -0.071919
     4  Na  -0.306739   0.187106
     5  Na   0.165453  -0.050231
     6  Na   0.252885   0.353974
     7  Na  -0.164660   0.032446
 Sum of Mulliken charges =  -0.00000   1.00000

 Dipole moment (field-independent basis, Debye):
    X=             -0.5746    Y=             -0.3721    Z=              0.0258  Tot=              0.6850
 Quadrupole moment (field-independent basis, Debye-Ang):
   XX=            -53.6102   YY=            -71.4174   ZZ=            -71.1175
   XY=             -3.5704   XZ=             -1.4022   YZ=             -0.3150

 Normal termination of Gaussian 16 at Mon Dec  4 01:10:26 2023.
