 Gaussian 16, Revision B.01,
 Gaussian 16:  ES64L-G16RevB.01 20-Dec-2017

 -------------------------
 #P B3LYP/6-311+g(d) force
 -------------------------

 -----
 DPGEN
 -----
 Symbolic Z-matrix:
 Charge =  0 Multiplicity = 2

                         Standard orientation:
 ---------------------------------------------------------------------
 Center     Atomic      Atomic             Coordinates (Angstroms)
 Number     Number       Type             X           Y           Z
 ---------------------------------------------------------------------
      1         11           0       -0.387677    0.110012   -1.402654
      2         11           0        3.149042    0.674079    0.497848
      3         11           0       -2.270131   -2.456031   -0.139591
      4         11           0       -0.277088   -0.313851    1.870471
      5         11           0        2.170458   -2.569796   -0.523211
      6         11           0       -2.962776    1.355232    0.169280
      7         11           0        0.578172    3.200356   -0.472144
 ---------------------------------------------------------------------

 SCF Done:  E(UB3LYP) =  -1136.13081788     A.U. after   20 cycles

 The electronic state is 2-A.
 Alpha  occ. eigenvalues --  -38.44612 -38.44334 -38.44098 -38.44052 -38.43613
 Alpha  occ. eigenvalues --  -38.43372 -38.43004  -2.20423  -2.20132  -2.19869
 Alpha  occ. eigenvalues --   -2.19842  -2.19408  -2.19260  -2.18969  -1.14112
 Alpha  occ. eigenvalues --   -1.14094  -1.14040  -1.13811  -1.13796  -1.13762
 Alpha  occ. eigenvalues --   -1.13546  -1.13534  -1.13518  -1.13513  -1.13495
 Alpha  occ. eigenvalues --   -1.13471  -1.13097  -1.13062  -1.13044  -1.12968
 Alpha  occ. eigenvalues --   -1.12886  -1.12862  -1.12675  -1.12604  -1.12584
 Alpha  occ. eigenvalues --   -0.18021  -0.12979  -0.12219  -0.10059
 Alpha virt. eigenvalues --   -0.06089  -0.05602  -0.04979  -0.03050  -0.02618
 Alpha virt. eigenvalues --   -0.02013  -0.01786  -0.01580  -0.00852  -0.00670
 Alpha virt. eigenvalues --   -0.00003   0.00318   0.00691   0.00751   0.00776

  Beta  occ. eigenvalues --  -38.44606 -38.44330 -38.44089 -38.44045 -38.43606
  Beta  occ. eigenvalues --  -38.43287 -38.42953  -2.20415  -2.20127  -2.19854
  Beta  occ. eigenvalues --   -2.19830  -2.19397  -2.19104  -2.18878  -1.14103
  Beta  occ. eigenvalues --   -1.14073  -1.14032  -1.13797  -1.13789  -1.13754
  Beta  occ. eigenvalues --   -1.13534  -1.13518  -1.13504  -1.13493  -1.13487
  Beta  occ. eigenvalues --   -1.13465  -1.13081  -1.13050  -1.13037  -1.12862
  Beta  occ. eigenvalues --   -1.12778  -1.12747  -1.12599  -1.12542  -1.12513
  Beta  occ. eigenvalues --   -0.17355  -0.12788  -0.11955
  Beta virt. eigenvalues --   -0.06335  -0.06077  -0.05479  -0.04840  -0.02370
  Beta virt. eigenvalues --   -0.01997  -0.01714  -0.01486  -0.01071  -0.00839
  Beta virt. eigenvalues --   -0.00668   0.00147   0.00366   0.00701   0.00812

 Mulliken charges and spin densities:
               1          2
     1  Na  -0.058189   0.404867
     2  Na   0.051033   0.050523
     3  Na   0.016000  -0.061649
     4  Na  -0.065471   0.624469
     5  Na  -0.118973   0.018099
     6  Na   0.186259  -0.024070
     7  Na  -0.010658  -0.012239
 Sum of Mulliken charges =  -0.00000   1.00000

 Dipole moment (field-independent basis, Debye):
    X=             -0.5164    Y=             -0.1608    Z=              0.1341  Tot=              0.5572
 Quadrupole moment (field-independent basis, Debye-Ang):
   XX=            -53.8944   YY=            -59.0403   ZZ=            -77.8925
   XY=              0.4251   XZ=             -0.1034   YZ=              1.2507

 Normal termination of Gaussian 16 at Thu Dec  7 13:03:13 2023.
