 Gaussian 16, Revision B.01,
 Gaussian 16:  ES64L-G16RevB.01 20-Dec-2017

 -------------------------
 #P B3LYP/6-311+g(d) force
 -------------------------

 -----
 DPGEN
 -----
 Symbolic Z-matrix:
 Charge =  0 Multiplicity = 2

                         Standard orientation:
 ---------------------------------------------------------------------
 Center     Atomic      Atomic             Coordinates (Angstroms)
 Number     Number       Type             X           Y           Z
 ---------------------------------------------------------------------
      1         11           0       -4.913682   -1.554842    0.119132
      2         11           0        4.798686   -0.799128    0.786219
      3         11           0        3.163970    2.061014   -0.510736
      4         11           0        2.371964   -2.424663   -0.188707
      5         11           0       -0.555830    2.603658   -0.138964
      6         11           0       -1.385789   -1.304643   -0.684985
      7         11           0       -3.479319    1.418604    0.618042
 ---------------------------------------------------------------------

 SCF Done:  E(UB3LYP) =  -1136.11449590     A.U. after   25 cycles

 The electronic state is 2-A.
 Alpha  occ. eigenvalues --  -38.45098 -38.44975 -38.44753 -38.44279 -38.44259
 Alpha  occ. eigenvalues --  -38.44061 -38.42956  -2.20844  -2.20823  -2.20547
 Alpha  occ. eigenvalues --   -2.20107  -2.20062  -2.19886  -2.18764  -1.14539
 Alpha  occ. eigenvalues --   -1.14515  -1.14500  -1.14495  -1.14462  -1.14454
 Alpha  occ. eigenvalues --   -1.14242  -1.14214  -1.14148  -1.13861  -1.13767
 Alpha  occ. eigenvalues --   -1.13747  -1.13731  -1.13710  -1.13644  -1.13540
 Alpha  occ. eigenvalues --   -1.13533  -1.13504  -1.12436  -1.12423  -1.12415
 Alpha  occ. eigenvalues --   -0.16525  -0.14629  -0.11893  -0.11039
 Alpha virt. eigenvalues --   -0.07386  -0.05142  -0.04184  -0.03950  -0.03167
 Alpha virt. eigenvalues --   -0.02536  -0.02176  -0.01596  -0.00958  -0.00741
 Alpha virt. eigenvalues --   -0.00221  -0.00167   0.00204   0.00386   0.00657

  Beta  occ. eigenvalues --  -38.45094 -38.44946 -38.44697 -38.44272 -38.44241
  Beta  occ. eigenvalues --  -38.44002 -38.42939  -2.20837  -2.20775  -2.20447
  Beta  occ. eigenvalues --   -2.20092  -2.20029  -2.19776  -2.18736  -1.14533
  Beta  occ. eigenvalues --   -1.14511  -1.14472  -1.14454  -1.14454  -1.14392
  Beta  occ. eigenvalues --   -1.14179  -1.14139  -1.14055  -1.13854  -1.13756
  Beta  occ. eigenvalues --   -1.13726  -1.13710  -1.13686  -1.13615  -1.13459
  Beta  occ. eigenvalues --   -1.13456  -1.13438  -1.12416  -1.12401  -1.12396
  Beta  occ. eigenvalues --   -0.15863  -0.14319  -0.11654
  Beta virt. eigenvalues --   -0.07452  -0.07113  -0.04607  -0.03889  -0.03779
  Beta virt. eigenvalues --   -0.02729  -0.02291  -0.01997  -0.01192  -0.00860
  Beta virt. eigenvalues --   -0.00444  -0.00068   0.00092   0.00341   0.00478

 Mulliken charges and spin densities:
               1          2
     1  Na   0.874731   0.352179
     2  Na   0.240341   0.180122
     3  Na  -0.255849   0.207039
     4  Na  -0.253942  -0.132030
     5  Na  -0.099257   0.022496
     6  Na  -0.938313   0.347535
     7  Na   0.432289   0.022660
 Sum of Mulliken charges =  -0.00000   1.00000

 Dipole moment (field-independent basis, Debye):
    X=             -0.1311    Y=             -0.1839    Z=              0.2350  Tot=              0.3259
 Quadrupole moment (field-independent basis, Debye-Ang):
   XX=            -55.6950   YY=            -69.7925   ZZ=            -71.0307
   XY=             -0.5256   XZ=              0.1214   YZ=              0.2705

 Normal termination of Gaussian 16 at Sun Dec  3 16:56:42 2023.
