 Gaussian 16, Revision B.01,
 Gaussian 16:  ES64L-G16RevB.01 20-Dec-2017

 -------------------------
 #P B3LYP/6-311+g(d) force
 -------------------------

 -----
 DPGEN
 -----
 Symbolic Z-matrix:
 Charge =  0 Multiplicity = 2

                         Standard orientation:
 ---------------------------------------------------------------------
 Center     Atomic      Atomic             Coordinates (Angstroms)
 Number     Number       Type             X           Y           Z
 ---------------------------------------------------------------------
      1         11           0        3.665961   -1.231114   -0.887506
      2         11           0        0.469287    0.144371    2.148906
      3         11           0       -4.003149    0.786477   -0.733668
      4         11           0        2.582803    2.726272   -0.096707
      5         11           0        0.782131   -3.031949   -0.286569
      6         11           0       -2.570427   -2.120228    0.214025
      7         11           0       -0.926606    2.726171   -0.358481
 ---------------------------------------------------------------------

 SCF Done:  E(UB3LYP) =  -1136.11786268     A.U. after   20 cycles

 The electronic state is 2-A.
 Alpha  occ. eigenvalues --  -38.45199 -38.44964 -38.44550 -38.44482 -38.44096
 Alpha  occ. eigenvalues --  -38.43971 -38.43720  -2.20968  -2.20714  -2.20317
 Alpha  occ. eigenvalues --   -2.20265  -2.19883  -2.19754  -2.19522  -1.14635
 Alpha  occ. eigenvalues --   -1.14616  -1.14570  -1.14399  -1.14367  -1.14357
 Alpha  occ. eigenvalues --   -1.14013  -1.13998  -1.13952  -1.13933  -1.13927
 Alpha  occ. eigenvalues --   -1.13911  -1.13542  -1.13527  -1.13511  -1.13440
 Alpha  occ. eigenvalues --   -1.13416  -1.13396  -1.13179  -1.13168  -1.13161
 Alpha  occ. eigenvalues --   -0.16533  -0.13290  -0.12821  -0.10539
 Alpha virt. eigenvalues --   -0.06890  -0.06460  -0.04011  -0.03628  -0.03226
 Alpha virt. eigenvalues --   -0.02159  -0.01996  -0.01911  -0.01515  -0.00800
 Alpha virt. eigenvalues --   -0.00368   0.00291   0.00358   0.00438   0.00581

  Beta  occ. eigenvalues --  -38.45117 -38.44969 -38.44548 -38.44480 -38.44023
  Beta  occ. eigenvalues --  -38.43975 -38.43679  -2.20816  -2.20724  -2.20316
  Beta  occ. eigenvalues --   -2.20264  -2.19764  -2.19748  -2.19446  -1.14533
  Beta  occ. eigenvalues --   -1.14515  -1.14458  -1.14407  -1.14375  -1.14354
  Beta  occ. eigenvalues --   -1.14013  -1.13996  -1.13954  -1.13929  -1.13920
  Beta  occ. eigenvalues --   -1.13891  -1.13460  -1.13452  -1.13445  -1.13419
  Beta  occ. eigenvalues --   -1.13414  -1.13367  -1.13126  -1.13118  -1.13109
  Beta  occ. eigenvalues --   -0.15993  -0.12909  -0.12457
  Beta virt. eigenvalues --   -0.07198  -0.06640  -0.06175  -0.03705  -0.03178
  Beta virt. eigenvalues --   -0.02637  -0.02037  -0.01895  -0.01381  -0.01327
  Beta virt. eigenvalues --   -0.00809  -0.00031   0.00417   0.00455   0.00562

 Mulliken charges and spin densities:
               1          2
     1  Na  -0.093103   0.431435
     2  Na  -0.033884   0.303350
     3  Na   0.272747   0.181092
     4  Na   0.274716   0.014164
     5  Na   0.096412  -0.014762
     6  Na  -0.158350   0.015560
     7  Na  -0.358536   0.069161
 Sum of Mulliken charges =  -0.00000   1.00000

 Dipole moment (field-independent basis, Debye):
    X=              0.2899    Y=              0.5892    Z=              0.4244  Tot=              0.7818
 Quadrupole moment (field-independent basis, Debye-Ang):
   XX=            -64.9614   YY=            -64.5377   ZZ=            -71.9583
   XY=              6.7246   XZ=              0.4770   YZ=             -0.9097

 Normal termination of Gaussian 16 at Sun Dec  3 14:50:53 2023.
