 Gaussian 16, Revision B.01,
 Gaussian 16:  ES64L-G16RevB.01 20-Dec-2017

 -------------------------
 #P B3LYP/6-311+g(d) force
 -------------------------

 -----
 DPGEN
 -----
 Symbolic Z-matrix:
 Charge =  0 Multiplicity = 2

                         Standard orientation:
 ---------------------------------------------------------------------
 Center     Atomic      Atomic             Coordinates (Angstroms)
 Number     Number       Type             X           Y           Z
 ---------------------------------------------------------------------
      1         11           0       -0.809491   -3.607100   -0.261913
      2         11           0       -3.535912   -1.621112    1.332239
      3         11           0       -0.985654    3.656875   -0.385350
      4         11           0       -3.467465    1.716563   -0.895081
      5         11           0        4.409846   -0.000388    0.059890
      6         11           0        1.945674   -2.533672   -0.772327
      7         11           0        2.443001    2.388834    0.922542
 ---------------------------------------------------------------------

 SCF Done:  E(UB3LYP) =  -1136.10708995     A.U. after   21 cycles

 The electronic state is 2-A.
 Alpha  occ. eigenvalues --  -38.45216 -38.45150 -38.44660 -38.44318 -38.44149
 Alpha  occ. eigenvalues --  -38.44095 -38.44040  -2.20979  -2.20924  -2.20461
 Alpha  occ. eigenvalues --   -2.20102  -2.19962  -2.19928  -2.19839  -1.14656
 Alpha  occ. eigenvalues --   -1.14655  -1.14622  -1.14595  -1.14587  -1.14571
 Alpha  occ. eigenvalues --   -1.14120  -1.14111  -1.14110  -1.13771  -1.13749
 Alpha  occ. eigenvalues --   -1.13729  -1.13726  -1.13626  -1.13601  -1.13570
 Alpha  occ. eigenvalues --   -1.13554  -1.13496  -1.13493  -1.13492  -1.13480
 Alpha  occ. eigenvalues --   -0.15603  -0.13822  -0.13545  -0.10823
 Alpha virt. eigenvalues --   -0.07645  -0.04869  -0.04440  -0.03667  -0.03429
 Alpha virt. eigenvalues --   -0.02340  -0.02027  -0.01568  -0.01412  -0.01219
 Alpha virt. eigenvalues --   -0.00779  -0.00155   0.00059   0.00356   0.00638

  Beta  occ. eigenvalues --  -38.45213 -38.45131 -38.44647 -38.44221 -38.44140
  Beta  occ. eigenvalues --  -38.44042 -38.44005  -2.20978  -2.20892  -2.20439
  Beta  occ. eigenvalues --   -2.19953  -2.19921  -2.19833  -2.19775  -1.14659
  Beta  occ. eigenvalues --   -1.14654  -1.14594  -1.14575  -1.14568  -1.14535
  Beta  occ. eigenvalues --   -1.14107  -1.14099  -1.14080  -1.13722  -1.13627
  Beta  occ. eigenvalues --   -1.13624  -1.13614  -1.13607  -1.13579  -1.13509
  Beta  occ. eigenvalues --   -1.13495  -1.13452  -1.13450  -1.13434  -1.13429
  Beta  occ. eigenvalues --   -0.15143  -0.13161  -0.12787
  Beta virt. eigenvalues --   -0.07812  -0.07567  -0.04333  -0.04100  -0.03506
  Beta virt. eigenvalues --   -0.03046  -0.02153  -0.01770  -0.01411  -0.01309
  Beta virt. eigenvalues --   -0.00849  -0.00515   0.00025   0.00301   0.00402

 Mulliken charges and spin densities:
               1          2
     1  Na  -0.244082  -0.084505
     2  Na  -0.136974   0.481442
     3  Na   0.236375   0.171335
     4  Na  -0.189890   0.014863
     5  Na   0.664225   0.105171
     6  Na   0.001342   0.227632
     7  Na  -0.330996   0.084061
 Sum of Mulliken charges =  -0.00000   1.00000

 Dipole moment (field-independent basis, Debye):
    X=              0.5827    Y=              0.6610    Z=              0.0034  Tot=              0.8812
 Quadrupole moment (field-independent basis, Debye-Ang):
   XX=            -60.3873   YY=            -69.7272   ZZ=            -71.1311
   XY=             -0.4369   XZ=              1.0866   YZ=              1.1963

 Normal termination of Gaussian 16 at Sun Dec  3 23:16:27 2023.
