 Gaussian 16, Revision B.01,
 Gaussian 16:  ES64L-G16RevB.01 20-Dec-2017

 -------------------------
 #P B3LYP/6-311+g(d) force
 -------------------------

 -----
 DPGEN
 -----
 Symbolic Z-matrix:
 Charge =  0 Multiplicity = 2

                         Standard orientation:
 ---------------------------------------------------------------------
 Center     Atomic      Atomic             Coordinates (Angstroms)
 Number     Number       Type             X           Y           Z
 ---------------------------------------------------------------------
      1         11           0        0.834350   -0.551508   -2.290526
      2         11           0       -2.257762   -2.069126   -0.748987
      3         11           0       -1.655806    0.384933    2.357204
      4         11           0        1.451391   -2.501685    0.448084
      5         11           0        2.786395    0.287398    1.422209
      6         11           0        1.141437    2.757869   -0.936355
      7         11           0       -2.300005    1.692118   -0.251629
 ---------------------------------------------------------------------

 SCF Done:  E(UB3LYP) =  -1136.12446474     A.U. after   20 cycles

 The electronic state is 2-A.
 Alpha  occ. eigenvalues --  -38.44884 -38.44665 -38.44333 -38.44007 -38.43737
 Alpha  occ. eigenvalues --  -38.43581 -38.43340  -2.20705  -2.20489  -2.20137
 Alpha  occ. eigenvalues --   -2.19780  -2.19578  -2.19407  -2.19133  -1.14409
 Alpha  occ. eigenvalues --   -1.14334  -1.14314  -1.14154  -1.14142  -1.14105
 Alpha  occ. eigenvalues --   -1.13814  -1.13790  -1.13758  -1.13469  -1.13437
 Alpha  occ. eigenvalues --   -1.13407  -1.13291  -1.13231  -1.13191  -1.13086
 Alpha  occ. eigenvalues --   -1.13080  -1.13036  -1.12811  -1.12784  -1.12775
 Alpha  occ. eigenvalues --   -0.17460  -0.12901  -0.11897  -0.11803
 Alpha virt. eigenvalues --   -0.05571  -0.05169  -0.04673  -0.03897  -0.03435
 Alpha virt. eigenvalues --   -0.03332  -0.01074  -0.00744  -0.00521  -0.00285
 Alpha virt. eigenvalues --   -0.00018   0.00372   0.00407   0.00500   0.00671

  Beta  occ. eigenvalues --  -38.44827 -38.44601 -38.44290 -38.43997 -38.43740
  Beta  occ. eigenvalues --  -38.43573 -38.43324  -2.20599  -2.20372  -2.20057
  Beta  occ. eigenvalues --   -2.19763  -2.19585  -2.19395  -2.19105  -1.14340
  Beta  occ. eigenvalues --   -1.14259  -1.14241  -1.14077  -1.14060  -1.14014
  Beta  occ. eigenvalues --   -1.13755  -1.13735  -1.13702  -1.13449  -1.13429
  Beta  occ. eigenvalues --   -1.13393  -1.13283  -1.13229  -1.13198  -1.13081
  Beta  occ. eigenvalues --   -1.13062  -1.13014  -1.12779  -1.12765  -1.12760
  Beta  occ. eigenvalues --   -0.16746  -0.12579  -0.11689
  Beta virt. eigenvalues --   -0.08139  -0.05380  -0.04657  -0.04453  -0.03558
  Beta virt. eigenvalues --   -0.02912  -0.02529  -0.00995  -0.00683  -0.00256
  Beta virt. eigenvalues --   -0.00113   0.00008   0.00471   0.00571   0.00628

 Mulliken charges and spin densities:
               1          2
     1  Na  -0.007355   0.402570
     2  Na   0.115326  -0.067094
     3  Na   0.022527   0.200116
     4  Na  -0.037163   0.095728
     5  Na  -0.112344   0.242009
     6  Na   0.020566   0.020336
     7  Na  -0.001557   0.106335
 Sum of Mulliken charges =  -0.00000   1.00000

 Dipole moment (field-independent basis, Debye):
    X=             -0.1707    Y=             -0.2507    Z=              0.2932  Tot=              0.4218
 Quadrupole moment (field-independent basis, Debye-Ang):
   XX=            -66.4852   YY=            -69.4689   ZZ=            -63.2983
   XY=              1.4221   XZ=              2.1776   YZ=             -0.6574

 Normal termination of Gaussian 16 at Sun Dec  3 23:19:53 2023.
