 Gaussian 16, Revision B.01,
 Gaussian 16:  ES64L-G16RevB.01 20-Dec-2017

 -------------------------
 #P B3LYP/6-311+g(d) force
 -------------------------

 -----
 DPGEN
 -----
 Symbolic Z-matrix:
 Charge =  0 Multiplicity = 2

                         Standard orientation:
 ---------------------------------------------------------------------
 Center     Atomic      Atomic             Coordinates (Angstroms)
 Number     Number       Type             X           Y           Z
 ---------------------------------------------------------------------
      1         11           0        1.869948   -2.327650    0.144254
      2         11           0       -0.146797    2.792925    0.168464
      3         11           0        0.192184   -0.280430   -1.820777
      4         11           0        0.026102    0.101629    1.901424
      5         11           0       -3.186237    0.694402   -0.328283
      6         11           0       -1.753906   -2.097312    0.167392
      7         11           0        2.998706    1.116435   -0.232474
 ---------------------------------------------------------------------

 SCF Done:  E(UB3LYP) =  -1136.13840396     A.U. after   19 cycles

 The electronic state is 2-A.
 Alpha  occ. eigenvalues --  -38.44160 -38.44076 -38.43493 -38.43415 -38.43397
 Alpha  occ. eigenvalues --  -38.43293 -38.43157  -2.19979  -2.19903  -2.19433
 Alpha  occ. eigenvalues --   -2.19343  -2.19272  -2.19202  -2.19010  -1.13657
 Alpha  occ. eigenvalues --   -1.13635  -1.13616  -1.13591  -1.13563  -1.13538
 Alpha  occ. eigenvalues --   -1.13134  -1.13076  -1.13063  -1.13025  -1.13010
 Alpha  occ. eigenvalues --   -1.12971  -1.12934  -1.12921  -1.12904  -1.12870
 Alpha  occ. eigenvalues --   -1.12860  -1.12819  -1.12697  -1.12673  -1.12625
 Alpha  occ. eigenvalues --   -0.18795  -0.13137  -0.12342  -0.10849
 Alpha virt. eigenvalues --   -0.05799  -0.05122  -0.04401  -0.03268  -0.02903
 Alpha virt. eigenvalues --   -0.02576  -0.01669  -0.01084  -0.00289  -0.00147
 Alpha virt. eigenvalues --   -0.00017   0.00355   0.00791   0.00894   0.00918

  Beta  occ. eigenvalues --  -38.44156 -38.44071 -38.43422 -38.43409 -38.43308
  Beta  occ. eigenvalues --  -38.43284 -38.43151  -2.19973  -2.19897  -2.19302
  Beta  occ. eigenvalues --   -2.19267  -2.19190  -2.19180  -2.19002  -1.13639
  Beta  occ. eigenvalues --   -1.13630  -1.13612  -1.13590  -1.13544  -1.13532
  Beta  occ. eigenvalues --   -1.13057  -1.12993  -1.12975  -1.12939  -1.12920
  Beta  occ. eigenvalues --   -1.12908  -1.12902  -1.12890  -1.12846  -1.12838
  Beta  occ. eigenvalues --   -1.12821  -1.12799  -1.12680  -1.12647  -1.12625
  Beta  occ. eigenvalues --   -0.18050  -0.12896  -0.12085
  Beta virt. eigenvalues --   -0.06948  -0.05734  -0.05124  -0.04371  -0.02499
  Beta virt. eigenvalues --   -0.02102  -0.01566  -0.01528  -0.01030  -0.00324
  Beta virt. eigenvalues --   -0.00196   0.00110   0.00374   0.00849   0.00892

 Mulliken charges and spin densities:
               1          2
     1  Na   0.210514  -0.104752
     2  Na   0.083614  -0.094829
     3  Na  -0.373481   0.681394
     4  Na  -0.271240   0.657378
     5  Na  -0.040594  -0.027205
     6  Na   0.328815  -0.014842
     7  Na   0.062372  -0.097145
 Sum of Mulliken charges =  -0.00000   1.00000

 Dipole moment (field-independent basis, Debye):
    X=              0.1883    Y=              0.0881    Z=             -0.0809  Tot=              0.2231
 Quadrupole moment (field-independent basis, Debye-Ang):
   XX=            -54.7107   YY=            -65.0483   ZZ=            -73.6663
   XY=             -0.6714   XZ=              0.5453   YZ=             -1.2023

 Normal termination of Gaussian 16 at Thu Dec  7 14:03:49 2023.
