 Gaussian 16, Revision B.01,
 Gaussian 16:  ES64L-G16RevB.01 20-Dec-2017

 -------------------------
 #P B3LYP/6-311+g(d) force
 -------------------------

 -----
 DPGEN
 -----
 Symbolic Z-matrix:
 Charge =  0 Multiplicity = 2

                         Standard orientation:
 ---------------------------------------------------------------------
 Center     Atomic      Atomic             Coordinates (Angstroms)
 Number     Number       Type             X           Y           Z
 ---------------------------------------------------------------------
      1         11           0       -0.180722    0.818450    0.581611
      2         11           0        6.813062    0.337755    0.478517
      3         11           0        3.732230    0.075180   -0.489637
      4         11           0        0.782790   -1.931062   -0.185591
      5         11           0       -2.682849   -0.907972   -0.848815
      6         11           0       -3.125070    2.359944   -0.443706
      7         11           0       -5.339441   -0.752294    0.907621
 ---------------------------------------------------------------------

 SCF Done:  E(UB3LYP) =  -1136.11575526     A.U. after   20 cycles

 The electronic state is 2-A.
 Alpha  occ. eigenvalues --  -38.44775 -38.44727 -38.44614 -38.44586 -38.43944
 Alpha  occ. eigenvalues --  -38.43228 -38.43154  -2.20587  -2.20574  -2.20519
 Alpha  occ. eigenvalues --   -2.20495  -2.19821  -2.18996  -2.18965  -1.14291
 Alpha  occ. eigenvalues --   -1.14277  -1.14239  -1.14235  -1.14227  -1.14207
 Alpha  occ. eigenvalues --   -1.14187  -1.14182  -1.14165  -1.14154  -1.14129
 Alpha  occ. eigenvalues --   -1.14068  -1.13485  -1.13461  -1.13452  -1.12690
 Alpha  occ. eigenvalues --   -1.12666  -1.12662  -1.12650  -1.12638  -1.12538
 Alpha  occ. eigenvalues --   -0.17676  -0.14085  -0.11742  -0.11345
 Alpha virt. eigenvalues --   -0.06686  -0.05691  -0.04710  -0.03320  -0.02878
 Alpha virt. eigenvalues --   -0.02786  -0.01949  -0.01397  -0.01087  -0.00761
 Alpha virt. eigenvalues --   -0.00645  -0.00335   0.00208   0.00441   0.00515

  Beta  occ. eigenvalues --  -38.44715 -38.44651 -38.44586 -38.44562 -38.43924
  Beta  occ. eigenvalues --  -38.43240 -38.43150  -2.20476  -2.20473  -2.20456
  Beta  occ. eigenvalues --   -2.20435  -2.19782  -2.19018  -2.18958  -1.14222
  Beta  occ. eigenvalues --   -1.14214  -1.14177  -1.14158  -1.14156  -1.14144
  Beta  occ. eigenvalues --   -1.14133  -1.14127  -1.14101  -1.14083  -1.14054
  Beta  occ. eigenvalues --   -1.14030  -1.13462  -1.13437  -1.13417  -1.12700
  Beta  occ. eigenvalues --   -1.12677  -1.12676  -1.12647  -1.12634  -1.12544
  Beta  occ. eigenvalues --   -0.16963  -0.13858  -0.11324
  Beta virt. eigenvalues --   -0.07675  -0.06401  -0.05429  -0.04338  -0.02890
  Beta virt. eigenvalues --   -0.02767  -0.02205  -0.01628  -0.01058  -0.00923
  Beta virt. eigenvalues --   -0.00635  -0.00352  -0.00174   0.00377   0.00504

 Mulliken charges and spin densities:
               1          2
     1  Na  -0.372848   0.281505
     2  Na   0.216541  -0.038331
     3  Na  -0.578949  -0.115251
     4  Na   0.353557   0.110751
     5  Na  -0.224880   0.439352
     6  Na   0.313810   0.264462
     7  Na   0.292770   0.057512
 Sum of Mulliken charges =  -0.00000   1.00000

 Dipole moment (field-independent basis, Debye):
    X=             -2.9535    Y=             -0.0138    Z=              0.3786  Tot=              2.9777
 Quadrupole moment (field-independent basis, Debye-Ang):
   XX=            -69.2427   YY=            -67.2931   ZZ=            -68.0594
   XY=             -3.1325   XZ=             -0.1231   YZ=              0.8174

 Normal termination of Gaussian 16 at Tue Nov 28 20:13:48 2023.
