 Gaussian 16, Revision B.01,
 Gaussian 16:  ES64L-G16RevB.01 20-Dec-2017

 -------------------------
 #P B3LYP/6-311+g(d) force
 -------------------------

 -----
 DPGEN
 -----
 Symbolic Z-matrix:
 Charge =  0 Multiplicity = 2

                         Standard orientation:
 ---------------------------------------------------------------------
 Center     Atomic      Atomic             Coordinates (Angstroms)
 Number     Number       Type             X           Y           Z
 ---------------------------------------------------------------------
      1         11           0        1.427245    2.172404   -0.667249
      2         11           0        3.592492   -1.598146   -0.749638
      3         11           0       -3.282731   -1.916755   -0.111759
      4         11           0       -1.848910    0.827414    1.685039
      5         11           0       -1.627777    1.687187   -1.499720
      6         11           0        1.950373    0.174826    1.960064
      7         11           0       -0.210692   -1.346930   -0.616738
 ---------------------------------------------------------------------

 SCF Done:  E(UB3LYP) =  -1136.12713986     A.U. after   21 cycles

 The electronic state is 2-A.
 Alpha  occ. eigenvalues --  -38.44402 -38.44313 -38.44195 -38.43778 -38.43561
 Alpha  occ. eigenvalues --  -38.43530 -38.43410  -2.20263  -2.20081  -2.20041
 Alpha  occ. eigenvalues --   -2.19599  -2.19461  -2.19380  -2.19302  -1.13944
 Alpha  occ. eigenvalues --   -1.13931  -1.13863  -1.13751  -1.13744  -1.13719
 Alpha  occ. eigenvalues --   -1.13717  -1.13706  -1.13630  -1.13310  -1.13256
 Alpha  occ. eigenvalues --   -1.13238  -1.13167  -1.13145  -1.13093  -1.13051
 Alpha  occ. eigenvalues --   -1.13048  -1.13013  -1.12968  -1.12949  -1.12888
 Alpha  occ. eigenvalues --   -0.18204  -0.13567  -0.11504  -0.11113
 Alpha virt. eigenvalues --   -0.06100  -0.05673  -0.04577  -0.03311  -0.02663
 Alpha virt. eigenvalues --   -0.02431  -0.02003  -0.01387  -0.00602  -0.00215
 Alpha virt. eigenvalues --    0.00182   0.00225   0.00276   0.00506   0.00689

  Beta  occ. eigenvalues --  -38.44350 -38.44299 -38.44141 -38.43781 -38.43541
  Beta  occ. eigenvalues --  -38.43517 -38.43376  -2.20168  -2.20054  -2.19944
  Beta  occ. eigenvalues --   -2.19607  -2.19428  -2.19361  -2.19240  -1.13879
  Beta  occ. eigenvalues --   -1.13856  -1.13794  -1.13728  -1.13725  -1.13693
  Beta  occ. eigenvalues --   -1.13655  -1.13649  -1.13549  -1.13312  -1.13253
  Beta  occ. eigenvalues --   -1.13244  -1.13130  -1.13111  -1.13064  -1.13032
  Beta  occ. eigenvalues --   -1.13024  -1.12999  -1.12915  -1.12913  -1.12848
  Beta  occ. eigenvalues --   -0.17515  -0.13421  -0.11258
  Beta virt. eigenvalues --   -0.07273  -0.05878  -0.05547  -0.04008  -0.03061
  Beta virt. eigenvalues --   -0.02170  -0.01887  -0.01725  -0.01151  -0.00232
  Beta virt. eigenvalues --   -0.00167   0.00246   0.00321   0.00372   0.00591

 Mulliken charges and spin densities:
               1          2
     1  Na  -0.212289   0.172582
     2  Na   0.310117   0.023277
     3  Na   0.850326  -0.179281
     4  Na  -0.104742   0.339838
     5  Na   0.351671   0.036606
     6  Na   0.485363   0.195556
     7  Na  -1.680446   0.411422
 Sum of Mulliken charges =  -0.00000   1.00000

 Dipole moment (field-independent basis, Debye):
    X=             -0.0011    Y=              0.1071    Z=              0.1008  Tot=              0.1470
 Quadrupole moment (field-independent basis, Debye-Ang):
   XX=            -52.0218   YY=            -73.1725   ZZ=            -68.6985
   XY=              0.0947   XZ=             -1.1238   YZ=              1.6313

 Normal termination of Gaussian 16 at Tue Dec  5 16:01:28 2023.
