 Gaussian 16, Revision B.01,
 Gaussian 16:  ES64L-G16RevB.01 20-Dec-2017

 -------------------------
 #P B3LYP/6-311+g(d) force
 -------------------------

 -----
 DPGEN
 -----
 Symbolic Z-matrix:
 Charge =  0 Multiplicity = 2

                         Standard orientation:
 ---------------------------------------------------------------------
 Center     Atomic      Atomic             Coordinates (Angstroms)
 Number     Number       Type             X           Y           Z
 ---------------------------------------------------------------------
      1         11           0        2.418257    2.036830   -0.077833
      2         11           0        0.084391   -0.384668   -1.558383
      3         11           0        3.023340   -1.151981    0.079391
      4         11           0       -3.173704   -0.576887   -0.080884
      5         11           0       -0.378808   -2.995124   -0.079416
      6         11           0       -0.433873    0.319853    2.203621
      7         11           0       -1.539604    2.751977   -0.486496
 ---------------------------------------------------------------------

 SCF Done:  E(UB3LYP) =  -1136.13439583     A.U. after   19 cycles

 The electronic state is 2-A.
 Alpha  occ. eigenvalues --  -38.44463 -38.44067 -38.43904 -38.43748 -38.43705
 Alpha  occ. eigenvalues --  -38.43447 -38.43246  -2.20267  -2.19890  -2.19713
 Alpha  occ. eigenvalues --   -2.19583  -2.19495  -2.19293  -2.19202  -1.13945
 Alpha  occ. eigenvalues --   -1.13929  -1.13900  -1.13581  -1.13556  -1.13534
 Alpha  occ. eigenvalues --   -1.13383  -1.13371  -1.13347  -1.13240  -1.13208
 Alpha  occ. eigenvalues --   -1.13206  -1.13170  -1.13149  -1.13135  -1.13082
 Alpha  occ. eigenvalues --   -1.12946  -1.12909  -1.12873  -1.12817  -1.12806
 Alpha  occ. eigenvalues --   -0.18117  -0.13060  -0.12241  -0.10526
 Alpha virt. eigenvalues --   -0.05901  -0.05371  -0.04811  -0.03196  -0.02863
 Alpha virt. eigenvalues --   -0.02470  -0.01668  -0.01197  -0.00671  -0.00604
 Alpha virt. eigenvalues --   -0.00034   0.00344   0.00751   0.00815   0.00841

  Beta  occ. eigenvalues --  -38.44460 -38.44066 -38.43903 -38.43694 -38.43647
  Beta  occ. eigenvalues --  -38.43443 -38.43194  -2.20263  -2.19891  -2.19714
  Beta  occ. eigenvalues --   -2.19477  -2.19395  -2.19289  -2.19108  -1.13930
  Beta  occ. eigenvalues --   -1.13916  -1.13902  -1.13583  -1.13541  -1.13537
  Beta  occ. eigenvalues --   -1.13374  -1.13364  -1.13350  -1.13148  -1.13137
  Beta  occ. eigenvalues --   -1.13126  -1.13112  -1.13073  -1.13072  -1.13060
  Beta  occ. eigenvalues --   -1.12925  -1.12909  -1.12809  -1.12750  -1.12746
  Beta  occ. eigenvalues --   -0.17432  -0.12882  -0.12025
  Beta virt. eigenvalues --   -0.06630  -0.05838  -0.05373  -0.04714  -0.02466
  Beta virt. eigenvalues --   -0.02114  -0.01579  -0.01449  -0.01113  -0.00713
  Beta virt. eigenvalues --   -0.00649   0.00140   0.00384   0.00799   0.00827

 Mulliken charges and spin densities:
               1          2
     1  Na   0.042048  -0.050817
     2  Na  -0.017440   0.357159
     3  Na   0.089716  -0.020819
     4  Na   0.242349  -0.002271
     5  Na   0.196682  -0.036607
     6  Na  -0.543118   0.774885
     7  Na  -0.010236  -0.021529
 Sum of Mulliken charges =  -0.00000   1.00000

 Dipole moment (field-independent basis, Debye):
    X=             -0.1216    Y=             -0.0534    Z=              0.1010  Tot=              0.1669
 Quadrupole moment (field-independent basis, Debye-Ang):
   XX=            -55.4907   YY=            -62.2577   ZZ=            -75.7379
   XY=              0.1562   XZ=              1.1244   YZ=             -1.6276

 Normal termination of Gaussian 16 at Thu Dec  7 07:30:02 2023.
