 Gaussian 16, Revision B.01,
 Gaussian 16:  ES64L-G16RevB.01 20-Dec-2017

 -------------------------
 #P B3LYP/6-311+g(d) force
 -------------------------

 -----
 DPGEN
 -----
 Symbolic Z-matrix:
 Charge =  0 Multiplicity = 2

                         Standard orientation:
 ---------------------------------------------------------------------
 Center     Atomic      Atomic             Coordinates (Angstroms)
 Number     Number       Type             X           Y           Z
 ---------------------------------------------------------------------
      1         11           0       -1.109237    1.378599   -1.194268
      2         11           0        1.334095   -1.650572   -0.761896
      3         11           0       -3.556051    0.594140    0.855279
      4         11           0        3.894719   -0.254654    0.526471
      5         11           0       -1.931169   -1.904956   -0.865340
      6         11           0       -0.112526   -0.274562    1.958644
      7         11           0        1.480169    2.112005   -0.518891
 ---------------------------------------------------------------------

 SCF Done:  E(UB3LYP) =  -1136.11843652     A.U. after   25 cycles

 The electronic state is 2-A.
 Alpha  occ. eigenvalues --  -38.45388 -38.45366 -38.45084 -38.43314 -38.43018
 Alpha  occ. eigenvalues --  -38.42825 -38.42801  -2.21199  -2.21195  -2.20920
 Alpha  occ. eigenvalues --   -2.19206  -2.18938  -2.18798  -2.18728  -1.14897
 Alpha  occ. eigenvalues --   -1.14879  -1.14842  -1.14840  -1.14827  -1.14806
 Alpha  occ. eigenvalues --   -1.14583  -1.14565  -1.14549  -1.12904  -1.12857
 Alpha  occ. eigenvalues --   -1.12840  -1.12771  -1.12632  -1.12589  -1.12568
 Alpha  occ. eigenvalues --   -1.12430  -1.12418  -1.12352  -1.12336  -1.12252
 Alpha  occ. eigenvalues --   -0.18765  -0.14201  -0.11324  -0.11052
 Alpha virt. eigenvalues --   -0.07405  -0.04843  -0.04355  -0.03291  -0.03002
 Alpha virt. eigenvalues --   -0.02396  -0.02263  -0.01139  -0.00765  -0.00078
 Alpha virt. eigenvalues --    0.00024   0.00252   0.00285   0.00762   0.00787

  Beta  occ. eigenvalues --  -38.45375 -38.45318 -38.45048 -38.43283 -38.42994
  Beta  occ. eigenvalues --  -38.42815 -38.42765  -2.21173  -2.21107  -2.20853
  Beta  occ. eigenvalues --   -2.19154  -2.18898  -2.18749  -2.18700  -1.14864
  Beta  occ. eigenvalues --   -1.14831  -1.14824  -1.14808  -1.14783  -1.14735
  Beta  occ. eigenvalues --   -1.14535  -1.14519  -1.14500  -1.12856  -1.12826
  Beta  occ. eigenvalues --   -1.12789  -1.12736  -1.12611  -1.12545  -1.12525
  Beta  occ. eigenvalues --   -1.12394  -1.12372  -1.12329  -1.12306  -1.12222
  Beta  occ. eigenvalues --   -0.18087  -0.13955  -0.10988
  Beta virt. eigenvalues --   -0.07415  -0.07052  -0.04826  -0.03777  -0.03092
  Beta virt. eigenvalues --   -0.02687  -0.01825  -0.01451  -0.00945  -0.00556
  Beta virt. eigenvalues --   -0.00054   0.00088   0.00273   0.00451   0.00814

 Mulliken charges and spin densities:
               1          2
     1  Na  -0.157581   0.312185
     2  Na  -0.769821   0.035939
     3  Na   0.723820   0.140886
     4  Na   1.138672   0.182213
     5  Na   0.032213   0.035455
     6  Na  -0.487783   0.423852
     7  Na  -0.479519  -0.130531
 Sum of Mulliken charges =  -0.00000   1.00000

 Dipole moment (field-independent basis, Debye):
    X=              0.1879    Y=             -0.2353    Z=              0.8511  Tot=              0.9028
 Quadrupole moment (field-independent basis, Debye-Ang):
   XX=            -43.6068   YY=            -79.4191   ZZ=            -70.1801
   XY=              0.2185   XZ=              1.1755   YZ=              2.4637

 Normal termination of Gaussian 16 at Thu Dec  7 16:15:10 2023.
