 Gaussian 16, Revision B.01,
 Gaussian 16:  ES64L-G16RevB.01 20-Dec-2017

 -------------------------
 #P B3LYP/6-311+g(d) force
 -------------------------

 -----
 DPGEN
 -----
 Symbolic Z-matrix:
 Charge =  0 Multiplicity = 2

                         Standard orientation:
 ---------------------------------------------------------------------
 Center     Atomic      Atomic             Coordinates (Angstroms)
 Number     Number       Type             X           Y           Z
 ---------------------------------------------------------------------
      1         11           0        3.401765   -0.284249    0.001047
      2         11           0       -2.670327   -1.647524    0.376988
      3         11           0        0.462108   -2.303257   -0.778499
      4         11           0        0.172936    0.463020   -1.671405
      5         11           0        0.231089   -0.633678    1.830019
      6         11           0       -2.742740    1.889709   -0.244877
      7         11           0        1.145169    2.515978    0.486727
 ---------------------------------------------------------------------

 SCF Done:  E(UB3LYP) =  -1136.13081702     A.U. after   19 cycles

 The electronic state is 2-A.
 Alpha  occ. eigenvalues --  -38.44680 -38.43975 -38.43814 -38.43537 -38.43479
 Alpha  occ. eigenvalues --  -38.43346 -38.43027  -2.20485  -2.19756  -2.19651
 Alpha  occ. eigenvalues --   -2.19477  -2.19346  -2.19331  -2.18994  -1.14158
 Alpha  occ. eigenvalues --   -1.14137  -1.14127  -1.13437  -1.13417  -1.13396
 Alpha  occ. eigenvalues --   -1.13336  -1.13312  -1.13285  -1.13190  -1.13139
 Alpha  occ. eigenvalues --   -1.13127  -1.13086  -1.13073  -1.13001  -1.12949
 Alpha  occ. eigenvalues --   -1.12929  -1.12918  -1.12667  -1.12637  -1.12568
 Alpha  occ. eigenvalues --   -0.18772  -0.13137  -0.12156  -0.10874
 Alpha virt. eigenvalues --   -0.06142  -0.05202  -0.04058  -0.03245  -0.02870
 Alpha virt. eigenvalues --   -0.02506  -0.02010  -0.01070  -0.00272  -0.00126
 Alpha virt. eigenvalues --    0.00038   0.00311   0.00762   0.00835   0.00870

  Beta  occ. eigenvalues --  -38.44678 -38.43975 -38.43807 -38.43467 -38.43465
  Beta  occ. eigenvalues --  -38.43272 -38.42996  -2.20484  -2.19758  -2.19641
  Beta  occ. eigenvalues --   -2.19344  -2.19314  -2.19212  -2.18943  -1.14148
  Beta  occ. eigenvalues --   -1.14130  -1.14125  -1.13429  -1.13417  -1.13399
  Beta  occ. eigenvalues --   -1.13317  -1.13300  -1.13279  -1.13107  -1.13080
  Beta  occ. eigenvalues --   -1.13037  -1.13013  -1.12984  -1.12962  -1.12918
  Beta  occ. eigenvalues --   -1.12864  -1.12830  -1.12629  -1.12569  -1.12529
  Beta  occ. eigenvalues --   -0.18033  -0.12910  -0.11926
  Beta virt. eigenvalues --   -0.06903  -0.06099  -0.05160  -0.04008  -0.02521
  Beta virt. eigenvalues --   -0.02184  -0.01924  -0.01428  -0.01018  -0.00258
  Beta virt. eigenvalues --   -0.00073   0.00111   0.00338   0.00824   0.00841

 Mulliken charges and spin densities:
               1          2
     1  Na   0.145765  -0.069935
     2  Na   0.085240   0.029837
     3  Na   0.248177   0.080269
     4  Na   0.056697   0.416537
     5  Na  -0.227996   0.634550
     6  Na  -0.119285  -0.098304
     7  Na  -0.188599   0.007045
 Sum of Mulliken charges =  -0.00000   1.00000

 Dipole moment (field-independent basis, Debye):
    X=              0.3318    Y=              0.0712    Z=              0.2547  Tot=              0.4243
 Quadrupole moment (field-independent basis, Debye-Ang):
   XX=            -51.0809   YY=            -67.5125   ZZ=            -73.7589
   XY=             -0.0684   XZ=             -0.2138   YZ=              1.4545

 Normal termination of Gaussian 16 at Thu Dec  7 11:58:37 2023.
