 Gaussian 16, Revision B.01,
 Gaussian 16:  ES64L-G16RevB.01 20-Dec-2017

 -------------------------
 #P B3LYP/6-311+g(d) force
 -------------------------

 -----
 DPGEN
 -----
 Symbolic Z-matrix:
 Charge =  0 Multiplicity = 2

                         Standard orientation:
 ---------------------------------------------------------------------
 Center     Atomic      Atomic             Coordinates (Angstroms)
 Number     Number       Type             X           Y           Z
 ---------------------------------------------------------------------
      1         11           0        0.330080    0.081514    2.070558
      2         11           0       -2.661900    1.889576   -0.190482
      3         11           0        0.511253    2.044873   -0.998738
      4         11           0       -3.572388   -1.357297    0.442802
      5         11           0       -0.591641   -1.536884   -1.253632
      6         11           0        2.415489   -1.909814   -0.357075
      7         11           0        3.569107    0.788031    0.286566
 ---------------------------------------------------------------------

 SCF Done:  E(UB3LYP) =  -1136.11862276     A.U. after   24 cycles

 The electronic state is 2-A.
 Alpha  occ. eigenvalues --  -38.45426 -38.45137 -38.44740 -38.44173 -38.43847
 Alpha  occ. eigenvalues --  -38.43263 -38.42669  -2.21264  -2.20943  -2.20532
 Alpha  occ. eigenvalues --   -2.19991  -2.19735  -2.19141  -2.18535  -1.14972
 Alpha  occ. eigenvalues --   -1.14912  -1.14891  -1.14627  -1.14584  -1.14551
 Alpha  occ. eigenvalues --   -1.14200  -1.14194  -1.14173  -1.13669  -1.13654
 Alpha  occ. eigenvalues --   -1.13634  -1.13435  -1.13394  -1.13369  -1.12830
 Alpha  occ. eigenvalues --   -1.12782  -1.12769  -1.12219  -1.12183  -1.12172
 Alpha  occ. eigenvalues --   -0.18225  -0.14134  -0.11477  -0.10578
 Alpha virt. eigenvalues --   -0.07424  -0.05827  -0.03946  -0.03362  -0.02940
 Alpha virt. eigenvalues --   -0.02584  -0.02230  -0.01500  -0.00602  -0.00492
 Alpha virt. eigenvalues --    0.00049   0.00132   0.00339   0.00589   0.00644

  Beta  occ. eigenvalues --  -38.45420 -38.45067 -38.44732 -38.44170 -38.43834
  Beta  occ. eigenvalues --  -38.43217 -38.42637  -2.21255  -2.20813  -2.20516
  Beta  occ. eigenvalues --   -2.19988  -2.19715  -2.19059  -2.18478  -1.14971
  Beta  occ. eigenvalues --   -1.14895  -1.14877  -1.14534  -1.14497  -1.14454
  Beta  occ. eigenvalues --   -1.14190  -1.14179  -1.14161  -1.13658  -1.13650
  Beta  occ. eigenvalues --   -1.13627  -1.13414  -1.13384  -1.13331  -1.12779
  Beta  occ. eigenvalues --   -1.12716  -1.12700  -1.12183  -1.12135  -1.12126
  Beta  occ. eigenvalues --   -0.17553  -0.13955  -0.11172
  Beta virt. eigenvalues --   -0.07238  -0.06795  -0.05852  -0.03352  -0.03154
  Beta virt. eigenvalues --   -0.02702  -0.01993  -0.01446  -0.01365  -0.00591
  Beta virt. eigenvalues --   -0.00203   0.00085   0.00147   0.00521   0.00692

 Mulliken charges and spin densities:
               1          2
     1  Na  -0.385437   0.415642
     2  Na  -0.041129   0.009335
     3  Na  -0.309045   0.095611
     4  Na   0.440530   0.073295
     5  Na  -0.297605   0.187577
     6  Na  -0.168807  -0.013815
     7  Na   0.761495   0.232356
 Sum of Mulliken charges =  -0.00000   1.00000

 Dipole moment (field-independent basis, Debye):
    X=              0.1410    Y=              0.1442    Z=              0.5113  Tot=              0.5496
 Quadrupole moment (field-independent basis, Debye-Ang):
   XX=            -45.1755   YY=            -75.4955   ZZ=            -73.8750
   XY=              1.0758   XZ=             -1.3723   YZ=             -0.8477

 Normal termination of Gaussian 16 at Thu Dec  7 15:48:01 2023.
