 Gaussian 16, Revision B.01,
 Gaussian 16:  ES64L-G16RevB.01 20-Dec-2017

 -------------------------
 #P B3LYP/6-311+g(d) force
 -------------------------

 -----
 DPGEN
 -----
 Symbolic Z-matrix:
 Charge =  0 Multiplicity = 2

                         Standard orientation:
 ---------------------------------------------------------------------
 Center     Atomic      Atomic             Coordinates (Angstroms)
 Number     Number       Type             X           Y           Z
 ---------------------------------------------------------------------
      1         11           0        0.121362   -0.271225    2.343984
      2         11           0       -2.864295   -1.204261   -0.376679
      3         11           0        0.434565   -2.662171   -0.127237
      4         11           0        1.919379    2.389837   -0.397574
      5         11           0       -0.437219    0.030579   -1.654450
      6         11           0       -2.365889    2.215692    0.349937
      7         11           0        3.192097   -0.498451   -0.137980
 ---------------------------------------------------------------------

 SCF Done:  E(UB3LYP) =  -1136.13164382     A.U. after   20 cycles

 The electronic state is 2-A.
 Alpha  occ. eigenvalues --  -38.44277 -38.44191 -38.44182 -38.43901 -38.43600
 Alpha  occ. eigenvalues --  -38.43539 -38.42831  -2.20110  -2.20058  -2.20016
 Alpha  occ. eigenvalues --   -2.19693  -2.19569  -2.19359  -2.18715  -1.13810
 Alpha  occ. eigenvalues --   -1.13760  -1.13740  -1.13727  -1.13704  -1.13697
 Alpha  occ. eigenvalues --   -1.13681  -1.13667  -1.13658  -1.13362  -1.13355
 Alpha  occ. eigenvalues --   -1.13339  -1.13249  -1.13208  -1.13190  -1.13030
 Alpha  occ. eigenvalues --   -1.13020  -1.12994  -1.12411  -1.12381  -1.12336
 Alpha  occ. eigenvalues --   -0.18352  -0.13301  -0.11955  -0.11109
 Alpha virt. eigenvalues --   -0.05759  -0.05486  -0.04272  -0.03439  -0.02980
 Alpha virt. eigenvalues --   -0.02848  -0.01641  -0.01102  -0.00434  -0.00232
 Alpha virt. eigenvalues --   -0.00071   0.00337   0.00704   0.00853   0.00897

  Beta  occ. eigenvalues --  -38.44181 -38.44181 -38.44168 -38.43895 -38.43547
  Beta  occ. eigenvalues --  -38.43535 -38.42825  -2.20043  -2.20016  -2.19908
  Beta  occ. eigenvalues --   -2.19684  -2.19472  -2.19352  -2.18708  -1.13788
  Beta  occ. eigenvalues --   -1.13701  -1.13683  -1.13671  -1.13660  -1.13655
  Beta  occ. eigenvalues --   -1.13624  -1.13600  -1.13579  -1.13350  -1.13341
  Beta  occ. eigenvalues --   -1.13333  -1.13188  -1.13135  -1.13121  -1.13022
  Beta  occ. eigenvalues --   -1.13010  -1.12987  -1.12407  -1.12354  -1.12327
  Beta  occ. eigenvalues --   -0.17642  -0.13097  -0.11733
  Beta virt. eigenvalues --   -0.07149  -0.05663  -0.05448  -0.04197  -0.02711
  Beta virt. eigenvalues --   -0.02134  -0.01895  -0.01550  -0.01009  -0.00466
  Beta virt. eigenvalues --   -0.00265   0.00095   0.00381   0.00811   0.00861

 Mulliken charges and spin densities:
               1          2
     1  Na  -0.632383   0.736151
     2  Na   0.465240   0.017058
     3  Na   0.213230   0.009797
     4  Na   0.086288  -0.013738
     5  Na  -0.075466   0.222759
     6  Na  -0.120358   0.048688
     7  Na   0.063449  -0.020715
 Sum of Mulliken charges =  -0.00000   1.00000

 Dipole moment (field-independent basis, Debye):
    X=             -0.2066    Y=              0.0002    Z=              0.2548  Tot=              0.3280
 Quadrupole moment (field-independent basis, Debye-Ang):
   XX=            -56.2800   YY=            -66.4472   ZZ=            -72.5803
   XY=             -0.6541   XZ=             -0.7022   YZ=              0.9538

 Normal termination of Gaussian 16 at Thu Dec  7 11:18:01 2023.
