 Gaussian 16, Revision B.01,
 Gaussian 16:  ES64L-G16RevB.01 20-Dec-2017

 -------------------------
 #P B3LYP/6-311+g(d) force
 -------------------------

 -----
 DPGEN
 -----
 Symbolic Z-matrix:
 Charge =  0 Multiplicity = 2

                         Standard orientation:
 ---------------------------------------------------------------------
 Center     Atomic      Atomic             Coordinates (Angstroms)
 Number     Number       Type             X           Y           Z
 ---------------------------------------------------------------------
      1         11           0       -0.271486   -0.007494   -1.694514
      2         11           0       -0.889217   -1.547882    0.945086
      3         11           0       -2.933986   -0.003740   -0.473114
      4         11           0       -0.886854    1.560018    0.929486
      5         11           0        1.364614    0.008072    1.607786
      6         11           0        1.808247    1.577763   -0.663814
      7         11           0        1.808682   -1.586737   -0.650914
 ---------------------------------------------------------------------

 SCF Done:  E(UB3LYP) =  -1136.08390450     A.U. after   24 cycles

 The electronic state is 2-A.
 Alpha  occ. eigenvalues --  -38.44575 -38.44372 -38.44355 -38.43429 -38.43412
 Alpha  occ. eigenvalues --  -38.43150 -38.43127  -2.20820  -2.20622  -2.20361
 Alpha  occ. eigenvalues --   -2.19529  -2.19509  -2.19308  -2.19282  -1.14599
 Alpha  occ. eigenvalues --   -1.14545  -1.14466  -1.14447  -1.14330  -1.14250
 Alpha  occ. eigenvalues --   -1.14064  -1.13984  -1.13978  -1.13245  -1.13198
 Alpha  occ. eigenvalues --   -1.13189  -1.13169  -1.13138  -1.13079  -1.13043
 Alpha  occ. eigenvalues --   -1.12969  -1.12942  -1.12909  -1.12873  -1.12807
 Alpha  occ. eigenvalues --   -0.21500  -0.14171  -0.12927  -0.11979
 Alpha virt. eigenvalues --   -0.05546  -0.04274  -0.03920  -0.03822  -0.03036
 Alpha virt. eigenvalues --   -0.02843  -0.01190  -0.00339  -0.00335   0.00308
 Alpha virt. eigenvalues --    0.00719   0.00965   0.00983   0.01055   0.01082

  Beta  occ. eigenvalues --  -38.44500 -38.44348 -38.44286 -38.43409 -38.43392
  Beta  occ. eigenvalues --  -38.43115 -38.43092  -2.20688  -2.20468  -2.20348
  Beta  occ. eigenvalues --   -2.19497  -2.19479  -2.19250  -2.19225  -1.14513
  Beta  occ. eigenvalues --   -1.14434  -1.14371  -1.14337  -1.14248  -1.14142
  Beta  occ. eigenvalues --   -1.14044  -1.13979  -1.13932  -1.13223  -1.13180
  Beta  occ. eigenvalues --   -1.13137  -1.13118  -1.13106  -1.13032  -1.13016
  Beta  occ. eigenvalues --   -1.12917  -1.12877  -1.12852  -1.12831  -1.12762
  Beta  occ. eigenvalues --   -0.20655  -0.13900  -0.11717
  Beta virt. eigenvalues --   -0.08502  -0.05487  -0.03933  -0.03491  -0.03263
  Beta virt. eigenvalues --   -0.02243  -0.02029  -0.01133  -0.00330  -0.00085
  Beta virt. eigenvalues --    0.00339   0.00804   0.00975   0.01050   0.01095

 Mulliken charges and spin densities:
               1          2
     1  Na  -0.002750   0.459273
     2  Na  -0.738066   0.123559
     3  Na   0.907894  -0.010943
     4  Na  -0.743448   0.123116
     5  Na   0.753452   0.345337
     6  Na  -0.083488  -0.020006
     7  Na  -0.093594  -0.020336
 Sum of Mulliken charges =  -0.00000   1.00000

 Dipole moment (field-independent basis, Debye):
    X=             -0.3461    Y=             -0.0030    Z=             -0.2329  Tot=              0.4172
 Quadrupole moment (field-independent basis, Debye-Ang):
   XX=            -57.5648   YY=            -74.7399   ZZ=            -64.8304
   XY=             -0.0076   XZ=             -0.0621   YZ=             -0.0198

 Normal termination of Gaussian 16 at Sat Dec  9 06:37:04 2023.
