 Gaussian 16, Revision B.01,
 Gaussian 16:  ES64L-G16RevB.01 20-Dec-2017

 -------------------------
 #P B3LYP/6-311+g(d) force
 -------------------------

 -----
 DPGEN
 -----
 Symbolic Z-matrix:
 Charge =  0 Multiplicity = 2

                         Standard orientation:
 ---------------------------------------------------------------------
 Center     Atomic      Atomic             Coordinates (Angstroms)
 Number     Number       Type             X           Y           Z
 ---------------------------------------------------------------------
      1         11           0        2.166149   -2.317046   -0.287127
      2         11           0        0.434876    0.531076    2.009568
      3         11           0       -0.561176    3.022299   -0.197731
      4         11           0        0.088035    0.083429   -1.721150
      5         11           0        2.791945    1.106584   -0.047250
      6         11           0       -1.438605   -2.476894    0.376410
      7         11           0       -3.481224    0.050552   -0.132721
 ---------------------------------------------------------------------

 SCF Done:  E(UB3LYP) =  -1136.13520442     A.U. after   19 cycles

 The electronic state is 2-A.
 Alpha  occ. eigenvalues --  -38.44375 -38.44145 -38.43656 -38.43613 -38.43564
 Alpha  occ. eigenvalues --  -38.43442 -38.43356  -2.20154  -2.20020  -2.19508
 Alpha  occ. eigenvalues --   -2.19475  -2.19388  -2.19290  -2.19272  -1.13827
 Alpha  occ. eigenvalues --   -1.13824  -1.13792  -1.13728  -1.13699  -1.13631
 Alpha  occ. eigenvalues --   -1.13182  -1.13163  -1.13155  -1.13140  -1.13108
 Alpha  occ. eigenvalues --   -1.13092  -1.13068  -1.13044  -1.13039  -1.12971
 Alpha  occ. eigenvalues --   -1.12951  -1.12943  -1.12916  -1.12905  -1.12901
 Alpha  occ. eigenvalues --   -0.18351  -0.12972  -0.12374  -0.10663
 Alpha virt. eigenvalues --   -0.05965  -0.05190  -0.04722  -0.03158  -0.02912
 Alpha virt. eigenvalues --   -0.02529  -0.01640  -0.01260  -0.00557  -0.00344
 Alpha virt. eigenvalues --   -0.00031   0.00348   0.00779   0.00781   0.00853

  Beta  occ. eigenvalues --  -38.44378 -38.44134 -38.43650 -38.43560 -38.43523
  Beta  occ. eigenvalues --  -38.43435 -38.43286  -2.20162  -2.20007  -2.19467
  Beta  occ. eigenvalues --   -2.19383  -2.19342  -2.19262  -2.19163  -1.13832
  Beta  occ. eigenvalues --   -1.13821  -1.13797  -1.13714  -1.13656  -1.13626
  Beta  occ. eigenvalues --   -1.13158  -1.13128  -1.13098  -1.13061  -1.13052
  Beta  occ. eigenvalues --   -1.13038  -1.13028  -1.13023  -1.12994  -1.12943
  Beta  occ. eigenvalues --   -1.12918  -1.12902  -1.12884  -1.12830  -1.12809
  Beta  occ. eigenvalues --   -0.17624  -0.12777  -0.12139
  Beta virt. eigenvalues --   -0.06769  -0.05926  -0.05161  -0.04624  -0.02429
  Beta virt. eigenvalues --   -0.02174  -0.01599  -0.01470  -0.01196  -0.00610
  Beta virt. eigenvalues --   -0.00353   0.00122   0.00381   0.00786   0.00846

 Mulliken charges and spin densities:
               1          2
     1  Na  -0.001419  -0.025516
     2  Na  -0.297808   0.740448
     3  Na   0.003047  -0.175524
     4  Na  -0.069801   0.614647
     5  Na   0.464080  -0.041026
     6  Na  -0.036063  -0.014764
     7  Na  -0.062036  -0.098264
 Sum of Mulliken charges =  -0.00000   1.00000

 Dipole moment (field-independent basis, Debye):
    X=             -0.0706    Y=              0.2748    Z=              0.0136  Tot=              0.2841
 Quadrupole moment (field-independent basis, Debye-Ang):
   XX=            -56.0941   YY=            -62.7162   ZZ=            -74.8559
   XY=             -1.5086   XZ=             -0.5046   YZ=             -0.9266

 Normal termination of Gaussian 16 at Thu Dec  7 10:12:29 2023.
