 Gaussian 16, Revision B.01,
 Gaussian 16:  ES64L-G16RevB.01 20-Dec-2017

 -------------------------
 #P B3LYP/6-311+g(d) force
 -------------------------

 -----
 DPGEN
 -----
 Symbolic Z-matrix:
 Charge =  0 Multiplicity = 2

                         Standard orientation:
 ---------------------------------------------------------------------
 Center     Atomic      Atomic             Coordinates (Angstroms)
 Number     Number       Type             X           Y           Z
 ---------------------------------------------------------------------
      1         11           0        0.007988    2.203664   -0.194751
      2         11           0       -3.025752    1.618311    0.286459
      3         11           0       -0.745359   -1.149916    1.945308
      4         11           0        5.365730   -1.010079   -0.231944
      5         11           0        2.892843    0.780544    0.322987
      6         11           0       -0.810013   -0.632270   -1.813426
      7         11           0       -3.685437   -1.810254   -0.314633
 ---------------------------------------------------------------------

 SCF Done:  E(UB3LYP) =  -1136.10826250     A.U. after   36 cycles

 The electronic state is 2-A.
 Alpha  occ. eigenvalues --  -38.46114 -38.45210 -38.44270 -38.44216 -38.43926
 Alpha  occ. eigenvalues --  -38.43487 -38.43033  -2.21927  -2.21037  -2.20096
 Alpha  occ. eigenvalues --   -2.20035  -2.19748  -2.19329  -2.18946  -1.15614
 Alpha  occ. eigenvalues --   -1.15587  -1.15558  -1.14736  -1.14722  -1.14669
 Alpha  occ. eigenvalues --   -1.13752  -1.13732  -1.13698  -1.13693  -1.13663
 Alpha  occ. eigenvalues --   -1.13661  -1.13419  -1.13406  -1.13387  -1.13025
 Alpha  occ. eigenvalues --   -1.12995  -1.12983  -1.12631  -1.12599  -1.12584
 Alpha  occ. eigenvalues --   -0.18027  -0.13963  -0.11652  -0.10808
 Alpha virt. eigenvalues --   -0.07752  -0.05753  -0.03754  -0.03243  -0.03134
 Alpha virt. eigenvalues --   -0.02563  -0.02100  -0.02006  -0.01119  -0.00719
 Alpha virt. eigenvalues --   -0.00654   0.00085   0.00170   0.00493   0.00564

  Beta  occ. eigenvalues --  -38.46104 -38.45241 -38.44155 -38.44137 -38.43915
  Beta  occ. eigenvalues --  -38.43488 -38.43024  -2.21913  -2.21095  -2.19889
  Beta  occ. eigenvalues --   -2.19881  -2.19730  -2.19339  -2.18932  -1.15596
  Beta  occ. eigenvalues --   -1.15570  -1.15546  -1.14778  -1.14738  -1.14716
  Beta  occ. eigenvalues --   -1.13613  -1.13603  -1.13586  -1.13563  -1.13562
  Beta  occ. eigenvalues --   -1.13538  -1.13414  -1.13389  -1.13361  -1.13015
  Beta  occ. eigenvalues --   -1.13007  -1.12958  -1.12632  -1.12597  -1.12550
  Beta  occ. eigenvalues --   -0.17491  -0.13293  -0.11548
  Beta virt. eigenvalues --   -0.07874  -0.06910  -0.05406  -0.03502  -0.02992
  Beta virt. eigenvalues --   -0.02899  -0.02090  -0.01882  -0.01635  -0.00618
  Beta virt. eigenvalues --   -0.00580  -0.00321   0.00106   0.00364   0.00565

 Mulliken charges and spin densities:
               1          2
     1  Na   0.180991  -0.243491
     2  Na   0.205415   0.088214
     3  Na  -0.328168   0.532425
     4  Na   0.219051   0.293928
     5  Na  -0.493558   0.257180
     6  Na  -0.120003  -0.007777
     7  Na   0.336271   0.079521
 Sum of Mulliken charges =  -0.00000   1.00000

 Dipole moment (field-independent basis, Debye):
    X=             -1.3646    Y=             -0.4475    Z=             -0.4719  Tot=              1.5116
 Quadrupole moment (field-independent basis, Debye-Ang):
   XX=            -61.2260   YY=            -70.3446   ZZ=            -70.3362
   XY=             -3.3764   XZ=             -3.2136   YZ=              4.3616

 Normal termination of Gaussian 16 at Thu Dec  7 17:11:31 2023.
