 Gaussian 16, Revision B.01,
 Gaussian 16:  ES64L-G16RevB.01 20-Dec-2017

 -------------------------
 #P B3LYP/6-311+g(d) force
 -------------------------

 -----
 DPGEN
 -----
 Symbolic Z-matrix:
 Charge =  0 Multiplicity = 2

                         Standard orientation:
 ---------------------------------------------------------------------
 Center     Atomic      Atomic             Coordinates (Angstroms)
 Number     Number       Type             X           Y           Z
 ---------------------------------------------------------------------
      1         11           0        1.349622    0.078326    2.647471
      2         11           0        3.317380   -1.272023    0.285862
      3         11           0       -3.211734   -1.512815   -0.480520
      4         11           0       -1.953583    1.116060    1.699144
      5         11           0       -0.204942    3.173187   -0.565888
      6         11           0        1.127846    0.910786   -2.823862
      7         11           0       -0.424589   -2.493521   -0.762206
 ---------------------------------------------------------------------

 SCF Done:  E(UB3LYP) =  -1136.11425067     A.U. after   23 cycles

 The electronic state is 2-A.
 Alpha  occ. eigenvalues --  -38.45970 -38.45213 -38.44271 -38.43859 -38.43810
 Alpha  occ. eigenvalues --  -38.43720 -38.43271  -2.21746  -2.21012  -2.20079
 Alpha  occ. eigenvalues --   -2.19631  -2.19627  -2.19491  -2.19103  -1.15391
 Alpha  occ. eigenvalues --   -1.15378  -1.15357  -1.14677  -1.14653  -1.14628
 Alpha  occ. eigenvalues --   -1.13763  -1.13733  -1.13696  -1.13342  -1.13310
 Alpha  occ. eigenvalues --   -1.13300  -1.13299  -1.13276  -1.13264  -1.13166
 Alpha  occ. eigenvalues --   -1.13155  -1.13139  -1.12770  -1.12749  -1.12736
 Alpha  occ. eigenvalues --   -0.16877  -0.12818  -0.12402  -0.12068
 Alpha virt. eigenvalues --   -0.05775  -0.05363  -0.05186  -0.03606  -0.03466
 Alpha virt. eigenvalues --   -0.03245  -0.01225  -0.00833  -0.00792  -0.00504
 Alpha virt. eigenvalues --   -0.00200   0.00169   0.00361   0.00395   0.00490

  Beta  occ. eigenvalues --  -38.45866 -38.45139 -38.44234 -38.43865 -38.43797
  Beta  occ. eigenvalues --  -38.43727 -38.43275  -2.21554  -2.20875  -2.20011
  Beta  occ. eigenvalues --   -2.19644  -2.19604  -2.19505  -2.19112  -1.15260
  Beta  occ. eigenvalues --   -1.15250  -1.15220  -1.14582  -1.14566  -1.14526
  Beta  occ. eigenvalues --   -1.13706  -1.13692  -1.13653  -1.13330  -1.13317
  Beta  occ. eigenvalues --   -1.13311  -1.13276  -1.13269  -1.13250  -1.13171
  Beta  occ. eigenvalues --   -1.13161  -1.13146  -1.12772  -1.12755  -1.12740
  Beta  occ. eigenvalues --   -0.16094  -0.12264  -0.11909
  Beta virt. eigenvalues --   -0.08862  -0.05175  -0.04915  -0.04776  -0.03321
  Beta virt. eigenvalues --   -0.03039  -0.02861  -0.01207  -0.00671  -0.00432
  Beta virt. eigenvalues --   -0.00267   0.00041   0.00253   0.00424   0.00506

 Mulliken charges and spin densities:
               1          2
     1  Na   0.086063   0.303528
     2  Na   0.081914  -0.046132
     3  Na   0.351845  -0.097474
     4  Na  -0.015803   0.320359
     5  Na  -0.091252  -0.145422
     6  Na   0.168978   0.547667
     7  Na  -0.581746   0.117474
 Sum of Mulliken charges =  -0.00000   1.00000

 Dipole moment (field-independent basis, Debye):
    X=              0.4754    Y=              0.4408    Z=             -0.3054  Tot=              0.7166
 Quadrupole moment (field-independent basis, Debye-Ang):
   XX=            -66.1409   YY=            -74.0117   ZZ=            -61.0834
   XY=             -1.8435   XZ=             -3.0699   YZ=              0.7671

 Normal termination of Gaussian 16 at Sun Dec  3 17:58:04 2023.
