 Gaussian 16, Revision B.01,
 Gaussian 16:  ES64L-G16RevB.01 20-Dec-2017

 -------------------------
 #P B3LYP/6-311+g(d) force
 -------------------------

 -----
 DPGEN
 -----
 Symbolic Z-matrix:
 Charge =  0 Multiplicity = 2

                         Standard orientation:
 ---------------------------------------------------------------------
 Center     Atomic      Atomic             Coordinates (Angstroms)
 Number     Number       Type             X           Y           Z
 ---------------------------------------------------------------------
      1         11           0        0.815335   -2.675102   -0.284164
      2         11           0        1.102227    2.705864   -0.322754
      3         11           0       -2.710438    1.582769    0.039513
      4         11           0        3.197594   -0.096869    0.149089
      5         11           0        0.269999   -0.048867    1.965370
      6         11           0        0.165849   -0.119012   -1.565769
      7         11           0       -2.840567   -1.348782    0.018714
 ---------------------------------------------------------------------

 SCF Done:  E(UB3LYP) =  -1136.13196010     A.U. after   19 cycles

 The electronic state is 2-A.
 Alpha  occ. eigenvalues --  -38.44612 -38.44121 -38.44054 -38.43596 -38.43122
 Alpha  occ. eigenvalues --  -38.43076 -38.43044  -2.20461  -2.19983  -2.19904
 Alpha  occ. eigenvalues --   -2.19501  -2.19107  -2.18971  -2.18943  -1.14137
 Alpha  occ. eigenvalues --   -1.14124  -1.14093  -1.13815  -1.13637  -1.13613
 Alpha  occ. eigenvalues --   -1.13552  -1.13530  -1.13488  -1.13183  -1.13125
 Alpha  occ. eigenvalues --   -1.13119  -1.12913  -1.12792  -1.12720  -1.12643
 Alpha  occ. eigenvalues --   -1.12624  -1.12598  -1.12584  -1.12563  -1.12546
 Alpha  occ. eigenvalues --   -0.18849  -0.13567  -0.12125  -0.10658
 Alpha virt. eigenvalues --   -0.06157  -0.05093  -0.04347  -0.03370  -0.02632
 Alpha virt. eigenvalues --   -0.02420  -0.01905  -0.01007  -0.00357  -0.00306
 Alpha virt. eigenvalues --   -0.00005   0.00350   0.00791   0.00885   0.00892

  Beta  occ. eigenvalues --  -38.44604 -38.44119 -38.44054 -38.43508 -38.43114
  Beta  occ. eigenvalues --  -38.43032 -38.43007  -2.20452  -2.19983  -2.19905
  Beta  occ. eigenvalues --   -2.19338  -2.18983  -2.18959  -2.18926  -1.14122
  Beta  occ. eigenvalues --   -1.14098  -1.14092  -1.13820  -1.13618  -1.13614
  Beta  occ. eigenvalues --   -1.13535  -1.13531  -1.13491  -1.13074  -1.13011
  Beta  occ. eigenvalues --   -1.12999  -1.12846  -1.12721  -1.12641  -1.12606
  Beta  occ. eigenvalues --   -1.12596  -1.12592  -1.12557  -1.12538  -1.12510
  Beta  occ. eigenvalues --   -0.18129  -0.13351  -0.11850
  Beta virt. eigenvalues --   -0.06742  -0.06074  -0.05117  -0.04327  -0.02587
  Beta virt. eigenvalues --   -0.01876  -0.01804  -0.01344  -0.00951  -0.00397
  Beta virt. eigenvalues --   -0.00354   0.00140   0.00373   0.00835   0.00876

 Mulliken charges and spin densities:
               1          2
     1  Na   0.253009  -0.065995
     2  Na  -0.006365  -0.083891
     3  Na   0.013081  -0.052584
     4  Na   0.337395   0.031894
     5  Na  -0.440922   0.738324
     6  Na  -0.290449   0.475310
     7  Na   0.134251  -0.043057
 Sum of Mulliken charges =  -0.00000   1.00000

 Dipole moment (field-independent basis, Debye):
    X=              0.1696    Y=             -0.0010    Z=              0.2497  Tot=              0.3019
 Quadrupole moment (field-independent basis, Debye-Ang):
   XX=            -52.8918   YY=            -65.0281   ZZ=            -75.3258
   XY=             -0.0811   XZ=             -0.0411   YZ=             -0.2033

 Normal termination of Gaussian 16 at Tue Dec  5 12:21:58 2023.
