 Gaussian 16, Revision B.01,
 Gaussian 16:  ES64L-G16RevB.01 20-Dec-2017

 -------------------------
 #P B3LYP/6-311+g(d) force
 -------------------------

 -----
 DPGEN
 -----
 Symbolic Z-matrix:
 Charge =  0 Multiplicity = 2

                         Standard orientation:
 ---------------------------------------------------------------------
 Center     Atomic      Atomic             Coordinates (Angstroms)
 Number     Number       Type             X           Y           Z
 ---------------------------------------------------------------------
      1         11           0       -1.930508    2.111810    0.083074
      2         11           0        1.734338    2.601868    0.007663
      3         11           0       -0.026678    0.168878   -1.561667
      4         11           0        0.397012   -2.782716   -0.209708
      5         11           0       -2.985643   -0.977829   -0.073850
      6         11           0       -0.044860   -0.330560    1.738323
      7         11           0        2.856339   -0.791452    0.016165
 ---------------------------------------------------------------------

 SCF Done:  E(UB3LYP) =  -1136.13749007     A.U. after   19 cycles

 The electronic state is 2-A.
 Alpha  occ. eigenvalues --  -38.43905 -38.43831 -38.43667 -38.43516 -38.43297
 Alpha  occ. eigenvalues --  -38.42977 -38.42796  -2.19759  -2.19724  -2.19557
 Alpha  occ. eigenvalues --   -2.19344  -2.19220  -2.18971  -2.18837  -1.13443
 Alpha  occ. eigenvalues --   -1.13423  -1.13417  -1.13405  -1.13389  -1.13365
 Alpha  occ. eigenvalues --   -1.13260  -1.13221  -1.13169  -1.13021  -1.13002
 Alpha  occ. eigenvalues --   -1.12987  -1.12937  -1.12888  -1.12840  -1.12670
 Alpha  occ. eigenvalues --   -1.12588  -1.12576  -1.12516  -1.12471  -1.12439
 Alpha  occ. eigenvalues --   -0.19175  -0.13315  -0.12610  -0.10399
 Alpha virt. eigenvalues --   -0.05490  -0.05281  -0.04785  -0.03096  -0.02687
 Alpha virt. eigenvalues --   -0.02060  -0.01548  -0.01192  -0.00311  -0.00282
 Alpha virt. eigenvalues --    0.00043   0.00359   0.00819   0.00893   0.00903

  Beta  occ. eigenvalues --  -38.43900 -38.43825 -38.43660 -38.43515 -38.43287
  Beta  occ. eigenvalues --  -38.42896 -38.42726  -2.19755  -2.19716  -2.19549
  Beta  occ. eigenvalues --   -2.19344  -2.19206  -2.18822  -2.18711  -1.13444
  Beta  occ. eigenvalues --   -1.13415  -1.13406  -1.13392  -1.13367  -1.13350
  Beta  occ. eigenvalues --   -1.13252  -1.13187  -1.13169  -1.13015  -1.12991
  Beta  occ. eigenvalues --   -1.12989  -1.12925  -1.12841  -1.12833  -1.12573
  Beta  occ. eigenvalues --   -1.12483  -1.12468  -1.12426  -1.12379  -1.12347
  Beta  occ. eigenvalues --   -0.18446  -0.13046  -0.12364
  Beta virt. eigenvalues --   -0.06473  -0.05471  -0.05282  -0.04769  -0.02257
  Beta virt. eigenvalues --   -0.01940  -0.01469  -0.01145  -0.01026  -0.00356
  Beta virt. eigenvalues --   -0.00338   0.00178   0.00388   0.00861   0.00890

 Mulliken charges and spin densities:
               1          2
     1  Na   0.117350  -0.077642
     2  Na   0.027999  -0.098705
     3  Na  -0.436636   0.600900
     4  Na   0.293867  -0.053619
     5  Na   0.219928  -0.063492
     6  Na  -0.432441   0.730279
     7  Na   0.209932  -0.037721
 Sum of Mulliken charges =  -0.00000   1.00000

 Dipole moment (field-independent basis, Debye):
    X=             -0.0961    Y=              0.0326    Z=              0.0753  Tot=              0.1263
 Quadrupole moment (field-independent basis, Debye-Ang):
   XX=            -55.0328   YY=            -60.4201   ZZ=            -76.3582
   XY=              0.7276   XZ=              0.1452   YZ=              1.1840

 Normal termination of Gaussian 16 at Wed Nov 29 00:31:33 2023.
