 Gaussian 16, Revision B.01,
 Gaussian 16:  ES64L-G16RevB.01 20-Dec-2017

 -------------------------
 #P B3LYP/6-311+g(d) force
 -------------------------

 -----
 DPGEN
 -----
 Symbolic Z-matrix:
 Charge =  0 Multiplicity = 2

                         Standard orientation:
 ---------------------------------------------------------------------
 Center     Atomic      Atomic             Coordinates (Angstroms)
 Number     Number       Type             X           Y           Z
 ---------------------------------------------------------------------
      1         11           0       -2.510145    2.173732    0.260478
      2         11           0       -0.139460    0.254188   -1.511919
      3         11           0       -3.250446   -1.392640   -0.867870
      4         11           0        2.529140   -2.013476    0.045954
      5         11           0       -1.018224   -1.482826    1.602276
      6         11           0        0.920225    1.565285    0.979666
      7         11           0        3.468910    0.895737   -0.508586
 ---------------------------------------------------------------------

 SCF Done:  E(UB3LYP) =  -1136.12061204     A.U. after   24 cycles

 The electronic state is 2-A.
 Alpha  occ. eigenvalues --  -38.44671 -38.44489 -38.44280 -38.44267 -38.44051
 Alpha  occ. eigenvalues --  -38.43140 -38.43014  -2.20563  -2.20402  -2.20087
 Alpha  occ. eigenvalues --   -2.20077  -2.19876  -2.19000  -2.18978  -1.14260
 Alpha  occ. eigenvalues --   -1.14229  -1.14193  -1.14156  -1.14036  -1.14012
 Alpha  occ. eigenvalues --   -1.13756  -1.13753  -1.13742  -1.13729  -1.13727
 Alpha  occ. eigenvalues --   -1.13722  -1.13544  -1.13526  -1.13510  -1.12704
 Alpha  occ. eigenvalues --   -1.12676  -1.12644  -1.12632  -1.12621  -1.12567
 Alpha  occ. eigenvalues --   -0.18482  -0.14244  -0.11300  -0.10522
 Alpha virt. eigenvalues --   -0.06630  -0.06100  -0.04115  -0.03209  -0.02674
 Alpha virt. eigenvalues --   -0.02431  -0.01975  -0.01526  -0.00514  -0.00474
 Alpha virt. eigenvalues --    0.00149   0.00164   0.00394   0.00585   0.00704

  Beta  occ. eigenvalues --  -38.44655 -38.44460 -38.44277 -38.44263 -38.44021
  Beta  occ. eigenvalues --  -38.43082 -38.42981  -2.20533  -2.20350  -2.20083
  Beta  occ. eigenvalues --   -2.20075  -2.19820  -2.18922  -2.18895  -1.14240
  Beta  occ. eigenvalues --   -1.14211  -1.14166  -1.14102  -1.14005  -1.13972
  Beta  occ. eigenvalues --   -1.13755  -1.13745  -1.13740  -1.13727  -1.13708
  Beta  occ. eigenvalues --   -1.13705  -1.13500  -1.13491  -1.13467  -1.12667
  Beta  occ. eigenvalues --   -1.12606  -1.12570  -1.12559  -1.12549  -1.12521
  Beta  occ. eigenvalues --   -0.17838  -0.13929  -0.11098
  Beta virt. eigenvalues --   -0.06783  -0.06403  -0.06116  -0.03446  -0.03084
  Beta virt. eigenvalues --   -0.02405  -0.01914  -0.01494  -0.01161  -0.00479
  Beta virt. eigenvalues --   -0.00129   0.00158   0.00207   0.00511   0.00662

 Mulliken charges and spin densities:
               1          2
     1  Na   0.074979   0.017290
     2  Na  -0.430008   0.127886
     3  Na   0.115015   0.156825
     4  Na  -0.394033   0.072965
     5  Na  -0.163808   0.204188
     6  Na  -0.325633   0.247200
     7  Na   1.123488   0.173646
 Sum of Mulliken charges =  -0.00000   1.00000

 Dipole moment (field-independent basis, Debye):
    X=              0.1651    Y=              0.2541    Z=             -0.0957  Tot=              0.3178
 Quadrupole moment (field-independent basis, Debye-Ang):
   XX=            -49.4817   YY=            -72.1414   ZZ=            -72.2947
   XY=             -1.4693   XZ=             -1.1577   YZ=              1.1142

 Normal termination of Gaussian 16 at Thu Dec  7 14:23:11 2023.
