 Gaussian 16, Revision B.01,
 Gaussian 16:  ES64L-G16RevB.01 20-Dec-2017

 -------------------------
 #P B3LYP/6-311+g(d) force
 -------------------------

 -----
 DPGEN
 -----
 Symbolic Z-matrix:
 Charge =  0 Multiplicity = 2

                         Standard orientation:
 ---------------------------------------------------------------------
 Center     Atomic      Atomic             Coordinates (Angstroms)
 Number     Number       Type             X           Y           Z
 ---------------------------------------------------------------------
      1         11           0       -2.369999    1.565509   -0.101668
      2         11           0       -0.146041   -0.063970   -1.663336
      3         11           0        1.605955   -2.478630    0.152411
      4         11           0       -2.806338   -1.732520   -0.285500
      5         11           0        3.190272    0.419484   -0.545994
      6         11           0       -0.005050   -0.493538    2.025688
      7         11           0        0.531201    2.783664    0.418399
 ---------------------------------------------------------------------

 SCF Done:  E(UB3LYP) =  -1136.13538432     A.U. after   19 cycles

 The electronic state is 2-A.
 Alpha  occ. eigenvalues --  -38.44234 -38.43928 -38.43677 -38.43590 -38.43576
 Alpha  occ. eigenvalues --  -38.43509 -38.42891  -2.20055  -2.19752  -2.19577
 Alpha  occ. eigenvalues --   -2.19490  -2.19470  -2.19453  -2.18754  -1.13728
 Alpha  occ. eigenvalues --   -1.13706  -1.13699  -1.13429  -1.13424  -1.13391
 Alpha  occ. eigenvalues --   -1.13288  -1.13254  -1.13220  -1.13189  -1.13156
 Alpha  occ. eigenvalues --   -1.13142  -1.13121  -1.13110  -1.13102  -1.13082
 Alpha  occ. eigenvalues --   -1.13073  -1.13064  -1.12428  -1.12411  -1.12396
 Alpha  occ. eigenvalues --   -0.18671  -0.13324  -0.12207  -0.10926
 Alpha virt. eigenvalues --   -0.05803  -0.05172  -0.04389  -0.03377  -0.02940
 Alpha virt. eigenvalues --   -0.02576  -0.01722  -0.01045  -0.00398  -0.00118
 Alpha virt. eigenvalues --    0.00005   0.00331   0.00772   0.00845   0.00919

  Beta  occ. eigenvalues --  -38.44220 -38.43924 -38.43582 -38.43582 -38.43570
  Beta  occ. eigenvalues --  -38.43451 -38.42883  -2.20030  -2.19747  -2.19483
  Beta  occ. eigenvalues --   -2.19444  -2.19401  -2.19365  -2.18743  -1.13698
  Beta  occ. eigenvalues --   -1.13689  -1.13683  -1.13426  -1.13410  -1.13380
  Beta  occ. eigenvalues --   -1.13227  -1.13206  -1.13130  -1.13115  -1.13105
  Beta  occ. eigenvalues --   -1.13097  -1.13079  -1.13063  -1.13062  -1.13028
  Beta  occ. eigenvalues --   -1.13022  -1.12992  -1.12422  -1.12399  -1.12374
  Beta  occ. eigenvalues --   -0.17960  -0.13039  -0.11962
  Beta virt. eigenvalues --   -0.07060  -0.05717  -0.05144  -0.04329  -0.02613
  Beta virt. eigenvalues --   -0.02181  -0.01631  -0.01542  -0.00981  -0.00425
  Beta virt. eigenvalues --   -0.00112   0.00111   0.00369   0.00841   0.00860

 Mulliken charges and spin densities:
               1          2
     1  Na   0.172920   0.042867
     2  Na  -0.173722   0.332871
     3  Na   0.181474  -0.044657
     4  Na   0.158312  -0.061512
     5  Na   0.030760   0.072473
     6  Na  -0.329297   0.594559
     7  Na  -0.040447   0.063399
 Sum of Mulliken charges =  -0.00000   1.00000

 Dipole moment (field-independent basis, Debye):
    X=              0.0801    Y=             -0.3298    Z=              0.0084  Tot=              0.3394
 Quadrupole moment (field-independent basis, Debye-Ang):
   XX=            -55.7930   YY=            -65.0615   ZZ=            -73.3071
   XY=              1.3068   XZ=             -0.7520   YZ=              0.8642

 Normal termination of Gaussian 16 at Thu Dec  7 14:49:33 2023.
