 Gaussian 16, Revision B.01,
 Gaussian 16:  ES64L-G16RevB.01 20-Dec-2017

 -------------------------
 #P B3LYP/6-311+g(d) force
 -------------------------

 -----
 DPGEN
 -----
 Symbolic Z-matrix:
 Charge =  0 Multiplicity = 2

                         Standard orientation:
 ---------------------------------------------------------------------
 Center     Atomic      Atomic             Coordinates (Angstroms)
 Number     Number       Type             X           Y           Z
 ---------------------------------------------------------------------
      1         11           0       -3.902213   -1.616638   -0.458569
      2         11           0       -2.838554    0.830484    1.483649
      3         11           0       -1.711666    3.417089   -0.569800
      4         11           0        4.179535    0.316084    0.363309
      5         11           0        2.867657   -2.545727    0.200390
      6         11           0        2.015994    2.905468   -0.483023
      7         11           0       -0.610752   -3.306758   -0.535957
 ---------------------------------------------------------------------

 SCF Done:  E(UB3LYP) =  -1136.10884024     A.U. after   24 cycles

 The electronic state is 2-A.
 Alpha  occ. eigenvalues --  -38.45575 -38.45363 -38.44830 -38.44305 -38.44055
 Alpha  occ. eigenvalues --  -38.43740 -38.43644  -2.21353  -2.21109  -2.20589
 Alpha  occ. eigenvalues --   -2.20104  -2.19865  -2.19569  -2.19438  -1.15036
 Alpha  occ. eigenvalues --   -1.15018  -1.14987  -1.14800  -1.14785  -1.14731
 Alpha  occ. eigenvalues --   -1.14273  -1.14261  -1.14202  -1.13783  -1.13776
 Alpha  occ. eigenvalues --   -1.13752  -1.13521  -1.13517  -1.13496  -1.13221
 Alpha  occ. eigenvalues --   -1.13221  -1.13209  -1.13095  -1.13086  -1.13071
 Alpha  occ. eigenvalues --   -0.15698  -0.14070  -0.13187  -0.10422
 Alpha virt. eigenvalues --   -0.07678  -0.05290  -0.04020  -0.03578  -0.03385
 Alpha virt. eigenvalues --   -0.02473  -0.02254  -0.01831  -0.01186  -0.00760
 Alpha virt. eigenvalues --   -0.00526  -0.00124   0.00160   0.00373   0.00743

  Beta  occ. eigenvalues --  -38.45562 -38.45346 -38.44796 -38.44289 -38.44012
  Beta  occ. eigenvalues --  -38.43706 -38.43595  -2.21333  -2.21083  -2.20529
  Beta  occ. eigenvalues --   -2.20078  -2.19786  -2.19507  -2.19347  -1.15025
  Beta  occ. eigenvalues --   -1.15010  -1.14943  -1.14787  -1.14773  -1.14675
  Beta  occ. eigenvalues --   -1.14235  -1.14223  -1.14136  -1.13765  -1.13761
  Beta  occ. eigenvalues --   -1.13714  -1.13464  -1.13460  -1.13449  -1.13185
  Beta  occ. eigenvalues --   -1.13178  -1.13159  -1.13032  -1.13025  -1.13009
  Beta  occ. eigenvalues --   -0.15208  -0.13534  -0.12387
  Beta virt. eigenvalues --   -0.07865  -0.07184  -0.04942  -0.03471  -0.03412
  Beta virt. eigenvalues --   -0.03044  -0.02192  -0.01952  -0.01702  -0.01044
  Beta virt. eigenvalues --   -0.00677  -0.00107   0.00034   0.00305   0.00362

 Mulliken charges and spin densities:
               1          2
     1  Na   0.153975   0.275222
     2  Na  -0.234827   0.072085
     3  Na  -0.008219   0.226180
     4  Na   0.380690   0.146826
     5  Na   0.084373  -0.000202
     6  Na  -0.270141   0.143767
     7  Na  -0.105851   0.136121
 Sum of Mulliken charges =  -0.00000   1.00000

 Dipole moment (field-independent basis, Debye):
    X=             -0.6667    Y=              0.0821    Z=              0.1132  Tot=              0.6812
 Quadrupole moment (field-independent basis, Debye-Ang):
   XX=            -64.4771   YY=            -70.3433   ZZ=            -67.6877
   XY=              0.4502   XZ=              1.2029   YZ=              0.2508

 Normal termination of Gaussian 16 at Sun Dec  3 20:29:05 2023.
