 Gaussian 16, Revision B.01,
 Gaussian 16:  ES64L-G16RevB.01 20-Dec-2017

 -------------------------
 #P B3LYP/6-311+g(d) force
 -------------------------

 -----
 DPGEN
 -----
 Symbolic Z-matrix:
 Charge =  0 Multiplicity = 2

                         Standard orientation:
 ---------------------------------------------------------------------
 Center     Atomic      Atomic             Coordinates (Angstroms)
 Number     Number       Type             X           Y           Z
 ---------------------------------------------------------------------
      1         11           0        1.096701   -2.134644    0.067029
      2         11           0        2.261283    1.346437    0.375347
      3         11           0       -1.224232    0.978821   -0.143319
      4         11           0       -2.038783   -2.502147    0.067017
      5         11           0       -4.557694   -0.147487   -0.026492
      6         11           0        0.027752    3.672275   -0.096250
      7         11           0        4.434973   -1.213255   -0.243332
 ---------------------------------------------------------------------

 SCF Done:  E(UB3LYP) =  -1136.13090378     A.U. after   22 cycles

 The electronic state is 2-A.
 Alpha  occ. eigenvalues --  -38.44107 -38.43862 -38.43812 -38.43810 -38.43756
 Alpha  occ. eigenvalues --  -38.43618 -38.43406  -2.19975  -2.19741  -2.19719
 Alpha  occ. eigenvalues --   -2.19646  -2.19627  -2.19448  -2.19286  -1.13686
 Alpha  occ. eigenvalues --   -1.13673  -1.13598  -1.13542  -1.13427  -1.13415
 Alpha  occ. eigenvalues --   -1.13364  -1.13360  -1.13337  -1.13295  -1.13294
 Alpha  occ. eigenvalues --   -1.13291  -1.13284  -1.13230  -1.13225  -1.13104
 Alpha  occ. eigenvalues --   -1.13096  -1.13069  -1.12964  -1.12960  -1.12892
 Alpha  occ. eigenvalues --   -0.17370  -0.14057  -0.13229  -0.10674
 Alpha virt. eigenvalues --   -0.05690  -0.05513  -0.04349  -0.04009  -0.02361
 Alpha virt. eigenvalues --   -0.02054  -0.01805  -0.01641  -0.01226  -0.00853
 Alpha virt. eigenvalues --   -0.00075   0.00118   0.00590   0.00683   0.00768

  Beta  occ. eigenvalues --  -38.44100 -38.43865 -38.43805 -38.43728 -38.43725
  Beta  occ. eigenvalues --  -38.43566 -38.43363  -2.19965  -2.19745  -2.19715
  Beta  occ. eigenvalues --   -2.19583  -2.19483  -2.19350  -2.19214  -1.13676
  Beta  occ. eigenvalues --   -1.13669  -1.13582  -1.13542  -1.13426  -1.13383
  Beta  occ. eigenvalues --   -1.13367  -1.13361  -1.13280  -1.13270  -1.13245
  Beta  occ. eigenvalues --   -1.13218  -1.13174  -1.13172  -1.13136  -1.13033
  Beta  occ. eigenvalues --   -1.13029  -1.13009  -1.12920  -1.12916  -1.12804
  Beta  occ. eigenvalues --   -0.16932  -0.13379  -0.12817
  Beta virt. eigenvalues --   -0.07088  -0.05589  -0.05337  -0.04174  -0.03334
  Beta virt. eigenvalues --   -0.02063  -0.01793  -0.01683  -0.01205  -0.01126
  Beta virt. eigenvalues --   -0.00430   0.00267   0.00338   0.00699   0.00760

 Mulliken charges and spin densities:
               1          2
     1  Na  -1.087767   0.268057
     2  Na  -0.649389   0.180305
     3  Na  -2.644573  -0.029732
     4  Na   0.787518  -0.335303
     5  Na   0.814775   0.404392
     6  Na   1.373374   0.056215
     7  Na   1.406062   0.456065
 Sum of Mulliken charges =  -0.00000   1.00000

 Dipole moment (field-independent basis, Debye):
    X=              0.1617    Y=              0.5370    Z=             -0.0483  Tot=              0.5629
 Quadrupole moment (field-independent basis, Debye-Ang):
   XX=            -64.4442   YY=            -59.0900   ZZ=            -72.2269
   XY=              0.8376   XZ=             -0.5529   YZ=              0.1616

 Normal termination of Gaussian 16 at Tue Nov 28 22:01:25 2023.
