 Gaussian 16, Revision B.01,
 Gaussian 16:  ES64L-G16RevB.01 20-Dec-2017

 -------------------------
 #P B3LYP/6-311+g(d) force
 -------------------------

 -----
 DPGEN
 -----
 Symbolic Z-matrix:
 Charge =  0 Multiplicity = 2

                         Standard orientation:
 ---------------------------------------------------------------------
 Center     Atomic      Atomic             Coordinates (Angstroms)
 Number     Number       Type             X           Y           Z
 ---------------------------------------------------------------------
      1         11           0        1.500526    1.514399    0.905491
      2         11           0       -1.386514   -0.625326    1.711482
      3         11           0       -1.457324   -3.036927   -0.366379
      4         11           0        1.700177   -1.456246   -0.108569
      5         11           0        4.563137    0.417450   -0.681372
      6         11           0       -2.731108    0.034992   -1.063992
      7         11           0       -2.188894    3.151657   -0.396661
 ---------------------------------------------------------------------

 SCF Done:  E(UB3LYP) =  -1136.12587296     A.U. after   20 cycles

 The electronic state is 2-A.
 Alpha  occ. eigenvalues --  -38.44368 -38.44163 -38.44117 -38.43974 -38.43642
 Alpha  occ. eigenvalues --  -38.43606 -38.43497  -2.20285  -2.20029  -2.19926
 Alpha  occ. eigenvalues --   -2.19819  -2.19540  -2.19391  -2.19371  -1.13989
 Alpha  occ. eigenvalues --   -1.13945  -1.13901  -1.13779  -1.13721  -1.13639
 Alpha  occ. eigenvalues --   -1.13580  -1.13579  -1.13528  -1.13512  -1.13484
 Alpha  occ. eigenvalues --   -1.13401  -1.13233  -1.13202  -1.13185  -1.13058
 Alpha  occ. eigenvalues --   -1.13043  -1.13037  -1.13023  -1.13013  -1.13001
 Alpha  occ. eigenvalues --   -0.17852  -0.13953  -0.12237  -0.10463
 Alpha virt. eigenvalues --   -0.06284  -0.05282  -0.04953  -0.03536  -0.02629
 Alpha virt. eigenvalues --   -0.02313  -0.01719  -0.01202  -0.01096  -0.00673
 Alpha virt. eigenvalues --   -0.00154   0.00236   0.00399   0.00629   0.00693

  Beta  occ. eigenvalues --  -38.44322 -38.44159 -38.44064 -38.43942 -38.43602
  Beta  occ. eigenvalues --  -38.43601 -38.43485  -2.20205  -2.20026  -2.19827
  Beta  occ. eigenvalues --   -2.19765  -2.19465  -2.19386  -2.19351  -1.13934
  Beta  occ. eigenvalues --   -1.13868  -1.13842  -1.13766  -1.13713  -1.13617
  Beta  occ. eigenvalues --   -1.13512  -1.13510  -1.13480  -1.13470  -1.13437
  Beta  occ. eigenvalues --   -1.13351  -1.13183  -1.13153  -1.13138  -1.13056
  Beta  occ. eigenvalues --   -1.13027  -1.13022  -1.13016  -1.12996  -1.12974
  Beta  occ. eigenvalues --   -0.17213  -0.13498  -0.12068
  Beta virt. eigenvalues --   -0.06873  -0.06085  -0.04857  -0.04832  -0.03130
  Beta virt. eigenvalues --   -0.02234  -0.02001  -0.01298  -0.01048  -0.00910
  Beta virt. eigenvalues --   -0.00386   0.00114   0.00333   0.00507   0.00729

 Mulliken charges and spin densities:
               1          2
     1  Na  -0.319447   0.048587
     2  Na  -0.554108   0.312540
     3  Na   0.789828   0.125918
     4  Na  -0.602108  -0.037760
     5  Na   0.555041   0.287966
     6  Na  -0.108999   0.332740
     7  Na   0.239794  -0.069991
 Sum of Mulliken charges =  -0.00000   1.00000

 Dipole moment (field-independent basis, Debye):
    X=              0.5489    Y=             -0.1874    Z=              0.3356  Tot=              0.6702
 Quadrupole moment (field-independent basis, Debye-Ang):
   XX=            -64.8243   YY=            -62.1525   ZZ=            -70.3315
   XY=              3.3632   XZ=             -3.0525   YZ=              1.0413

 Normal termination of Gaussian 16 at Tue Nov 28 20:43:47 2023.
