 Gaussian 16, Revision B.01,
 Gaussian 16:  ES64L-G16RevB.01 20-Dec-2017

 -------------------------
 #P B3LYP/6-311+g(d) force
 -------------------------

 -----
 DPGEN
 -----
 Symbolic Z-matrix:
 Charge =  0 Multiplicity = 2

                         Standard orientation:
 ---------------------------------------------------------------------
 Center     Atomic      Atomic             Coordinates (Angstroms)
 Number     Number       Type             X           Y           Z
 ---------------------------------------------------------------------
      1         11           0        4.902860   -0.533629   -0.579037
      2         11           0       -0.986487    2.462772   -0.305168
      3         11           0        1.205982   -1.826287   -0.203807
      4         11           0       -0.283725   -0.005729    1.923662
      5         11           0       -4.509664    0.631851   -0.586975
      6         11           0       -3.139163   -2.041338   -0.232165
      7         11           0        2.810197    1.312360   -0.016510
 ---------------------------------------------------------------------

 SCF Done:  E(UB3LYP) =  -1136.11321459     A.U. after   21 cycles

 The electronic state is 2-A.
 Alpha  occ. eigenvalues --  -38.45358 -38.44271 -38.44258 -38.43897 -38.43863
 Alpha  occ. eigenvalues --  -38.43762 -38.43538  -2.21194  -2.20162  -2.20127
 Alpha  occ. eigenvalues --   -2.19722  -2.19667  -2.19568  -2.19398  -1.14890
 Alpha  occ. eigenvalues --   -1.14859  -1.14780  -1.13879  -1.13840  -1.13827
 Alpha  occ. eigenvalues --   -1.13804  -1.13784  -1.13741  -1.13462  -1.13372
 Alpha  occ. eigenvalues --   -1.13353  -1.13340  -1.13315  -1.13278  -1.13238
 Alpha  occ. eigenvalues --   -1.13210  -1.13181  -1.13077  -1.13027  -1.12999
 Alpha  occ. eigenvalues --   -0.17391  -0.14199  -0.11797  -0.11190
 Alpha virt. eigenvalues --   -0.06111  -0.05737  -0.04845  -0.03405  -0.02870
 Alpha virt. eigenvalues --   -0.02623  -0.01809  -0.01580  -0.01102  -0.00636
 Alpha virt. eigenvalues --   -0.00192  -0.00020   0.00416   0.00530   0.00583

  Beta  occ. eigenvalues --  -38.45294 -38.44247 -38.44233 -38.43863 -38.43819
  Beta  occ. eigenvalues --  -38.43764 -38.43517  -2.21079  -2.20118  -2.20088
  Beta  occ. eigenvalues --   -2.19659  -2.19584  -2.19575  -2.19362  -1.14805
  Beta  occ. eigenvalues --   -1.14786  -1.14685  -1.13848  -1.13811  -1.13784
  Beta  occ. eigenvalues --   -1.13765  -1.13760  -1.13699  -1.13434  -1.13330
  Beta  occ. eigenvalues --   -1.13305  -1.13284  -1.13262  -1.13244  -1.13219
  Beta  occ. eigenvalues --   -1.13212  -1.13160  -1.13043  -1.13003  -1.12980
  Beta  occ. eigenvalues --   -0.16694  -0.13829  -0.11041
  Beta virt. eigenvalues --   -0.08108  -0.05703  -0.05278  -0.04487  -0.03080
  Beta virt. eigenvalues --   -0.02580  -0.02170  -0.01701  -0.01155  -0.00871
  Beta virt. eigenvalues --   -0.00517  -0.00048   0.00112   0.00556   0.00612

 Mulliken charges and spin densities:
               1          2
     1  Na   0.927031   0.119424
     2  Na  -0.047137   0.305072
     3  Na  -0.320573   0.201718
     4  Na  -0.046970   0.232986
     5  Na   0.084990   0.126386
     6  Na  -0.127063  -0.113969
     7  Na  -0.470279   0.128384
 Sum of Mulliken charges =  -0.00000   1.00000

 Dipole moment (field-independent basis, Debye):
    X=              0.4814    Y=             -0.0075    Z=              0.3166  Tot=              0.5762
 Quadrupole moment (field-independent basis, Debye-Ang):
   XX=            -71.3555   YY=            -66.1450   ZZ=            -68.5055
   XY=             -5.1500   XZ=             -0.6643   YZ=             -1.8786

 Normal termination of Gaussian 16 at Sun Dec  3 22:53:34 2023.
