 Gaussian 16, Revision B.01,
 Gaussian 16:  ES64L-G16RevB.01 20-Dec-2017

 -------------------------
 #P B3LYP/6-311+g(d) force
 -------------------------

 -----
 DPGEN
 -----
 Symbolic Z-matrix:
 Charge =  0 Multiplicity = 2

                         Standard orientation:
 ---------------------------------------------------------------------
 Center     Atomic      Atomic             Coordinates (Angstroms)
 Number     Number       Type             X           Y           Z
 ---------------------------------------------------------------------
      1         11           0        2.915786   -1.584606   -0.520576
      2         11           0        5.986560   -0.409151   -0.281971
      3         11           0        2.616643    1.623300   -0.522864
      4         11           0       -0.477986    1.591451   -0.013780
      5         11           0       -0.164108   -0.922724    1.832382
      6         11           0       -4.308046    0.651166    0.720322
      7         11           0       -6.568848   -0.949436   -1.213512
 ---------------------------------------------------------------------

 SCF Done:  E(UB3LYP) =  -1136.11200572     A.U. after   21 cycles

 The electronic state is 2-A.
 Alpha  occ. eigenvalues --  -38.44841 -38.44824 -38.44289 -38.44202 -38.44184
 Alpha  occ. eigenvalues --  -38.43960 -38.43783  -2.20682  -2.20603  -2.20179
 Alpha  occ. eigenvalues --   -2.20030  -2.19930  -2.19724  -2.19663  -1.14387
 Alpha  occ. eigenvalues --   -1.14359  -1.14316  -1.14270  -1.14260  -1.14202
 Alpha  occ. eigenvalues --   -1.13864  -1.13829  -1.13792  -1.13704  -1.13682
 Alpha  occ. eigenvalues --   -1.13655  -1.13600  -1.13600  -1.13576  -1.13408
 Alpha  occ. eigenvalues --   -1.13394  -1.13334  -1.13321  -1.13314  -1.13301
 Alpha  occ. eigenvalues --   -0.17038  -0.13781  -0.11932  -0.10873
 Alpha virt. eigenvalues --   -0.07212  -0.05524  -0.04406  -0.03706  -0.02856
 Alpha virt. eigenvalues --   -0.02613  -0.02012  -0.01881  -0.01082  -0.00941
 Alpha virt. eigenvalues --   -0.00305  -0.00109   0.00221   0.00298   0.00326

  Beta  occ. eigenvalues --  -38.44821 -38.44814 -38.44213 -38.44193 -38.44138
  Beta  occ. eigenvalues --  -38.43955 -38.43756  -2.20633  -2.20598  -2.20041
  Beta  occ. eigenvalues --   -2.19947  -2.19911  -2.19715  -2.19620  -1.14349
  Beta  occ. eigenvalues --   -1.14328  -1.14286  -1.14266  -1.14248  -1.14185
  Beta  occ. eigenvalues --   -1.13776  -1.13739  -1.13672  -1.13631  -1.13612
  Beta  occ. eigenvalues --   -1.13611  -1.13599  -1.13586  -1.13569  -1.13401
  Beta  occ. eigenvalues --   -1.13388  -1.13332  -1.13297  -1.13286  -1.13230
  Beta  occ. eigenvalues --   -0.16317  -0.13711  -0.11779
  Beta virt. eigenvalues --   -0.07148  -0.06843  -0.05205  -0.04146  -0.03360
  Beta virt. eigenvalues --   -0.02570  -0.01972  -0.01854  -0.01764  -0.00911
  Beta virt. eigenvalues --   -0.00596  -0.00180   0.00100   0.00337   0.00423

 Mulliken charges and spin densities:
               1          2
     1  Na  -0.300133   0.220238
     2  Na   0.376153  -0.012988
     3  Na  -0.091089   0.247322
     4  Na  -0.227727   0.190541
     5  Na  -0.103257   0.370540
     6  Na   0.154068   0.040998
     7  Na   0.191984  -0.056651
 Sum of Mulliken charges =  -0.00000   1.00000

 Dipole moment (field-independent basis, Debye):
    X=              2.0266    Y=             -0.5385    Z=             -0.0510  Tot=              2.0975
 Quadrupole moment (field-independent basis, Debye-Ang):
   XX=            -54.7585   YY=            -70.9488   ZZ=            -68.9245
   XY=              3.1775   XZ=              3.4827   YZ=              3.8759

 Normal termination of Gaussian 16 at Tue Nov 28 20:30:28 2023.
