 Gaussian 16, Revision B.01,
 Gaussian 16:  ES64L-G16RevB.01 20-Dec-2017

 -------------------------
 #P B3LYP/6-311+g(d) force
 -------------------------

 -----
 DPGEN
 -----
 Symbolic Z-matrix:
 Charge =  0 Multiplicity = 2

                         Standard orientation:
 ---------------------------------------------------------------------
 Center     Atomic      Atomic             Coordinates (Angstroms)
 Number     Number       Type             X           Y           Z
 ---------------------------------------------------------------------
      1         11           0        0.387100   -1.605046   -0.005967
      2         11           0        3.626135   -2.775370    0.189189
      3         11           0        3.213097    0.164222   -0.657783
      4         11           0        1.340338    3.588792    0.748379
      5         11           0       -1.062086    2.474093   -0.959687
      6         11           0       -2.705571   -0.423833    1.289240
      7         11           0       -4.799012   -1.422859   -0.603371
 ---------------------------------------------------------------------

 SCF Done:  E(UB3LYP) =  -1136.11461490     A.U. after   20 cycles

 The electronic state is 2-A.
 Alpha  occ. eigenvalues --  -38.44967 -38.44756 -38.44662 -38.44021 -38.43591
 Alpha  occ. eigenvalues --  -38.43432 -38.43359  -2.20748  -2.20591  -2.20503
 Alpha  occ. eigenvalues --   -2.19814  -2.19452  -2.19282  -2.19201  -1.14438
 Alpha  occ. eigenvalues --   -1.14408  -1.14378  -1.14316  -1.14246  -1.14236
 Alpha  occ. eigenvalues --   -1.14182  -1.14169  -1.14070  -1.13475  -1.13473
 Alpha  occ. eigenvalues --   -1.13456  -1.13136  -1.13125  -1.13071  -1.13040
 Alpha  occ. eigenvalues --   -1.12942  -1.12923  -1.12825  -1.12821  -1.12777
 Alpha  occ. eigenvalues --   -0.16666  -0.13964  -0.12779  -0.09714
 Alpha virt. eigenvalues --   -0.06334  -0.05804  -0.05139  -0.03313  -0.02827
 Alpha virt. eigenvalues --   -0.02546  -0.02001  -0.01723  -0.00953  -0.00413
 Alpha virt. eigenvalues --   -0.00300   0.00049   0.00313   0.00455   0.00473

  Beta  occ. eigenvalues --  -38.44968 -38.44748 -38.44634 -38.44014 -38.43526
  Beta  occ. eigenvalues --  -38.43429 -38.43276  -2.20750  -2.20578  -2.20455
  Beta  occ. eigenvalues --   -2.19801  -2.19331  -2.19285  -2.19046  -1.14440
  Beta  occ. eigenvalues --   -1.14409  -1.14376  -1.14298  -1.14238  -1.14213
  Beta  occ. eigenvalues --   -1.14143  -1.14128  -1.14042  -1.13467  -1.13461
  Beta  occ. eigenvalues --   -1.13446  -1.13053  -1.13043  -1.13031  -1.12964
  Beta  occ. eigenvalues --   -1.12947  -1.12893  -1.12720  -1.12713  -1.12695
  Beta  occ. eigenvalues --   -0.16146  -0.13612  -0.12382
  Beta virt. eigenvalues --   -0.06404  -0.06120  -0.05594  -0.04581  -0.03058
  Beta virt. eigenvalues --   -0.02646  -0.02373  -0.01808  -0.01381  -0.00751
  Beta virt. eigenvalues --   -0.00195   0.00027   0.00229   0.00444   0.00512

 Mulliken charges and spin densities:
               1          2
     1  Na  -1.304739   0.080724
     2  Na   1.190264   0.111065
     3  Na  -0.143164   0.309219
     4  Na   0.168415   0.070975
     5  Na  -0.065920  -0.016356
     6  Na  -0.063267  -0.047327
     7  Na   0.218411   0.491700
 Sum of Mulliken charges =  -0.00000   1.00000

 Dipole moment (field-independent basis, Debye):
    X=              1.9483    Y=             -0.2156    Z=             -0.0560  Tot=              1.9610
 Quadrupole moment (field-independent basis, Debye-Ang):
   XX=            -75.2898   YY=            -63.4925   ZZ=            -65.4607
   XY=             -8.8915   XZ=              4.7300   YZ=              0.7646

 Normal termination of Gaussian 16 at Wed Nov 29 02:24:41 2023.
