 Gaussian 16, Revision B.01,
 Gaussian 16:  ES64L-G16RevB.01 20-Dec-2017

 -------------------------
 #P B3LYP/6-311+g(d) force
 -------------------------

 -----
 DPGEN
 -----
 Symbolic Z-matrix:
 Charge =  0 Multiplicity = 2

                         Standard orientation:
 ---------------------------------------------------------------------
 Center     Atomic      Atomic             Coordinates (Angstroms)
 Number     Number       Type             X           Y           Z
 ---------------------------------------------------------------------
      1         11           0       -0.168974   -0.207541   -0.720278
      2         11           0        0.943743   -2.586224    0.849373
      3         11           0       -3.228847    0.978096   -0.478489
      4         11           0        3.376598   -0.916293   -0.309276
      5         11           0       -2.682272   -2.101856   -0.027967
      6         11           0       -0.709294    2.804902    1.005029
      7         11           0        2.469046    2.028915   -0.318391
 ---------------------------------------------------------------------

 SCF Done:  E(UB3LYP) =  -1136.12358251     A.U. after   22 cycles

 The electronic state is 2-A.
 Alpha  occ. eigenvalues --  -38.44158 -38.44025 -38.43976 -38.43852 -38.43839
 Alpha  occ. eigenvalues --  -38.43275 -38.43207  -2.20046  -2.19898  -2.19877
 Alpha  occ. eigenvalues --   -2.19861  -2.19714  -2.19178  -2.19057  -1.13763
 Alpha  occ. eigenvalues --   -1.13721  -1.13685  -1.13620  -1.13608  -1.13583
 Alpha  occ. eigenvalues --   -1.13554  -1.13536  -1.13531  -1.13511  -1.13501
 Alpha  occ. eigenvalues --   -1.13463  -1.13380  -1.13357  -1.13325  -1.12844
 Alpha  occ. eigenvalues --   -1.12809  -1.12797  -1.12709  -1.12705  -1.12689
 Alpha  occ. eigenvalues --   -0.18104  -0.14356  -0.13002  -0.09667
 Alpha virt. eigenvalues --   -0.06413  -0.05876  -0.04202  -0.03254  -0.02867
 Alpha virt. eigenvalues --   -0.02402  -0.01788  -0.01082  -0.00634  -0.00497
 Alpha virt. eigenvalues --    0.00050   0.00278   0.00487   0.00758   0.00806

  Beta  occ. eigenvalues --  -38.44128 -38.44004 -38.43943 -38.43856 -38.43808
  Beta  occ. eigenvalues --  -38.43229 -38.43159  -2.19996  -2.19869  -2.19863
  Beta  occ. eigenvalues --   -2.19823  -2.19663  -2.19092  -2.18969  -1.13736
  Beta  occ. eigenvalues --   -1.13692  -1.13625  -1.13603  -1.13573  -1.13552
  Beta  occ. eigenvalues --   -1.13534  -1.13519  -1.13498  -1.13479  -1.13461
  Beta  occ. eigenvalues --   -1.13440  -1.13352  -1.13330  -1.13247  -1.12788
  Beta  occ. eigenvalues --   -1.12751  -1.12742  -1.12648  -1.12646  -1.12632
  Beta  occ. eigenvalues --   -0.17758  -0.13628  -0.12528
  Beta virt. eigenvalues --   -0.06461  -0.06310  -0.05623  -0.04000  -0.02734
  Beta virt. eigenvalues --   -0.02282  -0.02125  -0.01633  -0.00866  -0.00433
  Beta virt. eigenvalues --   -0.00371   0.00312   0.00433   0.00577   0.00835

 Mulliken charges and spin densities:
               1          2
     1  Na  -1.983144  -0.116146
     2  Na   0.010055   0.144494
     3  Na   0.870709   0.155760
     4  Na   0.870297   0.282503
     5  Na   0.149835   0.170186
     6  Na  -0.091467   0.186154
     7  Na   0.173715   0.177049
 Sum of Mulliken charges =  -0.00000   1.00000

 Dipole moment (field-independent basis, Debye):
    X=             -0.4027    Y=             -0.2193    Z=              0.5768  Tot=              0.7369
 Quadrupole moment (field-independent basis, Debye-Ang):
   XX=            -64.4856   YY=            -63.8995   ZZ=            -70.5383
   XY=             -2.7510   XZ=             -0.0023   YZ=             -0.8366

 Normal termination of Gaussian 16 at Wed Nov 29 16:22:23 2023.
