 Gaussian 16, Revision B.01,
 Gaussian 16:  ES64L-G16RevB.01 20-Dec-2017

 -------------------------
 #P B3LYP/6-311+g(d) force
 -------------------------

 -----
 DPGEN
 -----
 Symbolic Z-matrix:
 Charge =  0 Multiplicity = 2

                         Standard orientation:
 ---------------------------------------------------------------------
 Center     Atomic      Atomic             Coordinates (Angstroms)
 Number     Number       Type             X           Y           Z
 ---------------------------------------------------------------------
      1         11           0       -2.599853    1.275687   -0.738569
      2         11           0        3.261042    0.066889   -0.166599
      3         11           0       -0.461497    0.046634    1.974577
      4         11           0       -2.443185   -2.054359    0.008190
      5         11           0        1.336481   -2.536074    0.020503
      6         11           0        0.466874    3.038877    0.385303
      7         11           0        0.440138    0.162346   -1.483405
 ---------------------------------------------------------------------

 SCF Done:  E(UB3LYP) =  -1136.13672751     A.U. after   19 cycles

 The electronic state is 2-A.
 Alpha  occ. eigenvalues --  -38.44162 -38.43778 -38.43634 -38.43535 -38.43424
 Alpha  occ. eigenvalues --  -38.43404 -38.43129  -2.20015  -2.19640  -2.19458
 Alpha  occ. eigenvalues --   -2.19407  -2.19306  -2.19249  -2.19137  -1.13721
 Alpha  occ. eigenvalues --   -1.13673  -1.13640  -1.13335  -1.13296  -1.13264
 Alpha  occ. eigenvalues --   -1.13133  -1.13125  -1.13109  -1.13103  -1.13075
 Alpha  occ. eigenvalues --   -1.13020  -1.12986  -1.12942  -1.12935  -1.12921
 Alpha  occ. eigenvalues --   -1.12892  -1.12884  -1.12814  -1.12775  -1.12752
 Alpha  occ. eigenvalues --   -0.18615  -0.13219  -0.12366  -0.10626
 Alpha virt. eigenvalues --   -0.05592  -0.05132  -0.04839  -0.03188  -0.02865
 Alpha virt. eigenvalues --   -0.02369  -0.01576  -0.01206  -0.00410  -0.00327
 Alpha virt. eigenvalues --    0.00014   0.00338   0.00796   0.00853   0.00885

  Beta  occ. eigenvalues --  -38.44159 -38.43751 -38.43632 -38.43531 -38.43415
  Beta  occ. eigenvalues --  -38.43315 -38.43079  -2.20011  -2.19593  -2.19457
  Beta  occ. eigenvalues --   -2.19402  -2.19235  -2.19141  -2.19047  -1.13713
  Beta  occ. eigenvalues --   -1.13669  -1.13632  -1.13297  -1.13257  -1.13231
  Beta  occ. eigenvalues --   -1.13124  -1.13121  -1.13105  -1.13091  -1.13059
  Beta  occ. eigenvalues --   -1.13011  -1.12923  -1.12892  -1.12878  -1.12867
  Beta  occ. eigenvalues --   -1.12823  -1.12785  -1.12746  -1.12706  -1.12693
  Beta  occ. eigenvalues --   -0.17926  -0.12948  -0.12135
  Beta virt. eigenvalues --   -0.06755  -0.05519  -0.05102  -0.04778  -0.02475
  Beta virt. eigenvalues --   -0.02129  -0.01495  -0.01353  -0.01104  -0.00400
  Beta virt. eigenvalues --   -0.00351   0.00144   0.00383   0.00844   0.00861

 Mulliken charges and spin densities:
               1          2
     1  Na   0.188000   0.090585
     2  Na   0.280971  -0.021410
     3  Na  -0.379270   0.731144
     4  Na   0.043880  -0.030691
     5  Na   0.027468  -0.050463
     6  Na   0.009373   0.000435
     7  Na  -0.170423   0.280399
 Sum of Mulliken charges =  -0.00000   1.00000

 Dipole moment (field-independent basis, Debye):
    X=              0.2242    Y=              0.0178    Z=              0.1503  Tot=              0.2705
 Quadrupole moment (field-independent basis, Debye-Ang):
   XX=            -56.4657   YY=            -61.5951   ZZ=            -74.8626
   XY=              1.0650   XZ=              1.7373   YZ=              0.1199

 Normal termination of Gaussian 16 at Wed Nov 29 17:02:22 2023.
