 Gaussian 16, Revision B.01,
 Gaussian 16:  ES64L-G16RevB.01 20-Dec-2017

 -------------------------
 #P B3LYP/6-311+g(d) force
 -------------------------

 -----
 DPGEN
 -----
 Symbolic Z-matrix:
 Charge =  0 Multiplicity = 2

                         Standard orientation:
 ---------------------------------------------------------------------
 Center     Atomic      Atomic             Coordinates (Angstroms)
 Number     Number       Type             X           Y           Z
 ---------------------------------------------------------------------
      1         11           0        2.536705    1.583714   -0.897831
      2         11           0        2.919973   -2.104025    0.303485
      3         11           0        0.948649    0.875448    1.691126
      4         11           0       -3.284171   -1.351988   -0.788906
      5         11           0       -1.816077   -0.165466    2.034976
      6         11           0       -1.492842    2.179637   -0.792424
      7         11           0        0.187764   -1.017320   -1.550426
 ---------------------------------------------------------------------

 SCF Done:  E(UB3LYP) =  -1136.12460520     A.U. after   24 cycles

 The electronic state is 2-A.
 Alpha  occ. eigenvalues --  -38.44612 -38.44315 -38.44186 -38.43885 -38.43829
 Alpha  occ. eigenvalues --  -38.43504 -38.43216  -2.20450  -2.20124  -2.20084
 Alpha  occ. eigenvalues --   -2.19674  -2.19633  -2.19361  -2.19165  -1.14154
 Alpha  occ. eigenvalues --   -1.14120  -1.14042  -1.13824  -1.13811  -1.13778
 Alpha  occ. eigenvalues --   -1.13737  -1.13698  -1.13688  -1.13343  -1.13335
 Alpha  occ. eigenvalues --   -1.13307  -1.13305  -1.13289  -1.13273  -1.13056
 Alpha  occ. eigenvalues --   -1.13040  -1.12967  -1.12885  -1.12812  -1.12747
 Alpha  occ. eigenvalues --   -0.18281  -0.13518  -0.11740  -0.11135
 Alpha virt. eigenvalues --   -0.05999  -0.05556  -0.04616  -0.03321  -0.02846
 Alpha virt. eigenvalues --   -0.02592  -0.01858  -0.01230  -0.00626  -0.00082
 Alpha virt. eigenvalues --    0.00246   0.00290   0.00352   0.00488   0.00689

  Beta  occ. eigenvalues --  -38.44592 -38.44281 -38.44118 -38.43871 -38.43826
  Beta  occ. eigenvalues --  -38.43482 -38.43173  -2.20414  -2.20064  -2.19960
  Beta  occ. eigenvalues --   -2.19649  -2.19629  -2.19322  -2.19091  -1.14133
  Beta  occ. eigenvalues --   -1.14087  -1.14013  -1.13764  -1.13737  -1.13721
  Beta  occ. eigenvalues --   -1.13695  -1.13617  -1.13601  -1.13322  -1.13316
  Beta  occ. eigenvalues --   -1.13294  -1.13290  -1.13287  -1.13270  -1.13033
  Beta  occ. eigenvalues --   -1.12994  -1.12940  -1.12817  -1.12751  -1.12694
  Beta  occ. eigenvalues --   -0.17537  -0.13350  -0.10949
  Beta virt. eigenvalues --   -0.07758  -0.05879  -0.05257  -0.04097  -0.02964
  Beta virt. eigenvalues --   -0.02341  -0.01929  -0.01765  -0.00983  -0.00284
  Beta virt. eigenvalues --   -0.00027   0.00284   0.00328   0.00421   0.00615

 Mulliken charges and spin densities:
               1          2
     1  Na   0.478296   0.205918
     2  Na  -0.009433  -0.095408
     3  Na   0.255886   0.250511
     4  Na   0.304009  -0.045737
     5  Na  -0.195795   0.137990
     6  Na  -0.256329   0.267777
     7  Na  -0.576633   0.278950
 Sum of Mulliken charges =  -0.00000   1.00000

 Dipole moment (field-independent basis, Debye):
    X=              0.0238    Y=              0.4495    Z=             -0.2629  Tot=              0.5213
 Quadrupole moment (field-independent basis, Debye-Ang):
   XX=            -54.2729   YY=            -71.4442   ZZ=            -69.2111
   XY=              0.5466   XZ=              0.3901   YZ=             -6.2045

 Normal termination of Gaussian 16 at Fri Dec  8 03:15:10 2023.
