 Gaussian 16, Revision B.01,
 Gaussian 16:  ES64L-G16RevB.01 20-Dec-2017

 -------------------------
 #P B3LYP/6-311+g(d) force
 -------------------------

 -----
 DPGEN
 -----
 Symbolic Z-matrix:
 Charge =  0 Multiplicity = 2

                         Standard orientation:
 ---------------------------------------------------------------------
 Center     Atomic      Atomic             Coordinates (Angstroms)
 Number     Number       Type             X           Y           Z
 ---------------------------------------------------------------------
      1         11           0       -1.642441   -1.701213   -1.199309
      2         11           0       -1.532313    2.303230   -0.488252
      3         11           0        3.782100   -1.256818    0.493354
      4         11           0        1.967979    2.184057    0.035283
      5         11           0        0.039805   -0.454891    1.929532
      6         11           0        1.179762   -0.576649   -1.538696
      7         11           0       -3.794891   -0.497716    0.768088
 ---------------------------------------------------------------------

 SCF Done:  E(UB3LYP) =  -1136.12132672     A.U. after   25 cycles

 The electronic state is 2-A.
 Alpha  occ. eigenvalues --  -38.45481 -38.44869 -38.44630 -38.43547 -38.43462
 Alpha  occ. eigenvalues --  -38.43373 -38.43143  -2.21275  -2.20681  -2.20409
 Alpha  occ. eigenvalues --   -2.19453  -2.19417  -2.19215  -2.18940  -1.14971
 Alpha  occ. eigenvalues --   -1.14922  -1.14878  -1.14362  -1.14332  -1.14313
 Alpha  occ. eigenvalues --   -1.14085  -1.14070  -1.14043  -1.13264  -1.13092
 Alpha  occ. eigenvalues --   -1.13081  -1.13067  -1.13040  -1.13008  -1.12899
 Alpha  occ. eigenvalues --   -1.12880  -1.12821  -1.12621  -1.12608  -1.12569
 Alpha  occ. eigenvalues --   -0.18214  -0.13851  -0.11305  -0.10959
 Alpha virt. eigenvalues --   -0.07119  -0.05340  -0.04422  -0.03270  -0.02814
 Alpha virt. eigenvalues --   -0.02503  -0.02292  -0.01267  -0.00887  -0.00298
 Alpha virt. eigenvalues --    0.00065   0.00227   0.00265   0.00541   0.00735

  Beta  occ. eigenvalues --  -38.45426 -38.44857 -38.44629 -38.43498 -38.43394
  Beta  occ. eigenvalues --  -38.43369 -38.43138  -2.21173  -2.20658  -2.20407
  Beta  occ. eigenvalues --   -2.19367  -2.19297  -2.19208  -2.18933  -1.14898
  Beta  occ. eigenvalues --   -1.14853  -1.14800  -1.14348  -1.14314  -1.14293
  Beta  occ. eigenvalues --   -1.14082  -1.14069  -1.14039  -1.13173  -1.13024
  Beta  occ. eigenvalues --   -1.13017  -1.13004  -1.12962  -1.12914  -1.12878
  Beta  occ. eigenvalues --   -1.12864  -1.12815  -1.12605  -1.12602  -1.12565
  Beta  occ. eigenvalues --   -0.17480  -0.13737  -0.10948
  Beta virt. eigenvalues --   -0.07225  -0.06805  -0.05317  -0.03933  -0.03029
  Beta virt. eigenvalues --   -0.02504  -0.01814  -0.01629  -0.01163  -0.00592
  Beta virt. eigenvalues --   -0.00264   0.00104   0.00262   0.00436   0.00628

 Mulliken charges and spin densities:
               1          2
     1  Na  -0.207288   0.024464
     2  Na  -0.366353   0.004428
     3  Na   0.333461   0.039671
     4  Na   0.117790  -0.011826
     5  Na  -0.440423   0.447890
     6  Na  -0.026705   0.276775
     7  Na   0.589518   0.218599
 Sum of Mulliken charges =  -0.00000   1.00000

 Dipole moment (field-independent basis, Debye):
    X=             -0.0695    Y=             -0.0807    Z=              0.8117  Tot=              0.8187
 Quadrupole moment (field-independent basis, Debye-Ang):
   XX=            -47.3610   YY=            -76.4753   ZZ=            -70.6256
   XY=             -0.4441   XZ=              0.0147   YZ=             -0.9054

 Normal termination of Gaussian 16 at Thu Dec  7 21:19:36 2023.
