 Gaussian 16, Revision B.01,
 Gaussian 16:  ES64L-G16RevB.01 20-Dec-2017

 -------------------------
 #P B3LYP/6-311+g(d) force
 -------------------------

 -----
 DPGEN
 -----
 Symbolic Z-matrix:
 Charge =  0 Multiplicity = 2

                         Standard orientation:
 ---------------------------------------------------------------------
 Center     Atomic      Atomic             Coordinates (Angstroms)
 Number     Number       Type             X           Y           Z
 ---------------------------------------------------------------------
      1         11           0       -1.811824   -1.220015    1.889212
      2         11           0       -3.859944    1.269178   -0.070396
      3         11           0        3.436673    1.001055    0.492409
      4         11           0       -3.771301   -1.714399   -1.036248
      5         11           0        6.076210   -0.840292   -0.370068
      6         11           0       -0.729955    2.233433   -0.285535
      7         11           0        0.660140   -0.728960   -0.619374
 ---------------------------------------------------------------------

 SCF Done:  E(UB3LYP) =  -1136.11091040     A.U. after   24 cycles

 The electronic state is 2-A.
 Alpha  occ. eigenvalues --  -38.45891 -38.44644 -38.44435 -38.44317 -38.43614
 Alpha  occ. eigenvalues --  -38.43357 -38.43146  -2.21704  -2.20488  -2.20326
 Alpha  occ. eigenvalues --   -2.20141  -2.19418  -2.19214  -2.18910  -1.15382
 Alpha  occ. eigenvalues --   -1.15341  -1.15312  -1.14168  -1.14131  -1.14124
 Alpha  occ. eigenvalues --   -1.14020  -1.13976  -1.13962  -1.13803  -1.13789
 Alpha  occ. eigenvalues --   -1.13761  -1.13109  -1.13104  -1.13021  -1.12891
 Alpha  occ. eigenvalues --   -1.12879  -1.12834  -1.12577  -1.12575  -1.12548
 Alpha  occ. eigenvalues --   -0.17703  -0.13670  -0.11851  -0.10845
 Alpha virt. eigenvalues --   -0.07219  -0.05431  -0.04522  -0.03402  -0.03064
 Alpha virt. eigenvalues --   -0.02533  -0.02226  -0.01384  -0.01274  -0.00860
 Alpha virt. eigenvalues --   -0.00450  -0.00065   0.00262   0.00469   0.00495

  Beta  occ. eigenvalues --  -38.45827 -38.44621 -38.44361 -38.44305 -38.43613
  Beta  occ. eigenvalues --  -38.43322 -38.43148  -2.21589  -2.20447  -2.20193
  Beta  occ. eigenvalues --   -2.20122  -2.19414  -2.19151  -2.18914  -1.15285
  Beta  occ. eigenvalues --   -1.15268  -1.15230  -1.14138  -1.14107  -1.14083
  Beta  occ. eigenvalues --   -1.13941  -1.13888  -1.13863  -1.13792  -1.13749
  Beta  occ. eigenvalues --   -1.13734  -1.13105  -1.13101  -1.13024  -1.12852
  Beta  occ. eigenvalues --   -1.12835  -1.12774  -1.12580  -1.12578  -1.12550
  Beta  occ. eigenvalues --   -0.16897  -0.13565  -0.10770
  Beta virt. eigenvalues --   -0.07786  -0.06906  -0.05269  -0.04023  -0.02998
  Beta virt. eigenvalues --   -0.02789  -0.02155  -0.01621  -0.01287  -0.00913
  Beta virt. eigenvalues --   -0.00731  -0.00419   0.00091   0.00299   0.00539

 Mulliken charges and spin densities:
               1          2
     1  Na   0.105650   0.390775
     2  Na   0.001000   0.334195
     3  Na   0.095646  -0.004434
     4  Na   0.340991   0.027731
     5  Na   0.200136  -0.028152
     6  Na   0.040664   0.101970
     7  Na  -0.784086   0.177915
 Sum of Mulliken charges =  -0.00000   1.00000

 Dipole moment (field-independent basis, Debye):
    X=             -2.0746    Y=             -0.6332    Z=              0.4871  Tot=              2.2231
 Quadrupole moment (field-independent basis, Debye-Ang):
   XX=            -80.5159   YY=            -68.0217   ZZ=            -62.6856
   XY=             -2.3277   XZ=             -2.3155   YZ=              4.4069

 Normal termination of Gaussian 16 at Wed Nov 29 03:25:57 2023.
