 Gaussian 16, Revision B.01,
 Gaussian 16:  ES64L-G16RevB.01 20-Dec-2017

 -------------------------
 #P B3LYP/6-311+g(d) force
 -------------------------

 -----
 DPGEN
 -----
 Symbolic Z-matrix:
 Charge =  0 Multiplicity = 2

                         Standard orientation:
 ---------------------------------------------------------------------
 Center     Atomic      Atomic             Coordinates (Angstroms)
 Number     Number       Type             X           Y           Z
 ---------------------------------------------------------------------
      1         11           0       -2.838098    1.131927   -0.164594
      2         11           0        0.088790   -0.045071    1.845081
      3         11           0        1.464195   -2.645890   -0.205118
      4         11           0        3.615104    0.386971   -0.050848
      5         11           0       -2.527086   -2.190039   -0.026450
      6         11           0        0.041637    3.210310   -0.032462
      7         11           0        0.155458    0.151791   -1.365609
 ---------------------------------------------------------------------

 SCF Done:  E(UB3LYP) =  -1136.13199599     A.U. after   22 cycles

 The electronic state is 2-A.
 Alpha  occ. eigenvalues --  -38.45105 -38.43997 -38.43927 -38.43813 -38.43583
 Alpha  occ. eigenvalues --  -38.43019 -38.42924  -2.20857  -2.19820  -2.19784
 Alpha  occ. eigenvalues --   -2.19617  -2.19399  -2.19004  -2.18836  -1.14534
 Alpha  occ. eigenvalues --   -1.14511  -1.14493  -1.13521  -1.13489  -1.13476
 Alpha  occ. eigenvalues --   -1.13451  -1.13431  -1.13424  -1.13282  -1.13274
 Alpha  occ. eigenvalues --   -1.13256  -1.13083  -1.13056  -1.13037  -1.12752
 Alpha  occ. eigenvalues --   -1.12639  -1.12614  -1.12520  -1.12446  -1.12436
 Alpha  occ. eigenvalues --   -0.18299  -0.13118  -0.12269  -0.09855
 Alpha virt. eigenvalues --   -0.06388  -0.05189  -0.05051  -0.02904  -0.02465
 Alpha virt. eigenvalues --   -0.02147  -0.01876  -0.01400  -0.00744  -0.00726
 Alpha virt. eigenvalues --   -0.00001   0.00279   0.00679   0.00770   0.00798

  Beta  occ. eigenvalues --  -38.45104 -38.43989 -38.43918 -38.43812 -38.43580
  Beta  occ. eigenvalues --  -38.42972 -38.42827  -2.20858  -2.19808  -2.19772
  Beta  occ. eigenvalues --   -2.19617  -2.19397  -2.18920  -2.18658  -1.14522
  Beta  occ. eigenvalues --   -1.14511  -1.14496  -1.13512  -1.13468  -1.13459
  Beta  occ. eigenvalues --   -1.13427  -1.13425  -1.13414  -1.13277  -1.13265
  Beta  occ. eigenvalues --   -1.13255  -1.13079  -1.13042  -1.13035  -1.12675
  Beta  occ. eigenvalues --   -1.12578  -1.12553  -1.12401  -1.12320  -1.12309
  Beta  occ. eigenvalues --   -0.17604  -0.12888  -0.12063
  Beta virt. eigenvalues --   -0.06362  -0.06004  -0.05164  -0.05026  -0.02185
  Beta virt. eigenvalues --   -0.02061  -0.01775  -0.01323  -0.00944  -0.00762
  Beta virt. eigenvalues --   -0.00725   0.00163   0.00338   0.00703   0.00800

 Mulliken charges and spin densities:
               1          2
     1  Na   0.298533   0.048073
     2  Na  -0.350382   0.769875
     3  Na   0.151268  -0.034724
     4  Na   0.091530  -0.081155
     5  Na   0.090411  -0.019398
     6  Na   0.142436  -0.078347
     7  Na  -0.423796   0.395674
 Sum of Mulliken charges =  -0.00000   1.00000

 Dipole moment (field-independent basis, Debye):
    X=              0.6553    Y=              0.0353    Z=              0.1158  Tot=              0.6664
 Quadrupole moment (field-independent basis, Debye-Ang):
   XX=            -51.3743   YY=            -59.0554   ZZ=            -79.2198
   XY=              1.2572   XZ=              0.1669   YZ=              0.5053

 Normal termination of Gaussian 16 at Thu Dec  7 16:31:53 2023.
