 Gaussian 16, Revision B.01,
 Gaussian 16:  ES64L-G16RevB.01 20-Dec-2017

 -------------------------
 #P B3LYP/6-311+g(d) force
 -------------------------

 -----
 DPGEN
 -----
 Symbolic Z-matrix:
 Charge =  0 Multiplicity = 2

                         Standard orientation:
 ---------------------------------------------------------------------
 Center     Atomic      Atomic             Coordinates (Angstroms)
 Number     Number       Type             X           Y           Z
 ---------------------------------------------------------------------
      1         11           0        1.886462   -1.289772   -0.490713
      2         11           0        0.819710    2.012112   -0.070074
      3         11           0       -1.577069    0.585674   -0.931296
      4         11           0       -0.961313   -3.341365   -0.734634
      5         11           0       -2.367385   -1.768599    1.574033
      6         11           0       -2.133145    3.427916    0.045369
      7         11           0        4.332741    0.374035    0.607316
 ---------------------------------------------------------------------

 SCF Done:  E(UB3LYP) =  -1136.12075384     A.U. after   21 cycles

 The electronic state is 2-A.
 Alpha  occ. eigenvalues --  -38.44905 -38.44574 -38.44382 -38.44035 -38.43347
 Alpha  occ. eigenvalues --  -38.43286 -38.43178  -2.20754  -2.20478  -2.20336
 Alpha  occ. eigenvalues --   -2.19876  -2.19174  -2.19147  -2.19062  -1.14463
 Alpha  occ. eigenvalues --   -1.14420  -1.14392  -1.14330  -1.14154  -1.14062
 Alpha  occ. eigenvalues --   -1.13998  -1.13978  -1.13888  -1.13561  -1.13545
 Alpha  occ. eigenvalues --   -1.13513  -1.12876  -1.12821  -1.12800  -1.12793
 Alpha  occ. eigenvalues --   -1.12783  -1.12771  -1.12752  -1.12737  -1.12647
 Alpha  occ. eigenvalues --   -0.17766  -0.13759  -0.13240  -0.09653
 Alpha virt. eigenvalues --   -0.06454  -0.05586  -0.04869  -0.03448  -0.02750
 Alpha virt. eigenvalues --   -0.02220  -0.01831  -0.01350  -0.01087  -0.00601
 Alpha virt. eigenvalues --    0.00042   0.00153   0.00471   0.00583   0.00623

  Beta  occ. eigenvalues --  -38.44909 -38.44570 -38.44363 -38.44023 -38.43304
  Beta  occ. eigenvalues --  -38.43210 -38.43152  -2.20764  -2.20472  -2.20306
  Beta  occ. eigenvalues --   -2.19859  -2.19092  -2.19021  -2.19004  -1.14468
  Beta  occ. eigenvalues --   -1.14426  -1.14393  -1.14310  -1.14143  -1.14062
  Beta  occ. eigenvalues --   -1.13976  -1.13928  -1.13876  -1.13547  -1.13525
  Beta  occ. eigenvalues --   -1.13480  -1.12822  -1.12765  -1.12749  -1.12725
  Beta  occ. eigenvalues --   -1.12709  -1.12693  -1.12687  -1.12677  -1.12587
  Beta  occ. eigenvalues --   -0.17303  -0.13498  -0.12789
  Beta virt. eigenvalues --   -0.06317  -0.06030  -0.05482  -0.04613  -0.02897
  Beta virt. eigenvalues --   -0.02497  -0.02047  -0.01702  -0.00965  -0.00868
  Beta virt. eigenvalues --   -0.00268   0.00249   0.00343   0.00609   0.00666

 Mulliken charges and spin densities:
               1          2
     1  Na  -1.012204   0.076076
     2  Na  -0.582988  -0.229966
     3  Na  -1.022705   0.682045
     4  Na   0.596091   0.040262
     5  Na  -0.030822   0.244495
     6  Na   0.959953  -0.180098
     7  Na   1.092675   0.367186
 Sum of Mulliken charges =  -0.00000   1.00000

 Dipole moment (field-independent basis, Debye):
    X=             -0.6979    Y=              1.3680    Z=             -0.4137  Tot=              1.5905
 Quadrupole moment (field-independent basis, Debye-Ang):
   XX=            -68.5506   YY=            -54.3976   ZZ=            -73.3250
   XY=             -6.5515   XZ=              3.3812   YZ=              3.5710

 Normal termination of Gaussian 16 at Wed Nov 29 00:56:28 2023.
