 Gaussian 16, Revision B.01,
 Gaussian 16:  ES64L-G16RevB.01 20-Dec-2017

 -------------------------
 #P B3LYP/6-311+g(d) force
 -------------------------

 -----
 DPGEN
 -----
 Symbolic Z-matrix:
 Charge =  0 Multiplicity = 2

                         Standard orientation:
 ---------------------------------------------------------------------
 Center     Atomic      Atomic             Coordinates (Angstroms)
 Number     Number       Type             X           Y           Z
 ---------------------------------------------------------------------
      1         11           0       -1.847192    2.262195    0.074641
      2         11           0        3.204694   -0.016954    0.086918
      3         11           0       -0.359310    0.073562    2.124689
      4         11           0        1.243275    2.286102   -0.609300
      5         11           0       -0.281996   -0.623075   -1.483112
      6         11           0       -3.044914   -1.346993   -0.283860
      7         11           0        1.085442   -2.634838    0.090025
 ---------------------------------------------------------------------

 SCF Done:  E(UB3LYP) =  -1136.12979886     A.U. after   19 cycles

 The electronic state is 2-A.
 Alpha  occ. eigenvalues --  -38.44440 -38.44194 -38.43759 -38.43743 -38.43588
 Alpha  occ. eigenvalues --  -38.43234 -38.43034  -2.20257  -2.20041  -2.19643
 Alpha  occ. eigenvalues --   -2.19626  -2.19461  -2.19259  -2.18948  -1.13965
 Alpha  occ. eigenvalues --   -1.13901  -1.13885  -1.13741  -1.13694  -1.13684
 Alpha  occ. eigenvalues --   -1.13448  -1.13301  -1.13291  -1.13254  -1.13245
 Alpha  occ. eigenvalues --   -1.13239  -1.13152  -1.13121  -1.13090  -1.12915
 Alpha  occ. eigenvalues --   -1.12889  -1.12876  -1.12615  -1.12608  -1.12579
 Alpha  occ. eigenvalues --   -0.18833  -0.13190  -0.12489  -0.10862
 Alpha virt. eigenvalues --   -0.06044  -0.05156  -0.04277  -0.03279  -0.02935
 Alpha virt. eigenvalues --   -0.02593  -0.01808  -0.01064  -0.00293  -0.00104
 Alpha virt. eigenvalues --    0.00022   0.00317   0.00783   0.00848   0.00929

  Beta  occ. eigenvalues --  -38.44432 -38.44194 -38.43754 -38.43642 -38.43582
  Beta  occ. eigenvalues --  -38.43181 -38.43019  -2.20245  -2.20044  -2.19635
  Beta  occ. eigenvalues --   -2.19454  -2.19440  -2.19164  -2.18923  -1.13947
  Beta  occ. eigenvalues --   -1.13885  -1.13877  -1.13743  -1.13689  -1.13678
  Beta  occ. eigenvalues --   -1.13433  -1.13261  -1.13241  -1.13192  -1.13145
  Beta  occ. eigenvalues --   -1.13129  -1.13115  -1.13086  -1.13070  -1.12847
  Beta  occ. eigenvalues --   -1.12824  -1.12807  -1.12598  -1.12592  -1.12545
  Beta  occ. eigenvalues --   -0.18120  -0.12961  -0.12237
  Beta virt. eigenvalues --   -0.06934  -0.06006  -0.05094  -0.04236  -0.02504
  Beta virt. eigenvalues --   -0.02174  -0.01740  -0.01513  -0.00998  -0.00338
  Beta virt. eigenvalues --   -0.00065   0.00135   0.00355   0.00809   0.00894

 Mulliken charges and spin densities:
               1          2
     1  Na   0.193870   0.078846
     2  Na  -0.048891   0.029130
     3  Na  -0.535983   0.612202
     4  Na   0.177415   0.084937
     5  Na  -0.359459   0.144861
     6  Na   0.190679  -0.019484
     7  Na   0.382371   0.069509
 Sum of Mulliken charges =  -0.00000   1.00000

 Dipole moment (field-independent basis, Debye):
    X=             -0.3043    Y=             -0.3245    Z=              0.3286  Tot=              0.5531
 Quadrupole moment (field-independent basis, Debye-Ang):
   XX=            -54.2252   YY=            -65.7045   ZZ=            -74.0083
   XY=             -0.2964   XZ=              0.4109   YZ=             -1.2319

 Normal termination of Gaussian 16 at Thu Dec  7 01:48:18 2023.
