 Gaussian 16, Revision B.01,
 Gaussian 16:  ES64L-G16RevB.01 20-Dec-2017

 -------------------------
 #P B3LYP/6-311+g(d) force
 -------------------------

 -----
 DPGEN
 -----
 Symbolic Z-matrix:
 Charge =  0 Multiplicity = 2

                         Standard orientation:
 ---------------------------------------------------------------------
 Center     Atomic      Atomic             Coordinates (Angstroms)
 Number     Number       Type             X           Y           Z
 ---------------------------------------------------------------------
      1         11           0       -1.299405   -1.439712    1.179686
      2         11           0        0.897230    2.795437   -0.121915
      3         11           0       -4.086953   -0.706404   -0.234194
      4         11           0       -1.719479    0.902913   -1.361600
      5         11           0        1.200123    0.568120    2.239640
      6         11           0        1.209860   -0.640924   -0.818867
      7         11           0        3.798623   -1.479431   -0.882750
 ---------------------------------------------------------------------

 SCF Done:  E(UB3LYP) =  -1136.11161256     A.U. after   27 cycles

 The electronic state is 2-A.
 Alpha  occ. eigenvalues --  -38.44818 -38.44596 -38.44433 -38.44087 -38.43802
 Alpha  occ. eigenvalues --  -38.43303 -38.42973  -2.20670  -2.20487  -2.20347
 Alpha  occ. eigenvalues --   -2.20012  -2.19666  -2.19339  -2.18826  -1.14365
 Alpha  occ. eigenvalues --   -1.14337  -1.14306  -1.14174  -1.14134  -1.14093
 Alpha  occ. eigenvalues --   -1.14044  -1.13989  -1.13941  -1.13724  -1.13658
 Alpha  occ. eigenvalues --   -1.13604  -1.13586  -1.13274  -1.13267  -1.12991
 Alpha  occ. eigenvalues --   -1.12959  -1.12892  -1.12494  -1.12487  -1.12474
 Alpha  occ. eigenvalues --   -0.18715  -0.14001  -0.11851  -0.11459
 Alpha virt. eigenvalues --   -0.06944  -0.04915  -0.04250  -0.03357  -0.02848
 Alpha virt. eigenvalues --   -0.02581  -0.02194  -0.01100  -0.00860  -0.00144
 Alpha virt. eigenvalues --    0.00127   0.00284   0.00374   0.00794   0.00871

  Beta  occ. eigenvalues --  -38.44814 -38.44526 -38.44378 -38.44044 -38.43770
  Beta  occ. eigenvalues --  -38.43283 -38.42975  -2.20664  -2.20360  -2.20248
  Beta  occ. eigenvalues --   -2.19933  -2.19608  -2.19307  -2.18832  -1.14356
  Beta  occ. eigenvalues --   -1.14325  -1.14303  -1.14080  -1.14039  -1.14013
  Beta  occ. eigenvalues --   -1.13982  -1.13922  -1.13853  -1.13671  -1.13604
  Beta  occ. eigenvalues --   -1.13549  -1.13541  -1.13235  -1.13225  -1.12944
  Beta  occ. eigenvalues --   -1.12930  -1.12868  -1.12499  -1.12483  -1.12471
  Beta  occ. eigenvalues --   -0.18000  -0.13777  -0.11209
  Beta virt. eigenvalues --   -0.07879  -0.06744  -0.04392  -0.03906  -0.03064
  Beta virt. eigenvalues --   -0.02525  -0.02003  -0.01883  -0.00991  -0.00418
  Beta virt. eigenvalues --   -0.00084   0.00222   0.00373   0.00551   0.00874

 Mulliken charges and spin densities:
               1          2
     1  Na   0.081410   0.314667
     2  Na  -0.361252  -0.024075
     3  Na  -0.007317   0.024775
     4  Na   1.272554   0.152982
     5  Na   0.269013   0.200898
     6  Na  -1.130615   0.257128
     7  Na  -0.123793   0.073625
 Sum of Mulliken charges =  -0.00000   1.00000

 Dipole moment (field-independent basis, Debye):
    X=             -1.2883    Y=              0.4677    Z=              0.7915  Tot=              1.5827
 Quadrupole moment (field-independent basis, Debye-Ang):
   XX=            -53.0490   YY=            -73.7818   ZZ=            -68.3177
   XY=              4.5101   XZ=              3.5441   YZ=             -1.4481

 Normal termination of Gaussian 16 at Thu Dec  7 03:15:57 2023.
