 Gaussian 16, Revision B.01,
 Gaussian 16:  ES64L-G16RevB.01 20-Dec-2017

 -------------------------
 #P B3LYP/6-311+g(d) force
 -------------------------

 -----
 DPGEN
 -----
 Symbolic Z-matrix:
 Charge =  0 Multiplicity = 2

                         Standard orientation:
 ---------------------------------------------------------------------
 Center     Atomic      Atomic             Coordinates (Angstroms)
 Number     Number       Type             X           Y           Z
 ---------------------------------------------------------------------
      1         11           0        0.204347    2.426971    0.442229
      2         11           0        1.633444   -2.043011   -0.370367
      3         11           0       -0.023212   -0.138606   -1.636144
      4         11           0       -3.277915    1.280028   -0.357589
      5         11           0       -2.265373   -1.969090    0.311736
      6         11           0        3.259031    0.847753   -0.267290
      7         11           0        0.469677   -0.404046    1.877425
 ---------------------------------------------------------------------

 SCF Done:  E(UB3LYP) =  -1136.12668213     A.U. after   22 cycles

 The electronic state is 2-A.
 Alpha  occ. eigenvalues --  -38.44624 -38.44357 -38.43809 -38.43727 -38.43423
 Alpha  occ. eigenvalues --  -38.43315 -38.42863  -2.20462  -2.20143  -2.19737
 Alpha  occ. eigenvalues --   -2.19640  -2.19411  -2.19296  -2.18749  -1.14130
 Alpha  occ. eigenvalues --   -1.14124  -1.14101  -1.13817  -1.13803  -1.13780
 Alpha  occ. eigenvalues --   -1.13554  -1.13404  -1.13344  -1.13322  -1.13286
 Alpha  occ. eigenvalues --   -1.13265  -1.13162  -1.13084  -1.12996  -1.12950
 Alpha  occ. eigenvalues --   -1.12898  -1.12858  -1.12458  -1.12424  -1.12342
 Alpha  occ. eigenvalues --   -0.19054  -0.13508  -0.11919  -0.10905
 Alpha virt. eigenvalues --   -0.06359  -0.05292  -0.03759  -0.03326  -0.02669
 Alpha virt. eigenvalues --   -0.02491  -0.02141  -0.01218  -0.00154  -0.00105
 Alpha virt. eigenvalues --    0.00040   0.00285   0.00721   0.00829   0.00854

  Beta  occ. eigenvalues --  -38.44617 -38.44354 -38.43804 -38.43665 -38.43330
  Beta  occ. eigenvalues --  -38.43297 -38.42848  -2.20453  -2.20140  -2.19634
  Beta  occ. eigenvalues --   -2.19625  -2.19272  -2.19238  -2.18726  -1.14128
  Beta  occ. eigenvalues --   -1.14105  -1.14085  -1.13809  -1.13800  -1.13779
  Beta  occ. eigenvalues --   -1.13485  -1.13323  -1.13313  -1.13299  -1.13262
  Beta  occ. eigenvalues --   -1.13227  -1.13077  -1.12967  -1.12908  -1.12876
  Beta  occ. eigenvalues --   -1.12853  -1.12809  -1.12443  -1.12379  -1.12330
  Beta  occ. eigenvalues --   -0.18314  -0.13270  -0.11640
  Beta virt. eigenvalues --   -0.06965  -0.06256  -0.05271  -0.03731  -0.02644
  Beta virt. eigenvalues --   -0.02065  -0.01886  -0.01409  -0.01175  -0.00161
  Beta virt. eigenvalues --   -0.00020   0.00094   0.00314   0.00787   0.00827

 Mulliken charges and spin densities:
               1          2
     1  Na  -0.001228  -0.031576
     2  Na   0.531016   0.043178
     3  Na  -0.457625   0.488943
     4  Na  -0.108603  -0.035806
     5  Na   0.127477  -0.061944
     6  Na   0.101244  -0.026439
     7  Na  -0.192282   0.623643
 Sum of Mulliken charges =  -0.00000   1.00000

 Dipole moment (field-independent basis, Debye):
    X=             -0.0230    Y=              0.0702    Z=              0.0253  Tot=              0.0781
 Quadrupole moment (field-independent basis, Debye-Ang):
   XX=            -49.2035   YY=            -69.4672   ZZ=            -73.6529
   XY=              0.9636   XZ=             -0.7073   YZ=             -0.5835

 Normal termination of Gaussian 16 at Thu Dec  7 08:06:07 2023.
