 Gaussian 16, Revision B.01,
 Gaussian 16:  ES64L-G16RevB.01 20-Dec-2017

 -------------------------
 #P B3LYP/6-311+g(d) force
 -------------------------

 -----
 DPGEN
 -----
 Symbolic Z-matrix:
 Charge =  0 Multiplicity = 2

                         Standard orientation:
 ---------------------------------------------------------------------
 Center     Atomic      Atomic             Coordinates (Angstroms)
 Number     Number       Type             X           Y           Z
 ---------------------------------------------------------------------
      1         11           0        3.203448    0.059147    0.613264
      2         11           0        3.092061   -3.093959    0.755006
      3         11           0       -3.396432   -0.364608   -1.235641
      4         11           0        2.113105    3.853462    0.062770
      5         11           0       -4.816138    0.191692    1.855159
      6         11           0       -0.374384   -1.871594   -1.215630
      7         11           0        0.178341    1.225860   -0.834929
 ---------------------------------------------------------------------

 SCF Done:  E(UB3LYP) =  -1136.12025363     A.U. after   20 cycles

 The electronic state is 2-A.
 Alpha  occ. eigenvalues --  -38.45263 -38.44607 -38.44228 -38.44132 -38.43883
 Alpha  occ. eigenvalues --  -38.43440 -38.43420  -2.21059  -2.20452  -2.20034
 Alpha  occ. eigenvalues --   -2.19960  -2.19750  -2.19225  -2.19223  -1.14690
 Alpha  occ. eigenvalues --   -1.14689  -1.14671  -1.14172  -1.14113  -1.14030
 Alpha  occ. eigenvalues --   -1.13722  -1.13706  -1.13680  -1.13653  -1.13647
 Alpha  occ. eigenvalues --   -1.13572  -1.13456  -1.13438  -1.13337  -1.12896
 Alpha  occ. eigenvalues --   -1.12891  -1.12890  -1.12880  -1.12849  -1.12847
 Alpha  occ. eigenvalues --   -0.16699  -0.14059  -0.11905  -0.11680
 Alpha virt. eigenvalues --   -0.05761  -0.05344  -0.04787  -0.03893  -0.02814
 Alpha virt. eigenvalues --   -0.02268  -0.02033  -0.01513  -0.01079  -0.00863
 Alpha virt. eigenvalues --   -0.00364  -0.00086   0.00015   0.00351   0.00623

  Beta  occ. eigenvalues --  -38.45143 -38.44555 -38.44233 -38.44111 -38.43862
  Beta  occ. eigenvalues --  -38.43437 -38.43402  -2.20835  -2.20359  -2.20052
  Beta  occ. eigenvalues --   -2.19923  -2.19715  -2.19217  -2.19193  -1.14538
  Beta  occ. eigenvalues --   -1.14535  -1.14523  -1.14102  -1.14054  -1.13964
  Beta  occ. eigenvalues --   -1.13741  -1.13722  -1.13635  -1.13629  -1.13624
  Beta  occ. eigenvalues --   -1.13538  -1.13434  -1.13416  -1.13295  -1.12887
  Beta  occ. eigenvalues --   -1.12886  -1.12866  -1.12859  -1.12842  -1.12832
  Beta  occ. eigenvalues --   -0.16128  -0.13226  -0.11770
  Beta virt. eigenvalues --   -0.08031  -0.05431  -0.05066  -0.04586  -0.03647
  Beta virt. eigenvalues --   -0.02221  -0.01987  -0.01783  -0.01359  -0.00950
  Beta virt. eigenvalues --   -0.00505  -0.00057   0.00108   0.00251   0.00419

 Mulliken charges and spin densities:
               1          2
     1  Na  -0.071346   0.175964
     2  Na   0.271226   0.085227
     3  Na  -0.146149  -0.047587
     4  Na   1.096600   0.069154
     5  Na   0.219685   0.594405
     6  Na   0.158570  -0.014069
     7  Na  -1.528586   0.136907
 Sum of Mulliken charges =  -0.00000   1.00000

 Dipole moment (field-independent basis, Debye):
    X=             -0.8740    Y=             -0.1342    Z=              0.3028  Tot=              0.9347
 Quadrupole moment (field-independent basis, Debye-Ang):
   XX=            -65.5169   YY=            -63.4257   ZZ=            -67.5812
   XY=              1.6277   XZ=              0.5832   YZ=              1.8728

 Normal termination of Gaussian 16 at Tue Nov 28 20:16:13 2023.
