 Gaussian 16, Revision B.01,
 Gaussian 16:  ES64L-G16RevB.01 20-Dec-2017

 -------------------------
 #P B3LYP/6-311+g(d) force
 -------------------------

 -----
 DPGEN
 -----
 Symbolic Z-matrix:
 Charge =  0 Multiplicity = 2

                         Standard orientation:
 ---------------------------------------------------------------------
 Center     Atomic      Atomic             Coordinates (Angstroms)
 Number     Number       Type             X           Y           Z
 ---------------------------------------------------------------------
      1         11           0        1.474841    2.760744    0.063989
      2         11           0        3.144134   -0.421160    0.116102
      3         11           0       -2.458703    1.657774   -0.086136
      4         11           0       -2.504946   -1.553990   -0.320497
      5         11           0       -0.628882   -0.099582    2.087325
      6         11           0        0.961345   -2.737406   -0.146050
      7         11           0        0.012211    0.393620   -1.714733
 ---------------------------------------------------------------------

 SCF Done:  E(UB3LYP) =  -1136.13632787     A.U. after   19 cycles

 The electronic state is 2-A.
 Alpha  occ. eigenvalues --  -38.44103 -38.43923 -38.43769 -38.43759 -38.43564
 Alpha  occ. eigenvalues --  -38.43309 -38.43152  -2.19928  -2.19815  -2.19657
 Alpha  occ. eigenvalues --   -2.19645  -2.19375  -2.19266  -2.19001  -1.13609
 Alpha  occ. eigenvalues --   -1.13595  -1.13567  -1.13530  -1.13492  -1.13455
 Alpha  occ. eigenvalues --   -1.13342  -1.13311  -1.13297  -1.13277  -1.13271
 Alpha  occ. eigenvalues --   -1.13256  -1.13074  -1.13037  -1.13010  -1.12942
 Alpha  occ. eigenvalues --   -1.12900  -1.12879  -1.12675  -1.12663  -1.12642
 Alpha  occ. eigenvalues --   -0.18647  -0.13288  -0.12266  -0.10846
 Alpha virt. eigenvalues --   -0.05680  -0.05356  -0.04552  -0.03365  -0.02855
 Alpha virt. eigenvalues --   -0.02640  -0.01446  -0.01097  -0.00440  -0.00288
 Alpha virt. eigenvalues --   -0.00034   0.00367   0.00794   0.00859   0.00903

  Beta  occ. eigenvalues --  -38.44104 -38.43913 -38.43749 -38.43675 -38.43564
  Beta  occ. eigenvalues --  -38.43243 -38.43150  -2.19931  -2.19802  -2.19630
  Beta  occ. eigenvalues --   -2.19483  -2.19377  -2.19146  -2.18998  -1.13613
  Beta  occ. eigenvalues --   -1.13584  -1.13572  -1.13523  -1.13451  -1.13440
  Beta  occ. eigenvalues --   -1.13312  -1.13266  -1.13265  -1.13192  -1.13153
  Beta  occ. eigenvalues --   -1.13148  -1.13065  -1.13027  -1.13013  -1.12866
  Beta  occ. eigenvalues --   -1.12814  -1.12791  -1.12675  -1.12645  -1.12639
  Beta  occ. eigenvalues --   -0.17900  -0.13080  -0.12058
  Beta virt. eigenvalues --   -0.06897  -0.05636  -0.05302  -0.04516  -0.02589
  Beta virt. eigenvalues --   -0.02102  -0.01591  -0.01355  -0.01029  -0.00484
  Beta virt. eigenvalues --   -0.00336   0.00131   0.00403   0.00855   0.00882

 Mulliken charges and spin densities:
               1          2
     1  Na   0.032085  -0.102107
     2  Na  -0.057507  -0.050203
     3  Na   0.410184  -0.037659
     4  Na   0.302194   0.031334
     5  Na  -0.561840   0.750797
     6  Na  -0.028135  -0.063059
     7  Na  -0.096982   0.470897
 Sum of Mulliken charges =  -0.00000   1.00000

 Dipole moment (field-independent basis, Debye):
    X=             -0.0689    Y=              0.1795    Z=              0.1461  Tot=              0.2415
 Quadrupole moment (field-independent basis, Debye-Ang):
   XX=            -57.0976   YY=            -63.9046   ZZ=            -73.6805
   XY=              0.4362   XZ=              1.5419   YZ=              1.1995

 Normal termination of Gaussian 16 at Tue Dec  5 23:31:01 2023.
