 Gaussian 16, Revision B.01,
 Gaussian 16:  ES64L-G16RevB.01 20-Dec-2017

 -------------------------
 #P B3LYP/6-311+g(d) force
 -------------------------

 -----
 DPGEN
 -----
 Symbolic Z-matrix:
 Charge =  0 Multiplicity = 2

                         Standard orientation:
 ---------------------------------------------------------------------
 Center     Atomic      Atomic             Coordinates (Angstroms)
 Number     Number       Type             X           Y           Z
 ---------------------------------------------------------------------
      1         11           0       -1.788342    1.218588    2.055136
      2         11           0        0.495553    3.158192   -0.175141
      3         11           0        4.152734   -1.170163    1.095832
      4         11           0       -0.401497   -2.177574   -1.596538
      5         11           0       -1.565610    1.013276   -1.826007
      6         11           0       -2.867783   -2.110204    1.067722
      7         11           0        1.974946    0.067886   -0.621003
 ---------------------------------------------------------------------

 SCF Done:  E(UB3LYP) =  -1136.12112301     A.U. after   20 cycles

 The electronic state is 2-A.
 Alpha  occ. eigenvalues --  -38.44851 -38.44835 -38.44242 -38.44053 -38.43964
 Alpha  occ. eigenvalues --  -38.43618 -38.42894  -2.20696  -2.20623  -2.20015
 Alpha  occ. eigenvalues --   -2.19860  -2.19792  -2.19441  -2.18782  -1.14376
 Alpha  occ. eigenvalues --   -1.14347  -1.14314  -1.14299  -1.14273  -1.14226
 Alpha  occ. eigenvalues --   -1.13690  -1.13670  -1.13648  -1.13541  -1.13498
 Alpha  occ. eigenvalues --   -1.13488  -1.13478  -1.13448  -1.13405  -1.13115
 Alpha  occ. eigenvalues --   -1.13108  -1.13073  -1.12470  -1.12459  -1.12421
 Alpha  occ. eigenvalues --   -0.17420  -0.12952  -0.12201  -0.11574
 Alpha virt. eigenvalues --   -0.05897  -0.05585  -0.04586  -0.03648  -0.03013
 Alpha virt. eigenvalues --   -0.02559  -0.01559  -0.01234  -0.00762  -0.00380
 Alpha virt. eigenvalues --   -0.00212   0.00207   0.00235   0.00377   0.00677

  Beta  occ. eigenvalues --  -38.44804 -38.44771 -38.44220 -38.44011 -38.43932
  Beta  occ. eigenvalues --  -38.43617 -38.42893  -2.20611  -2.20503  -2.19977
  Beta  occ. eigenvalues --   -2.19782  -2.19735  -2.19440  -2.18786  -1.14312
  Beta  occ. eigenvalues --   -1.14284  -1.14250  -1.14219  -1.14196  -1.14132
  Beta  occ. eigenvalues --   -1.13666  -1.13638  -1.13618  -1.13489  -1.13444
  Beta  occ. eigenvalues --   -1.13435  -1.13434  -1.13396  -1.13376  -1.13117
  Beta  occ. eigenvalues --   -1.13094  -1.13075  -1.12468  -1.12450  -1.12409
  Beta  occ. eigenvalues --   -0.16750  -0.12351  -0.12006
  Beta virt. eigenvalues --   -0.08084  -0.05615  -0.05188  -0.04249  -0.03248
  Beta virt. eigenvalues --   -0.02751  -0.02025  -0.01318  -0.01122  -0.00507
  Beta virt. eigenvalues --   -0.00184   0.00020   0.00301   0.00378   0.00427

 Mulliken charges and spin densities:
               1          2
     1  Na  -0.151395   0.406637
     2  Na   0.303692   0.011738
     3  Na   0.450022   0.005309
     4  Na   0.216685   0.199589
     5  Na   0.346006   0.110500
     6  Na  -0.087906   0.030570
     7  Na  -1.077103   0.235657
 Sum of Mulliken charges =  -0.00000   1.00000

 Dipole moment (field-independent basis, Debye):
    X=             -0.8156    Y=              0.2099    Z=              0.3364  Tot=              0.9068
 Quadrupole moment (field-independent basis, Debye-Ang):
   XX=            -66.1219   YY=            -64.8419   ZZ=            -65.4166
   XY=              0.5447   XZ=              3.7131   YZ=             -1.4954

 Normal termination of Gaussian 16 at Sun Dec  3 21:34:35 2023.
