 Gaussian 16, Revision B.01,
 Gaussian 16:  ES64L-G16RevB.01 20-Dec-2017

 -------------------------
 #P B3LYP/6-311+g(d) force
 -------------------------

 -----
 DPGEN
 -----
 Symbolic Z-matrix:
 Charge =  0 Multiplicity = 2

                         Standard orientation:
 ---------------------------------------------------------------------
 Center     Atomic      Atomic             Coordinates (Angstroms)
 Number     Number       Type             X           Y           Z
 ---------------------------------------------------------------------
      1         11           0       -3.111801   -0.781879   -0.514077
      2         11           0        1.996914    2.495279   -0.539550
      3         11           0        1.056751    0.121455    2.151459
      4         11           0       -2.214051    2.354441    0.457818
      5         11           0       -0.134818   -0.349486   -1.538337
      6         11           0        2.715487   -1.178263   -0.659706
      7         11           0       -0.308481   -2.661548    0.642394
 ---------------------------------------------------------------------

 SCF Done:  E(UB3LYP) =  -1136.13176658     A.U. after   20 cycles

 The electronic state is 2-A.
 Alpha  occ. eigenvalues --  -38.44100 -38.44093 -38.43912 -38.43896 -38.43735
 Alpha  occ. eigenvalues --  -38.43345 -38.43224  -2.19970  -2.19867  -2.19774
 Alpha  occ. eigenvalues --   -2.19678  -2.19586  -2.19340  -2.19108  -1.13699
 Alpha  occ. eigenvalues --   -1.13624  -1.13576  -1.13545  -1.13530  -1.13510
 Alpha  occ. eigenvalues --   -1.13437  -1.13406  -1.13390  -1.13357  -1.13330
 Alpha  occ. eigenvalues --   -1.13317  -1.13302  -1.13241  -1.13208  -1.13038
 Alpha  occ. eigenvalues --   -1.12980  -1.12961  -1.12786  -1.12761  -1.12727
 Alpha  occ. eigenvalues --   -0.18340  -0.13155  -0.12049  -0.11022
 Alpha virt. eigenvalues --   -0.05768  -0.05222  -0.04637  -0.03294  -0.03006
 Alpha virt. eigenvalues --   -0.02726  -0.01457  -0.01105  -0.00572  -0.00237
 Alpha virt. eigenvalues --    0.00009   0.00366   0.00727   0.00761   0.00817

  Beta  occ. eigenvalues --  -38.44098 -38.44073 -38.43890 -38.43821 -38.43731
  Beta  occ. eigenvalues --  -38.43292 -38.43209  -2.19937  -2.19864  -2.19671
  Beta  occ. eigenvalues --   -2.19606  -2.19581  -2.19244  -2.19084  -1.13666
  Beta  occ. eigenvalues --   -1.13587  -1.13550  -1.13538  -1.13526  -1.13508
  Beta  occ. eigenvalues --   -1.13343  -1.13336  -1.13323  -1.13307  -1.13291
  Beta  occ. eigenvalues --   -1.13288  -1.13258  -1.13233  -1.13207  -1.12980
  Beta  occ. eigenvalues --   -1.12904  -1.12895  -1.12765  -1.12727  -1.12701
  Beta  occ. eigenvalues --   -0.17628  -0.12937  -0.11856
  Beta virt. eigenvalues --   -0.07075  -0.05713  -0.05125  -0.04479  -0.02720
  Beta virt. eigenvalues --   -0.02311  -0.01697  -0.01354  -0.01051  -0.00513
  Beta virt. eigenvalues --   -0.00216   0.00130   0.00416   0.00808   0.00847

 Mulliken charges and spin densities:
               1          2
     1  Na   0.327691  -0.001857
     2  Na  -0.228910  -0.025586
     3  Na  -0.254590   0.674268
     4  Na  -0.351323  -0.042050
     5  Na   0.311180   0.275025
     6  Na   0.405882   0.015852
     7  Na  -0.209930   0.104347
 Sum of Mulliken charges =  -0.00000   1.00000

 Dipole moment (field-independent basis, Debye):
    X=              0.1676    Y=              0.0848    Z=              0.1420  Tot=              0.2354
 Quadrupole moment (field-independent basis, Debye-Ang):
   XX=            -57.8639   YY=            -64.1741   ZZ=            -72.3334
   XY=              0.2557   XZ=             -1.6638   YZ=             -0.2149

 Normal termination of Gaussian 16 at Tue Dec  5 19:27:45 2023.
