 Gaussian 16, Revision B.01,
 Gaussian 16:  ES64L-G16RevB.01 20-Dec-2017

 -------------------------
 #P B3LYP/6-311+g(d) force
 -------------------------

 -----
 DPGEN
 -----
 Symbolic Z-matrix:
 Charge =  0 Multiplicity = 2

                         Standard orientation:
 ---------------------------------------------------------------------
 Center     Atomic      Atomic             Coordinates (Angstroms)
 Number     Number       Type             X           Y           Z
 ---------------------------------------------------------------------
      1         11           0        4.453581   -0.276774   -0.284304
      2         11           0       -4.201109   -1.331871    0.419502
      3         11           0        2.568023    2.445665    0.755016
      4         11           0        2.031884   -3.345233   -0.217442
      5         11           0       -0.499389    3.911422   -0.287260
      6         11           0       -1.130404   -3.066053    0.069622
      7         11           0       -3.222587    1.662844   -0.455134
 ---------------------------------------------------------------------

 SCF Done:  E(UB3LYP) =  -1136.11193902     A.U. after   22 cycles

 The electronic state is 2-A.
 Alpha  occ. eigenvalues --  -38.45219 -38.45084 -38.44671 -38.44651 -38.44276
 Alpha  occ. eigenvalues --  -38.43995 -38.43743  -2.20995  -2.20840  -2.20470
 Alpha  occ. eigenvalues --   -2.20430  -2.20074  -2.19819  -2.19542  -1.14681
 Alpha  occ. eigenvalues --   -1.14665  -1.14640  -1.14527  -1.14517  -1.14475
 Alpha  occ. eigenvalues --   -1.14154  -1.14144  -1.14110  -1.14090  -1.14074
 Alpha  occ. eigenvalues --   -1.14058  -1.13737  -1.13734  -1.13698  -1.13472
 Alpha  occ. eigenvalues --   -1.13465  -1.13454  -1.13197  -1.13190  -1.13178
 Alpha  occ. eigenvalues --   -0.15635  -0.13965  -0.13628  -0.11035
 Alpha virt. eigenvalues --   -0.07583  -0.04583  -0.04492  -0.03625  -0.03506
 Alpha virt. eigenvalues --   -0.02376  -0.02282  -0.01823  -0.01595  -0.00685
 Alpha virt. eigenvalues --   -0.00384  -0.00280   0.00217   0.00399   0.00565

  Beta  occ. eigenvalues --  -38.45204 -38.45078 -38.44641 -38.44598 -38.44240
  Beta  occ. eigenvalues --  -38.43948 -38.43693  -2.20975  -2.20834  -2.20420
  Beta  occ. eigenvalues --   -2.20333  -2.20013  -2.19733  -2.19449  -1.14672
  Beta  occ. eigenvalues --   -1.14658  -1.14582  -1.14528  -1.14518  -1.14438
  Beta  occ. eigenvalues --   -1.14116  -1.14115  -1.14049  -1.14026  -1.14010
  Beta  occ. eigenvalues --   -1.13987  -1.13695  -1.13692  -1.13641  -1.13410
  Beta  occ. eigenvalues --   -1.13406  -1.13401  -1.13133  -1.13127  -1.13118
  Beta  occ. eigenvalues --   -0.15077  -0.13222  -0.12791
  Beta virt. eigenvalues --   -0.07895  -0.07782  -0.04117  -0.04067  -0.03399
  Beta virt. eigenvalues --   -0.03142  -0.02116  -0.02089  -0.01649  -0.01392
  Beta virt. eigenvalues --   -0.00330  -0.00129  -0.00100   0.00312   0.00440

 Mulliken charges and spin densities:
               1          2
     1  Na   0.027354   0.244241
     2  Na   0.604846   0.288288
     3  Na  -0.466228   0.014585
     4  Na  -0.025133  -0.154968
     5  Na   0.272195   0.221342
     6  Na  -0.139996   0.241443
     7  Na  -0.273038   0.145068
 Sum of Mulliken charges =  -0.00000   1.00000

 Dipole moment (field-independent basis, Debye):
    X=              0.0529    Y=             -0.1280    Z=              0.0160  Tot=              0.1394
 Quadrupole moment (field-independent basis, Debye-Ang):
   XX=            -59.5509   YY=            -67.2140   ZZ=            -72.4834
   XY=             -1.2095   XZ=             -0.8197   YZ=              0.0196

 Normal termination of Gaussian 16 at Sun Dec  3 12:41:41 2023.
