 Gaussian 16, Revision B.01,
 Gaussian 16:  ES64L-G16RevB.01 20-Dec-2017

 -------------------------
 #P B3LYP/6-311+g(d) force
 -------------------------

 -----
 DPGEN
 -----
 Symbolic Z-matrix:
 Charge =  0 Multiplicity = 2

                         Standard orientation:
 ---------------------------------------------------------------------
 Center     Atomic      Atomic             Coordinates (Angstroms)
 Number     Number       Type             X           Y           Z
 ---------------------------------------------------------------------
      1         11           0        7.901275    1.000480   -0.297504
      2         11           0       -6.095373    1.017322    0.211854
      3         11           0       -0.472792   -0.349816   -0.698899
      4         11           0        2.406297   -1.595832   -0.348041
      5         11           0       -6.128601   -2.018156    0.120737
      6         11           0       -2.811639    2.560853    0.046613
      7         11           0        5.200834   -0.614852    0.965240
 ---------------------------------------------------------------------

 SCF Done:  E(UB3LYP) =  -1136.10355719     A.U. after   20 cycles

 The electronic state is 2-A.
 Alpha  occ. eigenvalues --  -38.45088 -38.44941 -38.44772 -38.44409 -38.44236
 Alpha  occ. eigenvalues --  -38.44048 -38.43923  -2.20880  -2.20760  -2.20541
 Alpha  occ. eigenvalues --   -2.20215  -2.20005  -2.19837  -2.19764  -1.14526
 Alpha  occ. eigenvalues --   -1.14505  -1.14499  -1.14439  -1.14390  -1.14387
 Alpha  occ. eigenvalues --   -1.14193  -1.14191  -1.14164  -1.13890  -1.13882
 Alpha  occ. eigenvalues --   -1.13861  -1.13701  -1.13686  -1.13679  -1.13550
 Alpha  occ. eigenvalues --   -1.13510  -1.13490  -1.13408  -1.13404  -1.13369
 Alpha  occ. eigenvalues --   -0.15346  -0.14417  -0.12574  -0.11481
 Alpha virt. eigenvalues --   -0.07237  -0.05356  -0.03849  -0.03500  -0.03386
 Alpha virt. eigenvalues --   -0.02692  -0.02350  -0.02126  -0.01304  -0.00994
 Alpha virt. eigenvalues --   -0.00773  -0.00501  -0.00335   0.00297   0.00451

  Beta  occ. eigenvalues --  -38.44987 -38.44867 -38.44717 -38.44418 -38.44263
  Beta  occ. eigenvalues --  -38.44064 -38.43885  -2.20691  -2.20623  -2.20439
  Beta  occ. eigenvalues --   -2.20240  -2.20060  -2.19871  -2.19693  -1.14397
  Beta  occ. eigenvalues --   -1.14379  -1.14376  -1.14353  -1.14296  -1.14293
  Beta  occ. eigenvalues --   -1.14123  -1.14122  -1.14098  -1.13905  -1.13897
  Beta  occ. eigenvalues --   -1.13842  -1.13730  -1.13727  -1.13695  -1.13558
  Beta  occ. eigenvalues --   -1.13537  -1.13498  -1.13358  -1.13357  -1.13343
  Beta  occ. eigenvalues --   -0.14789  -0.13932  -0.11924
  Beta virt. eigenvalues --   -0.08330  -0.06839  -0.04966  -0.03363  -0.03305
  Beta virt. eigenvalues --   -0.03222  -0.02494  -0.02168  -0.01842  -0.01074
  Beta virt. eigenvalues --   -0.00606  -0.00490  -0.00192  -0.00142   0.00310

 Mulliken charges and spin densities:
               1          2
     1  Na   0.318988   0.269834
     2  Na  -0.281996  -0.056414
     3  Na   0.267316  -0.113688
     4  Na  -0.764990   0.140620
     5  Na   0.269133   0.339810
     6  Na   0.598747   0.471423
     7  Na  -0.407197  -0.051586
 Sum of Mulliken charges =  -0.00000   1.00000

 Dipole moment (field-independent basis, Debye):
    X=             -0.6620    Y=              0.2340    Z=             -0.1350  Tot=              0.7150
 Quadrupole moment (field-independent basis, Debye-Ang):
   XX=            -58.9169   YY=            -61.6014   ZZ=            -73.1839
   XY=              4.2180   XZ=             -2.8289   YZ=             -0.3077

 Normal termination of Gaussian 16 at Sun Dec  3 19:17:52 2023.
