 Gaussian 16, Revision B.01,
 Gaussian 16:  ES64L-G16RevB.01 20-Dec-2017

 -------------------------
 #P B3LYP/6-311+g(d) force
 -------------------------

 -----
 DPGEN
 -----
 Symbolic Z-matrix:
 Charge =  0 Multiplicity = 2

                         Standard orientation:
 ---------------------------------------------------------------------
 Center     Atomic      Atomic             Coordinates (Angstroms)
 Number     Number       Type             X           Y           Z
 ---------------------------------------------------------------------
      1         11           0        3.404905    0.707338    1.067921
      2         11           0        2.258616   -1.887618   -0.651350
      3         11           0        0.011453   -0.040850    1.524758
      4         11           0       -0.928581   -1.075504   -1.562163
      5         11           0        1.228238    1.495076   -0.953248
      6         11           0       -3.455924   -1.108967    1.084397
      7         11           0       -2.518706    1.910526   -0.510315
 ---------------------------------------------------------------------

 SCF Done:  E(UB3LYP) =  -1136.12275833     A.U. after   28 cycles

 The electronic state is 2-A.
 Alpha  occ. eigenvalues --  -38.44806 -38.44738 -38.44256 -38.43970 -38.43457
 Alpha  occ. eigenvalues --  -38.43028 -38.42863  -2.20653  -2.20625  -2.20148
 Alpha  occ. eigenvalues --   -2.19793  -2.19421  -2.18904  -2.18789  -1.14400
 Alpha  occ. eigenvalues --   -1.14297  -1.14280  -1.14271  -1.14261  -1.14237
 Alpha  occ. eigenvalues --   -1.13838  -1.13790  -1.13780  -1.13472  -1.13445
 Alpha  occ. eigenvalues --   -1.13433  -1.13136  -1.13066  -1.13028  -1.12580
 Alpha  occ. eigenvalues --   -1.12569  -1.12554  -1.12493  -1.12438  -1.12387
 Alpha  occ. eigenvalues --   -0.18883  -0.14514  -0.11383  -0.10695
 Alpha virt. eigenvalues --   -0.06728  -0.05428  -0.04718  -0.03000  -0.02697
 Alpha virt. eigenvalues --   -0.02341  -0.02136  -0.01203  -0.00829  -0.00082
 Alpha virt. eigenvalues --    0.00133   0.00278   0.00425   0.00548   0.00679

  Beta  occ. eigenvalues --  -38.44751 -38.44710 -38.44234 -38.43955 -38.43424
  Beta  occ. eigenvalues --  -38.43025 -38.42821  -2.20603  -2.20521  -2.20106
  Beta  occ. eigenvalues --   -2.19769  -2.19366  -2.18901  -2.18717  -1.14348
  Beta  occ. eigenvalues --   -1.14254  -1.14238  -1.14207  -1.14190  -1.14175
  Beta  occ. eigenvalues --   -1.13816  -1.13754  -1.13753  -1.13450  -1.13433
  Beta  occ. eigenvalues --   -1.13399  -1.13104  -1.12995  -1.12988  -1.12571
  Beta  occ. eigenvalues --   -1.12568  -1.12540  -1.12448  -1.12360  -1.12341
  Beta  occ. eigenvalues --   -0.18197  -0.14143  -0.10467
  Beta virt. eigenvalues --   -0.07589  -0.06502  -0.05252  -0.04155  -0.02766
  Beta virt. eigenvalues --   -0.02457  -0.01772  -0.01436  -0.01038  -0.00541
  Beta virt. eigenvalues --   -0.00016   0.00167   0.00336   0.00484   0.00666

 Mulliken charges and spin densities:
               1          2
     1  Na   1.358678   0.194202
     2  Na  -0.379392  -0.019779
     3  Na  -1.036585   0.283805
     4  Na  -0.069734   0.223102
     5  Na  -0.322754   0.138328
     6  Na   0.476174   0.148623
     7  Na  -0.026387   0.031718
 Sum of Mulliken charges =  -0.00000   1.00000

 Dipole moment (field-independent basis, Debye):
    X=             -0.4074    Y=             -0.0688    Z=              0.3933  Tot=              0.5705
 Quadrupole moment (field-independent basis, Debye-Ang):
   XX=            -47.6931   YY=            -77.4192   ZZ=            -68.8024
   XY=             -0.5282   XZ=              0.7607   YZ=             -3.9692

 Normal termination of Gaussian 16 at Tue Dec  5 20:36:37 2023.
