 Gaussian 16, Revision B.01,
 Gaussian 16:  ES64L-G16RevB.01 20-Dec-2017

 -------------------------
 #P B3LYP/6-311+g(d) force
 -------------------------

 -----
 DPGEN
 -----
 Symbolic Z-matrix:
 Charge =  0 Multiplicity = 2

                         Standard orientation:
 ---------------------------------------------------------------------
 Center     Atomic      Atomic             Coordinates (Angstroms)
 Number     Number       Type             X           Y           Z
 ---------------------------------------------------------------------
      1         11           0        1.474308    2.317649    0.141586
      2         11           0       -1.855617    0.775253    1.882130
      3         11           0        0.384211   -0.665296   -1.698442
      4         11           0       -2.527115   -2.276411   -0.241532
      5         11           0       -2.278075    1.658507   -1.253737
      6         11           0        3.918941   -0.691363   -0.185686
      7         11           0        0.883347   -1.118339    1.355681
 ---------------------------------------------------------------------

 SCF Done:  E(UB3LYP) =  -1136.12771838     A.U. after   21 cycles

 The electronic state is 2-A.
 Alpha  occ. eigenvalues --  -38.44958 -38.43994 -38.43887 -38.43862 -38.43664
 Alpha  occ. eigenvalues --  -38.43608 -38.43455  -2.20738  -2.19891  -2.19754
 Alpha  occ. eigenvalues --   -2.19686  -2.19525  -2.19451  -2.19239  -1.14418
 Alpha  occ. eigenvalues --   -1.14394  -1.14364  -1.13634  -1.13531  -1.13488
 Alpha  occ. eigenvalues --   -1.13457  -1.13433  -1.13360  -1.13352  -1.13320
 Alpha  occ. eigenvalues --   -1.13296  -1.13232  -1.13178  -1.13141  -1.13139
 Alpha  occ. eigenvalues --   -1.13106  -1.13058  -1.12912  -1.12900  -1.12882
 Alpha  occ. eigenvalues --   -0.18234  -0.13431  -0.11309  -0.11087
 Alpha virt. eigenvalues --   -0.06452  -0.05299  -0.04317  -0.03067  -0.02825
 Alpha virt. eigenvalues --   -0.02639  -0.02264  -0.01168  -0.00700  -0.00126
 Alpha virt. eigenvalues --    0.00200   0.00225   0.00375   0.00626   0.00802

  Beta  occ. eigenvalues --  -38.44959 -38.43937 -38.43835 -38.43826 -38.43661
  Beta  occ. eigenvalues --  -38.43565 -38.43455  -2.20740  -2.19788  -2.19643
  Beta  occ. eigenvalues --   -2.19637  -2.19450  -2.19446  -2.19241  -1.14414
  Beta  occ. eigenvalues --   -1.14396  -1.14366  -1.13565  -1.13451  -1.13413
  Beta  occ. eigenvalues --   -1.13385  -1.13359  -1.13305  -1.13287  -1.13275
  Beta  occ. eigenvalues --   -1.13253  -1.13184  -1.13141  -1.13118  -1.13095
  Beta  occ. eigenvalues --   -1.13061  -1.13053  -1.12907  -1.12893  -1.12884
  Beta  occ. eigenvalues --   -0.17473  -0.13263  -0.10932
  Beta virt. eigenvalues --   -0.07271  -0.06341  -0.05288  -0.03699  -0.02958
  Beta virt. eigenvalues --   -0.02190  -0.02016  -0.01802  -0.01070  -0.00333
  Beta virt. eigenvalues --   -0.00110   0.00193   0.00250   0.00503   0.00679

 Mulliken charges and spin densities:
               1          2
     1  Na  -0.232669  -0.095458
     2  Na   0.162176   0.320900
     3  Na  -0.195305   0.628190
     4  Na   0.007854  -0.115887
     5  Na   0.036206   0.020180
     6  Na   0.302371  -0.011340
     7  Na  -0.080634   0.253415
 Sum of Mulliken charges =  -0.00000   1.00000

 Dipole moment (field-independent basis, Debye):
    X=              0.9339    Y=             -0.0056    Z=             -0.1730  Tot=              0.9498
 Quadrupole moment (field-independent basis, Debye-Ang):
   XX=            -48.3911   YY=            -74.1241   ZZ=            -69.4676
   XY=             -0.4213   XZ=             -0.4257   YZ=             -0.0613

 Normal termination of Gaussian 16 at Fri Dec  8 00:32:39 2023.
