 Gaussian 16, Revision B.01,
 Gaussian 16:  ES64L-G16RevB.01 20-Dec-2017

 -------------------------
 #P B3LYP/6-311+g(d) force
 -------------------------

 -----
 DPGEN
 -----
 Symbolic Z-matrix:
 Charge =  0 Multiplicity = 2

                         Standard orientation:
 ---------------------------------------------------------------------
 Center     Atomic      Atomic             Coordinates (Angstroms)
 Number     Number       Type             X           Y           Z
 ---------------------------------------------------------------------
      1         11           0       -0.081300   -0.435503    2.153316
      2         11           0        2.657182    1.704144   -0.210271
      3         11           0        2.493425   -1.963812    0.012337
      4         11           0       -0.533140    2.807552    0.027626
      5         11           0        0.131153   -0.413973   -1.545519
      6         11           0       -1.661785   -2.396664   -0.293530
      7         11           0       -3.005535    0.698257   -0.143960
 ---------------------------------------------------------------------

 SCF Done:  E(UB3LYP) =  -1136.13504675     A.U. after   20 cycles

 The electronic state is 2-A.
 Alpha  occ. eigenvalues --  -38.44104 -38.43927 -38.43897 -38.43732 -38.43705
 Alpha  occ. eigenvalues --  -38.43205 -38.43127  -2.19926  -2.19752  -2.19742
 Alpha  occ. eigenvalues --   -2.19628  -2.19573  -2.19211  -2.18980  -1.13620
 Alpha  occ. eigenvalues --   -1.13588  -1.13556  -1.13434  -1.13426  -1.13419
 Alpha  occ. eigenvalues --   -1.13410  -1.13407  -1.13386  -1.13377  -1.13283
 Alpha  occ. eigenvalues --   -1.13229  -1.13225  -1.13195  -1.13187  -1.12879
 Alpha  occ. eigenvalues --   -1.12842  -1.12826  -1.12651  -1.12640  -1.12629
 Alpha  occ. eigenvalues --   -0.18639  -0.13078  -0.12506  -0.10764
 Alpha virt. eigenvalues --   -0.05740  -0.05370  -0.04560  -0.03158  -0.02842
 Alpha virt. eigenvalues --   -0.02663  -0.01534  -0.01240  -0.00437  -0.00264
 Alpha virt. eigenvalues --   -0.00020   0.00342   0.00781   0.00833   0.00908

  Beta  occ. eigenvalues --  -38.44101 -38.43925 -38.43894 -38.43720 -38.43601
  Beta  occ. eigenvalues --  -38.43148 -38.43125  -2.19923  -2.19749  -2.19740
  Beta  occ. eigenvalues --   -2.19610  -2.19380  -2.19108  -2.18979  -1.13613
  Beta  occ. eigenvalues --   -1.13571  -1.13555  -1.13432  -1.13422  -1.13413
  Beta  occ. eigenvalues --   -1.13397  -1.13386  -1.13380  -1.13368  -1.13241
  Beta  occ. eigenvalues --   -1.13218  -1.13101  -1.13064  -1.13049  -1.12809
  Beta  occ. eigenvalues --   -1.12768  -1.12750  -1.12650  -1.12634  -1.12618
  Beta  occ. eigenvalues --   -0.17924  -0.12857  -0.12286
  Beta virt. eigenvalues --   -0.06798  -0.05738  -0.05325  -0.04512  -0.02387
  Beta virt. eigenvalues --   -0.02095  -0.01556  -0.01435  -0.01185  -0.00502
  Beta virt. eigenvalues --   -0.00292   0.00145   0.00382   0.00814   0.00873

 Mulliken charges and spin densities:
               1          2
     1  Na  -0.629914   0.760650
     2  Na   0.018772  -0.015576
     3  Na   0.255600  -0.046635
     4  Na  -0.003177  -0.014615
     5  Na  -0.361285   0.253559
     6  Na   0.611549   0.032336
     7  Na   0.108454   0.030281
 Sum of Mulliken charges =  -0.00000   1.00000

 Dipole moment (field-independent basis, Debye):
    X=              0.2271    Y=             -0.3029    Z=              0.1827  Tot=              0.4204
 Quadrupole moment (field-independent basis, Debye-Ang):
   XX=            -55.8953   YY=            -63.3493   ZZ=            -74.7079
   XY=             -0.2818   XZ=              0.3685   YZ=             -0.0242

 Normal termination of Gaussian 16 at Fri Dec  8 05:10:51 2023.
