 Gaussian 16, Revision B.01,
 Gaussian 16:  ES64L-G16RevB.01 20-Dec-2017

 -------------------------
 #P B3LYP/6-311+g(d) force
 -------------------------

 -----
 DPGEN
 -----
 Symbolic Z-matrix:
 Charge =  0 Multiplicity = 2

                         Standard orientation:
 ---------------------------------------------------------------------
 Center     Atomic      Atomic             Coordinates (Angstroms)
 Number     Number       Type             X           Y           Z
 ---------------------------------------------------------------------
      1         11           0        2.663866    1.236862   -0.244744
      2         11           0       -1.696594   -2.184498   -0.344161
      3         11           0        0.303849    0.025608    1.933122
      4         11           0        0.075805   -0.196057   -1.770344
      5         11           0       -2.977554    0.589796    0.319050
      6         11           0       -0.313565    2.774836   -0.157988
      7         11           0        1.944193   -2.246547    0.265065
 ---------------------------------------------------------------------

 SCF Done:  E(UB3LYP) =  -1136.13838490     A.U. after   19 cycles

 The electronic state is 2-A.
 Alpha  occ. eigenvalues --  -38.43714 -38.43692 -38.43552 -38.43462 -38.43400
 Alpha  occ. eigenvalues --  -38.43353 -38.43146  -2.19597  -2.19555  -2.19494
 Alpha  occ. eigenvalues --   -2.19358  -2.19329  -2.19311  -2.19025  -1.13295
 Alpha  occ. eigenvalues --   -1.13274  -1.13266  -1.13228  -1.13213  -1.13207
 Alpha  occ. eigenvalues --   -1.13175  -1.13145  -1.13136  -1.13111  -1.13020
 Alpha  occ. eigenvalues --   -1.13004  -1.12992  -1.12960  -1.12948  -1.12942
 Alpha  occ. eigenvalues --   -1.12915  -1.12901  -1.12701  -1.12689  -1.12656
 Alpha  occ. eigenvalues --   -0.19131  -0.13141  -0.12571  -0.11076
 Alpha virt. eigenvalues --   -0.05321  -0.05074  -0.04535  -0.03317  -0.03020
 Alpha virt. eigenvalues --   -0.02696  -0.01325  -0.01037  -0.00147  -0.00044
 Alpha virt. eigenvalues --    0.00041   0.00372   0.00858   0.00930   0.00953

  Beta  occ. eigenvalues --  -38.43706 -38.43688 -38.43467 -38.43454 -38.43390
  Beta  occ. eigenvalues --  -38.43275 -38.43141  -2.19586  -2.19550  -2.19338
  Beta  occ. eigenvalues --   -2.19318  -2.19299  -2.19214  -2.19020  -1.13283
  Beta  occ. eigenvalues --   -1.13264  -1.13242  -1.13218  -1.13204  -1.13187
  Beta  occ. eigenvalues --   -1.13103  -1.13075  -1.13034  -1.13006  -1.12980
  Beta  occ. eigenvalues --   -1.12958  -1.12940  -1.12933  -1.12912  -1.12904
  Beta  occ. eigenvalues --   -1.12858  -1.12833  -1.12696  -1.12669  -1.12646
  Beta  occ. eigenvalues --   -0.18386  -0.12883  -0.12295
  Beta virt. eigenvalues --   -0.07136  -0.05293  -0.05052  -0.04512  -0.02505
  Beta virt. eigenvalues --   -0.02217  -0.01626  -0.01238  -0.00967  -0.00153
  Beta virt. eigenvalues --   -0.00091   0.00126   0.00390   0.00911   0.00924

 Mulliken charges and spin densities:
               1          2
     1  Na   0.215354  -0.085369
     2  Na   0.308236  -0.019650
     3  Na  -0.474208   0.726782
     4  Na  -0.252508   0.519432
     5  Na  -0.041648  -0.022635
     6  Na   0.058500  -0.043308
     7  Na   0.186273  -0.075253
 Sum of Mulliken charges =  -0.00000   1.00000

 Dipole moment (field-independent basis, Debye):
    X=              0.1769    Y=              0.0076    Z=              0.1382  Tot=              0.2246
 Quadrupole moment (field-independent basis, Debye-Ang):
   XX=            -58.1557   YY=            -63.5090   ZZ=            -72.7179
   XY=             -0.5543   XZ=             -0.8000   YZ=             -0.3889

 Normal termination of Gaussian 16 at Thu Dec  7 11:43:43 2023.
