 Gaussian 16, Revision B.01,
 Gaussian 16:  ES64L-G16RevB.01 20-Dec-2017

 -------------------------
 #P B3LYP/6-311+g(d) force
 -------------------------

 -----
 DPGEN
 -----
 Symbolic Z-matrix:
 Charge =  0 Multiplicity = 2

                         Standard orientation:
 ---------------------------------------------------------------------
 Center     Atomic      Atomic             Coordinates (Angstroms)
 Number     Number       Type             X           Y           Z
 ---------------------------------------------------------------------
      1         11           0       -4.093146    2.282031   -0.298048
      2         11           0        2.547832    3.265626    0.699514
      3         11           0       -3.813308   -1.706107   -0.036928
      4         11           0       -1.229121   -3.168239    0.655835
      5         11           0        4.448402   -0.267775   -0.335523
      6         11           0       -0.474020    2.308967   -0.306208
      7         11           0        2.613360   -2.714503   -0.378642
 ---------------------------------------------------------------------

 SCF Done:  E(UB3LYP) =  -1136.10776329     A.U. after   19 cycles

 The electronic state is 2-A.
 Alpha  occ. eigenvalues --  -38.44940 -38.44912 -38.44604 -38.44482 -38.44342
 Alpha  occ. eigenvalues --  -38.44246 -38.44137  -2.20734  -2.20703  -2.20363
 Alpha  occ. eigenvalues --   -2.20271  -2.20142  -2.20043  -2.19948  -1.14437
 Alpha  occ. eigenvalues --   -1.14411  -1.14394  -1.14370  -1.14360  -1.14332
 Alpha  occ. eigenvalues --   -1.14058  -1.14047  -1.14007  -1.13918  -1.13903
 Alpha  occ. eigenvalues --   -1.13890  -1.13803  -1.13799  -1.13778  -1.13692
 Alpha  occ. eigenvalues --   -1.13681  -1.13670  -1.13608  -1.13597  -1.13580
 Alpha  occ. eigenvalues --   -0.15536  -0.13963  -0.13292  -0.11170
 Alpha virt. eigenvalues --   -0.07216  -0.04987  -0.04182  -0.03651  -0.03537
 Alpha virt. eigenvalues --   -0.02591  -0.02314  -0.01894  -0.01239  -0.00699
 Alpha virt. eigenvalues --   -0.00663  -0.00227  -0.00008   0.00467   0.00623

  Beta  occ. eigenvalues --  -38.44917 -38.44901 -38.44606 -38.44397 -38.44319
  Beta  occ. eigenvalues --  -38.44182 -38.44100  -2.20696  -2.20688  -2.20372
  Beta  occ. eigenvalues --   -2.20112  -2.20104  -2.19925  -2.19883  -1.14400
  Beta  occ. eigenvalues --   -1.14386  -1.14371  -1.14365  -1.14324  -1.14306
  Beta  occ. eigenvalues --   -1.14069  -1.14059  -1.13971  -1.13810  -1.13797
  Beta  occ. eigenvalues --   -1.13785  -1.13777  -1.13775  -1.13739  -1.13612
  Beta  occ. eigenvalues --   -1.13600  -1.13592  -1.13563  -1.13553  -1.13532
  Beta  occ. eigenvalues --   -0.15038  -0.13140  -0.12476
  Beta virt. eigenvalues --   -0.08082  -0.07395  -0.04474  -0.03839  -0.03432
  Beta virt. eigenvalues --   -0.03207  -0.02326  -0.02108  -0.01625  -0.01023
  Beta virt. eigenvalues --   -0.00341  -0.00327  -0.00102   0.00155   0.00508

 Mulliken charges and spin densities:
               1          2
     1  Na   0.554596   0.370738
     2  Na   0.527914   0.232921
     3  Na  -0.149513   0.055443
     4  Na   0.024712   0.111112
     5  Na   0.134036   0.103130
     6  Na  -1.105405   0.082200
     7  Na   0.013660   0.044457
 Sum of Mulliken charges =  -0.00000   1.00000

 Dipole moment (field-independent basis, Debye):
    X=              0.1479    Y=              0.1427    Z=              0.0479  Tot=              0.2110
 Quadrupole moment (field-independent basis, Debye-Ang):
   XX=            -53.9654   YY=            -70.4526   ZZ=            -73.7504
   XY=              3.4526   XZ=              1.6040   YZ=              0.7263

 Normal termination of Gaussian 16 at Sun Dec  3 12:54:37 2023.
