 Gaussian 16, Revision B.01,
 Gaussian 16:  ES64L-G16RevB.01 20-Dec-2017

 -------------------------
 #P B3LYP/6-311+g(d) force
 -------------------------

 -----
 DPGEN
 -----
 Symbolic Z-matrix:
 Charge =  0 Multiplicity = 2

                         Standard orientation:
 ---------------------------------------------------------------------
 Center     Atomic      Atomic             Coordinates (Angstroms)
 Number     Number       Type             X           Y           Z
 ---------------------------------------------------------------------
      1         11           0        2.091533   -0.875980    2.035317
      2         11           0       -2.871385    1.297158    0.421017
      3         11           0       -0.736999   -2.155317    0.741133
      4         11           0       -2.552954   -0.917546   -1.398830
      5         11           0        0.090920    1.814625    1.305880
      6         11           0        2.046752   -1.364838   -1.686922
      7         11           0        1.932133    2.201898   -1.417595
 ---------------------------------------------------------------------

 SCF Done:  E(UB3LYP) =  -1136.12100111     A.U. after   21 cycles

 The electronic state is 2-A.
 Alpha  occ. eigenvalues --  -38.44603 -38.44429 -38.44294 -38.44170 -38.44013
 Alpha  occ. eigenvalues --  -38.43537 -38.43019  -2.20396  -2.20271  -2.20095
 Alpha  occ. eigenvalues --   -2.20067  -2.19895  -2.19408  -2.18905  -1.14070
 Alpha  occ. eigenvalues --   -1.14045  -1.14019  -1.13952  -1.13902  -1.13887
 Alpha  occ. eigenvalues --   -1.13876  -1.13757  -1.13750  -1.13742  -1.13729
 Alpha  occ. eigenvalues --   -1.13687  -1.13570  -1.13520  -1.13468  -1.13095
 Alpha  occ. eigenvalues --   -1.13081  -1.13022  -1.12574  -1.12559  -1.12555
 Alpha  occ. eigenvalues --   -0.17932  -0.13479  -0.11922  -0.11767
 Alpha virt. eigenvalues --   -0.05688  -0.05333  -0.04443  -0.03585  -0.03514
 Alpha virt. eigenvalues --   -0.03070  -0.01261  -0.00770  -0.00625  -0.00058
 Alpha virt. eigenvalues --    0.00175   0.00318   0.00405   0.00455   0.00834

  Beta  occ. eigenvalues --  -38.44556 -38.44368 -38.44253 -38.44155 -38.44012
  Beta  occ. eigenvalues --  -38.43526 -38.42995  -2.20309  -2.20161  -2.20038
  Beta  occ. eigenvalues --   -2.20019  -2.19893  -2.19390  -2.18864  -1.14006
  Beta  occ. eigenvalues --   -1.13990  -1.13948  -1.13864  -1.13861  -1.13828
  Beta  occ. eigenvalues --   -1.13813  -1.13732  -1.13707  -1.13692  -1.13668
  Beta  occ. eigenvalues --   -1.13666  -1.13563  -1.13518  -1.13463  -1.13078
  Beta  occ. eigenvalues --   -1.13045  -1.13017  -1.12549  -1.12534  -1.12506
  Beta  occ. eigenvalues --   -0.17286  -0.13108  -0.11696
  Beta virt. eigenvalues --   -0.08017  -0.05557  -0.04962  -0.03937  -0.03336
  Beta virt. eigenvalues --   -0.03120  -0.02232  -0.01147  -0.00586  -0.00354
  Beta virt. eigenvalues --    0.00082   0.00330   0.00366   0.00483   0.00530

 Mulliken charges and spin densities:
               1          2
     1  Na   0.296016  -0.022419
     2  Na  -0.324415  -0.256152
     3  Na  -0.354737   0.209208
     4  Na   0.587984   0.191588
     5  Na   0.245963   0.476406
     6  Na  -0.403898   0.360483
     7  Na  -0.046912   0.040886
 Sum of Mulliken charges =  -0.00000   1.00000

 Dipole moment (field-independent basis, Debye):
    X=              0.3542    Y=             -0.2678    Z=             -0.4565  Tot=              0.6368
 Quadrupole moment (field-independent basis, Debye-Ang):
   XX=            -61.6873   YY=            -72.7649   ZZ=            -63.7470
   XY=             -1.3158   XZ=              0.8551   YZ=             -0.9324

 Normal termination of Gaussian 16 at Sun Dec  3 21:46:16 2023.
