 Gaussian 16, Revision B.01,
 Gaussian 16:  ES64L-G16RevB.01 20-Dec-2017

 -------------------------
 #P B3LYP/6-311+g(d) force
 -------------------------

 -----
 DPGEN
 -----
 Symbolic Z-matrix:
 Charge =  0 Multiplicity = 2

                         Standard orientation:
 ---------------------------------------------------------------------
 Center     Atomic      Atomic             Coordinates (Angstroms)
 Number     Number       Type             X           Y           Z
 ---------------------------------------------------------------------
      1         11           0        3.011170   -1.907232    0.209377
      2         11           0       -1.626946    2.210088   -0.628402
      3         11           0       -0.210934   -1.028606   -1.767171
      4         11           0       -3.237032   -1.309328   -0.349583
      5         11           0       -1.381812   -0.444651    2.166912
      6         11           0        1.977182    1.233848   -1.384768
      7         11           0        1.468373    1.245881    1.753636
 ---------------------------------------------------------------------

 SCF Done:  E(UB3LYP) =  -1136.12521435     A.U. after   25 cycles

 The electronic state is 2-A.
 Alpha  occ. eigenvalues --  -38.45185 -38.44927 -38.44270 -38.43793 -38.43722
 Alpha  occ. eigenvalues --  -38.42879 -38.42671  -2.20985  -2.20704  -2.20162
 Alpha  occ. eigenvalues --   -2.19634  -2.19574  -2.18744  -2.18531  -1.14658
 Alpha  occ. eigenvalues --   -1.14618  -1.14607  -1.14372  -1.14347  -1.14321
 Alpha  occ. eigenvalues --   -1.13866  -1.13834  -1.13761  -1.13345  -1.13288
 Alpha  occ. eigenvalues --   -1.13276  -1.13247  -1.13210  -1.13183  -1.12456
 Alpha  occ. eigenvalues --   -1.12422  -1.12352  -1.12223  -1.12212  -1.12148
 Alpha  occ. eigenvalues --   -0.18148  -0.13501  -0.11930  -0.11062
 Alpha virt. eigenvalues --   -0.05970  -0.05458  -0.04632  -0.03325  -0.03033
 Alpha virt. eigenvalues --   -0.02758  -0.01701  -0.01216  -0.00410  -0.00064
 Alpha virt. eigenvalues --    0.00233   0.00334   0.00392   0.00479   0.00634

  Beta  occ. eigenvalues --  -38.45125 -38.44883 -38.44241 -38.43783 -38.43682
  Beta  occ. eigenvalues --  -38.42871 -38.42666  -2.20877  -2.20621  -2.20112
  Beta  occ. eigenvalues --   -2.19617  -2.19501  -2.18734  -2.18525  -1.14577
  Beta  occ. eigenvalues --   -1.14539  -1.14533  -1.14312  -1.14286  -1.14269
  Beta  occ. eigenvalues --   -1.13830  -1.13804  -1.13702  -1.13318  -1.13277
  Beta  occ. eigenvalues --   -1.13263  -1.13198  -1.13160  -1.13136  -1.12438
  Beta  occ. eigenvalues --   -1.12402  -1.12349  -1.12214  -1.12201  -1.12137
  Beta  occ. eigenvalues --   -0.17397  -0.13234  -0.10893
  Beta virt. eigenvalues --   -0.08142  -0.05396  -0.05229  -0.04351  -0.03039
  Beta virt. eigenvalues --   -0.02434  -0.02172  -0.01544  -0.00869  -0.00275
  Beta virt. eigenvalues --    0.00118   0.00335   0.00388   0.00465   0.00543

 Mulliken charges and spin densities:
               1          2
     1  Na   0.079516   0.086388
     2  Na  -0.063156   0.215926
     3  Na  -0.619315   0.188878
     4  Na   0.356330  -0.133963
     5  Na  -0.173338   0.266746
     6  Na   0.651390   0.254108
     7  Na  -0.231427   0.121916
 Sum of Mulliken charges =  -0.00000   1.00000

 Dipole moment (field-independent basis, Debye):
    X=             -0.0776    Y=              0.0344    Z=             -0.0604  Tot=              0.1042
 Quadrupole moment (field-independent basis, Debye-Ang):
   XX=            -55.6835   YY=            -65.2348   ZZ=            -74.5689
   XY=             -2.7664   XZ=              1.3618   YZ=             -8.5832

 Normal termination of Gaussian 16 at Thu Dec  7 06:35:07 2023.
