 Gaussian 16, Revision B.01,
 Gaussian 16:  ES64L-G16RevB.01 20-Dec-2017

 -------------------------
 #P B3LYP/6-311+g(d) force
 -------------------------

 -----
 DPGEN
 -----
 Symbolic Z-matrix:
 Charge =  0 Multiplicity = 2

                         Standard orientation:
 ---------------------------------------------------------------------
 Center     Atomic      Atomic             Coordinates (Angstroms)
 Number     Number       Type             X           Y           Z
 ---------------------------------------------------------------------
      1         11           0        1.281019    1.099082    1.680787
      2         11           0       -0.271405   -1.108679   -0.898217
      3         11           0       -2.684784   -0.510239    1.668801
      4         11           0        2.607363    0.738151   -1.506521
      5         11           0       -2.836663   -0.655804   -1.391903
      6         11           0       -0.823527    2.268637   -0.237531
      7         11           0        2.727996   -1.831149    0.684584
 ---------------------------------------------------------------------

 SCF Done:  E(UB3LYP) =  -1136.11716843     A.U. after   23 cycles

 The electronic state is 2-A.
 Alpha  occ. eigenvalues --  -38.45025 -38.44976 -38.44305 -38.43573 -38.43469
 Alpha  occ. eigenvalues --  -38.43185 -38.42443  -2.20873  -2.20822  -2.20270
 Alpha  occ. eigenvalues --   -2.19493  -2.19430  -2.19098  -2.18336  -1.14558
 Alpha  occ. eigenvalues --   -1.14533  -1.14505  -1.14482  -1.14475  -1.14432
 Alpha  occ. eigenvalues --   -1.14192  -1.13873  -1.13844  -1.13165  -1.13115
 Alpha  occ. eigenvalues --   -1.13104  -1.13092  -1.13076  -1.13050  -1.12798
 Alpha  occ. eigenvalues --   -1.12753  -1.12725  -1.12031  -1.11996  -1.11953
 Alpha  occ. eigenvalues --   -0.18778  -0.14324  -0.11215  -0.11024
 Alpha virt. eigenvalues --   -0.06212  -0.05486  -0.04674  -0.03114  -0.02665
 Alpha virt. eigenvalues --   -0.02422  -0.02001  -0.01036  -0.00464  -0.00091
 Alpha virt. eigenvalues --    0.00269   0.00313   0.00459   0.00647   0.00685

  Beta  occ. eigenvalues --  -38.44982 -38.44948 -38.44289 -38.43550 -38.43437
  Beta  occ. eigenvalues --  -38.43160 -38.42431  -2.20792  -2.20769  -2.20242
  Beta  occ. eigenvalues --   -2.19442  -2.19387  -2.19054  -2.18317  -1.14506
  Beta  occ. eigenvalues --   -1.14475  -1.14459  -1.14442  -1.14425  -1.14393
  Beta  occ. eigenvalues --   -1.14165  -1.13842  -1.13822  -1.13106  -1.13085
  Beta  occ. eigenvalues --   -1.13057  -1.13049  -1.13044  -1.13023  -1.12772
  Beta  occ. eigenvalues --   -1.12704  -1.12695  -1.12022  -1.11968  -1.11930
  Beta  occ. eigenvalues --   -0.18061  -0.14097  -0.10868
  Beta virt. eigenvalues --   -0.07513  -0.05825  -0.04816  -0.04567  -0.02954
  Beta virt. eigenvalues --   -0.02094  -0.01909  -0.01717  -0.00554  -0.00412
  Beta virt. eigenvalues --    0.00109   0.00313   0.00432   0.00625   0.00705

 Mulliken charges and spin densities:
               1          2
     1  Na   0.044856   0.451536
     2  Na  -0.960868   0.818586
     3  Na  -0.274148   0.091356
     4  Na   0.207665  -0.181143
     5  Na   0.959285  -0.353462
     6  Na  -0.232263   0.149387
     7  Na   0.255473   0.023739
 Sum of Mulliken charges =  -0.00000   1.00000

 Dipole moment (field-independent basis, Debye):
    X=             -0.0315    Y=              0.1749    Z=              0.1366  Tot=              0.2242
 Quadrupole moment (field-independent basis, Debye-Ang):
   XX=            -52.5725   YY=            -76.8922   ZZ=            -64.9715
   XY=              0.4667   XZ=             -2.4772   YZ=             -6.1756

 Normal termination of Gaussian 16 at Thu Dec  7 02:36:45 2023.
