 Gaussian 16, Revision B.01,
 Gaussian 16:  ES64L-G16RevB.01 20-Dec-2017

 -------------------------
 #P B3LYP/6-311+g(d) force
 -------------------------

 -----
 DPGEN
 -----
 Symbolic Z-matrix:
 Charge =  0 Multiplicity = 2

                         Standard orientation:
 ---------------------------------------------------------------------
 Center     Atomic      Atomic             Coordinates (Angstroms)
 Number     Number       Type             X           Y           Z
 ---------------------------------------------------------------------
      1         11           0       -2.148886    1.871170   -1.143336
      2         11           0        0.879562   -1.314440    1.239134
      3         11           0        0.387484   -0.661018   -1.611640
      4         11           0        1.409213    2.446197    0.337830
      5         11           0       -2.642508   -2.056730   -0.303790
      6         11           0       -1.433427    0.489155    1.898723
      7         11           0        3.548561   -0.774335   -0.416921
 ---------------------------------------------------------------------

 SCF Done:  E(UB3LYP) =  -1136.12841766     A.U. after   20 cycles

 The electronic state is 2-A.
 Alpha  occ. eigenvalues --  -38.44221 -38.43849 -38.43817 -38.43749 -38.43713
 Alpha  occ. eigenvalues --  -38.43492 -38.43487  -2.20059  -2.19763  -2.19676
 Alpha  occ. eigenvalues --   -2.19667  -2.19513  -2.19486  -2.19274  -1.13747
 Alpha  occ. eigenvalues --   -1.13726  -1.13688  -1.13559  -1.13469  -1.13396
 Alpha  occ. eigenvalues --   -1.13363  -1.13358  -1.13331  -1.13282  -1.13279
 Alpha  occ. eigenvalues --   -1.13256  -1.13186  -1.13166  -1.13151  -1.13150
 Alpha  occ. eigenvalues --   -1.13114  -1.13048  -1.12958  -1.12948  -1.12896
 Alpha  occ. eigenvalues --   -0.18613  -0.13344  -0.11492  -0.11421
 Alpha virt. eigenvalues --   -0.05860  -0.05324  -0.04122  -0.03269  -0.02869
 Alpha virt. eigenvalues --   -0.02751  -0.01899  -0.01108  -0.00523   0.00033
 Alpha virt. eigenvalues --    0.00291   0.00312   0.00536   0.00689   0.00839

  Beta  occ. eigenvalues --  -38.44218 -38.43820 -38.43767 -38.43711 -38.43678
  Beta  occ. eigenvalues --  -38.43485 -38.43446  -2.20055  -2.19672  -2.19613
  Beta  occ. eigenvalues --   -2.19549  -2.19510  -2.19405  -2.19272  -1.13742
  Beta  occ. eigenvalues --   -1.13714  -1.13687  -1.13498  -1.13367  -1.13331
  Beta  occ. eigenvalues --   -1.13312  -1.13299  -1.13278  -1.13240  -1.13206
  Beta  occ. eigenvalues --   -1.13181  -1.13169  -1.13155  -1.13141  -1.13099
  Beta  occ. eigenvalues --   -1.13019  -1.12996  -1.12948  -1.12938  -1.12898
  Beta  occ. eigenvalues --   -0.17844  -0.13144  -0.11289
  Beta virt. eigenvalues --   -0.07384  -0.05725  -0.05288  -0.03639  -0.03065
  Beta virt. eigenvalues --   -0.02143  -0.01842  -0.01761  -0.01028  -0.00230
  Beta virt. eigenvalues --    0.00066   0.00314   0.00320   0.00675   0.00743

 Mulliken charges and spin densities:
               1          2
     1  Na  -0.086410   0.071150
     2  Na  -0.040109   0.170450
     3  Na  -0.237156   0.595162
     4  Na  -0.388803  -0.068430
     5  Na  -0.000480  -0.061910
     6  Na   0.344385   0.299022
     7  Na   0.408574  -0.005443
 Sum of Mulliken charges =  -0.00000   1.00000

 Dipole moment (field-independent basis, Debye):
    X=              0.2886    Y=              0.0175    Z=             -0.2892  Tot=              0.4089
 Quadrupole moment (field-independent basis, Debye-Ang):
   XX=            -51.6649   YY=            -71.7572   ZZ=            -69.3218
   XY=              0.7759   XZ=              0.3838   YZ=             -0.0103

 Normal termination of Gaussian 16 at Fri Dec  8 06:08:10 2023.
