 Gaussian 16, Revision B.01,
 Gaussian 16:  ES64L-G16RevB.01 20-Dec-2017

 -------------------------
 #P B3LYP/6-311+g(d) force
 -------------------------

 -----
 DPGEN
 -----
 Symbolic Z-matrix:
 Charge =  0 Multiplicity = 2

                         Standard orientation:
 ---------------------------------------------------------------------
 Center     Atomic      Atomic             Coordinates (Angstroms)
 Number     Number       Type             X           Y           Z
 ---------------------------------------------------------------------
      1         11           0        6.184569    0.338477    1.620468
      2         11           0       -9.256894   -0.102001    1.319190
      3         11           0       -2.644084   -1.111171   -0.734466
      4         11           0       -6.585617   -0.115027   -0.662383
      5         11           0        0.794825    0.800335   -0.829087
      6         11           0        3.565628    2.027734   -0.505619
      7         11           0        7.941573   -1.838347   -0.208103
 ---------------------------------------------------------------------

 SCF Done:  E(UB3LYP) =  -1136.10194801     A.U. after   20 cycles

 The electronic state is 2-A.
 Alpha  occ. eigenvalues --  -38.45192 -38.45036 -38.44807 -38.44642 -38.44421
 Alpha  occ. eigenvalues --  -38.44244 -38.44019  -2.20962  -2.20803  -2.20586
 Alpha  occ. eigenvalues --   -2.20402  -2.20248  -2.19991  -2.19801  -1.14610
 Alpha  occ. eigenvalues --   -1.14604  -1.14562  -1.14458  -1.14456  -1.14432
 Alpha  occ. eigenvalues --   -1.14233  -1.14233  -1.14213  -1.14082  -1.14069
 Alpha  occ. eigenvalues --   -1.14045  -1.13940  -1.13893  -1.13872  -1.13677
 Alpha  occ. eigenvalues --   -1.13672  -1.13634  -1.13475  -1.13472  -1.13454
 Alpha  occ. eigenvalues --   -0.14914  -0.14010  -0.12832  -0.11633
 Alpha virt. eigenvalues --   -0.07052  -0.05774  -0.04169  -0.03235  -0.03094
 Alpha virt. eigenvalues --   -0.02687  -0.02372  -0.02243  -0.01717  -0.01307
 Alpha virt. eigenvalues --   -0.01130  -0.00567  -0.00408   0.00021   0.00458

  Beta  occ. eigenvalues --  -38.45086 -38.44994 -38.44746 -38.44656 -38.44369
  Beta  occ. eigenvalues --  -38.44261 -38.44036  -2.20763  -2.20725  -2.20473
  Beta  occ. eigenvalues --   -2.20431  -2.20151  -2.20029  -2.19838  -1.14475
  Beta  occ. eigenvalues --   -1.14469  -1.14432  -1.14405  -1.14402  -1.14382
  Beta  occ. eigenvalues --   -1.14156  -1.14155  -1.14139  -1.14104  -1.14089
  Beta  occ. eigenvalues --   -1.14047  -1.13882  -1.13826  -1.13809  -1.13707
  Beta  occ. eigenvalues --   -1.13702  -1.13626  -1.13505  -1.13503  -1.13435
  Beta  occ. eigenvalues --   -0.14449  -0.13257  -0.12259
  Beta virt. eigenvalues --   -0.08540  -0.06691  -0.05383  -0.03824  -0.03105
  Beta virt. eigenvalues --   -0.02878  -0.02489  -0.02162  -0.01955  -0.01389
  Beta virt. eigenvalues --   -0.00990  -0.00819  -0.00264  -0.00216   0.00143

 Mulliken charges and spin densities:
               1          2
     1  Na  -0.230704  -0.054032
     2  Na   0.174534   0.282702
     3  Na   0.113355   0.395581
     4  Na  -0.288141  -0.104371
     5  Na   0.433155   0.066991
     6  Na  -0.419687   0.216920
     7  Na   0.217488   0.196210
 Sum of Mulliken charges =  -0.00000   1.00000

 Dipole moment (field-independent basis, Debye):
    X=              0.8961    Y=             -0.5309    Z=              0.3058  Tot=              1.0855
 Quadrupole moment (field-independent basis, Debye-Ang):
   XX=            -47.4289   YY=            -68.9592   ZZ=            -68.2002
   XY=             -2.8660   XZ=             -9.0075   YZ=              2.9292

 Normal termination of Gaussian 16 at Mon Dec  4 02:14:48 2023.
