 Gaussian 16, Revision B.01,
 Gaussian 16:  ES64L-G16RevB.01 20-Dec-2017

 -------------------------
 #P B3LYP/6-311+g(d) force
 -------------------------

 -----
 DPGEN
 -----
 Symbolic Z-matrix:
 Charge =  0 Multiplicity = 2

                         Standard orientation:
 ---------------------------------------------------------------------
 Center     Atomic      Atomic             Coordinates (Angstroms)
 Number     Number       Type             X           Y           Z
 ---------------------------------------------------------------------
      1         11           0        0.192395   -3.057248    0.187271
      2         11           0       -0.051133    0.049223    2.128307
      3         11           0       -0.031092    0.095833   -1.565175
      4         11           0        3.083616   -0.999572   -0.289015
      5         11           0       -1.962305    2.263301    0.073246
      6         11           0       -2.965206   -1.119254   -0.422646
      7         11           0        1.733726    2.767717   -0.111987
 ---------------------------------------------------------------------

 SCF Done:  E(UB3LYP) =  -1136.13843336     A.U. after   19 cycles

 The electronic state is 2-A.
 Alpha  occ. eigenvalues --  -38.43995 -38.43926 -38.43766 -38.43709 -38.43664
 Alpha  occ. eigenvalues --  -38.43663 -38.43148  -2.19786  -2.19715  -2.19610
 Alpha  occ. eigenvalues --   -2.19525  -2.19522  -2.19487  -2.19103  -1.13468
 Alpha  occ. eigenvalues --   -1.13445  -1.13424  -1.13395  -1.13374  -1.13355
 Alpha  occ. eigenvalues --   -1.13302  -1.13287  -1.13233  -1.13207  -1.13198
 Alpha  occ. eigenvalues --   -1.13178  -1.13171  -1.13160  -1.13146  -1.13135
 Alpha  occ. eigenvalues --   -1.13133  -1.13120  -1.12795  -1.12738  -1.12725
 Alpha  occ. eigenvalues --   -0.18241  -0.12711  -0.12478  -0.10598
 Alpha virt. eigenvalues --   -0.05576  -0.05239  -0.05099  -0.03032  -0.02855
 Alpha virt. eigenvalues --   -0.02537  -0.01465  -0.01370  -0.00605  -0.00561
 Alpha virt. eigenvalues --   -0.00019   0.00342   0.00792   0.00816   0.00849

  Beta  occ. eigenvalues --  -38.43991 -38.43925 -38.43760 -38.43705 -38.43655
  Beta  occ. eigenvalues --  -38.43561 -38.43093  -2.19781  -2.19716  -2.19603
  Beta  occ. eigenvalues --   -2.19519  -2.19473  -2.19334  -2.19004  -1.13454
  Beta  occ. eigenvalues --   -1.13439  -1.13422  -1.13385  -1.13373  -1.13354
  Beta  occ. eigenvalues --   -1.13297  -1.13257  -1.13229  -1.13195  -1.13173
  Beta  occ. eigenvalues --   -1.13163  -1.13147  -1.13122  -1.13112  -1.13058
  Beta  occ. eigenvalues --   -1.13016  -1.13000  -1.12724  -1.12669  -1.12650
  Beta  occ. eigenvalues --   -0.17531  -0.12496  -0.12256
  Beta virt. eigenvalues --   -0.06693  -0.05590  -0.05208  -0.04991  -0.02261
  Beta virt. eigenvalues --   -0.02157  -0.01483  -0.01357  -0.01298  -0.00642
  Beta virt. eigenvalues --   -0.00610   0.00130   0.00377   0.00807   0.00841

 Mulliken charges and spin densities:
               1          2
     1  Na   0.097844  -0.003859
     2  Na  -0.385991   0.756882
     3  Na  -0.128861   0.412057
     4  Na   0.010860  -0.075463
     5  Na   0.239141  -0.003073
     6  Na   0.151728   0.006497
     7  Na   0.015280  -0.093042
 Sum of Mulliken charges =  -0.00000   1.00000

 Dipole moment (field-independent basis, Debye):
    X=              0.1230    Y=              0.0827    Z=              0.1064  Tot=              0.1824
 Quadrupole moment (field-independent basis, Debye-Ang):
   XX=            -58.0565   YY=            -59.2109   ZZ=            -75.4865
   XY=              0.4579   XZ=              0.0623   YZ=              0.1619

 Normal termination of Gaussian 16 at Thu Dec  7 13:50:27 2023.
