 Gaussian 16, Revision B.01,
 Gaussian 16:  ES64L-G16RevB.01 20-Dec-2017

 -------------------------
 #P B3LYP/6-311+g(d) force
 -------------------------

 -----
 DPGEN
 -----
 Symbolic Z-matrix:
 Charge =  0 Multiplicity = 2

                         Standard orientation:
 ---------------------------------------------------------------------
 Center     Atomic      Atomic             Coordinates (Angstroms)
 Number     Number       Type             X           Y           Z
 ---------------------------------------------------------------------
      1         11           0       -0.010976    0.760084   -1.799516
      2         11           0        0.734298    2.338220    0.981871
      3         11           0        3.423114    0.134053   -0.246024
      4         11           0       -2.810856    1.600132   -0.340246
      5         11           0       -0.105600   -0.852236    2.120950
      6         11           0        1.312757   -2.043960   -0.636549
      7         11           0       -2.542737   -1.936293   -0.080486
 ---------------------------------------------------------------------

 SCF Done:  E(UB3LYP) =  -1136.13180603     A.U. after   20 cycles

 The electronic state is 2-A.
 Alpha  occ. eigenvalues --  -38.44560 -38.43968 -38.43906 -38.43784 -38.43687
 Alpha  occ. eigenvalues --  -38.43290 -38.43214  -2.20391  -2.19787  -2.19782
 Alpha  occ. eigenvalues --   -2.19703  -2.19492  -2.19149  -2.19129  -1.14094
 Alpha  occ. eigenvalues --   -1.14042  -1.14020  -1.13494  -1.13455  -1.13441
 Alpha  occ. eigenvalues --   -1.13425  -1.13422  -1.13401  -1.13388  -1.13355
 Alpha  occ. eigenvalues --   -1.13303  -1.13171  -1.13147  -1.13132  -1.12833
 Alpha  occ. eigenvalues --   -1.12814  -1.12808  -1.12797  -1.12759  -1.12744
 Alpha  occ. eigenvalues --   -0.18490  -0.13230  -0.11851  -0.11390
 Alpha virt. eigenvalues --   -0.06087  -0.05131  -0.03810  -0.03476  -0.03265
 Alpha virt. eigenvalues --   -0.02887  -0.01893  -0.01016  -0.00235  -0.00045
 Alpha virt. eigenvalues --    0.00054   0.00323   0.00713   0.00775   0.00888

  Beta  occ. eigenvalues --  -38.44558 -38.43962 -38.43821 -38.43733 -38.43688
  Beta  occ. eigenvalues --  -38.43254 -38.43195  -2.20390  -2.19777  -2.19628
  Beta  occ. eigenvalues --   -2.19608  -2.19495  -2.19098  -2.19085  -1.14092
  Beta  occ. eigenvalues --   -1.14029  -1.14019  -1.13474  -1.13432  -1.13415
  Beta  occ. eigenvalues --   -1.13355  -1.13328  -1.13317  -1.13286  -1.13284
  Beta  occ. eigenvalues --   -1.13236  -1.13163  -1.13147  -1.13129  -1.12794
  Beta  occ. eigenvalues --   -1.12790  -1.12764  -1.12746  -1.12716  -1.12710
  Beta  occ. eigenvalues --   -0.17735  -0.12998  -0.11661
  Beta virt. eigenvalues --   -0.07417  -0.05970  -0.05105  -0.03638  -0.02789
  Beta virt. eigenvalues --   -0.02638  -0.01833  -0.01799  -0.00978  -0.00094
  Beta virt. eigenvalues --    0.00023   0.00051   0.00351   0.00810   0.00867

 Mulliken charges and spin densities:
               1          2
     1  Na  -0.281496   0.365962
     2  Na   0.032771   0.238094
     3  Na   0.198206  -0.109856
     4  Na   0.179712  -0.024673
     5  Na  -0.396113   0.452655
     6  Na   0.196612   0.142331
     7  Na   0.070308  -0.064513
 Sum of Mulliken charges =  -0.00000   1.00000

 Dipole moment (field-independent basis, Debye):
    X=              0.1205    Y=              0.1407    Z=              0.0343  Tot=              0.1884
 Quadrupole moment (field-independent basis, Debye-Ang):
   XX=            -53.4901   YY=            -70.9753   ZZ=            -70.2873
   XY=              0.7861   XZ=              0.3733   YZ=              2.1349

 Normal termination of Gaussian 16 at Tue Dec  5 12:18:55 2023.
