 Gaussian 16, Revision B.01,
 Gaussian 16:  ES64L-G16RevB.01 20-Dec-2017

 -------------------------
 #P B3LYP/6-311+g(d) force
 -------------------------

 -----
 DPGEN
 -----
 Symbolic Z-matrix:
 Charge =  0 Multiplicity = 2

                         Standard orientation:
 ---------------------------------------------------------------------
 Center     Atomic      Atomic             Coordinates (Angstroms)
 Number     Number       Type             X           Y           Z
 ---------------------------------------------------------------------
      1         11           0        0.450985    0.158783   -1.965104
      2         11           0       -1.094753   -2.562296   -0.147003
      3         11           0       -3.242232   -0.006293   -0.610987
      4         11           0       -1.024101   -0.081820    2.382641
      5         11           0       -0.841260    2.912559   -0.045764
      6         11           0        2.688199   -2.023441    0.099053
      7         11           0        3.063163    1.602509    0.287164
 ---------------------------------------------------------------------

 SCF Done:  E(UB3LYP) =  -1136.13043100     A.U. after   19 cycles

 The electronic state is 2-A.
 Alpha  occ. eigenvalues --  -38.44531 -38.44500 -38.44329 -38.44147 -38.43996
 Alpha  occ. eigenvalues --  -38.43437 -38.43178  -2.20306  -2.20286  -2.20145
 Alpha  occ. eigenvalues --   -2.19989  -2.19766  -2.19219  -2.19017  -1.13977
 Alpha  occ. eigenvalues --   -1.13968  -1.13967  -1.13948  -1.13940  -1.13923
 Alpha  occ. eigenvalues --   -1.13793  -1.13771  -1.13768  -1.13672  -1.13626
 Alpha  occ. eigenvalues --   -1.13611  -1.13446  -1.13423  -1.13407  -1.12897
 Alpha  occ. eigenvalues --   -1.12891  -1.12854  -1.12698  -1.12691  -1.12649
 Alpha  occ. eigenvalues --   -0.17607  -0.12975  -0.11842  -0.10948
 Alpha virt. eigenvalues --   -0.06101  -0.05522  -0.04615  -0.03462  -0.02929
 Alpha virt. eigenvalues --   -0.02918  -0.01696  -0.01124  -0.00678  -0.00435
 Alpha virt. eigenvalues --   -0.00160   0.00338   0.00506   0.00625   0.00814

  Beta  occ. eigenvalues --  -38.44529 -38.44492 -38.44231 -38.44087 -38.43997
  Beta  occ. eigenvalues --  -38.43435 -38.43170  -2.20294  -2.20284  -2.19962
  Beta  occ. eigenvalues --   -2.19878  -2.19769  -2.19217  -2.19008  -1.13967
  Beta  occ. eigenvalues --   -1.13959  -1.13944  -1.13940  -1.13939  -1.13923
  Beta  occ. eigenvalues --   -1.13670  -1.13646  -1.13638  -1.13601  -1.13547
  Beta  occ. eigenvalues --   -1.13526  -1.13439  -1.13425  -1.13411  -1.12893
  Beta  occ. eigenvalues --   -1.12873  -1.12856  -1.12696  -1.12654  -1.12647
  Beta  occ. eigenvalues --   -0.16886  -0.12818  -0.11676
  Beta virt. eigenvalues --   -0.07101  -0.05950  -0.05481  -0.04369  -0.02891
  Beta virt. eigenvalues --   -0.02211  -0.01982  -0.01578  -0.01083  -0.00715
  Beta virt. eigenvalues --   -0.00451   0.00049   0.00418   0.00750   0.00768

 Mulliken charges and spin densities:
               1          2
     1  Na   0.176867   0.444375
     2  Na   0.012980   0.032662
     3  Na   0.375790   0.045896
     4  Na  -0.427065   0.647978
     5  Na  -0.104621  -0.063776
     6  Na  -0.014867  -0.066476
     7  Na  -0.019084  -0.040658
 Sum of Mulliken charges =  -0.00000   1.00000

 Dipole moment (field-independent basis, Debye):
    X=              0.1167    Y=              0.1472    Z=              0.0477  Tot=              0.1939
 Quadrupole moment (field-independent basis, Debye-Ang):
   XX=            -56.4391   YY=            -67.8022   ZZ=            -71.4885
   XY=              0.0485   XZ=              2.9474   YZ=              0.5749

 Normal termination of Gaussian 16 at Sun Dec  3 16:13:09 2023.
