 Gaussian 16, Revision B.01,
 Gaussian 16:  ES64L-G16RevB.01 20-Dec-2017

 -------------------------
 #P B3LYP/6-311+g(d) force
 -------------------------

 -----
 DPGEN
 -----
 Symbolic Z-matrix:
 Charge =  0 Multiplicity = 2

                         Standard orientation:
 ---------------------------------------------------------------------
 Center     Atomic      Atomic             Coordinates (Angstroms)
 Number     Number       Type             X           Y           Z
 ---------------------------------------------------------------------
      1         11           0       -3.316165   -1.057507    0.705205
      2         11           0        3.553839   -1.081303    0.395999
      3         11           0       -0.381115   -1.934203   -1.308681
      4         11           0       -0.037056   -0.470715    2.053845
      5         11           0       -0.153433    2.536182    1.004420
      6         11           0        1.815931    0.893176   -1.080117
      7         11           0       -1.482002    1.114370   -1.770672
 ---------------------------------------------------------------------

 SCF Done:  E(UB3LYP) =  -1136.12662606     A.U. after   22 cycles

 The electronic state is 2-A.
 Alpha  occ. eigenvalues --  -38.44662 -38.44336 -38.44089 -38.43891 -38.43778
 Alpha  occ. eigenvalues --  -38.43227 -38.42731  -2.20538  -2.20123  -2.19939
 Alpha  occ. eigenvalues --   -2.19703  -2.19682  -2.19183  -2.18622  -1.14218
 Alpha  occ. eigenvalues --   -1.14186  -1.14142  -1.13795  -1.13782  -1.13755
 Alpha  occ. eigenvalues --   -1.13660  -1.13600  -1.13529  -1.13438  -1.13382
 Alpha  occ. eigenvalues --   -1.13349  -1.13328  -1.13320  -1.13282  -1.12874
 Alpha  occ. eigenvalues --   -1.12848  -1.12792  -1.12317  -1.12259  -1.12246
 Alpha  occ. eigenvalues --   -0.18613  -0.12988  -0.12242  -0.11473
 Alpha virt. eigenvalues --   -0.06213  -0.04650  -0.03963  -0.03518  -0.03421
 Alpha virt. eigenvalues --   -0.02996  -0.01908  -0.00960  -0.00462   0.00172
 Alpha virt. eigenvalues --    0.00249   0.00316   0.00425   0.00872   0.00898

  Beta  occ. eigenvalues --  -38.44578 -38.44330 -38.44053 -38.43893 -38.43726
  Beta  occ. eigenvalues --  -38.43208 -38.42709  -2.20384  -2.20113  -2.19876
  Beta  occ. eigenvalues --   -2.19708  -2.19589  -2.19151  -2.18585  -1.14115
  Beta  occ. eigenvalues --   -1.14070  -1.14030  -1.13780  -1.13770  -1.13751
  Beta  occ. eigenvalues --   -1.13607  -1.13542  -1.13490  -1.13441  -1.13346
  Beta  occ. eigenvalues --   -1.13332  -1.13305  -1.13254  -1.13220  -1.12845
  Beta  occ. eigenvalues --   -1.12809  -1.12776  -1.12281  -1.12236  -1.12212
  Beta  occ. eigenvalues --   -0.17740  -0.12850  -0.11332
  Beta virt. eigenvalues --   -0.08093  -0.06036  -0.04389  -0.03603  -0.03044
  Beta virt. eigenvalues --   -0.02762  -0.02281  -0.01805  -0.00765  -0.00266
  Beta virt. eigenvalues --    0.00200   0.00322   0.00356   0.00521   0.00899

 Mulliken charges and spin densities:
               1          2
     1  Na   0.045681  -0.092478
     2  Na   0.074064  -0.203315
     3  Na  -0.468925   0.069845
     4  Na   0.028307   0.803784
     5  Na  -0.265788  -0.214397
     6  Na   0.221435   0.320589
     7  Na   0.365227   0.315971
 Sum of Mulliken charges =  -0.00000   1.00000

 Dipole moment (field-independent basis, Debye):
    X=             -0.5752    Y=             -0.3311    Z=              0.2549  Tot=              0.7109
 Quadrupole moment (field-independent basis, Debye-Ang):
   XX=            -57.3038   YY=            -73.5106   ZZ=            -65.0661
   XY=             -1.3554   XZ=              0.6238   YZ=             -0.0086

 Normal termination of Gaussian 16 at Wed Nov 29 15:55:21 2023.
