 Gaussian 16, Revision B.01,
 Gaussian 16:  ES64L-G16RevB.01 20-Dec-2017

 -------------------------
 #P B3LYP/6-311+g(d) force
 -------------------------

 -----
 DPGEN
 -----
 Symbolic Z-matrix:
 Charge =  0 Multiplicity = 2

                         Standard orientation:
 ---------------------------------------------------------------------
 Center     Atomic      Atomic             Coordinates (Angstroms)
 Number     Number       Type             X           Y           Z
 ---------------------------------------------------------------------
      1         11           0        0.796104   -0.606958   -1.813438
      2         11           0        3.123799    1.560271    0.069648
      3         11           0       -5.551292   -0.390497   -0.597581
      4         11           0       -2.541076   -0.615076    0.625297
      5         11           0        4.501131   -1.287537   -0.319281
      6         11           0        0.522567   -0.863033    1.941616
      7         11           0       -0.851233    2.202831    0.093740
 ---------------------------------------------------------------------

 SCF Done:  E(UB3LYP) =  -1136.10722870     A.U. after   38 cycles

 The electronic state is 2-A.
 Alpha  occ. eigenvalues --  -38.47812 -38.45488 -38.44226 -38.44213 -38.43781
 Alpha  occ. eigenvalues --  -38.42674 -38.42580  -2.23561  -2.21313  -2.20078
 Alpha  occ. eigenvalues --   -2.20052  -2.19586  -2.18569  -2.18364  -1.17257
 Alpha  occ. eigenvalues --   -1.17205  -1.17173  -1.15003  -1.14975  -1.14932
 Alpha  occ. eigenvalues --   -1.13747  -1.13723  -1.13720  -1.13712  -1.13682
 Alpha  occ. eigenvalues --   -1.13662  -1.13269  -1.13240  -1.13225  -1.12275
 Alpha  occ. eigenvalues --   -1.12253  -1.12206  -1.12021  -1.12020  -1.11996
 Alpha  occ. eigenvalues --   -0.17995  -0.13869  -0.11189  -0.10657
 Alpha virt. eigenvalues --   -0.08114  -0.05617  -0.04534  -0.03534  -0.03097
 Alpha virt. eigenvalues --   -0.02449  -0.02166  -0.01844  -0.01323  -0.00762
 Alpha virt. eigenvalues --   -0.00490   0.00076   0.00143   0.00334   0.00559

  Beta  occ. eigenvalues --  -38.47795 -38.45473 -38.44200 -38.44112 -38.43779
  Beta  occ. eigenvalues --  -38.42663 -38.42570  -2.23533  -2.21286  -2.20005
  Beta  occ. eigenvalues --   -2.19891  -2.19584  -2.18553  -2.18345  -1.17212
  Beta  occ. eigenvalues --   -1.17189  -1.17156  -1.14974  -1.14958  -1.14909
  Beta  occ. eigenvalues --   -1.13693  -1.13671  -1.13643  -1.13615  -1.13578
  Beta  occ. eigenvalues --   -1.13550  -1.13268  -1.13233  -1.13225  -1.12264
  Beta  occ. eigenvalues --   -1.12238  -1.12176  -1.12008  -1.12006  -1.11981
  Beta  occ. eigenvalues --   -0.17339  -0.13653  -0.10499
  Beta virt. eigenvalues --   -0.07978  -0.07296  -0.05430  -0.04105  -0.03224
  Beta virt. eigenvalues --   -0.02733  -0.01926  -0.01698  -0.01547  -0.01028
  Beta virt. eigenvalues --   -0.00708  -0.00411   0.00120   0.00304   0.00461

 Mulliken charges and spin densities:
               1          2
     1  Na   0.053187   0.188698
     2  Na   0.084793   0.054039
     3  Na   0.305501  -0.007551
     4  Na  -1.594773   0.179431
     5  Na   0.191683  -0.020780
     6  Na   0.902345   0.392710
     7  Na   0.057264   0.213453
 Sum of Mulliken charges =  -0.00000   1.00000

 Dipole moment (field-independent basis, Debye):
    X=              3.0866    Y=              0.8831    Z=             -0.6633  Tot=              3.2782
 Quadrupole moment (field-independent basis, Debye-Ang):
   XX=            -79.3873   YY=            -66.6587   ZZ=            -66.9011
   XY=             -2.3002   XZ=              3.0113   YZ=              5.8641

 Normal termination of Gaussian 16 at Thu Dec  7 03:49:48 2023.
