 Gaussian 16, Revision B.01,
 Gaussian 16:  ES64L-G16RevB.01 20-Dec-2017

 -------------------------
 #P B3LYP/6-311+g(d) force
 -------------------------

 -----
 DPGEN
 -----
 Symbolic Z-matrix:
 Charge =  0 Multiplicity = 2

                         Standard orientation:
 ---------------------------------------------------------------------
 Center     Atomic      Atomic             Coordinates (Angstroms)
 Number     Number       Type             X           Y           Z
 ---------------------------------------------------------------------
      1         11           0       -3.766774   -1.429827    0.961438
      2         11           0       -0.213249    3.266586   -0.506325
      3         11           0       -1.260187   -2.809978    0.114718
      4         11           0        3.804585   -0.611065    0.147833
      5         11           0        2.615597    2.767858    0.870692
      6         11           0       -3.589397    1.715897   -0.774371
      7         11           0        2.409424   -2.899471   -0.813985
 ---------------------------------------------------------------------

 SCF Done:  E(UB3LYP) =  -1136.10756525     A.U. after   21 cycles

 The electronic state is 2-A.
 Alpha  occ. eigenvalues --  -38.45155 -38.44906 -38.44679 -38.44511 -38.44445
 Alpha  occ. eigenvalues --  -38.44044 -38.43622  -2.20987  -2.20722  -2.20452
 Alpha  occ. eigenvalues --   -2.20344  -2.20238  -2.19897  -2.19447  -1.14741
 Alpha  occ. eigenvalues --   -1.14636  -1.14613  -1.14443  -1.14374  -1.14360
 Alpha  occ. eigenvalues --   -1.14139  -1.14131  -1.14104  -1.14002  -1.13990
 Alpha  occ. eigenvalues --   -1.13974  -1.13894  -1.13875  -1.13853  -1.13583
 Alpha  occ. eigenvalues --   -1.13524  -1.13513  -1.13099  -1.13090  -1.13083
 Alpha  occ. eigenvalues --   -0.15927  -0.14254  -0.13514  -0.10862
 Alpha virt. eigenvalues --   -0.07512  -0.04638  -0.04273  -0.03841  -0.03629
 Alpha virt. eigenvalues --   -0.02334  -0.02080  -0.01616  -0.01251  -0.01024
 Alpha virt. eigenvalues --   -0.00683  -0.00058   0.00162   0.00510   0.00805

  Beta  occ. eigenvalues --  -38.45137 -38.44864 -38.44680 -38.44493 -38.44364
  Beta  occ. eigenvalues --  -38.44017 -38.43572  -2.20961  -2.20649  -2.20459
  Beta  occ. eigenvalues --   -2.20318  -2.20087  -2.19848  -2.19354  -1.14701
  Beta  occ. eigenvalues --   -1.14623  -1.14586  -1.14384  -1.14327  -1.14305
  Beta  occ. eigenvalues --   -1.14148  -1.14141  -1.14067  -1.13979  -1.13973
  Beta  occ. eigenvalues --   -1.13935  -1.13792  -1.13774  -1.13752  -1.13543
  Beta  occ. eigenvalues --   -1.13492  -1.13480  -1.13041  -1.13026  -1.13020
  Beta  occ. eigenvalues --   -0.15438  -0.13555  -0.12814
  Beta virt. eigenvalues --   -0.07649  -0.07563  -0.04203  -0.03817  -0.03672
  Beta virt. eigenvalues --   -0.03234  -0.02122  -0.01880  -0.01406  -0.01101
  Beta virt. eigenvalues --   -0.00636  -0.00413   0.00158   0.00285   0.00563

 Mulliken charges and spin densities:
               1          2
     1  Na   0.365834  -0.131417
     2  Na  -0.564190   0.011157
     3  Na  -0.513400   0.260694
     4  Na  -0.389571   0.164075
     5  Na   0.533293   0.219903
     6  Na   0.008890   0.366794
     7  Na   0.559143   0.108793
 Sum of Mulliken charges =  -0.00000   1.00000

 Dipole moment (field-independent basis, Debye):
    X=             -0.1990    Y=             -0.5458    Z=              0.0903  Tot=              0.5879
 Quadrupole moment (field-independent basis, Debye-Ang):
   XX=            -59.8397   YY=            -71.2952   ZZ=            -70.8190
   XY=              0.7350   XZ=              0.1249   YZ=              1.0566

 Normal termination of Gaussian 16 at Sun Dec  3 16:45:04 2023.
