 Gaussian 16, Revision B.01,
 Gaussian 16:  ES64L-G16RevB.01 20-Dec-2017

 -------------------------
 #P B3LYP/6-311+g(d) force
 -------------------------

 -----
 DPGEN
 -----
 Symbolic Z-matrix:
 Charge =  0 Multiplicity = 2

                         Standard orientation:
 ---------------------------------------------------------------------
 Center     Atomic      Atomic             Coordinates (Angstroms)
 Number     Number       Type             X           Y           Z
 ---------------------------------------------------------------------
      1         11           0       -0.350021    2.810045    0.518954
      2         11           0       -2.152987   -2.214691   -0.049135
      3         11           0       -0.016080   -0.877994    2.042419
      4         11           0        2.404418    1.497957   -0.165052
      5         11           0        0.073716   -0.284714   -1.650495
      6         11           0       -2.692632    0.891152   -0.466565
      7         11           0        2.733587   -1.821755   -0.230125
 ---------------------------------------------------------------------

 SCF Done:  E(UB3LYP) =  -1136.13290591     A.U. after   20 cycles

 The electronic state is 2-A.
 Alpha  occ. eigenvalues --  -38.43993 -38.43864 -38.43820 -38.43779 -38.43767
 Alpha  occ. eigenvalues --  -38.43430 -38.42933  -2.19825  -2.19773  -2.19711
 Alpha  occ. eigenvalues --   -2.19652  -2.19648  -2.19412  -2.18814  -1.13506
 Alpha  occ. eigenvalues --   -1.13495  -1.13484  -1.13471  -1.13451  -1.13428
 Alpha  occ. eigenvalues --   -1.13414  -1.13377  -1.13366  -1.13331  -1.13312
 Alpha  occ. eigenvalues --   -1.13295  -1.13273  -1.13264  -1.13246  -1.13084
 Alpha  occ. eigenvalues --   -1.13042  -1.13034  -1.12492  -1.12471  -1.12450
 Alpha  occ. eigenvalues --   -0.18812  -0.13452  -0.12402  -0.10951
 Alpha virt. eigenvalues --   -0.05679  -0.05349  -0.04326  -0.03463  -0.03109
 Alpha virt. eigenvalues --   -0.02551  -0.01530  -0.01119  -0.00295  -0.00090
 Alpha virt. eigenvalues --    0.00084   0.00351   0.00773   0.00836   0.00924

  Beta  occ. eigenvalues --  -38.43990 -38.43851 -38.43815 -38.43762 -38.43687
  Beta  occ. eigenvalues --  -38.43367 -38.42924  -2.19821  -2.19754  -2.19706
  Beta  occ. eigenvalues --   -2.19643  -2.19482  -2.19297  -2.18800  -1.13502
  Beta  occ. eigenvalues --   -1.13487  -1.13469  -1.13457  -1.13444  -1.13411
  Beta  occ. eigenvalues --   -1.13392  -1.13347  -1.13333  -1.13328  -1.13288
  Beta  occ. eigenvalues --   -1.13259  -1.13189  -1.13151  -1.13149  -1.13005
  Beta  occ. eigenvalues --   -1.12967  -1.12946  -1.12486  -1.12463  -1.12423
  Beta  occ. eigenvalues --   -0.18102  -0.13179  -0.12169
  Beta virt. eigenvalues --   -0.07058  -0.05682  -0.05266  -0.04241  -0.02655
  Beta virt. eigenvalues --   -0.02320  -0.01595  -0.01425  -0.01057  -0.00337
  Beta virt. eigenvalues --   -0.00015   0.00165   0.00396   0.00833   0.00882

 Mulliken charges and spin densities:
               1          2
     1  Na  -0.139646   0.052589
     2  Na   0.248966   0.057589
     3  Na  -0.456964   0.557121
     4  Na   0.031550   0.109928
     5  Na  -0.021770   0.042892
     6  Na   0.173629   0.164165
     7  Na   0.164235   0.015716
 Sum of Mulliken charges =  -0.00000   1.00000

 Dipole moment (field-independent basis, Debye):
    X=              0.1705    Y=             -0.5447    Z=              0.0715  Tot=              0.5752
 Quadrupole moment (field-independent basis, Debye-Ang):
   XX=            -57.3959   YY=            -64.6524   ZZ=            -73.1334
   XY=             -0.4286   XZ=              0.4066   YZ=              0.9058

 Normal termination of Gaussian 16 at Thu Dec  7 10:30:18 2023.
