 Gaussian 16, Revision B.01,
 Gaussian 16:  ES64L-G16RevB.01 20-Dec-2017

 -------------------------
 #P B3LYP/6-311+g(d) force
 -------------------------

 -----
 DPGEN
 -----
 Symbolic Z-matrix:
 Charge =  0 Multiplicity = 2

                         Standard orientation:
 ---------------------------------------------------------------------
 Center     Atomic      Atomic             Coordinates (Angstroms)
 Number     Number       Type             X           Y           Z
 ---------------------------------------------------------------------
      1         11           0       -3.264262   -0.081570   -0.225842
      2         11           0        0.220801    0.120326   -1.627229
      3         11           0       -0.784117   -2.787552   -0.050643
      4         11           0        2.370872   -1.595867   -0.206692
      5         11           0        2.449384    1.890223   -0.063557
      6         11           0        0.199757   -0.285972    2.025872
      7         11           0       -1.192435    2.740411    0.148091
 ---------------------------------------------------------------------

 SCF Done:  E(UB3LYP) =  -1136.13872964     A.U. after   20 cycles

 The electronic state is 2-A.
 Alpha  occ. eigenvalues --  -38.43992 -38.43682 -38.43645 -38.43561 -38.43492
 Alpha  occ. eigenvalues --  -38.43346 -38.43153  -2.19786  -2.19531  -2.19482
 Alpha  occ. eigenvalues --   -2.19465  -2.19399  -2.19214  -2.19153  -1.13460
 Alpha  occ. eigenvalues --   -1.13441  -1.13435  -1.13245  -1.13210  -1.13191
 Alpha  occ. eigenvalues --   -1.13173  -1.13156  -1.13146  -1.13136  -1.13095
 Alpha  occ. eigenvalues --   -1.13090  -1.13062  -1.13023  -1.13015  -1.12896
 Alpha  occ. eigenvalues --   -1.12878  -1.12841  -1.12825  -1.12778  -1.12762
 Alpha  occ. eigenvalues --   -0.18777  -0.12901  -0.12625  -0.10723
 Alpha virt. eigenvalues --   -0.05505  -0.05194  -0.04832  -0.03033  -0.02954
 Alpha virt. eigenvalues --   -0.02523  -0.01426  -0.01150  -0.00444  -0.00301
 Alpha virt. eigenvalues --   -0.00005   0.00355   0.00831   0.00882   0.00898

  Beta  occ. eigenvalues --  -38.43991 -38.43678 -38.43642 -38.43549 -38.43396
  Beta  occ. eigenvalues --  -38.43340 -38.43089  -2.19786  -2.19527  -2.19466
  Beta  occ. eigenvalues --   -2.19463  -2.19223  -2.19208  -2.19036  -1.13447
  Beta  occ. eigenvalues --   -1.13442  -1.13438  -1.13234  -1.13196  -1.13176
  Beta  occ. eigenvalues --   -1.13163  -1.13140  -1.13120  -1.13104  -1.13093
  Beta  occ. eigenvalues --   -1.13088  -1.12957  -1.12910  -1.12893  -1.12876
  Beta  occ. eigenvalues --   -1.12844  -1.12834  -1.12749  -1.12692  -1.12678
  Beta  occ. eigenvalues --   -0.18035  -0.12675  -0.12386
  Beta virt. eigenvalues --   -0.06778  -0.05486  -0.05191  -0.04772  -0.02278
  Beta virt. eigenvalues --   -0.02161  -0.01458  -0.01346  -0.01079  -0.00484
  Beta virt. eigenvalues --   -0.00361   0.00139   0.00383   0.00865   0.00883

 Mulliken charges and spin densities:
               1          2
     1  Na  -0.054768  -0.077995
     2  Na  -0.272794   0.502725
     3  Na   0.166407  -0.057478
     4  Na   0.502090  -0.010949
     5  Na   0.177669  -0.063780
     6  Na  -0.501301   0.781317
     7  Na  -0.017303  -0.073840
 Sum of Mulliken charges =  -0.00000   1.00000

 Dipole moment (field-independent basis, Debye):
    X=             -0.0735    Y=              0.1139    Z=              0.1370  Tot=              0.1927
 Quadrupole moment (field-independent basis, Debye-Ang):
   XX=            -57.3430   YY=            -61.3883   ZZ=            -74.5934
   XY=              0.7590   XZ=              0.1635   YZ=              0.9937

 Normal termination of Gaussian 16 at Thu Dec  7 22:15:59 2023.
