 Gaussian 16, Revision B.01,
 Gaussian 16:  ES64L-G16RevB.01 20-Dec-2017

 -------------------------
 #P B3LYP/6-311+g(d) force
 -------------------------

 -----
 DPGEN
 -----
 Symbolic Z-matrix:
 Charge =  0 Multiplicity = 2

                         Standard orientation:
 ---------------------------------------------------------------------
 Center     Atomic      Atomic             Coordinates (Angstroms)
 Number     Number       Type             X           Y           Z
 ---------------------------------------------------------------------
      1         11           0        2.722675    1.488027   -0.078084
      2         11           0       -0.714579    2.563150    0.102502
      3         11           0        0.194069   -0.432049   -1.736040
      4         11           0       -1.662224   -2.338451    0.281643
      5         11           0        2.771530   -1.635030   -0.096698
      6         11           0       -3.279859    0.455718   -0.433210
      7         11           0       -0.031612   -0.101365    1.959886
 ---------------------------------------------------------------------

 SCF Done:  E(UB3LYP) =  -1136.13311210     A.U. after   19 cycles

 The electronic state is 2-A.
 Alpha  occ. eigenvalues --  -38.44612 -38.44142 -38.44081 -38.43710 -38.43517
 Alpha  occ. eigenvalues --  -38.43273 -38.42580  -2.20445  -2.19998  -2.19940
 Alpha  occ. eigenvalues --   -2.19640  -2.19445  -2.19152  -2.18452  -1.14110
 Alpha  occ. eigenvalues --   -1.14100  -1.14094  -1.13743  -1.13674  -1.13636
 Alpha  occ. eigenvalues --   -1.13606  -1.13583  -1.13543  -1.13329  -1.13281
 Alpha  occ. eigenvalues --   -1.13257  -1.13123  -1.13086  -1.13062  -1.12824
 Alpha  occ. eigenvalues --   -1.12811  -1.12782  -1.12142  -1.12118  -1.12085
 Alpha  occ. eigenvalues --   -0.18777  -0.13730  -0.11861  -0.10855
 Alpha virt. eigenvalues --   -0.06258  -0.05366  -0.03922  -0.03542  -0.02656
 Alpha virt. eigenvalues --   -0.02584  -0.02021  -0.01109  -0.00375  -0.00085
 Alpha virt. eigenvalues --   -0.00025   0.00319   0.00708   0.00823   0.00849

  Beta  occ. eigenvalues --  -38.44602 -38.44139 -38.44078 -38.43651 -38.43420
  Beta  occ. eigenvalues --  -38.43263 -38.42575  -2.20427  -2.19995  -2.19938
  Beta  occ. eigenvalues --   -2.19531  -2.19267  -2.19138  -2.18446  -1.14094
  Beta  occ. eigenvalues --   -1.14084  -1.14077  -1.13745  -1.13662  -1.13621
  Beta  occ. eigenvalues --   -1.13595  -1.13573  -1.13541  -1.13255  -1.13206
  Beta  occ. eigenvalues --   -1.13175  -1.13008  -1.12956  -1.12939  -1.12810
  Beta  occ. eigenvalues --   -1.12780  -1.12762  -1.12138  -1.12096  -1.12076
  Beta  occ. eigenvalues --   -0.18051  -0.13484  -0.11607
  Beta virt. eigenvalues --   -0.06973  -0.06146  -0.05373  -0.03883  -0.02789
  Beta virt. eigenvalues --   -0.01918  -0.01880  -0.01523  -0.01056  -0.00411
  Beta virt. eigenvalues --   -0.00090   0.00103   0.00353   0.00785   0.00836

 Mulliken charges and spin densities:
               1          2
     1  Na  -0.014460  -0.025041
     2  Na   0.023451  -0.013433
     3  Na  -0.345834   0.430948
     4  Na   0.276694  -0.021506
     5  Na   0.422800  -0.032891
     6  Na   0.010944   0.039012
     7  Na  -0.373595   0.622911
 Sum of Mulliken charges =  -0.00000   1.00000

 Dipole moment (field-independent basis, Debye):
    X=              0.1268    Y=             -0.1925    Z=             -0.0848  Tot=              0.2457
 Quadrupole moment (field-independent basis, Debye-Ang):
   XX=            -51.5638   YY=            -68.6768   ZZ=            -73.6771
   XY=             -0.1294   XZ=              1.1200   YZ=             -0.9249

 Normal termination of Gaussian 16 at Thu Dec  7 04:06:52 2023.
