 Gaussian 16, Revision B.01,
 Gaussian 16:  ES64L-G16RevB.01 20-Dec-2017

 -------------------------
 #P B3LYP/6-311+g(d) force
 -------------------------

 -----
 DPGEN
 -----
 Symbolic Z-matrix:
 Charge =  0 Multiplicity = 2

                         Standard orientation:
 ---------------------------------------------------------------------
 Center     Atomic      Atomic             Coordinates (Angstroms)
 Number     Number       Type             X           Y           Z
 ---------------------------------------------------------------------
      1         11           0        3.727526    1.281953    0.188134
      2         11           0        4.302085   -1.569894   -0.389617
      3         11           0        0.207130   -1.104969    0.074355
      4         11           0       -3.314251    1.542171   -0.756279
      5         11           0        0.074333    2.216623   -0.273387
      6         11           0       -1.901284   -0.144976    1.720076
      7         11           0       -3.095539   -2.220908   -0.563283
 ---------------------------------------------------------------------

 SCF Done:  E(UB3LYP) =  -1136.11254638     A.U. after   24 cycles

 The electronic state is 2-A.
 Alpha  occ. eigenvalues --  -38.45040 -38.44795 -38.44279 -38.44067 -38.43805
 Alpha  occ. eigenvalues --  -38.43796 -38.42531  -2.21000  -2.20620  -2.20105
 Alpha  occ. eigenvalues --   -2.20007  -2.19660  -2.19631  -2.18386  -1.14803
 Alpha  occ. eigenvalues --   -1.14652  -1.14571  -1.14347  -1.14284  -1.14245
 Alpha  occ. eigenvalues --   -1.13760  -1.13746  -1.13728  -1.13719  -1.13654
 Alpha  occ. eigenvalues --   -1.13566  -1.13337  -1.13314  -1.13305  -1.13282
 Alpha  occ. eigenvalues --   -1.13267  -1.13252  -1.12087  -1.12049  -1.12010
 Alpha  occ. eigenvalues --   -0.18005  -0.14509  -0.11358  -0.10705
 Alpha virt. eigenvalues --   -0.06591  -0.06213  -0.03733  -0.03454  -0.03020
 Alpha virt. eigenvalues --   -0.02735  -0.01520  -0.01420  -0.01212  -0.00475
 Alpha virt. eigenvalues --   -0.00155   0.00047   0.00393   0.00480   0.00604

  Beta  occ. eigenvalues --  -38.45011 -38.44784 -38.44251 -38.44006 -38.43796
  Beta  occ. eigenvalues --  -38.43714 -38.42523  -2.20956  -2.20603  -2.20055
  Beta  occ. eigenvalues --   -2.19899  -2.19617  -2.19507  -2.18374  -1.14737
  Beta  occ. eigenvalues --   -1.14600  -1.14548  -1.14327  -1.14275  -1.14220
  Beta  occ. eigenvalues --   -1.13722  -1.13712  -1.13694  -1.13629  -1.13588
  Beta  occ. eigenvalues --   -1.13494  -1.13307  -1.13280  -1.13235  -1.13233
  Beta  occ. eigenvalues --   -1.13199  -1.13142  -1.12079  -1.12031  -1.12000
  Beta  occ. eigenvalues --   -0.17276  -0.14007  -0.11145
  Beta virt. eigenvalues --   -0.07038  -0.06383  -0.06082  -0.03410  -0.03063
  Beta virt. eigenvalues --   -0.02792  -0.02164  -0.01430  -0.01031  -0.00881
  Beta virt. eigenvalues --   -0.00163  -0.00062   0.00157   0.00426   0.00586

 Mulliken charges and spin densities:
               1          2
     1  Na   0.119966   0.051980
     2  Na   0.164473   0.170026
     3  Na  -1.520456  -0.207559
     4  Na  -0.013368   0.622511
     5  Na  -0.093660  -0.009171
     6  Na   1.091452   0.215370
     7  Na   0.251593   0.156842
 Sum of Mulliken charges =  -0.00000   1.00000

 Dipole moment (field-independent basis, Debye):
    X=              0.3504    Y=             -0.3208    Z=              0.3732  Tot=              0.6041
 Quadrupole moment (field-independent basis, Debye-Ang):
   XX=            -65.2793   YY=            -69.9231   ZZ=            -65.9238
   XY=              2.6821   XZ=             -1.1009   YZ=              3.9663

 Normal termination of Gaussian 16 at Tue Dec  5 21:39:28 2023.
