 Gaussian 16, Revision B.01,
 Gaussian 16:  ES64L-G16RevB.01 20-Dec-2017

 -------------------------
 #P B3LYP/6-311+g(d) force
 -------------------------

 -----
 DPGEN
 -----
 Symbolic Z-matrix:
 Charge =  0 Multiplicity = 2

                         Standard orientation:
 ---------------------------------------------------------------------
 Center     Atomic      Atomic             Coordinates (Angstroms)
 Number     Number       Type             X           Y           Z
 ---------------------------------------------------------------------
      1         11           0       -2.403450   -1.536586   -0.319437
      2         11           0       -0.083930   -0.105781    1.899888
      3         11           0       -2.383083    1.699850    0.223147
      4         11           0        0.666802   -2.828576    0.065659
      5         11           0        0.062875    0.148322   -1.816362
      6         11           0        1.000226    2.808580   -0.074768
      7         11           0        3.140560   -0.185809    0.021873
 ---------------------------------------------------------------------

 SCF Done:  E(UB3LYP) =  -1136.14155580     A.U. after   18 cycles

 The electronic state is 2-A.
 Alpha  occ. eigenvalues --  -38.43904 -38.43558 -38.43459 -38.43404 -38.43367
 Alpha  occ. eigenvalues --  -38.43358 -38.43297  -2.19716  -2.19401  -2.19344
 Alpha  occ. eigenvalues --   -2.19338  -2.19261  -2.19255  -2.19234  -1.13393
 Alpha  occ. eigenvalues --   -1.13378  -1.13356  -1.13106  -1.13079  -1.13062
 Alpha  occ. eigenvalues --   -1.13035  -1.13028  -1.13018  -1.12981  -1.12976
 Alpha  occ. eigenvalues --   -1.12965  -1.12953  -1.12921  -1.12915  -1.12901
 Alpha  occ. eigenvalues --   -1.12893  -1.12886  -1.12862  -1.12858  -1.12841
 Alpha  occ. eigenvalues --   -0.18917  -0.12862  -0.12694  -0.10878
 Alpha virt. eigenvalues --   -0.05433  -0.04937  -0.04849  -0.03125  -0.03039
 Alpha virt. eigenvalues --   -0.02603  -0.01328  -0.01124  -0.00274  -0.00207
 Alpha virt. eigenvalues --    0.00006   0.00378   0.00864   0.00906   0.00935

  Beta  occ. eigenvalues --  -38.43903 -38.43554 -38.43451 -38.43362 -38.43348
  Beta  occ. eigenvalues --  -38.43320 -38.43219  -2.19716  -2.19397  -2.19329
  Beta  occ. eigenvalues --   -2.19247  -2.19229  -2.19189  -2.19112  -1.13381
  Beta  occ. eigenvalues --   -1.13375  -1.13357  -1.13094  -1.13051  -1.13045
  Beta  occ. eigenvalues --   -1.13035  -1.12983  -1.12979  -1.12965  -1.12921
  Beta  occ. eigenvalues --   -1.12902  -1.12891  -1.12885  -1.12872  -1.12842
  Beta  occ. eigenvalues --   -1.12839  -1.12829  -1.12825  -1.12771  -1.12763
  Beta  occ. eigenvalues --   -0.18164  -0.12619  -0.12437
  Beta virt. eigenvalues --   -0.06944  -0.05441  -0.04914  -0.04811  -0.02326
  Beta virt. eigenvalues --   -0.02228  -0.01544  -0.01247  -0.01047  -0.00330
  Beta virt. eigenvalues --   -0.00259   0.00124   0.00389   0.00871   0.00917

 Mulliken charges and spin densities:
               1          2
     1  Na   0.255507   0.005826
     2  Na  -0.357050   0.737153
     3  Na   0.209834  -0.033332
     4  Na   0.113742  -0.093564
     5  Na  -0.264397   0.659855
     6  Na   0.060794  -0.134403
     7  Na  -0.018429  -0.141535
 Sum of Mulliken charges =  -0.00000   1.00000

 Dipole moment (field-independent basis, Debye):
    X=              0.2525    Y=              0.0937    Z=              0.0445  Tot=              0.2729
 Quadrupole moment (field-independent basis, Debye-Ang):
   XX=            -58.6755   YY=            -61.3368   ZZ=            -73.6386
   XY=             -0.1600   XZ=              0.3536   YZ=              0.6352

 Normal termination of Gaussian 16 at Thu Dec  7 04:23:33 2023.
