 Gaussian 16, Revision B.01,
 Gaussian 16:  ES64L-G16RevB.01 20-Dec-2017

 -------------------------
 #P B3LYP/6-311+g(d) force
 -------------------------

 -----
 DPGEN
 -----
 Symbolic Z-matrix:
 Charge =  0 Multiplicity = 2

                         Standard orientation:
 ---------------------------------------------------------------------
 Center     Atomic      Atomic             Coordinates (Angstroms)
 Number     Number       Type             X           Y           Z
 ---------------------------------------------------------------------
      1         11           0        2.101672   -1.190430    0.744128
      2         11           0        5.363703    0.230563   -0.478088
      3         11           0        7.951594   -0.928331   -0.265507
      4         11           0       -5.466138    0.165243   -0.092182
      5         11           0       -6.762681   -2.638419   -0.229616
      6         11           0       -2.986537    2.661936   -0.402055
      7         11           0       -0.201613    1.699438    0.723319
 ---------------------------------------------------------------------

 SCF Done:  E(UB3LYP) =  -1136.10556199     A.U. after   18 cycles

 The electronic state is 2-A.
 Alpha  occ. eigenvalues --  -38.45370 -38.44733 -38.44431 -38.44419 -38.44289
 Alpha  occ. eigenvalues --  -38.44230 -38.43688  -2.21155  -2.20574  -2.20264
 Alpha  occ. eigenvalues --   -2.20196  -2.20122  -2.20037  -2.19489  -1.14803
 Alpha  occ. eigenvalues --   -1.14789  -1.14767  -1.14354  -1.14194  -1.14192
 Alpha  occ. eigenvalues --   -1.13978  -1.13907  -1.13902  -1.13873  -1.13867
 Alpha  occ. eigenvalues --   -1.13801  -1.13772  -1.13767  -1.13754  -1.13706
 Alpha  occ. eigenvalues --   -1.13675  -1.13674  -1.13162  -1.13160  -1.13139
 Alpha  occ. eigenvalues --   -0.15406  -0.14463  -0.12885  -0.11679
 Alpha virt. eigenvalues --   -0.06553  -0.05304  -0.04236  -0.03523  -0.03035
 Alpha virt. eigenvalues --   -0.02717  -0.02482  -0.01861  -0.01453  -0.01368
 Alpha virt. eigenvalues --   -0.00993  -0.00439  -0.00270   0.00475   0.00553

  Beta  occ. eigenvalues --  -38.45277 -38.44682 -38.44435 -38.44369 -38.44291
  Beta  occ. eigenvalues --  -38.44181 -38.43696  -2.20982  -2.20480  -2.20233
  Beta  occ. eigenvalues --   -2.20148  -2.20134  -2.19946  -2.19509  -1.14685
  Beta  occ. eigenvalues --   -1.14671  -1.14653  -1.14296  -1.14130  -1.14128
  Beta  occ. eigenvalues --   -1.13941  -1.13908  -1.13889  -1.13823  -1.13821
  Beta  occ. eigenvalues --   -1.13784  -1.13779  -1.13761  -1.13719  -1.13648
  Beta  occ. eigenvalues --   -1.13613  -1.13613  -1.13179  -1.13176  -1.13120
  Beta  occ. eigenvalues --   -0.14743  -0.13858  -0.12170
  Beta virt. eigenvalues --   -0.08668  -0.06193  -0.04897  -0.03851  -0.03321
  Beta virt. eigenvalues --   -0.02852  -0.02580  -0.02159  -0.01681  -0.01208
  Beta virt. eigenvalues --   -0.00983  -0.00553  -0.00197  -0.00114   0.00466

 Mulliken charges and spin densities:
               1          2
     1  Na   0.411570   0.411764
     2  Na  -1.156272   0.078210
     3  Na   1.209087   0.144071
     4  Na  -0.458017   0.022959
     5  Na   0.394903   0.185203
     6  Na   0.287535   0.286342
     7  Na  -0.688806  -0.128550
 Sum of Mulliken charges =  -0.00000   1.00000

 Dipole moment (field-independent basis, Debye):
    X=              1.4022    Y=             -0.7780    Z=              0.1072  Tot=              1.6072
 Quadrupole moment (field-independent basis, Debye-Ang):
   XX=            -60.9068   YY=            -60.3966   ZZ=            -74.1227
   XY=             -1.7741   XZ=              1.7307   YZ=             -2.0406

 Normal termination of Gaussian 16 at Sun Dec  3 22:20:04 2023.
