 Gaussian 16, Revision B.01,
 Gaussian 16:  ES64L-G16RevB.01 20-Dec-2017

 -------------------------
 #P B3LYP/6-311+g(d) force
 -------------------------

 -----
 DPGEN
 -----
 Symbolic Z-matrix:
 Charge =  0 Multiplicity = 2

                         Standard orientation:
 ---------------------------------------------------------------------
 Center     Atomic      Atomic             Coordinates (Angstroms)
 Number     Number       Type             X           Y           Z
 ---------------------------------------------------------------------
      1         11           0        3.160582    0.696756    0.073786
      2         11           0        1.670404   -2.338825   -0.431508
      3         11           0       -0.288782    0.279138   -1.462630
      4         11           0        0.148061   -0.247067    2.181193
      5         11           0       -1.803488   -2.343668   -0.376593
      6         11           0       -2.655501    0.614867    0.384981
      7         11           0       -0.231275    3.338799   -0.369228
 ---------------------------------------------------------------------

 SCF Done:  E(UB3LYP) =  -1136.13411114     A.U. after   19 cycles

 The electronic state is 2-A.
 Alpha  occ. eigenvalues --  -38.44100 -38.43893 -38.43768 -38.43615 -38.43517
 Alpha  occ. eigenvalues --  -38.43331 -38.43072  -2.19890  -2.19764  -2.19567
 Alpha  occ. eigenvalues --   -2.19543  -2.19379  -2.19233  -2.19102  -1.13566
 Alpha  occ. eigenvalues --   -1.13549  -1.13532  -1.13433  -1.13394  -1.13377
 Alpha  occ. eigenvalues --   -1.13301  -1.13260  -1.13219  -1.13206  -1.13196
 Alpha  occ. eigenvalues --   -1.13161  -1.13070  -1.13044  -1.13010  -1.12932
 Alpha  occ. eigenvalues --   -1.12871  -1.12866  -1.12780  -1.12730  -1.12704
 Alpha  occ. eigenvalues --   -0.18713  -0.12893  -0.12497  -0.10937
 Alpha virt. eigenvalues --   -0.05627  -0.05046  -0.04732  -0.03224  -0.02838
 Alpha virt. eigenvalues --   -0.02673  -0.01370  -0.01290  -0.00387  -0.00222
 Alpha virt. eigenvalues --   -0.00015   0.00337   0.00812   0.00848   0.00931

  Beta  occ. eigenvalues --  -38.44101 -38.43789 -38.43763 -38.43602 -38.43507
  Beta  occ. eigenvalues --  -38.43321 -38.43022  -2.19892  -2.19573  -2.19560
  Beta  occ. eigenvalues --   -2.19524  -2.19363  -2.19219  -2.19011  -1.13558
  Beta  occ. eigenvalues --   -1.13549  -1.13536  -1.13318  -1.13279  -1.13263
  Beta  occ. eigenvalues --   -1.13247  -1.13237  -1.13211  -1.13203  -1.13158
  Beta  occ. eigenvalues --   -1.13140  -1.13054  -1.13025  -1.12992  -1.12915
  Beta  occ. eigenvalues --   -1.12860  -1.12839  -1.12718  -1.12668  -1.12636
  Beta  occ. eigenvalues --   -0.17978  -0.12692  -0.12241
  Beta virt. eigenvalues --   -0.06964  -0.05586  -0.04961  -0.04704  -0.02431
  Beta virt. eigenvalues --   -0.02164  -0.01623  -0.01253  -0.01221  -0.00397
  Beta virt. eigenvalues --   -0.00240   0.00131   0.00377   0.00831   0.00879

 Mulliken charges and spin densities:
               1          2
     1  Na  -0.016610  -0.037524
     2  Na   0.135497   0.022917
     3  Na  -0.390635   0.206914
     4  Na  -0.508657   0.610650
     5  Na   0.282023   0.029716
     6  Na   0.460878   0.207466
     7  Na   0.037504  -0.040139
 Sum of Mulliken charges =  -0.00000   1.00000

 Dipole moment (field-independent basis, Debye):
    X=              0.3184    Y=              0.1530    Z=              0.2837  Tot=              0.4531
 Quadrupole moment (field-independent basis, Debye-Ang):
   XX=            -60.0631   YY=            -59.8871   ZZ=            -73.6740
   XY=              1.3712   XZ=             -0.7215   YZ=              1.2261

 Normal termination of Gaussian 16 at Thu Dec  7 21:59:23 2023.
