 Gaussian 16, Revision B.01,
 Gaussian 16:  ES64L-G16RevB.01 20-Dec-2017

 -------------------------
 #P B3LYP/6-311+g(d) force
 -------------------------

 -----
 DPGEN
 -----
 Symbolic Z-matrix:
 Charge =  0 Multiplicity = 2

                         Standard orientation:
 ---------------------------------------------------------------------
 Center     Atomic      Atomic             Coordinates (Angstroms)
 Number     Number       Type             X           Y           Z
 ---------------------------------------------------------------------
      1         11           0        0.283512   -1.977791   -1.381670
      2         11           0        3.135796   -1.691731    0.585348
      3         11           0        0.090152    2.249659   -1.339518
      4         11           0       -2.842436   -0.336670   -1.458573
      5         11           0        3.390155    1.581614    0.315287
      6         11           0       -3.803946    0.172289    1.607408
      7         11           0       -0.253233    0.002630    1.671718
 ---------------------------------------------------------------------

 SCF Done:  E(UB3LYP) =  -1136.11711276     A.U. after   25 cycles

 The electronic state is 2-A.
 Alpha  occ. eigenvalues --  -38.45713 -38.44858 -38.44745 -38.44088 -38.43907
 Alpha  occ. eigenvalues --  -38.43848 -38.42998  -2.21503  -2.20681  -2.20577
 Alpha  occ. eigenvalues --   -2.19867  -2.19734  -2.19644  -2.18820  -1.15205
 Alpha  occ. eigenvalues --   -1.15161  -1.15118  -1.14365  -1.14323  -1.14313
 Alpha  occ. eigenvalues --   -1.14241  -1.14229  -1.14201  -1.13568  -1.13546
 Alpha  occ. eigenvalues --   -1.13508  -1.13406  -1.13375  -1.13360  -1.13311
 Alpha  occ. eigenvalues --   -1.13304  -1.13247  -1.12505  -1.12493  -1.12443
 Alpha  occ. eigenvalues --   -0.17682  -0.14064  -0.11731  -0.10871
 Alpha virt. eigenvalues --   -0.07241  -0.05173  -0.04928  -0.03229  -0.03060
 Alpha virt. eigenvalues --   -0.02694  -0.02431  -0.01333  -0.00958  -0.00176
 Alpha virt. eigenvalues --   -0.00041   0.00099   0.00211   0.00323   0.00585

  Beta  occ. eigenvalues --  -38.45683 -38.44801 -38.44718 -38.44105 -38.43893
  Beta  occ. eigenvalues --  -38.43780 -38.42982  -2.21449  -2.20576  -2.20532
  Beta  occ. eigenvalues --   -2.19903  -2.19705  -2.19518  -2.18791  -1.15160
  Beta  occ. eigenvalues --   -1.15129  -1.15070  -1.14302  -1.14247  -1.14241
  Beta  occ. eigenvalues --   -1.14199  -1.14193  -1.14152  -1.13588  -1.13564
  Beta  occ. eigenvalues --   -1.13527  -1.13386  -1.13356  -1.13351  -1.13225
  Beta  occ. eigenvalues --   -1.13218  -1.13156  -1.12489  -1.12473  -1.12409
  Beta  occ. eigenvalues --   -0.16998  -0.13762  -0.10694
  Beta virt. eigenvalues --   -0.07960  -0.07039  -0.04778  -0.04469  -0.02888
  Beta virt. eigenvalues --   -0.02714  -0.02292  -0.01953  -0.01007  -0.00894
  Beta virt. eigenvalues --    0.00011   0.00049   0.00209   0.00267   0.00459

 Mulliken charges and spin densities:
               1          2
     1  Na  -0.278608   0.138968
     2  Na   0.669703   0.116517
     3  Na  -0.138499   0.347549
     4  Na   0.193085   0.030946
     5  Na   0.069445  -0.099402
     6  Na   0.114316   0.286674
     7  Na  -0.629443   0.178749
 Sum of Mulliken charges =  -0.00000   1.00000

 Dipole moment (field-independent basis, Debye):
    X=             -0.8608    Y=              0.0292    Z=              0.4412  Tot=              0.9677
 Quadrupole moment (field-independent basis, Debye-Ang):
   XX=            -50.0037   YY=            -80.6016   ZZ=            -66.8660
   XY=             -1.4409   XZ=              2.3180   YZ=             -1.6161

 Normal termination of Gaussian 16 at Thu Dec  7 20:30:28 2023.
