 Gaussian 16, Revision B.01,
 Gaussian 16:  ES64L-G16RevB.01 20-Dec-2017

 -------------------------
 #P B3LYP/6-311+g(d) force
 -------------------------

 -----
 DPGEN
 -----
 Symbolic Z-matrix:
 Charge =  0 Multiplicity = 2

                         Standard orientation:
 ---------------------------------------------------------------------
 Center     Atomic      Atomic             Coordinates (Angstroms)
 Number     Number       Type             X           Y           Z
 ---------------------------------------------------------------------
      1         11           0       -0.161028   -0.114709   -1.646338
      2         11           0        1.984277    2.948013   -0.496114
      3         11           0       -0.897236    1.608369    1.627779
      4         11           0        1.565345   -0.628055    1.434793
      5         11           0       -3.548351    0.278574   -1.041617
      6         11           0       -1.884640   -1.985854    0.853566
      7         11           0        2.941634   -2.106339   -0.732069
 ---------------------------------------------------------------------

 SCF Done:  E(UB3LYP) =  -1136.12612298     A.U. after   21 cycles

 The electronic state is 2-A.
 Alpha  occ. eigenvalues --  -38.44405 -38.44396 -38.44091 -38.43743 -38.43631
 Alpha  occ. eigenvalues --  -38.43607 -38.43331  -2.20224  -2.20223  -2.19964
 Alpha  occ. eigenvalues --   -2.19497  -2.19477  -2.19436  -2.19265  -1.13910
 Alpha  occ. eigenvalues --   -1.13895  -1.13890  -1.13881  -1.13870  -1.13812
 Alpha  occ. eigenvalues --   -1.13666  -1.13600  -1.13581  -1.13230  -1.13184
 Alpha  occ. eigenvalues --   -1.13171  -1.13160  -1.13133  -1.13122  -1.13074
 Alpha  occ. eigenvalues --   -1.13067  -1.13066  -1.12943  -1.12890  -1.12853
 Alpha  occ. eigenvalues --   -0.18093  -0.13197  -0.11457  -0.11228
 Alpha virt. eigenvalues --   -0.06014  -0.05579  -0.04400  -0.03165  -0.02822
 Alpha virt. eigenvalues --   -0.02630  -0.01894  -0.01392  -0.00798   0.00060
 Alpha virt. eigenvalues --    0.00080   0.00286   0.00405   0.00576   0.00733

  Beta  occ. eigenvalues --  -38.44382 -38.44373 -38.44038 -38.43735 -38.43603
  Beta  occ. eigenvalues --  -38.43587 -38.43299  -2.20184  -2.20182  -2.19868
  Beta  occ. eigenvalues --   -2.19484  -2.19428  -2.19399  -2.19210  -1.13887
  Beta  occ. eigenvalues --   -1.13865  -1.13849  -1.13846  -1.13832  -1.13784
  Beta  occ. eigenvalues --   -1.13596  -1.13533  -1.13507  -1.13211  -1.13159
  Beta  occ. eigenvalues --   -1.13149  -1.13130  -1.13114  -1.13072  -1.13062
  Beta  occ. eigenvalues --   -1.13059  -1.13011  -1.12907  -1.12833  -1.12818
  Beta  occ. eigenvalues --   -0.17302  -0.12999  -0.11321
  Beta virt. eigenvalues --   -0.07363  -0.05815  -0.05374  -0.03968  -0.02907
  Beta virt. eigenvalues --   -0.02367  -0.01900  -0.01620  -0.01222  -0.00497
  Beta virt. eigenvalues --    0.00102   0.00168   0.00332   0.00471   0.00699

 Mulliken charges and spin densities:
               1          2
     1  Na  -0.361994   0.513193
     2  Na  -0.165738   0.012427
     3  Na  -0.055439   0.207161
     4  Na   0.343199  -0.017453
     5  Na   0.222371   0.032950
     6  Na   0.008652   0.180151
     7  Na   0.008948   0.071571
 Sum of Mulliken charges =  -0.00000   1.00000

 Dipole moment (field-independent basis, Debye):
    X=             -0.8455    Y=             -0.0404    Z=             -0.2541  Tot=              0.8837
 Quadrupole moment (field-independent basis, Debye-Ang):
   XX=            -55.6456   YY=            -69.0290   ZZ=            -69.1235
   XY=              0.0293   XZ=             -1.9252   YZ=             -1.4823

 Normal termination of Gaussian 16 at Wed Nov 29 17:18:45 2023.
