 Gaussian 16, Revision B.01,
 Gaussian 16:  ES64L-G16RevB.01 20-Dec-2017

 -------------------------
 #P B3LYP/6-311+g(d) force
 -------------------------

 -----
 DPGEN
 -----
 Symbolic Z-matrix:
 Charge =  0 Multiplicity = 2

                         Standard orientation:
 ---------------------------------------------------------------------
 Center     Atomic      Atomic             Coordinates (Angstroms)
 Number     Number       Type             X           Y           Z
 ---------------------------------------------------------------------
      1         11           0       -1.631647    2.228313    1.046188
      2         11           0       -0.363567   -2.054641    1.570215
      3         11           0        2.761097   -1.402893   -0.752412
      4         11           0       -0.358955   -0.570179   -1.585617
      5         11           0        1.557543    2.058476   -1.252399
      6         11           0       -3.496576   -0.745413   -0.844071
      7         11           0        1.532104    0.486336    1.818097
 ---------------------------------------------------------------------

 SCF Done:  E(UB3LYP) =  -1136.12895713     A.U. after   21 cycles

 The electronic state is 2-A.
 Alpha  occ. eigenvalues --  -38.44033 -38.44026 -38.44016 -38.43890 -38.43803
 Alpha  occ. eigenvalues --  -38.43547 -38.43364  -2.19936  -2.19877  -2.19819
 Alpha  occ. eigenvalues --   -2.19663  -2.19644  -2.19501  -2.19216  -1.13654
 Alpha  occ. eigenvalues --   -1.13599  -1.13575  -1.13551  -1.13521  -1.13510
 Alpha  occ. eigenvalues --   -1.13492  -1.13456  -1.13455  -1.13348  -1.13337
 Alpha  occ. eigenvalues --   -1.13313  -1.13294  -1.13289  -1.13241  -1.13176
 Alpha  occ. eigenvalues --   -1.13155  -1.13127  -1.12910  -1.12870  -1.12821
 Alpha  occ. eigenvalues --   -0.18416  -0.12880  -0.12081  -0.11480
 Alpha virt. eigenvalues --   -0.05653  -0.05191  -0.04240  -0.03371  -0.03170
 Alpha virt. eigenvalues --   -0.03052  -0.01613  -0.00929  -0.00591   0.00022
 Alpha virt. eigenvalues --    0.00326   0.00368   0.00461   0.00620   0.00807

  Beta  occ. eigenvalues --  -38.44020 -38.44015 -38.43953 -38.43870 -38.43763
  Beta  occ. eigenvalues --  -38.43495 -38.43346  -2.19855  -2.19822  -2.19799
  Beta  occ. eigenvalues --   -2.19627  -2.19573  -2.19406  -2.19186  -1.13570
  Beta  occ. eigenvalues --   -1.13549  -1.13543  -1.13497  -1.13480  -1.13474
  Beta  occ. eigenvalues --   -1.13449  -1.13444  -1.13443  -1.13312  -1.13290
  Beta  occ. eigenvalues --   -1.13284  -1.13265  -1.13232  -1.13194  -1.13114
  Beta  occ. eigenvalues --   -1.13087  -1.13054  -1.12877  -1.12854  -1.12790
  Beta  occ. eigenvalues --   -0.17612  -0.12648  -0.11275
  Beta virt. eigenvalues --   -0.08046  -0.05501  -0.04949  -0.03915  -0.02981
  Beta virt. eigenvalues --   -0.02622  -0.02149  -0.01506  -0.00797  -0.00352
  Beta virt. eigenvalues --    0.00117   0.00372   0.00389   0.00570   0.00693

 Mulliken charges and spin densities:
               1          2
     1  Na  -0.294937   0.009866
     2  Na  -0.157442   0.044435
     3  Na   0.383574  -0.050359
     4  Na  -0.465674   0.387680
     5  Na   0.098172   0.052182
     6  Na   0.273023  -0.010662
     7  Na   0.163284   0.566858
 Sum of Mulliken charges =  -0.00000   1.00000

 Dipole moment (field-independent basis, Debye):
    X=              0.0576    Y=             -0.1483    Z=              0.0940  Tot=              0.1848
 Quadrupole moment (field-independent basis, Debye-Ang):
   XX=            -56.2831   YY=            -72.0695   ZZ=            -66.0600
   XY=             -0.8195   XZ=             -2.1563   YZ=              0.4206

 Normal termination of Gaussian 16 at Sun Dec  3 18:29:38 2023.
