 Gaussian 16, Revision B.01,
 Gaussian 16:  ES64L-G16RevB.01 20-Dec-2017

 -------------------------
 #P B3LYP/6-311+g(d) force
 -------------------------

 -----
 DPGEN
 -----
 Symbolic Z-matrix:
 Charge =  0 Multiplicity = 2

                         Standard orientation:
 ---------------------------------------------------------------------
 Center     Atomic      Atomic             Coordinates (Angstroms)
 Number     Number       Type             X           Y           Z
 ---------------------------------------------------------------------
      1         11           0        3.356179   -1.385648   -0.921522
      2         11           0       -2.919222    1.749363   -0.275447
      3         11           0       -3.610032   -1.446963    0.384397
      4         11           0        0.051073   -0.498353    1.552495
      5         11           0        3.208595    1.021977    1.099738
      6         11           0       -0.356327   -1.803444   -0.901998
      7         11           0        0.269735    2.363068   -0.937663
 ---------------------------------------------------------------------

 SCF Done:  E(UB3LYP) =  -1136.11248881     A.U. after   29 cycles

 The electronic state is 2-A.
 Alpha  occ. eigenvalues --  -38.45183 -38.45033 -38.44909 -38.44256 -38.44023
 Alpha  occ. eigenvalues --  -38.44020 -38.43003  -2.21065  -2.20845  -2.20721
 Alpha  occ. eigenvalues --   -2.20109  -2.19904  -2.19841  -2.18819  -1.14893
 Alpha  occ. eigenvalues --   -1.14697  -1.14638  -1.14532  -1.14498  -1.14467
 Alpha  occ. eigenvalues --   -1.14393  -1.14386  -1.14337  -1.13777  -1.13750
 Alpha  occ. eigenvalues --   -1.13735  -1.13663  -1.13533  -1.13513  -1.13506
 Alpha  occ. eigenvalues --   -1.13491  -1.13465  -1.12501  -1.12479  -1.12446
 Alpha  occ. eigenvalues --   -0.18022  -0.14324  -0.11637  -0.10182
 Alpha virt. eigenvalues --   -0.07728  -0.05650  -0.04166  -0.03453  -0.03254
 Alpha virt. eigenvalues --   -0.02518  -0.01850  -0.01542  -0.00739  -0.00543
 Alpha virt. eigenvalues --   -0.00025   0.00133   0.00421   0.00486   0.00570

  Beta  occ. eigenvalues --  -38.45152 -38.44999 -38.44893 -38.44213 -38.44024
  Beta  occ. eigenvalues --  -38.43998 -38.42980  -2.21008  -2.20785  -2.20691
  Beta  occ. eigenvalues --   -2.20029  -2.19865  -2.19846  -2.18778  -1.14841
  Beta  occ. eigenvalues --   -1.14663  -1.14593  -1.14483  -1.14452  -1.14422
  Beta  occ. eigenvalues --   -1.14376  -1.14362  -1.14319  -1.13718  -1.13690
  Beta  occ. eigenvalues --   -1.13682  -1.13638  -1.13517  -1.13504  -1.13498
  Beta  occ. eigenvalues --   -1.13489  -1.13419  -1.12475  -1.12445  -1.12412
  Beta  occ. eigenvalues --   -0.17517  -0.14035  -0.11269
  Beta virt. eigenvalues --   -0.07622  -0.06620  -0.05519  -0.03560  -0.03284
  Beta virt. eigenvalues --   -0.03053  -0.01912  -0.01637  -0.01049  -0.00483
  Beta virt. eigenvalues --   -0.00345   0.00043   0.00166   0.00547   0.00607

 Mulliken charges and spin densities:
               1          2
     1  Na  -0.200253   0.109258
     2  Na  -0.220113  -0.049431
     3  Na   1.094086   0.155258
     4  Na  -0.813269   0.126407
     5  Na   0.828895   0.282456
     6  Na  -0.373957   0.285938
     7  Na  -0.315390   0.090115
 Sum of Mulliken charges =  -0.00000   1.00000

 Dipole moment (field-independent basis, Debye):
    X=             -0.2353    Y=             -0.5687    Z=              0.0076  Tot=              0.6155
 Quadrupole moment (field-independent basis, Debye-Ang):
   XX=            -43.6190   YY=            -76.8727   ZZ=            -74.2602
   XY=              2.2149   XZ=             -2.3331   YZ=              1.0541

 Normal termination of Gaussian 16 at Tue Dec  5 13:47:50 2023.
