 Gaussian 16, Revision B.01,
 Gaussian 16:  ES64L-G16RevB.01 20-Dec-2017

 -------------------------
 #P B3LYP/6-311+g(d) force
 -------------------------

 -----
 DPGEN
 -----
 Symbolic Z-matrix:
 Charge =  0 Multiplicity = 2

                         Standard orientation:
 ---------------------------------------------------------------------
 Center     Atomic      Atomic             Coordinates (Angstroms)
 Number     Number       Type             X           Y           Z
 ---------------------------------------------------------------------
      1         11           0       -0.329128   -2.137764   -0.768850
      2         11           0       -0.256510    2.156796    0.820946
      3         11           0       -2.695003    0.146721    0.000023
      4         11           0       -0.435438    0.296509   -1.681213
      5         11           0       -0.426573   -0.568140    1.691745
      6         11           0        2.112862   -1.000315    0.894984
      7         11           0        2.029789    1.106193   -0.957634
 ---------------------------------------------------------------------

 SCF Done:  E(UB3LYP) =  -1136.08492560     A.U. after   21 cycles

 The electronic state is 2-A.
 Alpha  occ. eigenvalues --  -38.44741 -38.44371 -38.43955 -38.43949 -38.43709
 Alpha  occ. eigenvalues --  -38.43503 -38.43141  -2.21033  -2.20617  -2.20035
 Alpha  occ. eigenvalues --   -2.19996  -2.19742  -2.19597  -2.19187  -1.14892
 Alpha  occ. eigenvalues --   -1.14803  -1.14647  -1.14489  -1.14294  -1.14262
 Alpha  occ. eigenvalues --   -1.13906  -1.13700  -1.13646  -1.13605  -1.13562
 Alpha  occ. eigenvalues --   -1.13444  -1.13434  -1.13408  -1.13308  -1.13284
 Alpha  occ. eigenvalues --   -1.13223  -1.13107  -1.12905  -1.12833  -1.12758
 Alpha  occ. eigenvalues --   -0.21267  -0.13567  -0.12911  -0.12476
 Alpha virt. eigenvalues --   -0.05015  -0.04090  -0.04041  -0.03715  -0.03511
 Alpha virt. eigenvalues --   -0.03337  -0.01006  -0.00412  -0.00227   0.00355
 Alpha virt. eigenvalues --    0.00819   0.00938   0.01022   0.01123   0.01153

  Beta  occ. eigenvalues --  -38.44652 -38.44287 -38.43930 -38.43926 -38.43701
  Beta  occ. eigenvalues --  -38.43477 -38.43116  -2.20873  -2.20468  -2.19995
  Beta  occ. eigenvalues --   -2.19956  -2.19732  -2.19555  -2.19146  -1.14772
  Beta  occ. eigenvalues --   -1.14695  -1.14534  -1.14386  -1.14200  -1.14146
  Beta  occ. eigenvalues --   -1.13880  -1.13656  -1.13587  -1.13579  -1.13524
  Beta  occ. eigenvalues --   -1.13422  -1.13418  -1.13371  -1.13299  -1.13247
  Beta  occ. eigenvalues --   -1.13162  -1.13084  -1.12872  -1.12777  -1.12736
  Beta  occ. eigenvalues --   -0.20479  -0.13269  -0.12232
  Beta virt. eigenvalues --   -0.08559  -0.05011  -0.03833  -0.03762  -0.03106
  Beta virt. eigenvalues --   -0.02696  -0.02229  -0.00964  -0.00382  -0.00042
  Beta virt. eigenvalues --    0.00385   0.00845   0.00996   0.01050   0.01193

 Mulliken charges and spin densities:
               1          2
     1  Na  -0.422444   0.063736
     2  Na  -0.720148   0.029860
     3  Na   0.169162  -0.092109
     4  Na   0.199589   0.409660
     5  Na   0.560625   0.562266
     6  Na  -0.308153  -0.077899
     7  Na   0.521368   0.104485
 Sum of Mulliken charges =  -0.00000   1.00000

 Dipole moment (field-independent basis, Debye):
    X=             -0.1122    Y=              0.0934    Z=              0.1377  Tot=              0.2008
 Quadrupole moment (field-independent basis, Debye-Ang):
   XX=            -61.4043   YY=            -71.0006   ZZ=            -65.4557
   XY=             -0.1621   XZ=             -0.0940   YZ=              1.2325

 Normal termination of Gaussian 16 at Thu Dec  7 13:51:08 2023.
