 Gaussian 16, Revision B.01,
 Gaussian 16:  ES64L-G16RevB.01 20-Dec-2017

 -------------------------
 #P B3LYP/6-311+g(d) force
 -------------------------

 -----
 DPGEN
 -----
 Symbolic Z-matrix:
 Charge =  0 Multiplicity = 2

                         Standard orientation:
 ---------------------------------------------------------------------
 Center     Atomic      Atomic             Coordinates (Angstroms)
 Number     Number       Type             X           Y           Z
 ---------------------------------------------------------------------
      1         11           0        1.093202   -0.516262    1.826823
      2         11           0       -3.992279   -0.397467   -0.426411
      3         11           0       -0.412488    0.388706   -1.428149
      4         11           0        2.628534    1.882477   -0.408023
      5         11           0        3.278945   -1.618831   -0.574566
      6         11           0       -1.257583   -1.887069    0.248766
      7         11           0       -1.338330    2.148447    0.761560
 ---------------------------------------------------------------------

 SCF Done:  E(UB3LYP) =  -1136.11816896     A.U. after   22 cycles

 The electronic state is 2-A.
 Alpha  occ. eigenvalues --  -38.44931 -38.44641 -38.44194 -38.44026 -38.43303
 Alpha  occ. eigenvalues --  -38.43287 -38.43280  -2.20749  -2.20606  -2.19994
 Alpha  occ. eigenvalues --   -2.19843  -2.19241  -2.19228  -2.19146  -1.14421
 Alpha  occ. eigenvalues --   -1.14403  -1.14373  -1.14354  -1.14302  -1.14185
 Alpha  occ. eigenvalues --   -1.13670  -1.13644  -1.13629  -1.13532  -1.13502
 Alpha  occ. eigenvalues --   -1.13453  -1.13017  -1.12951  -1.12871  -1.12864
 Alpha  occ. eigenvalues --   -1.12847  -1.12843  -1.12801  -1.12792  -1.12741
 Alpha  occ. eigenvalues --   -0.18602  -0.14057  -0.11236  -0.10677
 Alpha virt. eigenvalues --   -0.06931  -0.05532  -0.03948  -0.03148  -0.02840
 Alpha virt. eigenvalues --   -0.02444  -0.01997  -0.01362  -0.00734  -0.00229
 Alpha virt. eigenvalues --    0.00056   0.00181   0.00494   0.00629   0.00717

  Beta  occ. eigenvalues --  -38.44905 -38.44628 -38.44171 -38.44007 -38.43269
  Beta  occ. eigenvalues --  -38.43262 -38.43226  -2.20699  -2.20583  -2.19952
  Beta  occ. eigenvalues --   -2.19810  -2.19204  -2.19117  -2.19101  -1.14389
  Beta  occ. eigenvalues --   -1.14365  -1.14341  -1.14325  -1.14289  -1.14166
  Beta  occ. eigenvalues --   -1.13643  -1.13613  -1.13593  -1.13503  -1.13485
  Beta  occ. eigenvalues --   -1.13419  -1.12970  -1.12894  -1.12848  -1.12822
  Beta  occ. eigenvalues --   -1.12779  -1.12756  -1.12740  -1.12730  -1.12720
  Beta  occ. eigenvalues --   -0.17948  -0.13638  -0.11039
  Beta virt. eigenvalues --   -0.07015  -0.06626  -0.05426  -0.03527  -0.02923
  Beta virt. eigenvalues --   -0.02612  -0.01846  -0.01314  -0.01252  -0.00478
  Beta virt. eigenvalues --   -0.00055   0.00153   0.00185   0.00652   0.00707

 Mulliken charges and spin densities:
               1          2
     1  Na   0.329957   0.286028
     2  Na   0.557324   0.158165
     3  Na  -0.354477   0.219059
     4  Na   0.079435   0.250964
     5  Na  -0.105994   0.146883
     6  Na  -0.267892  -0.081494
     7  Na  -0.238353   0.020396
 Sum of Mulliken charges =  -0.00000   1.00000

 Dipole moment (field-independent basis, Debye):
    X=             -0.4440    Y=              0.3097    Z=              0.1520  Tot=              0.5623
 Quadrupole moment (field-independent basis, Debye-Ang):
   XX=            -49.9703   YY=            -73.7120   ZZ=            -70.1190
   XY=             -1.1950   XZ=             -1.0681   YZ=              2.9164

 Normal termination of Gaussian 16 at Fri Dec  8 01:00:17 2023.
