 Gaussian 16, Revision B.01,
 Gaussian 16:  ES64L-G16RevB.01 20-Dec-2017

 -------------------------
 #P B3LYP/6-311+g(d) force
 -------------------------

 -----
 DPGEN
 -----
 Symbolic Z-matrix:
 Charge =  0 Multiplicity = 2

                         Standard orientation:
 ---------------------------------------------------------------------
 Center     Atomic      Atomic             Coordinates (Angstroms)
 Number     Number       Type             X           Y           Z
 ---------------------------------------------------------------------
      1         11           0        0.234709   -0.155656    1.901240
      2         11           0       -2.154915    2.279652    0.113461
      3         11           0       -0.128129   -2.907102    0.054474
      4         11           0       -0.039121    0.218088   -1.438668
      5         11           0       -2.833444   -1.057569   -0.281988
      6         11           0        1.775996    2.567304   -0.033618
      7         11           0        3.144906   -0.944717   -0.314901
 ---------------------------------------------------------------------

 SCF Done:  E(UB3LYP) =  -1136.13757930     A.U. after   20 cycles

 The electronic state is 2-A.
 Alpha  occ. eigenvalues --  -38.44270 -38.43987 -38.43789 -38.43654 -38.43331
 Alpha  occ. eigenvalues --  -38.43083 -38.42859  -2.20066  -2.19804  -2.19618
 Alpha  occ. eigenvalues --   -2.19531  -2.19203  -2.19006  -2.18876  -1.13743
 Alpha  occ. eigenvalues --   -1.13718  -1.13705  -1.13498  -1.13470  -1.13426
 Alpha  occ. eigenvalues --   -1.13306  -1.13285  -1.13257  -1.13223  -1.13183
 Alpha  occ. eigenvalues --   -1.13165  -1.12896  -1.12870  -1.12832  -1.12703
 Alpha  occ. eigenvalues --   -1.12621  -1.12615  -1.12566  -1.12513  -1.12492
 Alpha  occ. eigenvalues --   -0.18675  -0.13031  -0.12556  -0.10263
 Alpha virt. eigenvalues --   -0.05795  -0.05309  -0.04825  -0.02951  -0.02746
 Alpha virt. eigenvalues --   -0.02098  -0.01668  -0.01329  -0.00557  -0.00449
 Alpha virt. eigenvalues --    0.00026   0.00337   0.00786   0.00803   0.00884

  Beta  occ. eigenvalues --  -38.44262 -38.43983 -38.43786 -38.43646 -38.43324
  Beta  occ. eigenvalues --  -38.42989 -38.42806  -2.20054  -2.19801  -2.19616
  Beta  occ. eigenvalues --   -2.19519  -2.19195  -2.18834  -2.18782  -1.13720
  Beta  occ. eigenvalues --   -1.13709  -1.13698  -1.13491  -1.13453  -1.13424
  Beta  occ. eigenvalues --   -1.13304  -1.13274  -1.13249  -1.13212  -1.13163
  Beta  occ. eigenvalues --   -1.13153  -1.12888  -1.12834  -1.12831  -1.12595
  Beta  occ. eigenvalues --   -1.12500  -1.12494  -1.12483  -1.12444  -1.12423
  Beta  occ. eigenvalues --   -0.17972  -0.12772  -0.12325
  Beta virt. eigenvalues --   -0.06400  -0.05778  -0.05261  -0.04800  -0.02213
  Beta virt. eigenvalues --   -0.01986  -0.01571  -0.01265  -0.01076  -0.00602
  Beta virt. eigenvalues --   -0.00489   0.00167   0.00382   0.00803   0.00843

 Mulliken charges and spin densities:
               1          2
     1  Na  -0.384921   0.754246
     2  Na   0.143457  -0.032451
     3  Na   0.289907  -0.005007
     4  Na  -0.445959   0.392063
     5  Na   0.248771   0.018455
     6  Na   0.085281  -0.081048
     7  Na   0.063463  -0.046259
 Sum of Mulliken charges =  -0.00000   1.00000

 Dipole moment (field-independent basis, Debye):
    X=              0.3098    Y=              0.2038    Z=              0.1056  Tot=              0.3855
 Quadrupole moment (field-independent basis, Debye-Ang):
   XX=            -54.8939   YY=            -59.4376   ZZ=            -76.9239
   XY=             -0.4595   XZ=             -0.6237   YZ=              1.0336

 Normal termination of Gaussian 16 at Fri Dec  8 01:39:23 2023.
