 Gaussian 16, Revision B.01,
 Gaussian 16:  ES64L-G16RevB.01 20-Dec-2017

 -------------------------
 #P B3LYP/6-311+g(d) force
 -------------------------

 -----
 DPGEN
 -----
 Symbolic Z-matrix:
 Charge =  0 Multiplicity = 2

                         Standard orientation:
 ---------------------------------------------------------------------
 Center     Atomic      Atomic             Coordinates (Angstroms)
 Number     Number       Type             X           Y           Z
 ---------------------------------------------------------------------
      1         11           0        0.810202    2.762166    0.096125
      2         11           0       -2.613277   -1.633037   -0.216455
      3         11           0       -0.162950   -0.059362    2.238073
      4         11           0        0.234885    0.173755   -1.469120
      5         11           0        0.569730   -2.595146   -0.108570
      6         11           0       -2.380469    1.665680   -0.344608
      7         11           0        3.541879   -0.314055   -0.195445
 ---------------------------------------------------------------------

 SCF Done:  E(UB3LYP) =  -1136.13431263     A.U. after   19 cycles

 The electronic state is 2-A.
 Alpha  occ. eigenvalues --  -38.44504 -38.43794 -38.43545 -38.43539 -38.43461
 Alpha  occ. eigenvalues --  -38.43302 -38.43142  -2.20270  -2.19664  -2.19428
 Alpha  occ. eigenvalues --   -2.19409  -2.19326  -2.19193  -2.19174  -1.13947
 Alpha  occ. eigenvalues --   -1.13922  -1.13910  -1.13323  -1.13289  -1.13281
 Alpha  occ. eigenvalues --   -1.13158  -1.13124  -1.13090  -1.13082  -1.13061
 Alpha  occ. eigenvalues --   -1.13055  -1.13024  -1.12983  -1.12969  -1.12930
 Alpha  occ. eigenvalues --   -1.12858  -1.12829  -1.12793  -1.12775  -1.12760
 Alpha  occ. eigenvalues --   -0.18745  -0.12836  -0.12542  -0.10873
 Alpha virt. eigenvalues --   -0.05976  -0.04903  -0.04512  -0.02968  -0.02948
 Alpha virt. eigenvalues --   -0.02732  -0.01857  -0.01041  -0.00290  -0.00168
 Alpha virt. eigenvalues --   -0.00054   0.00303   0.00770   0.00870   0.00918

  Beta  occ. eigenvalues --  -38.44505 -38.43683 -38.43540 -38.43528 -38.43456
  Beta  occ. eigenvalues --  -38.43295 -38.43093  -2.20273  -2.19458  -2.19412
  Beta  occ. eigenvalues --   -2.19402  -2.19320  -2.19182  -2.19087  -1.13938
  Beta  occ. eigenvalues --   -1.13925  -1.13913  -1.13188  -1.13152  -1.13137
  Beta  occ. eigenvalues --   -1.13136  -1.13114  -1.13081  -1.13057  -1.13043
  Beta  occ. eigenvalues --   -1.13032  -1.13018  -1.12958  -1.12945  -1.12930
  Beta  occ. eigenvalues --   -1.12823  -1.12788  -1.12774  -1.12726  -1.12699
  Beta  occ. eigenvalues --   -0.18012  -0.12622  -0.12313
  Beta virt. eigenvalues --   -0.06872  -0.05928  -0.04894  -0.04482  -0.02275
  Beta virt. eigenvalues --   -0.02123  -0.01807  -0.01566  -0.00985  -0.00325
  Beta virt. eigenvalues --   -0.00204   0.00115   0.00344   0.00821   0.00873

 Mulliken charges and spin densities:
               1          2
     1  Na   0.203933   0.021361
     2  Na   0.193902   0.043175
     3  Na  -0.660979   0.706089
     4  Na  -0.533874   0.172491
     5  Na   0.279125   0.021125
     6  Na   0.402255   0.080207
     7  Na   0.115639  -0.044447
 Sum of Mulliken charges =  -0.00000   1.00000

 Dipole moment (field-independent basis, Debye):
    X=              0.3938    Y=              0.0656    Z=              0.2733  Tot=              0.4838
 Quadrupole moment (field-independent basis, Debye-Ang):
   XX=            -54.3482   YY=            -64.6182   ZZ=            -74.0414
   XY=              0.5969   XZ=              0.8689   YZ=              0.4905

 Normal termination of Gaussian 16 at Thu Dec  7 09:09:22 2023.
