 Gaussian 16, Revision B.01,
 Gaussian 16:  ES64L-G16RevB.01 20-Dec-2017

 -------------------------
 #P B3LYP/6-311+g(d) force
 -------------------------

 -----
 DPGEN
 -----
 Symbolic Z-matrix:
 Charge =  0 Multiplicity = 2

                         Standard orientation:
 ---------------------------------------------------------------------
 Center     Atomic      Atomic             Coordinates (Angstroms)
 Number     Number       Type             X           Y           Z
 ---------------------------------------------------------------------
      1         11           0        1.967857    2.274184   -0.002559
      2         11           0       -2.187325    2.030960   -0.680820
      3         11           0        3.515227   -0.904354   -0.518150
      4         11           0       -3.418896   -1.417441   -0.165386
      5         11           0       -0.000505   -0.863388   -1.592453
      6         11           0        0.650998   -1.944263    1.130115
      7         11           0       -0.527356    0.824302    1.829252
 ---------------------------------------------------------------------

 SCF Done:  E(UB3LYP) =  -1136.12544705     A.U. after   21 cycles

 The electronic state is 2-A.
 Alpha  occ. eigenvalues --  -38.44793 -38.44445 -38.44142 -38.43911 -38.43566
 Alpha  occ. eigenvalues --  -38.43315 -38.43206  -2.20552  -2.20254  -2.20030
 Alpha  occ. eigenvalues --   -2.19735  -2.19364  -2.19252  -2.19154  -1.14229
 Alpha  occ. eigenvalues --   -1.14210  -1.14186  -1.13926  -1.13903  -1.13892
 Alpha  occ. eigenvalues --   -1.13790  -1.13683  -1.13613  -1.13431  -1.13408
 Alpha  occ. eigenvalues --   -1.13340  -1.13053  -1.13034  -1.13015  -1.12994
 Alpha  occ. eigenvalues --   -1.12920  -1.12831  -1.12798  -1.12781  -1.12738
 Alpha  occ. eigenvalues --   -0.18326  -0.13413  -0.11537  -0.10971
 Alpha virt. eigenvalues --   -0.06457  -0.05587  -0.03802  -0.03314  -0.02807
 Alpha virt. eigenvalues --   -0.02548  -0.02273  -0.01317  -0.00456  -0.00197
 Alpha virt. eigenvalues --    0.00077   0.00225   0.00618   0.00703   0.00726

  Beta  occ. eigenvalues --  -38.44792 -38.44430 -38.44112 -38.43896 -38.43562
  Beta  occ. eigenvalues --  -38.43261 -38.43126  -2.20551  -2.20227  -2.19974
  Beta  occ. eigenvalues --   -2.19709  -2.19359  -2.19159  -2.19009  -1.14223
  Beta  occ. eigenvalues --   -1.14202  -1.14187  -1.13898  -1.13885  -1.13876
  Beta  occ. eigenvalues --   -1.13743  -1.13645  -1.13570  -1.13410  -1.13387
  Beta  occ. eigenvalues --   -1.13318  -1.13039  -1.13027  -1.12988  -1.12932
  Beta  occ. eigenvalues --   -1.12835  -1.12772  -1.12708  -1.12678  -1.12628
  Beta  occ. eigenvalues --   -0.17609  -0.13127  -0.11403
  Beta virt. eigenvalues --   -0.07074  -0.06258  -0.05541  -0.03507  -0.02913
  Beta virt. eigenvalues --   -0.02267  -0.02137  -0.01492  -0.01256  -0.00362
  Beta virt. eigenvalues --   -0.00022   0.00100   0.00276   0.00693   0.00746

 Mulliken charges and spin densities:
               1          2
     1  Na  -0.234911  -0.104755
     2  Na  -0.159539   0.042212
     3  Na   0.181612   0.190262
     4  Na   0.091308  -0.061907
     5  Na  -0.355033   0.598682
     6  Na   0.166471  -0.095604
     7  Na   0.310093   0.431110
 Sum of Mulliken charges =  -0.00000   1.00000

 Dipole moment (field-independent basis, Debye):
    X=             -0.2359    Y=             -0.2459    Z=             -0.3222  Tot=              0.4690
 Quadrupole moment (field-independent basis, Debye-Ang):
   XX=            -49.9268   YY=            -71.0392   ZZ=            -71.8813
   XY=              0.4261   XZ=             -0.6134   YZ=             -2.3391

 Normal termination of Gaussian 16 at Sun Dec  3 17:42:54 2023.
