 Gaussian 16, Revision B.01,
 Gaussian 16:  ES64L-G16RevB.01 20-Dec-2017

 -------------------------
 #P B3LYP/6-311+g(d) force
 -------------------------

 -----
 DPGEN
 -----
 Symbolic Z-matrix:
 Charge =  0 Multiplicity = 2

                         Standard orientation:
 ---------------------------------------------------------------------
 Center     Atomic      Atomic             Coordinates (Angstroms)
 Number     Number       Type             X           Y           Z
 ---------------------------------------------------------------------
      1         11           0        1.809758    1.419216   -0.833291
      2         11           0       -1.146333    2.576628    0.212898
      3         11           0       -3.853050    0.511895   -0.089551
      4         11           0        4.659465   -0.733074   -1.272512
      5         11           0       -3.793915   -2.296286   -0.883715
      6         11           0       -0.398883   -0.348182    1.223929
      7         11           0        2.722957   -1.130196    1.642242
 ---------------------------------------------------------------------

 SCF Done:  E(UB3LYP) =  -1136.11955869     A.U. after   22 cycles

 The electronic state is 2-A.
 Alpha  occ. eigenvalues --  -38.44488 -38.44147 -38.44117 -38.44082 -38.44077
 Alpha  occ. eigenvalues --  -38.43826 -38.43161  -2.20339  -2.20037  -2.20003
 Alpha  occ. eigenvalues --   -2.19956  -2.19888  -2.19642  -2.19047  -1.14044
 Alpha  occ. eigenvalues --   -1.14023  -1.13938  -1.13757  -1.13717  -1.13710
 Alpha  occ. eigenvalues --   -1.13679  -1.13663  -1.13628  -1.13613  -1.13609
 Alpha  occ. eigenvalues --   -1.13585  -1.13544  -1.13539  -1.13500  -1.13288
 Alpha  occ. eigenvalues --   -1.13283  -1.13267  -1.12710  -1.12698  -1.12694
 Alpha  occ. eigenvalues --   -0.17499  -0.14477  -0.11681  -0.11269
 Alpha virt. eigenvalues --   -0.06749  -0.05179  -0.04079  -0.04004  -0.02906
 Alpha virt. eigenvalues --   -0.02352  -0.02188  -0.01609  -0.00803  -0.00517
 Alpha virt. eigenvalues --   -0.00019   0.00204   0.00294   0.00372   0.00596

  Beta  occ. eigenvalues --  -38.44462 -38.44097 -38.44068 -38.44051 -38.44032
  Beta  occ. eigenvalues --  -38.43833 -38.43150  -2.20293  -2.19940  -2.19920
  Beta  occ. eigenvalues --   -2.19915  -2.19794  -2.19656  -2.19027  -1.14015
  Beta  occ. eigenvalues --   -1.13980  -1.13899  -1.13710  -1.13669  -1.13627
  Beta  occ. eigenvalues --   -1.13614  -1.13599  -1.13597  -1.13582  -1.13558
  Beta  occ. eigenvalues --   -1.13506  -1.13480  -1.13466  -1.13441  -1.13297
  Beta  occ. eigenvalues --   -1.13290  -1.13274  -1.12697  -1.12682  -1.12679
  Beta  occ. eigenvalues --   -0.16901  -0.14146  -0.11541
  Beta virt. eigenvalues --   -0.07313  -0.06555  -0.04767  -0.03888  -0.03765
  Beta virt. eigenvalues --   -0.02380  -0.02106  -0.01682  -0.01426  -0.00538
  Beta virt. eigenvalues --   -0.00346   0.00104   0.00301   0.00432   0.00535

 Mulliken charges and spin densities:
               1          2
     1  Na  -0.559403   0.293207
     2  Na   0.862575   0.078786
     3  Na   0.420069   0.124471
     4  Na   0.267720   0.155899
     5  Na   0.189560  -0.083239
     6  Na  -1.272522   0.485977
     7  Na   0.092001  -0.055101
 Sum of Mulliken charges =  -0.00000   1.00000

 Dipole moment (field-independent basis, Debye):
    X=              0.4649    Y=              0.0368    Z=             -0.1117  Tot=              0.4795
 Quadrupole moment (field-independent basis, Debye-Ang):
   XX=            -65.0815   YY=            -65.6660   ZZ=            -69.3155
   XY=             -5.4755   XZ=             -0.5074   YZ=              1.6711

 Normal termination of Gaussian 16 at Wed Nov 29 01:28:16 2023.
