 Gaussian 16, Revision B.01,
 Gaussian 16:  ES64L-G16RevB.01 20-Dec-2017

 -------------------------
 #P B3LYP/6-311+g(d) force
 -------------------------

 -----
 DPGEN
 -----
 Symbolic Z-matrix:
 Charge =  0 Multiplicity = 2

                         Standard orientation:
 ---------------------------------------------------------------------
 Center     Atomic      Atomic             Coordinates (Angstroms)
 Number     Number       Type             X           Y           Z
 ---------------------------------------------------------------------
      1         11           0       -0.086059    0.116534   -1.686580
      2         11           0        3.174248    0.285935   -0.340362
      3         11           0       -0.515828   -0.827438    1.923972
      4         11           0       -2.817525   -1.365612   -0.466015
      5         11           0        1.173208    2.250745    0.546876
      6         11           0       -2.145596    2.156426    0.016008
      7         11           0        1.217552   -2.616589    0.006100
 ---------------------------------------------------------------------

 SCF Done:  E(UB3LYP) =  -1136.13342240     A.U. after   19 cycles

 The electronic state is 2-A.
 Alpha  occ. eigenvalues --  -38.44293 -38.44103 -38.43682 -38.43542 -38.43420
 Alpha  occ. eigenvalues --  -38.43319 -38.43134  -2.20132  -2.19977  -2.19530
 Alpha  occ. eigenvalues --   -2.19399  -2.19337  -2.19297  -2.19059  -1.13814
 Alpha  occ. eigenvalues --   -1.13800  -1.13754  -1.13715  -1.13625  -1.13598
 Alpha  occ. eigenvalues --   -1.13221  -1.13195  -1.13167  -1.13147  -1.13074
 Alpha  occ. eigenvalues --   -1.13021  -1.12992  -1.12974  -1.12963  -1.12936
 Alpha  occ. eigenvalues --   -1.12933  -1.12913  -1.12730  -1.12703  -1.12693
 Alpha  occ. eigenvalues --   -0.18843  -0.13318  -0.12400  -0.10829
 Alpha virt. eigenvalues --   -0.05916  -0.05235  -0.04225  -0.03379  -0.03007
 Alpha virt. eigenvalues --   -0.02461  -0.01661  -0.01133  -0.00325  -0.00038
 Alpha virt. eigenvalues --    0.00039   0.00352   0.00773   0.00807   0.00918

  Beta  occ. eigenvalues --  -38.44280 -38.44099 -38.43679 -38.43536 -38.43340
  Beta  occ. eigenvalues --  -38.43254 -38.43121  -2.20111  -2.19972  -2.19527
  Beta  occ. eigenvalues --   -2.19392  -2.19189  -2.19177  -2.19037  -1.13792
  Beta  occ. eigenvalues --   -1.13773  -1.13741  -1.13713  -1.13605  -1.13597
  Beta  occ. eigenvalues --   -1.13219  -1.13173  -1.13164  -1.13119  -1.13045
  Beta  occ. eigenvalues --   -1.13019  -1.12910  -1.12884  -1.12862  -1.12855
  Beta  occ. eigenvalues --   -1.12836  -1.12824  -1.12715  -1.12690  -1.12652
  Beta  occ. eigenvalues --   -0.18131  -0.13073  -0.12150
  Beta virt. eigenvalues --   -0.06941  -0.05880  -0.05200  -0.04126  -0.02650
  Beta virt. eigenvalues --   -0.02230  -0.01564  -0.01439  -0.01088  -0.00343
  Beta virt. eigenvalues --    0.00008   0.00129   0.00386   0.00805   0.00871

 Mulliken charges and spin densities:
               1          2
     1  Na  -0.268084   0.454416
     2  Na   0.079594   0.026742
     3  Na  -0.343714   0.572156
     4  Na   0.188604  -0.095754
     5  Na   0.057283   0.107021
     6  Na   0.105404   0.021882
     7  Na   0.180913  -0.086464
 Sum of Mulliken charges =  -0.00000   1.00000

 Dipole moment (field-independent basis, Debye):
    X=             -0.3266    Y=             -0.2802    Z=             -0.0558  Tot=              0.4339
 Quadrupole moment (field-independent basis, Debye-Ang):
   XX=            -54.7348   YY=            -65.8199   ZZ=            -73.4472
   XY=             -0.5300   XZ=              0.0970   YZ=              1.7998

 Normal termination of Gaussian 16 at Thu Dec  7 17:00:25 2023.
