 Gaussian 16, Revision B.01,
 Gaussian 16:  ES64L-G16RevB.01 20-Dec-2017

 -------------------------
 #P B3LYP/6-311+g(d) force
 -------------------------

 -----
 DPGEN
 -----
 Symbolic Z-matrix:
 Charge =  0 Multiplicity = 2

                         Standard orientation:
 ---------------------------------------------------------------------
 Center     Atomic      Atomic             Coordinates (Angstroms)
 Number     Number       Type             X           Y           Z
 ---------------------------------------------------------------------
      1         11           0       -0.618057    3.138301   -0.022796
      2         11           0        2.511936   -1.947884   -0.356444
      3         11           0        0.104112   -0.167767    1.946526
      4         11           0        0.026206    0.406777   -1.771670
      5         11           0        2.579375    1.277903    0.250927
      6         11           0       -1.318942   -2.721368   -0.038188
      7         11           0       -3.284630    0.014036   -0.008356
 ---------------------------------------------------------------------

 SCF Done:  E(UB3LYP) =  -1136.13777072     A.U. after   19 cycles

 The electronic state is 2-A.
 Alpha  occ. eigenvalues --  -38.44288 -38.43727 -38.43675 -38.43641 -38.43579
 Alpha  occ. eigenvalues --  -38.43515 -38.43346  -2.20081  -2.19615  -2.19502
 Alpha  occ. eigenvalues --   -2.19464  -2.19410  -2.19389  -2.19265  -1.13757
 Alpha  occ. eigenvalues --   -1.13741  -1.13722  -1.13323  -1.13295  -1.13255
 Alpha  occ. eigenvalues --   -1.13164  -1.13154  -1.13142  -1.13140  -1.13131
 Alpha  occ. eigenvalues --   -1.13096  -1.13088  -1.13077  -1.13049  -1.13031
 Alpha  occ. eigenvalues --   -1.13028  -1.13022  -1.12941  -1.12895  -1.12877
 Alpha  occ. eigenvalues --   -0.18380  -0.12997  -0.12355  -0.10600
 Alpha virt. eigenvalues --   -0.05691  -0.05169  -0.04979  -0.03182  -0.02873
 Alpha virt. eigenvalues --   -0.02467  -0.01524  -0.01262  -0.00525  -0.00470
 Alpha virt. eigenvalues --   -0.00012   0.00363   0.00782   0.00846   0.00874

  Beta  occ. eigenvalues --  -38.44288 -38.43716 -38.43667 -38.43638 -38.43578
  Beta  occ. eigenvalues --  -38.43428 -38.43278  -2.20083  -2.19599  -2.19490
  Beta  occ. eigenvalues --   -2.19461  -2.19390  -2.19249  -2.19139  -1.13750
  Beta  occ. eigenvalues --   -1.13739  -1.13725  -1.13314  -1.13253  -1.13244
  Beta  occ. eigenvalues --   -1.13148  -1.13137  -1.13134  -1.13130  -1.13116
  Beta  occ. eigenvalues --   -1.13096  -1.13075  -1.13040  -1.13028  -1.12973
  Beta  occ. eigenvalues --   -1.12915  -1.12912  -1.12858  -1.12807  -1.12785
  Beta  occ. eigenvalues --   -0.17645  -0.12787  -0.12139
  Beta virt. eigenvalues --   -0.06711  -0.05677  -0.05148  -0.04892  -0.02403
  Beta virt. eigenvalues --   -0.02143  -0.01476  -0.01404  -0.01182  -0.00569
  Beta virt. eigenvalues --   -0.00515   0.00127   0.00387   0.00805   0.00856

 Mulliken charges and spin densities:
               1          2
     1  Na   0.047560  -0.153233
     2  Na  -0.011967  -0.030998
     3  Na  -0.201378   0.681957
     4  Na  -0.189455   0.692808
     5  Na   0.358735   0.027889
     6  Na   0.017209  -0.082086
     7  Na  -0.020705  -0.136338
 Sum of Mulliken charges =  -0.00000   1.00000

 Dipole moment (field-independent basis, Debye):
    X=             -0.2696    Y=              0.0244    Z=              0.0408  Tot=              0.2737
 Quadrupole moment (field-independent basis, Debye-Ang):
   XX=            -57.3843   YY=            -60.8747   ZZ=            -75.1016
   XY=             -1.1770   XZ=             -0.3016   YZ=              1.5538

 Normal termination of Gaussian 16 at Fri Dec  8 02:35:07 2023.
