 Gaussian 16, Revision B.01,
 Gaussian 16:  ES64L-G16RevB.01 20-Dec-2017

 -------------------------
 #P B3LYP/6-311+g(d) force
 -------------------------

 -----
 DPGEN
 -----
 Symbolic Z-matrix:
 Charge =  0 Multiplicity = 2

                         Standard orientation:
 ---------------------------------------------------------------------
 Center     Atomic      Atomic             Coordinates (Angstroms)
 Number     Number       Type             X           Y           Z
 ---------------------------------------------------------------------
      1         11           0        0.632565   -2.633782    0.110347
      2         11           0       -1.953912    2.177776   -0.059367
      3         11           0       -0.461058    0.090858    2.059269
      4         11           0       -2.796224   -1.358766   -0.302099
      5         11           0        1.552276    2.367637   -0.170522
      6         11           0        3.054644   -0.496195    0.044526
      7         11           0       -0.028292   -0.147527   -1.682155
 ---------------------------------------------------------------------

 SCF Done:  E(UB3LYP) =  -1136.13888353     A.U. after   18 cycles

 The electronic state is 2-A.
 Alpha  occ. eigenvalues --  -38.43926 -38.43773 -38.43626 -38.43539 -38.43266
 Alpha  occ. eigenvalues --  -38.43207 -38.43195  -2.19768  -2.19641  -2.19531
 Alpha  occ. eigenvalues --   -2.19406  -2.19216  -2.19141  -2.19097  -1.13455
 Alpha  occ. eigenvalues --   -1.13426  -1.13403  -1.13316  -1.13313  -1.13294
 Alpha  occ. eigenvalues --   -1.13206  -1.13177  -1.13147  -1.13085  -1.13064
 Alpha  occ. eigenvalues --   -1.13031  -1.12941  -1.12895  -1.12842  -1.12802
 Alpha  occ. eigenvalues --   -1.12790  -1.12769  -1.12758  -1.12742  -1.12710
 Alpha  occ. eigenvalues --   -0.18985  -0.13144  -0.12514  -0.10938
 Alpha virt. eigenvalues --   -0.05516  -0.05198  -0.04440  -0.03263  -0.02942
 Alpha virt. eigenvalues --   -0.02665  -0.01480  -0.01038  -0.00175  -0.00132
 Alpha virt. eigenvalues --   -0.00020   0.00363   0.00820   0.00910   0.00944

  Beta  occ. eigenvalues --  -38.43918 -38.43772 -38.43533 -38.43531 -38.43261
  Beta  occ. eigenvalues --  -38.43187 -38.43139  -2.19757  -2.19642  -2.19399
  Beta  occ. eigenvalues --   -2.19357  -2.19136  -2.19094  -2.19085  -1.13438
  Beta  occ. eigenvalues --   -1.13403  -1.13399  -1.13322  -1.13314  -1.13275
  Beta  occ. eigenvalues --   -1.13122  -1.13067  -1.13059  -1.13035  -1.13022
  Beta  occ. eigenvalues --   -1.13004  -1.12880  -1.12846  -1.12787  -1.12773
  Beta  occ. eigenvalues --   -1.12764  -1.12733  -1.12727  -1.12709  -1.12688
  Beta  occ. eigenvalues --   -0.18243  -0.12909  -0.12257
  Beta virt. eigenvalues --   -0.06989  -0.05487  -0.05178  -0.04423  -0.02465
  Beta virt. eigenvalues --   -0.02132  -0.01582  -0.01397  -0.00978  -0.00226
  Beta virt. eigenvalues --   -0.00181   0.00120   0.00385   0.00879   0.00904

 Mulliken charges and spin densities:
               1          2
     1  Na   0.299675  -0.005703
     2  Na   0.249984  -0.065051
     3  Na  -0.606943   0.727968
     4  Na   0.280402  -0.067527
     5  Na   0.192753  -0.046191
     6  Na   0.004728  -0.033304
     7  Na  -0.420599   0.489809
 Sum of Mulliken charges =  -0.00000   1.00000

 Dipole moment (field-independent basis, Debye):
    X=             -0.2567    Y=             -0.0268    Z=              0.1467  Tot=              0.2968
 Quadrupole moment (field-independent basis, Debye-Ang):
   XX=            -56.4281   YY=            -64.2780   ZZ=            -73.2945
   XY=              0.2160   XZ=              0.9872   YZ=             -0.4676

 Normal termination of Gaussian 16 at Thu Dec  7 07:26:21 2023.
