 Gaussian 16, Revision B.01,
 Gaussian 16:  ES64L-G16RevB.01 20-Dec-2017

 -------------------------
 #P B3LYP/6-311+g(d) force
 -------------------------

 -----
 DPGEN
 -----
 Symbolic Z-matrix:
 Charge =  0 Multiplicity = 2

                         Standard orientation:
 ---------------------------------------------------------------------
 Center     Atomic      Atomic             Coordinates (Angstroms)
 Number     Number       Type             X           Y           Z
 ---------------------------------------------------------------------
      1         11           0       -2.188173    1.894966    0.148802
      2         11           0        1.291670    2.771991   -0.105958
      3         11           0        3.106450   -0.766795    0.284593
      4         11           0        0.419344   -0.457172    2.005429
      5         11           0       -3.006601   -1.124477    0.236638
      6         11           0        0.253139    0.362684   -1.799172
      7         11           0        0.124171   -2.681197   -0.770332
 ---------------------------------------------------------------------

 SCF Done:  E(UB3LYP) =  -1136.13576059     A.U. after   19 cycles

 The electronic state is 2-A.
 Alpha  occ. eigenvalues --  -38.44215 -38.43951 -38.43708 -38.43559 -38.43428
 Alpha  occ. eigenvalues --  -38.43425 -38.43417  -2.20046  -2.19834  -2.19539
 Alpha  occ. eigenvalues --   -2.19418  -2.19387  -2.19283  -2.19265  -1.13758
 Alpha  occ. eigenvalues --   -1.13696  -1.13675  -1.13492  -1.13462  -1.13454
 Alpha  occ. eigenvalues --   -1.13271  -1.13197  -1.13178  -1.13125  -1.13096
 Alpha  occ. eigenvalues --   -1.13084  -1.13068  -1.13032  -1.13002  -1.12955
 Alpha  occ. eigenvalues --   -1.12931  -1.12920  -1.12897  -1.12892  -1.12883
 Alpha  occ. eigenvalues --   -0.18535  -0.13019  -0.12404  -0.11074
 Alpha virt. eigenvalues --   -0.05691  -0.05040  -0.04543  -0.03354  -0.03066
 Alpha virt. eigenvalues --   -0.02767  -0.01537  -0.01056  -0.00304  -0.00202
 Alpha virt. eigenvalues --   -0.00020   0.00356   0.00818   0.00879   0.00896

  Beta  occ. eigenvalues --  -38.44205 -38.43873 -38.43707 -38.43556 -38.43422
  Beta  occ. eigenvalues --  -38.43389 -38.43353  -2.20032  -2.19690  -2.19539
  Beta  occ. eigenvalues --   -2.19413  -2.19264  -2.19250  -2.19235  -1.13731
  Beta  occ. eigenvalues --   -1.13675  -1.13669  -1.13400  -1.13363  -1.13347
  Beta  occ. eigenvalues --   -1.13272  -1.13187  -1.13175  -1.13089  -1.13070
  Beta  occ. eigenvalues --   -1.13046  -1.13024  -1.13004  -1.12923  -1.12906
  Beta  occ. eigenvalues --   -1.12901  -1.12886  -1.12882  -1.12863  -1.12838
  Beta  occ. eigenvalues --   -0.17817  -0.12763  -0.12168
  Beta virt. eigenvalues --   -0.07170  -0.05588  -0.05040  -0.04458  -0.02594
  Beta virt. eigenvalues --   -0.02360  -0.01733  -0.01428  -0.01002  -0.00275
  Beta virt. eigenvalues --   -0.00234   0.00102   0.00395   0.00853   0.00894

 Mulliken charges and spin densities:
               1          2
     1  Na  -0.034395  -0.018664
     2  Na   0.112090  -0.092800
     3  Na   0.221023  -0.035797
     4  Na  -0.396874   0.681611
     5  Na  -0.037333  -0.030608
     6  Na  -0.009844   0.446351
     7  Na   0.145333   0.049907
 Sum of Mulliken charges =  -0.00000   1.00000

 Dipole moment (field-independent basis, Debye):
    X=              0.3798    Y=             -0.0894    Z=              0.2209  Tot=              0.4484
 Quadrupole moment (field-independent basis, Debye-Ang):
   XX=            -57.8178   YY=            -64.4680   ZZ=            -72.6217
   XY=              0.5782   XZ=             -0.4590   YZ=              1.6169

 Normal termination of Gaussian 16 at Mon Dec  4 04:15:10 2023.
