 Gaussian 16, Revision B.01,
 Gaussian 16:  ES64L-G16RevB.01 20-Dec-2017

 -------------------------
 #P B3LYP/6-311+g(d) force
 -------------------------

 -----
 DPGEN
 -----
 Symbolic Z-matrix:
 Charge =  0 Multiplicity = 2

                         Standard orientation:
 ---------------------------------------------------------------------
 Center     Atomic      Atomic             Coordinates (Angstroms)
 Number     Number       Type             X           Y           Z
 ---------------------------------------------------------------------
      1         11           0        1.118713   -2.668068   -1.322215
      2         11           0        3.014700    0.322973   -0.021411
      3         11           0       -2.424369   -1.546275   -0.220455
      4         11           0        1.086322   -2.304236    1.548314
      5         11           0        2.147003    3.838655   -0.122274
      6         11           0       -4.594750    1.567351    0.085280
      7         11           0       -0.347619    0.789600    0.052760
 ---------------------------------------------------------------------

 SCF Done:  E(UB3LYP) =  -1136.11492794     A.U. after   25 cycles

 The electronic state is 2-A.
 Alpha  occ. eigenvalues --  -38.45154 -38.44904 -38.44207 -38.44128 -38.43718
 Alpha  occ. eigenvalues --  -38.43602 -38.43281  -2.21018  -2.20794  -2.20056
 Alpha  occ. eigenvalues --   -2.19894  -2.19568  -2.19380  -2.19134  -1.14833
 Alpha  occ. eigenvalues --   -1.14679  -1.14628  -1.14456  -1.14403  -1.14393
 Alpha  occ. eigenvalues --   -1.13783  -1.13733  -1.13676  -1.13562  -1.13560
 Alpha  occ. eigenvalues --   -1.13506  -1.13272  -1.13265  -1.13141  -1.13035
 Alpha  occ. eigenvalues --   -1.13034  -1.12975  -1.12842  -1.12816  -1.12715
 Alpha  occ. eigenvalues --   -0.17878  -0.13145  -0.12675  -0.09596
 Alpha virt. eigenvalues --   -0.06914  -0.06295  -0.04703  -0.02804  -0.02482
 Alpha virt. eigenvalues --   -0.02319  -0.02192  -0.01535  -0.01268  -0.00712
 Alpha virt. eigenvalues --   -0.00254  -0.00006   0.00132   0.00378   0.00664

  Beta  occ. eigenvalues --  -38.45152 -38.44879 -38.44214 -38.44106 -38.43696
  Beta  occ. eigenvalues --  -38.43514 -38.43261  -2.21018  -2.20750  -2.20069
  Beta  occ. eigenvalues --   -2.19853  -2.19531  -2.19215  -2.19101  -1.14833
  Beta  occ. eigenvalues --   -1.14685  -1.14585  -1.14434  -1.14383  -1.14324
  Beta  occ. eigenvalues --   -1.13786  -1.13738  -1.13696  -1.13534  -1.13531
  Beta  occ. eigenvalues --   -1.13480  -1.13252  -1.13240  -1.13093  -1.12921
  Beta  occ. eigenvalues --   -1.12920  -1.12868  -1.12825  -1.12796  -1.12665
  Beta  occ. eigenvalues --   -0.17467  -0.12676  -0.12270
  Beta virt. eigenvalues --   -0.06664  -0.06266  -0.05944  -0.04560  -0.02401
  Beta virt. eigenvalues --   -0.02228  -0.02112  -0.01954  -0.01279  -0.01132
  Beta virt. eigenvalues --   -0.00371  -0.00086   0.00196   0.00399   0.00526

 Mulliken charges and spin densities:
               1          2
     1  Na   0.365077   0.040832
     2  Na   0.930845   0.200912
     3  Na   0.732186   0.270150
     4  Na   0.534191   0.228378
     5  Na   0.328459   0.085441
     6  Na   0.139425   0.537329
     7  Na  -3.030183  -0.363042
 Sum of Mulliken charges =  -0.00000   1.00000

 Dipole moment (field-independent basis, Debye):
    X=              1.4936    Y=             -1.0712    Z=             -0.3093  Tot=              1.8639
 Quadrupole moment (field-independent basis, Debye-Ang):
   XX=            -75.8035   YY=            -60.0164   ZZ=            -65.8951
   XY=              3.7105   XZ=             -3.3041   YZ=              0.9513

 Normal termination of Gaussian 16 at Tue Dec  5 10:27:08 2023.
