 Gaussian 16, Revision B.01,
 Gaussian 16:  ES64L-G16RevB.01 20-Dec-2017

 -------------------------
 #P B3LYP/6-311+g(d) force
 -------------------------

 -----
 DPGEN
 -----
 Symbolic Z-matrix:
 Charge =  0 Multiplicity = 2

                         Standard orientation:
 ---------------------------------------------------------------------
 Center     Atomic      Atomic             Coordinates (Angstroms)
 Number     Number       Type             X           Y           Z
 ---------------------------------------------------------------------
      1         11           0        1.157621    2.716796   -0.208502
      2         11           0        3.483077   -0.470494    0.269750
      3         11           0        0.720610   -2.542937   -0.588218
      4         11           0        0.092435    0.033189   -1.523757
      5         11           0        0.057524    0.313331    1.977173
      6         11           0       -2.703431    1.580847   -0.389658
      7         11           0       -2.807837   -1.630733    0.463211
 ---------------------------------------------------------------------

 SCF Done:  E(UB3LYP) =  -1136.12899244     A.U. after   20 cycles

 The electronic state is 2-A.
 Alpha  occ. eigenvalues --  -38.44971 -38.44205 -38.43900 -38.43769 -38.43284
 Alpha  occ. eigenvalues --  -38.43178 -38.43166  -2.20743  -2.20032  -2.19717
 Alpha  occ. eigenvalues --   -2.19645  -2.19208  -2.19128  -2.19070  -1.14421
 Alpha  occ. eigenvalues --   -1.14393  -1.14381  -1.13720  -1.13696  -1.13664
 Alpha  occ. eigenvalues --   -1.13385  -1.13374  -1.13357  -1.13332  -1.13279
 Alpha  occ. eigenvalues --   -1.13253  -1.13122  -1.12907  -1.12827  -1.12792
 Alpha  occ. eigenvalues --   -1.12766  -1.12739  -1.12695  -1.12652  -1.12646
 Alpha  occ. eigenvalues --   -0.18508  -0.13179  -0.12078  -0.10633
 Alpha virt. eigenvalues --   -0.06345  -0.05198  -0.04141  -0.03285  -0.02750
 Alpha virt. eigenvalues --   -0.02414  -0.02116  -0.01170  -0.00381  -0.00235
 Alpha virt. eigenvalues --   -0.00002   0.00303   0.00731   0.00754   0.00821

  Beta  occ. eigenvalues --  -38.44968 -38.44198 -38.43892 -38.43688 -38.43279
  Beta  occ. eigenvalues --  -38.43161 -38.43096  -2.20740  -2.20021  -2.19704
  Beta  occ. eigenvalues --   -2.19496  -2.19122  -2.19089  -2.19035  -1.14410
  Beta  occ. eigenvalues --   -1.14387  -1.14380  -1.13710  -1.13673  -1.13659
  Beta  occ. eigenvalues --   -1.13371  -1.13360  -1.13344  -1.13233  -1.13176
  Beta  occ. eigenvalues --   -1.13142  -1.13053  -1.12862  -1.12777  -1.12753
  Beta  occ. eigenvalues --   -1.12731  -1.12704  -1.12660  -1.12628  -1.12591
  Beta  occ. eigenvalues --   -0.17806  -0.12971  -0.11794
  Beta virt. eigenvalues --   -0.06801  -0.06246  -0.05150  -0.04115  -0.02598
  Beta virt. eigenvalues --   -0.02047  -0.01945  -0.01382  -0.01089  -0.00428
  Beta virt. eigenvalues --   -0.00201   0.00106   0.00329   0.00787   0.00803

 Mulliken charges and spin densities:
               1          2
     1  Na  -0.001655  -0.094274
     2  Na   0.017650   0.000680
     3  Na   0.233663   0.026349
     4  Na   0.019994   0.265875
     5  Na  -0.423078   0.753022
     6  Na   0.159176  -0.037215
     7  Na  -0.005749   0.085563
 Sum of Mulliken charges =  -0.00000   1.00000

 Dipole moment (field-independent basis, Debye):
    X=              0.2874    Y=              0.1853    Z=              0.3613  Tot=              0.4975
 Quadrupole moment (field-independent basis, Debye-Ang):
   XX=            -50.3965   YY=            -66.0950   ZZ=            -75.1649
   XY=              0.0272   XZ=              0.6383   YZ=             -1.3953

 Normal termination of Gaussian 16 at Tue Dec  5 14:24:19 2023.
