 Gaussian 16, Revision B.01,
 Gaussian 16:  ES64L-G16RevB.01 20-Dec-2017

 -------------------------
 #P B3LYP/6-311+g(d) force
 -------------------------

 -----
 DPGEN
 -----
 Symbolic Z-matrix:
 Charge =  0 Multiplicity = 2

                         Standard orientation:
 ---------------------------------------------------------------------
 Center     Atomic      Atomic             Coordinates (Angstroms)
 Number     Number       Type             X           Y           Z
 ---------------------------------------------------------------------
      1         11           0       -2.922309    1.729711    0.494023
      2         11           0       -2.158325   -2.110063    0.278713
      3         11           0       -5.187705   -0.517282   -0.367197
      4         11           0        0.461329    3.175216   -0.455516
      5         11           0        1.669570   -2.916331   -0.113456
      6         11           0        3.691959    2.147653    0.247702
      7         11           0        4.445481   -1.508904   -0.084268
 ---------------------------------------------------------------------

 SCF Done:  E(UB3LYP) =  -1136.11199786     A.U. after   23 cycles

 The electronic state is 2-A.
 Alpha  occ. eigenvalues --  -38.45533 -38.45350 -38.44740 -38.44411 -38.44085
 Alpha  occ. eigenvalues --  -38.43840 -38.43484  -2.21323  -2.21129  -2.20492
 Alpha  occ. eigenvalues --   -2.20251  -2.19890  -2.19632  -2.19260  -1.15017
 Alpha  occ. eigenvalues --   -1.14998  -1.14938  -1.14822  -1.14810  -1.14722
 Alpha  occ. eigenvalues --   -1.14181  -1.14166  -1.14120  -1.13912  -1.13894
 Alpha  occ. eigenvalues --   -1.13863  -1.13594  -1.13556  -1.13525  -1.13308
 Alpha  occ. eigenvalues --   -1.13298  -1.13253  -1.12933  -1.12927  -1.12890
 Alpha  occ. eigenvalues --   -0.16104  -0.14148  -0.12619  -0.10813
 Alpha virt. eigenvalues --   -0.07562  -0.05459  -0.04249  -0.03679  -0.03124
 Alpha virt. eigenvalues --   -0.02747  -0.02187  -0.01792  -0.00969  -0.00721
 Alpha virt. eigenvalues --   -0.00339  -0.00279   0.00025   0.00419   0.00496

  Beta  occ. eigenvalues --  -38.45503 -38.45303 -38.44745 -38.44352 -38.44079
  Beta  occ. eigenvalues --  -38.43835 -38.43463  -2.21272  -2.21045  -2.20500
  Beta  occ. eigenvalues --   -2.20140  -2.19877  -2.19622  -2.19222  -1.14985
  Beta  occ. eigenvalues --   -1.14965  -1.14865  -1.14768  -1.14753  -1.14633
  Beta  occ. eigenvalues --   -1.14188  -1.14174  -1.14119  -1.13831  -1.13818
  Beta  occ. eigenvalues --   -1.13796  -1.13597  -1.13546  -1.13508  -1.13303
  Beta  occ. eigenvalues --   -1.13292  -1.13235  -1.12908  -1.12902  -1.12862
  Beta  occ. eigenvalues --   -0.15432  -0.14019  -0.12326
  Beta virt. eigenvalues --   -0.07382  -0.07233  -0.04914  -0.03784  -0.03395
  Beta virt. eigenvalues --   -0.02738  -0.02659  -0.02050  -0.01621  -0.00697
  Beta virt. eigenvalues --   -0.00466  -0.00172   0.00117   0.00249   0.00408

 Mulliken charges and spin densities:
               1          2
     1  Na  -0.377817   0.230840
     2  Na  -0.111635   0.284832
     3  Na   0.890488   0.342773
     4  Na  -0.330020   0.067216
     5  Na  -0.086382  -0.152907
     6  Na   0.055923  -0.000822
     7  Na  -0.040557   0.228067
 Sum of Mulliken charges =  -0.00000   1.00000

 Dipole moment (field-independent basis, Debye):
    X=             -1.5323    Y=             -0.0828    Z=              0.0817  Tot=              1.5367
 Quadrupole moment (field-independent basis, Debye-Ang):
   XX=            -54.3490   YY=            -70.2333   ZZ=            -72.6388
   XY=              1.3132   XZ=              0.9270   YZ=              1.0997

 Normal termination of Gaussian 16 at Sun Dec  3 18:05:32 2023.
