 Gaussian 16, Revision B.01,
 Gaussian 16:  ES64L-G16RevB.01 20-Dec-2017

 -------------------------
 #P B3LYP/6-311+g(d) force
 -------------------------

 -----
 DPGEN
 -----
 Symbolic Z-matrix:
 Charge =  0 Multiplicity = 2

                         Standard orientation:
 ---------------------------------------------------------------------
 Center     Atomic      Atomic             Coordinates (Angstroms)
 Number     Number       Type             X           Y           Z
 ---------------------------------------------------------------------
      1         11           0        0.233962   -1.746591    1.395572
      2         11           0       -0.361135   -1.388204   -1.812779
      3         11           0        3.899126   -0.096346   -0.206477
      4         11           0        1.433786    1.011768   -0.117150
      5         11           0       -2.781781   -1.034846    0.283307
      6         11           0       -0.814206    1.498448    1.906217
      7         11           0       -1.609752    1.755770   -1.448690
 ---------------------------------------------------------------------

 SCF Done:  E(UB3LYP) =  -1136.11809106     A.U. after   23 cycles

 The electronic state is 2-A.
 Alpha  occ. eigenvalues --  -38.45057 -38.44201 -38.43759 -38.43653 -38.43471
 Alpha  occ. eigenvalues --  -38.43457 -38.42813  -2.20893  -2.20096  -2.19685
 Alpha  occ. eigenvalues --   -2.19577  -2.19396  -2.19356  -2.18876  -1.14705
 Alpha  occ. eigenvalues --   -1.14511  -1.14488  -1.13785  -1.13777  -1.13718
 Alpha  occ. eigenvalues --   -1.13386  -1.13337  -1.13302  -1.13276  -1.13210
 Alpha  occ. eigenvalues --   -1.13175  -1.13120  -1.13041  -1.13028  -1.13015
 Alpha  occ. eigenvalues --   -1.12995  -1.12944  -1.12573  -1.12527  -1.12474
 Alpha  occ. eigenvalues --   -0.19314  -0.13312  -0.12325  -0.11356
 Alpha virt. eigenvalues --   -0.06561  -0.04103  -0.03722  -0.03543  -0.03330
 Alpha virt. eigenvalues --   -0.02881  -0.02068  -0.00640  -0.00439   0.00094
 Alpha virt. eigenvalues --    0.00258   0.00323   0.00405   0.00894   0.01001

  Beta  occ. eigenvalues --  -38.45063 -38.44192 -38.43709 -38.43606 -38.43415
  Beta  occ. eigenvalues --  -38.43411 -38.42798  -2.20903  -2.20083  -2.19596
  Beta  occ. eigenvalues --   -2.19492  -2.19293  -2.19275  -2.18855  -1.14712
  Beta  occ. eigenvalues --   -1.14514  -1.14495  -1.13775  -1.13734  -1.13716
  Beta  occ. eigenvalues --   -1.13334  -1.13256  -1.13242  -1.13210  -1.13130
  Beta  occ. eigenvalues --   -1.13119  -1.13054  -1.12980  -1.12965  -1.12942
  Beta  occ. eigenvalues --   -1.12924  -1.12877  -1.12563  -1.12471  -1.12465
  Beta  occ. eigenvalues --   -0.18407  -0.13139  -0.11250
  Beta virt. eigenvalues --   -0.08069  -0.06399  -0.03818  -0.03259  -0.03182
  Beta virt. eigenvalues --   -0.02812  -0.02038  -0.01910  -0.00529  -0.00214
  Beta virt. eigenvalues --    0.00119   0.00346   0.00406   0.00467   0.00946

 Mulliken charges and spin densities:
               1          2
     1  Na   0.065233   0.300803
     2  Na  -0.187206   0.339204
     3  Na   0.296075  -0.159595
     4  Na  -0.207149   0.327951
     5  Na   0.353909  -0.001193
     6  Na  -0.222386   0.152743
     7  Na  -0.098476   0.040088
 Sum of Mulliken charges =  -0.00000   1.00000

 Dipole moment (field-independent basis, Debye):
    X=             -0.0222    Y=             -0.4051    Z=             -0.0158  Tot=              0.4061
 Quadrupole moment (field-independent basis, Debye-Ang):
   XX=            -53.0468   YY=            -76.9322   ZZ=            -63.8034
   XY=             -2.2497   XZ=             -0.5512   YZ=             -1.4858

 Normal termination of Gaussian 16 at Tue Dec  5 18:21:53 2023.
