 Gaussian 16, Revision B.01,
 Gaussian 16:  ES64L-G16RevB.01 20-Dec-2017

 -------------------------
 #P B3LYP/6-311+g(d) force
 -------------------------

 -----
 DPGEN
 -----
 Symbolic Z-matrix:
 Charge =  0 Multiplicity = 2

                         Standard orientation:
 ---------------------------------------------------------------------
 Center     Atomic      Atomic             Coordinates (Angstroms)
 Number     Number       Type             X           Y           Z
 ---------------------------------------------------------------------
      1         11           0       -2.410708    1.201238    1.630710
      2         11           0        3.023886    1.683121    0.051725
      3         11           0       -2.464305   -1.788492    0.204436
      4         11           0        5.575218   -1.038697   -0.068730
      5         11           0       -4.779463   -0.507792   -0.698918
      6         11           0       -0.810706    1.523481   -1.273855
      7         11           0        1.866079   -1.072858    0.154632
 ---------------------------------------------------------------------

 SCF Done:  E(UB3LYP) =  -1136.10393684     A.U. after   26 cycles

 The electronic state is 2-A.
 Alpha  occ. eigenvalues --  -38.45220 -38.45217 -38.44277 -38.44031 -38.43756
 Alpha  occ. eigenvalues --  -38.43684 -38.43643  -2.21059  -2.21029  -2.20146
 Alpha  occ. eigenvalues --   -2.19887  -2.19574  -2.19554  -2.19451  -1.14783
 Alpha  occ. eigenvalues --   -1.14743  -1.14719  -1.14714  -1.14656  -1.14583
 Alpha  occ. eigenvalues --   -1.13961  -1.13781  -1.13749  -1.13598  -1.13573
 Alpha  occ. eigenvalues --   -1.13448  -1.13248  -1.13240  -1.13225  -1.13201
 Alpha  occ. eigenvalues --   -1.13187  -1.13160  -1.13126  -1.13125  -1.13069
 Alpha  occ. eigenvalues --   -0.17245  -0.14644  -0.10986  -0.10073
 Alpha virt. eigenvalues --   -0.07035  -0.05941  -0.04747  -0.03213  -0.02945
 Alpha virt. eigenvalues --   -0.02185  -0.01869  -0.01619  -0.01087  -0.00687
 Alpha virt. eigenvalues --   -0.00593   0.00120   0.00300   0.00360   0.00420

  Beta  occ. eigenvalues --  -38.45217 -38.45169 -38.44255 -38.43991 -38.43759
  Beta  occ. eigenvalues --  -38.43679 -38.43595  -2.21027  -2.20967  -2.20108
  Beta  occ. eigenvalues --   -2.19814  -2.19564  -2.19488  -2.19443  -1.14778
  Beta  occ. eigenvalues --   -1.14713  -1.14666  -1.14655  -1.14590  -1.14585
  Beta  occ. eigenvalues --   -1.13927  -1.13757  -1.13709  -1.13548  -1.13526
  Beta  occ. eigenvalues --   -1.13382  -1.13240  -1.13225  -1.13189  -1.13185
  Beta  occ. eigenvalues --   -1.13146  -1.13120  -1.13118  -1.13078  -1.13064
  Beta  occ. eigenvalues --   -0.16595  -0.14498  -0.10784
  Beta virt. eigenvalues --   -0.06754  -0.06373  -0.05894  -0.04214  -0.03172
  Beta virt. eigenvalues --   -0.02742  -0.01778  -0.01581  -0.01133  -0.00874
  Beta virt. eigenvalues --   -0.00414  -0.00298   0.00244   0.00415   0.00426

 Mulliken charges and spin densities:
               1          2
     1  Na   0.264283   0.323149
     2  Na   0.243441   0.093198
     3  Na  -0.652984   0.053917
     4  Na   1.299953   0.156014
     5  Na   0.582899   0.171282
     6  Na  -0.340697  -0.054785
     7  Na  -1.396895   0.257225
 Sum of Mulliken charges =  -0.00000   1.00000

 Dipole moment (field-independent basis, Debye):
    X=             -0.1290    Y=              0.9514    Z=              0.0746  Tot=              0.9630
 Quadrupole moment (field-independent basis, Debye-Ang):
   XX=            -65.2889   YY=            -73.1095   ZZ=            -63.4087
   XY=             -1.4405   XZ=              1.6521   YZ=             -0.5471

 Normal termination of Gaussian 16 at Tue Dec  5 20:54:47 2023.
