 Gaussian 16, Revision B.01,
 Gaussian 16:  ES64L-G16RevB.01 20-Dec-2017

 -------------------------
 #P B3LYP/6-311+g(d) force
 -------------------------

 -----
 DPGEN
 -----
 Symbolic Z-matrix:
 Charge =  0 Multiplicity = 2

                         Standard orientation:
 ---------------------------------------------------------------------
 Center     Atomic      Atomic             Coordinates (Angstroms)
 Number     Number       Type             X           Y           Z
 ---------------------------------------------------------------------
      1         11           0       -2.746631    2.620113   -0.257431
      2         11           0       -5.042269   -0.039127   -0.553444
      3         11           0       -2.179820   -1.936191    0.557088
      4         11           0        0.568547   -1.973021   -0.922130
      5         11           0        0.276678    0.728793    0.976868
      6         11           0        3.278104   -0.075892    1.243668
      7         11           0        5.845391    0.675326   -1.044619
 ---------------------------------------------------------------------

 SCF Done:  E(UB3LYP) =  -1136.11111546     A.U. after   22 cycles

 The electronic state is 2-A.
 Alpha  occ. eigenvalues --  -38.44438 -38.44406 -38.44401 -38.44330 -38.44244
 Alpha  occ. eigenvalues --  -38.44154 -38.44076  -2.20299  -2.20287  -2.20178
 Alpha  occ. eigenvalues --   -2.20106  -2.20021  -2.19967  -2.19928  -1.14002
 Alpha  occ. eigenvalues --   -1.13993  -1.13969  -1.13951  -1.13938  -1.13869
 Alpha  occ. eigenvalues --   -1.13829  -1.13827  -1.13796  -1.13779  -1.13769
 Alpha  occ. eigenvalues --   -1.13745  -1.13695  -1.13680  -1.13657  -1.13633
 Alpha  occ. eigenvalues --   -1.13630  -1.13610  -1.13592  -1.13582  -1.13532
 Alpha  occ. eigenvalues --   -0.17079  -0.13883  -0.11789  -0.11212
 Alpha virt. eigenvalues --   -0.06882  -0.06038  -0.04260  -0.03540  -0.02910
 Alpha virt. eigenvalues --   -0.02644  -0.02019  -0.01695  -0.01108  -0.00497
 Alpha virt. eigenvalues --   -0.00324  -0.00251   0.00082   0.00354   0.00549

  Beta  occ. eigenvalues --  -38.44438 -38.44340 -38.44338 -38.44315 -38.44210
  Beta  occ. eigenvalues --  -38.44171 -38.44046  -2.20286  -2.20187  -2.20079
  Beta  occ. eigenvalues --   -2.20049  -2.20002  -2.19958  -2.19874  -1.13989
  Beta  occ. eigenvalues --   -1.13954  -1.13934  -1.13925  -1.13888  -1.13802
  Beta  occ. eigenvalues --   -1.13761  -1.13742  -1.13741  -1.13739  -1.13727
  Beta  occ. eigenvalues --   -1.13716  -1.13672  -1.13655  -1.13654  -1.13631
  Beta  occ. eigenvalues --   -1.13590  -1.13587  -1.13569  -1.13546  -1.13493
  Beta  occ. eigenvalues --   -0.16617  -0.13534  -0.11355
  Beta virt. eigenvalues --   -0.07881  -0.06196  -0.05759  -0.04015  -0.03219
  Beta virt. eigenvalues --   -0.02628  -0.02363  -0.01693  -0.01457  -0.00862
  Beta virt. eigenvalues --   -0.00261  -0.00188  -0.00063   0.00221   0.00479

 Mulliken charges and spin densities:
               1          2
     1  Na   0.771911  -0.101390
     2  Na  -0.292757   0.026474
     3  Na   0.506418   0.380191
     4  Na   0.081064  -0.085512
     5  Na  -0.909549   0.366601
     6  Na  -0.191628   0.047300
     7  Na   0.034541   0.366336
 Sum of Mulliken charges =  -0.00000   1.00000

 Dipole moment (field-independent basis, Debye):
    X=             -0.3950    Y=             -0.6143    Z=             -0.6181  Tot=              0.9568
 Quadrupole moment (field-independent basis, Debye-Ang):
   XX=            -66.7987   YY=            -71.2303   ZZ=            -65.4215
   XY=              0.3900   XZ=             -3.0678   YZ=             -1.0045

 Normal termination of Gaussian 16 at Tue Nov 28 22:40:22 2023.
