 Gaussian 16, Revision B.01,
 Gaussian 16:  ES64L-G16RevB.01 20-Dec-2017

 -------------------------
 #P B3LYP/6-311+g(d) force
 -------------------------

 -----
 DPGEN
 -----
 Symbolic Z-matrix:
 Charge =  0 Multiplicity = 2

                         Standard orientation:
 ---------------------------------------------------------------------
 Center     Atomic      Atomic             Coordinates (Angstroms)
 Number     Number       Type             X           Y           Z
 ---------------------------------------------------------------------
      1         11           0        0.428265   -0.286112    1.427609
      2         11           0       -2.162803   -2.010183   -0.162128
      3         11           0       -0.725876    2.401363   -0.565337
      4         11           0        3.440014   -0.631725   -0.363524
      5         11           0        2.316104    2.823169    0.065295
      6         11           0       -4.615449    0.643080   -0.043353
      7         11           0        1.319746   -2.939592   -0.358561
 ---------------------------------------------------------------------

 SCF Done:  E(UB3LYP) =  -1136.12387356     A.U. after   20 cycles

 The electronic state is 2-A.
 Alpha  occ. eigenvalues --  -38.44732 -38.44507 -38.44290 -38.44072 -38.43958
 Alpha  occ. eigenvalues --  -38.43514 -38.43289  -2.20616  -2.20320  -2.20116
 Alpha  occ. eigenvalues --   -2.19878  -2.19826  -2.19310  -2.19166  -1.14313
 Alpha  occ. eigenvalues --   -1.14275  -1.14234  -1.14005  -1.13996  -1.13972
 Alpha  occ. eigenvalues --   -1.13786  -1.13759  -1.13746  -1.13575  -1.13555
 Alpha  occ. eigenvalues --   -1.13520  -1.13508  -1.13494  -1.13454  -1.12958
 Alpha  occ. eigenvalues --   -1.12953  -1.12918  -1.12823  -1.12811  -1.12787
 Alpha  occ. eigenvalues --   -0.17563  -0.13492  -0.13184  -0.10063
 Alpha virt. eigenvalues --   -0.06398  -0.06106  -0.04677  -0.03248  -0.02704
 Alpha virt. eigenvalues --   -0.02415  -0.02108  -0.01446  -0.00884  -0.00867
 Alpha virt. eigenvalues --   -0.00112   0.00102   0.00477   0.00544   0.00690

  Beta  occ. eigenvalues --  -38.44702 -38.44501 -38.44288 -38.44065 -38.43951
  Beta  occ. eigenvalues --  -38.43422 -38.43226  -2.20562  -2.20311  -2.20117
  Beta  occ. eigenvalues --   -2.19872  -2.19819  -2.19139  -2.19048  -1.14277
  Beta  occ. eigenvalues --   -1.14243  -1.14187  -1.13996  -1.13983  -1.13969
  Beta  occ. eigenvalues --   -1.13789  -1.13758  -1.13730  -1.13576  -1.13550
  Beta  occ. eigenvalues --   -1.13515  -1.13496  -1.13469  -1.13412  -1.12841
  Beta  occ. eigenvalues --   -1.12836  -1.12808  -1.12742  -1.12736  -1.12704
  Beta  occ. eigenvalues --   -0.17153  -0.13029  -0.12553
  Beta virt. eigenvalues --   -0.06667  -0.06261  -0.06011  -0.04410  -0.02564
  Beta virt. eigenvalues --   -0.02447  -0.02151  -0.01822  -0.01197  -0.00827
  Beta virt. eigenvalues --   -0.00638   0.00208   0.00299   0.00536   0.00715

 Mulliken charges and spin densities:
               1          2
     1  Na   0.054734   0.010366
     2  Na  -0.187546   0.026338
     3  Na  -0.429534  -0.040187
     4  Na  -0.156159   0.431259
     5  Na   0.453991   0.037289
     6  Na   0.148911   0.547234
     7  Na   0.115604  -0.012300
 Sum of Mulliken charges =  -0.00000   1.00000

 Dipole moment (field-independent basis, Debye):
    X=              0.9119    Y=              0.1856    Z=              0.1167  Tot=              0.9379
 Quadrupole moment (field-independent basis, Debye-Ang):
   XX=            -77.2296   YY=            -60.5236   ZZ=            -68.1682
   XY=              4.6166   XZ=              0.6095   YZ=              1.1656

 Normal termination of Gaussian 16 at Wed Nov 29 01:22:27 2023.
