 Gaussian 16, Revision B.01,
 Gaussian 16:  ES64L-G16RevB.01 20-Dec-2017

 -------------------------
 #P B3LYP/6-311+g(d) force
 -------------------------

 -----
 DPGEN
 -----
 Symbolic Z-matrix:
 Charge =  0 Multiplicity = 2

                         Standard orientation:
 ---------------------------------------------------------------------
 Center     Atomic      Atomic             Coordinates (Angstroms)
 Number     Number       Type             X           Y           Z
 ---------------------------------------------------------------------
      1         11           0       -3.919006    0.215258   -0.611803
      2         11           0       -0.064242   -0.049626   -1.717323
      3         11           0       -1.228005   -1.994568    0.715379
      4         11           0        2.246452    2.112576   -0.479588
      5         11           0        2.488385   -1.580447   -0.913931
      6         11           0        1.468124   -0.461787    1.912497
      7         11           0       -0.991708    1.758593    1.094770
 ---------------------------------------------------------------------

 SCF Done:  E(UB3LYP) =  -1136.13006248     A.U. after   23 cycles

 The electronic state is 2-A.
 Alpha  occ. eigenvalues --  -38.44863 -38.44037 -38.43812 -38.43736 -38.43317
 Alpha  occ. eigenvalues --  -38.43202 -38.43073  -2.20628  -2.19996  -2.19755
 Alpha  occ. eigenvalues --   -2.19625  -2.19181  -2.19070  -2.18918  -1.14302
 Alpha  occ. eigenvalues --   -1.14289  -1.14250  -1.13696  -1.13665  -1.13621
 Alpha  occ. eigenvalues --   -1.13454  -1.13429  -1.13354  -1.13303  -1.13257
 Alpha  occ. eigenvalues --   -1.13216  -1.12889  -1.12864  -1.12779  -1.12765
 Alpha  occ. eigenvalues --   -1.12743  -1.12664  -1.12600  -1.12575  -1.12548
 Alpha  occ. eigenvalues --   -0.18808  -0.13405  -0.11674  -0.11307
 Alpha virt. eigenvalues --   -0.06405  -0.04778  -0.04115  -0.03179  -0.02922
 Alpha virt. eigenvalues --   -0.02785  -0.02135  -0.00860  -0.00689   0.00057
 Alpha virt. eigenvalues --    0.00239   0.00307   0.00411   0.00773   0.00852

  Beta  occ. eigenvalues --  -38.44855 -38.43978 -38.43738 -38.43715 -38.43300
  Beta  occ. eigenvalues --  -38.43177 -38.43067  -2.20613  -2.19888  -2.19620
  Beta  occ. eigenvalues --   -2.19589  -2.19153  -2.19027  -2.18911  -1.14288
  Beta  occ. eigenvalues --   -1.14280  -1.14241  -1.13629  -1.13576  -1.13543
  Beta  occ. eigenvalues --   -1.13362  -1.13345  -1.13259  -1.13256  -1.13221
  Beta  occ. eigenvalues --   -1.13182  -1.12872  -1.12815  -1.12754  -1.12746
  Beta  occ. eigenvalues --   -1.12689  -1.12638  -1.12584  -1.12575  -1.12533
  Beta  occ. eigenvalues --   -0.18012  -0.13177  -0.11095
  Beta virt. eigenvalues --   -0.07633  -0.06233  -0.04743  -0.03671  -0.02935
  Beta virt. eigenvalues --   -0.02126  -0.02010  -0.01894  -0.00829  -0.00324
  Beta virt. eigenvalues --    0.00090   0.00269   0.00303   0.00566   0.00810

 Mulliken charges and spin densities:
               1          2
     1  Na   0.181470   0.015997
     2  Na  -0.100384   0.581031
     3  Na  -0.213393  -0.011772
     4  Na  -0.102345  -0.061145
     5  Na   0.146280  -0.072005
     6  Na   0.411646   0.505517
     7  Na  -0.323274   0.042376
 Sum of Mulliken charges =  -0.00000   1.00000

 Dipole moment (field-independent basis, Debye):
    X=             -0.6187    Y=             -0.0829    Z=             -0.1862  Tot=              0.6514
 Quadrupole moment (field-independent basis, Debye-Ang):
   XX=            -50.0858   YY=            -74.6038   ZZ=            -67.9447
   XY=             -0.5421   XZ=              0.8360   YZ=             -0.2979

 Normal termination of Gaussian 16 at Tue Dec  5 11:47:19 2023.
