 Gaussian 16, Revision B.01,
 Gaussian 16:  ES64L-G16RevB.01 20-Dec-2017

 -------------------------
 #P B3LYP/6-311+g(d) force
 -------------------------

 -----
 DPGEN
 -----
 Symbolic Z-matrix:
 Charge =  0 Multiplicity = 2

                         Standard orientation:
 ---------------------------------------------------------------------
 Center     Atomic      Atomic             Coordinates (Angstroms)
 Number     Number       Type             X           Y           Z
 ---------------------------------------------------------------------
      1         11           0       -0.805749    2.280403    0.371419
      2         11           0        2.958661   -1.872290    0.004134
      3         11           0       -4.494092    0.259986   -0.414689
      4         11           0        1.754058    0.527949    1.842475
      5         11           0        2.801031    1.511380   -1.319803
      6         11           0       -2.044816   -1.561012    0.636222
      7         11           0       -0.169094   -1.146416   -1.119757
 ---------------------------------------------------------------------

 SCF Done:  E(UB3LYP) =  -1136.10656867     A.U. after   28 cycles

 The electronic state is 2-A.
 Alpha  occ. eigenvalues --  -38.44960 -38.44957 -38.44467 -38.44321 -38.44176
 Alpha  occ. eigenvalues --  -38.43985 -38.43171  -2.20909  -2.20757  -2.20346
 Alpha  occ. eigenvalues --   -2.20251  -2.20001  -2.19819  -2.18971  -1.14930
 Alpha  occ. eigenvalues --   -1.14509  -1.14480  -1.14426  -1.14398  -1.14374
 Alpha  occ. eigenvalues --   -1.14018  -1.14004  -1.13977  -1.13890  -1.13839
 Alpha  occ. eigenvalues --   -1.13817  -1.13685  -1.13644  -1.13604  -1.13516
 Alpha  occ. eigenvalues --   -1.13480  -1.13446  -1.12666  -1.12655  -1.12581
 Alpha  occ. eigenvalues --   -0.18152  -0.14323  -0.11285  -0.10410
 Alpha virt. eigenvalues --   -0.07535  -0.05478  -0.04087  -0.03392  -0.03105
 Alpha virt. eigenvalues --   -0.02346  -0.02176  -0.01406  -0.00923  -0.00435
 Alpha virt. eigenvalues --   -0.00112   0.00076   0.00277   0.00590   0.00641

  Beta  occ. eigenvalues --  -38.44933 -38.44893 -38.44429 -38.44308 -38.44119
  Beta  occ. eigenvalues --  -38.43996 -38.43171  -2.20864  -2.20636  -2.20279
  Beta  occ. eigenvalues --   -2.20232  -2.19894  -2.19843  -2.18973  -1.14881
  Beta  occ. eigenvalues --   -1.14482  -1.14451  -1.14345  -1.14313  -1.14294
  Beta  occ. eigenvalues --   -1.13970  -1.13953  -1.13926  -1.13870  -1.13820
  Beta  occ. eigenvalues --   -1.13777  -1.13611  -1.13576  -1.13533  -1.13525
  Beta  occ. eigenvalues --   -1.13493  -1.13438  -1.12673  -1.12635  -1.12587
  Beta  occ. eigenvalues --   -0.17592  -0.13842  -0.11108
  Beta virt. eigenvalues --   -0.07225  -0.06832  -0.05310  -0.03721  -0.03178
  Beta virt. eigenvalues --   -0.02840  -0.01942  -0.01661  -0.01114  -0.00552
  Beta virt. eigenvalues --   -0.00186  -0.00015   0.00177   0.00444   0.00654

 Mulliken charges and spin densities:
               1          2
     1  Na  -0.532109  -0.132787
     2  Na   0.339844   0.152803
     3  Na   0.038707   0.344172
     4  Na   0.215499   0.214294
     5  Na  -0.307053   0.289265
     6  Na   0.364442   0.073717
     7  Na  -0.119329   0.058535
 Sum of Mulliken charges =  -0.00000   1.00000

 Dipole moment (field-independent basis, Debye):
    X=             -0.1127    Y=             -0.0265    Z=              0.4319  Tot=              0.4471
 Quadrupole moment (field-independent basis, Debye-Ang):
   XX=            -57.7746   YY=            -75.7245   ZZ=            -66.0027
   XY=             -2.8013   XZ=              2.7384   YZ=             -3.8760

 Normal termination of Gaussian 16 at Thu Dec  7 15:53:25 2023.
