 Gaussian 16, Revision B.01,
 Gaussian 16:  ES64L-G16RevB.01 20-Dec-2017

 -------------------------
 #P B3LYP/6-311+g(d) force
 -------------------------

 -----
 DPGEN
 -----
 Symbolic Z-matrix:
 Charge =  0 Multiplicity = 2

                         Standard orientation:
 ---------------------------------------------------------------------
 Center     Atomic      Atomic             Coordinates (Angstroms)
 Number     Number       Type             X           Y           Z
 ---------------------------------------------------------------------
      1         11           0       -1.458884    0.395257    1.730200
      2         11           0        3.873363   -1.207438   -0.338554
      3         11           0        1.753534    0.323030    1.385184
      4         11           0        0.351344    2.757177   -0.364030
      5         11           0       -2.645233    0.860845   -1.025335
      6         11           0        0.505338   -0.502487   -1.552700
      7         11           0       -2.379461   -2.626384    0.165236
 ---------------------------------------------------------------------

 SCF Done:  E(UB3LYP) =  -1136.12630907     A.U. after   20 cycles

 The electronic state is 2-A.
 Alpha  occ. eigenvalues --  -38.44487 -38.44185 -38.44064 -38.43702 -38.43551
 Alpha  occ. eigenvalues --  -38.43415 -38.42998  -2.20378  -2.19994  -2.19959
 Alpha  occ. eigenvalues --   -2.19659  -2.19380  -2.19338  -2.18867  -1.14114
 Alpha  occ. eigenvalues --   -1.14052  -1.13949  -1.13690  -1.13673  -1.13644
 Alpha  occ. eigenvalues --   -1.13636  -1.13604  -1.13561  -1.13380  -1.13319
 Alpha  occ. eigenvalues --   -1.13227  -1.13067  -1.13031  -1.13009  -1.13002
 Alpha  occ. eigenvalues --   -1.12985  -1.12973  -1.12546  -1.12525  -1.12499
 Alpha  occ. eigenvalues --   -0.18650  -0.13551  -0.11567  -0.11276
 Alpha virt. eigenvalues --   -0.06355  -0.05098  -0.04264  -0.03185  -0.02800
 Alpha virt. eigenvalues --   -0.02530  -0.02067  -0.01168  -0.00551  -0.00116
 Alpha virt. eigenvalues --    0.00237   0.00265   0.00352   0.00766   0.00811

  Beta  occ. eigenvalues --  -38.44459 -38.44186 -38.44012 -38.43635 -38.43550
  Beta  occ. eigenvalues --  -38.43372 -38.42991  -2.20330  -2.19996  -2.19864
  Beta  occ. eigenvalues --   -2.19537  -2.19339  -2.19304  -2.18858  -1.14077
  Beta  occ. eigenvalues --   -1.14005  -1.13915  -1.13689  -1.13645  -1.13632
  Beta  occ. eigenvalues --   -1.13608  -1.13533  -1.13489  -1.13283  -1.13237
  Beta  occ. eigenvalues --   -1.13141  -1.13020  -1.13006  -1.12995  -1.12975
  Beta  occ. eigenvalues --   -1.12974  -1.12914  -1.12543  -1.12499  -1.12486
  Beta  occ. eigenvalues --   -0.17871  -0.13419  -0.11363
  Beta virt. eigenvalues --   -0.07221  -0.06241  -0.05004  -0.03734  -0.03000
  Beta virt. eigenvalues --   -0.02113  -0.02013  -0.01594  -0.01067  -0.00244
  Beta virt. eigenvalues --   -0.00091   0.00269   0.00310   0.00479   0.00796

 Mulliken charges and spin densities:
               1          2
     1  Na   0.069685   0.396344
     2  Na   0.314906  -0.026687
     3  Na  -0.038293   0.097052
     4  Na  -0.055666   0.050094
     5  Na   0.537188   0.181852
     6  Na  -0.648830   0.427847
     7  Na  -0.178991  -0.126503
 Sum of Mulliken charges =  -0.00000   1.00000

 Dipole moment (field-independent basis, Debye):
    X=              0.1204    Y=              0.0652    Z=             -0.4221  Tot=              0.4437
 Quadrupole moment (field-independent basis, Debye-Ang):
   XX=            -56.0273   YY=            -66.9999   ZZ=            -70.5383
   XY=             -1.7595   XZ=              0.3650   YZ=             -0.6523

 Normal termination of Gaussian 16 at Wed Nov 29 15:59:20 2023.
