 Gaussian 16, Revision B.01,
 Gaussian 16:  ES64L-G16RevB.01 20-Dec-2017

 -------------------------
 #P B3LYP/6-311+g(d) force
 -------------------------

 -----
 DPGEN
 -----
 Symbolic Z-matrix:
 Charge =  0 Multiplicity = 2

                         Standard orientation:
 ---------------------------------------------------------------------
 Center     Atomic      Atomic             Coordinates (Angstroms)
 Number     Number       Type             X           Y           Z
 ---------------------------------------------------------------------
      1         11           0        2.552618    3.187463   -0.724451
      2         11           0       -5.347118    0.546044    1.684083
      3         11           0        3.981823    0.749618    1.455881
      4         11           0        3.718571   -2.670004    0.248031
      5         11           0       -4.000112   -1.010825   -0.758969
      6         11           0        0.291955   -2.199926   -0.793643
      7         11           0       -1.197737    1.397629   -1.110933
 ---------------------------------------------------------------------

 SCF Done:  E(UB3LYP) =  -1136.10759043     A.U. after   24 cycles

 The electronic state is 2-A.
 Alpha  occ. eigenvalues --  -38.45534 -38.45470 -38.45077 -38.44790 -38.44415
 Alpha  occ. eigenvalues --  -38.43521 -38.43163  -2.21340  -2.21225  -2.20869
 Alpha  occ. eigenvalues --   -2.20551  -2.20164  -2.19292  -2.18910  -1.14990
 Alpha  occ. eigenvalues --   -1.14974  -1.14963  -1.14905  -1.14893  -1.14817
 Alpha  occ. eigenvalues --   -1.14550  -1.14532  -1.14512  -1.14233  -1.14205
 Alpha  occ. eigenvalues --   -1.14165  -1.13855  -1.13847  -1.13765  -1.12966
 Alpha  occ. eigenvalues --   -1.12952  -1.12931  -1.12590  -1.12570  -1.12562
 Alpha  occ. eigenvalues --   -0.15966  -0.14113  -0.11873  -0.11217
 Alpha virt. eigenvalues --   -0.06536  -0.06048  -0.04871  -0.03459  -0.02965
 Alpha virt. eigenvalues --   -0.02706  -0.02497  -0.01307  -0.01046  -0.00955
 Alpha virt. eigenvalues --   -0.00629  -0.00339  -0.00256   0.00152   0.00576

  Beta  occ. eigenvalues --  -38.45445 -38.45409 -38.45081 -38.44752 -38.44391
  Beta  occ. eigenvalues --  -38.43514 -38.43171  -2.21175  -2.21112  -2.20883
  Beta  occ. eigenvalues --   -2.20481  -2.20119  -2.19279  -2.18925  -1.14879
  Beta  occ. eigenvalues --   -1.14861  -1.14854  -1.14829  -1.14808  -1.14741
  Beta  occ. eigenvalues --   -1.14563  -1.14546  -1.14476  -1.14185  -1.14161
  Beta  occ. eigenvalues --   -1.14114  -1.13826  -1.13816  -1.13726  -1.12957
  Beta  occ. eigenvalues --   -1.12938  -1.12923  -1.12602  -1.12581  -1.12565
  Beta  occ. eigenvalues --   -0.15148  -0.13474  -0.11262
  Beta virt. eigenvalues --   -0.08457  -0.06046  -0.05585  -0.04586  -0.03090
  Beta virt. eigenvalues --   -0.02673  -0.02468  -0.02201  -0.01247  -0.00769
  Beta virt. eigenvalues --   -0.00577  -0.00336  -0.00279  -0.00103   0.00260

 Mulliken charges and spin densities:
               1          2
     1  Na   0.084431  -0.027213
     2  Na   0.309204   0.417108
     3  Na  -0.173229   0.217673
     4  Na   0.277407   0.152683
     5  Na   0.141701  -0.059815
     6  Na  -0.188622   0.085367
     7  Na  -0.450893   0.214197
 Sum of Mulliken charges =  -0.00000   1.00000

 Dipole moment (field-independent basis, Debye):
    X=             -2.3033    Y=             -0.1085    Z=              0.5725  Tot=              2.3759
 Quadrupole moment (field-independent basis, Debye-Ang):
   XX=            -57.3777   YY=            -73.9174   ZZ=            -66.2710
   XY=             -2.5753   XZ=              0.5785   YZ=              2.2941

 Normal termination of Gaussian 16 at Mon Dec  4 03:34:43 2023.
