 Gaussian 16, Revision B.01,
 Gaussian 16:  ES64L-G16RevB.01 20-Dec-2017

 -------------------------
 #P B3LYP/6-311+g(d) force
 -------------------------

 -----
 DPGEN
 -----
 Symbolic Z-matrix:
 Charge =  0 Multiplicity = 2

                         Standard orientation:
 ---------------------------------------------------------------------
 Center     Atomic      Atomic             Coordinates (Angstroms)
 Number     Number       Type             X           Y           Z
 ---------------------------------------------------------------------
      1         11           0       -2.045482    1.088279    1.609945
      2         11           0       -2.997269   -1.901336   -0.193780
      3         11           0        0.278737   -1.054279   -0.944550
      4         11           0        3.823937   -1.118677   -0.533922
      5         11           0        1.784166    2.283814   -0.253714
      6         11           0       -1.943001    1.231955   -1.684025
      7         11           0        1.098912   -0.529756    2.000047
 ---------------------------------------------------------------------

 SCF Done:  E(UB3LYP) =  -1136.12199918     A.U. after   24 cycles

 The electronic state is 2-A.
 Alpha  occ. eigenvalues --  -38.44707 -38.44526 -38.44168 -38.44098 -38.43620
 Alpha  occ. eigenvalues --  -38.43586 -38.43470  -2.20483  -2.20403  -2.20015
 Alpha  occ. eigenvalues --   -2.19970  -2.19407  -2.19401  -2.19398  -1.14160
 Alpha  occ. eigenvalues --   -1.14141  -1.14136  -1.14107  -1.14020  -1.13995
 Alpha  occ. eigenvalues --   -1.13717  -1.13688  -1.13672  -1.13631  -1.13595
 Alpha  occ. eigenvalues --   -1.13548  -1.13153  -1.13089  -1.13076  -1.13072
 Alpha  occ. eigenvalues --   -1.13063  -1.13057  -1.13045  -1.13024  -1.12979
 Alpha  occ. eigenvalues --   -0.18303  -0.13758  -0.11465  -0.10697
 Alpha virt. eigenvalues --   -0.06511  -0.05518  -0.04629  -0.03148  -0.02632
 Alpha virt. eigenvalues --   -0.02367  -0.02323  -0.01301  -0.00736  -0.00192
 Alpha virt. eigenvalues --    0.00186   0.00225   0.00289   0.00498   0.00666

  Beta  occ. eigenvalues --  -38.44702 -38.44456 -38.44129 -38.44048 -38.43613
  Beta  occ. eigenvalues --  -38.43586 -38.43447  -2.20473  -2.20275  -2.19946
  Beta  occ. eigenvalues --   -2.19877  -2.19401  -2.19390  -2.19370  -1.14149
  Beta  occ. eigenvalues --   -1.14134  -1.14103  -1.14053  -1.13936  -1.13887
  Beta  occ. eigenvalues --   -1.13662  -1.13625  -1.13602  -1.13587  -1.13537
  Beta  occ. eigenvalues --   -1.13481  -1.13102  -1.13077  -1.13069  -1.13058
  Beta  occ. eigenvalues --   -1.13056  -1.13044  -1.13029  -1.13018  -1.12959
  Beta  occ. eigenvalues --   -0.17545  -0.13603  -0.10521
  Beta virt. eigenvalues --   -0.07488  -0.06290  -0.05467  -0.04005  -0.02798
  Beta virt. eigenvalues --   -0.02271  -0.01900  -0.01809  -0.01193  -0.00323
  Beta virt. eigenvalues --   -0.00162   0.00223   0.00272   0.00441   0.00593

 Mulliken charges and spin densities:
               1          2
     1  Na   0.172545   0.225995
     2  Na   0.085655  -0.048963
     3  Na  -0.600801   0.441868
     4  Na   0.460928   0.033846
     5  Na  -0.381297   0.017454
     6  Na   0.300420   0.131261
     7  Na  -0.037450   0.198539
 Sum of Mulliken charges =  -0.00000   1.00000

 Dipole moment (field-independent basis, Debye):
    X=              0.5577    Y=              0.1975    Z=              0.1580  Tot=              0.6124
 Quadrupole moment (field-independent basis, Debye-Ang):
   XX=            -49.1993   YY=            -75.9522   ZZ=            -67.8283
   XY=             -0.5459   XZ=             -1.5728   YZ=             -2.0619

 Normal termination of Gaussian 16 at Thu Dec  7 04:31:14 2023.
