 Gaussian 16, Revision B.01,
 Gaussian 16:  ES64L-G16RevB.01 20-Dec-2017

 -------------------------
 #P B3LYP/6-311+g(d) force
 -------------------------

 -----
 DPGEN
 -----
 Symbolic Z-matrix:
 Charge =  0 Multiplicity = 2

                         Standard orientation:
 ---------------------------------------------------------------------
 Center     Atomic      Atomic             Coordinates (Angstroms)
 Number     Number       Type             X           Y           Z
 ---------------------------------------------------------------------
      1         11           0        0.929741   -1.483235   -0.370565
      2         11           0        5.933623   -0.538661   -0.640333
      3         11           0        3.201800    1.075460    0.417658
      4         11           0       -0.276971    2.166314   -0.227629
      5         11           0       -2.462899   -0.784562   -0.822986
      6         11           0       -1.358084   -0.607074    2.283733
      7         11           0       -5.967210    0.171758   -0.639878
 ---------------------------------------------------------------------

 SCF Done:  E(UB3LYP) =  -1136.10604880     A.U. after   27 cycles

 The electronic state is 2-A.
 Alpha  occ. eigenvalues --  -38.46825 -38.45543 -38.44759 -38.43991 -38.43839
 Alpha  occ. eigenvalues --  -38.43773 -38.43083  -2.22614  -2.21375  -2.20598
 Alpha  occ. eigenvalues --   -2.19759  -2.19663  -2.19637  -2.18821  -1.16283
 Alpha  occ. eigenvalues --   -1.16277  -1.16227  -1.15075  -1.15029  -1.14974
 Alpha  occ. eigenvalues --   -1.14265  -1.14222  -1.14201  -1.13425  -1.13421
 Alpha  occ. eigenvalues --   -1.13405  -1.13351  -1.13349  -1.13346  -1.13322
 Alpha  occ. eigenvalues --   -1.13262  -1.13229  -1.12497  -1.12495  -1.12454
 Alpha  occ. eigenvalues --   -0.17940  -0.13573  -0.11454  -0.10804
 Alpha virt. eigenvalues --   -0.07756  -0.06326  -0.04271  -0.03464  -0.03000
 Alpha virt. eigenvalues --   -0.02575  -0.02170  -0.01892  -0.01599  -0.01125
 Alpha virt. eigenvalues --   -0.00421   0.00049   0.00147   0.00226   0.00372

  Beta  occ. eigenvalues --  -38.46805 -38.45508 -38.44653 -38.43975 -38.43830
  Beta  occ. eigenvalues --  -38.43761 -38.43092  -2.22579  -2.21311  -2.20402
  Beta  occ. eigenvalues --   -2.19728  -2.19651  -2.19617  -2.18839  -1.16257
  Beta  occ. eigenvalues --   -1.16235  -1.16204  -1.15032  -1.14973  -1.14925
  Beta  occ. eigenvalues --   -1.14131  -1.14080  -1.14071  -1.13405  -1.13400
  Beta  occ. eigenvalues --   -1.13384  -1.13347  -1.13340  -1.13335  -1.13298
  Beta  occ. eigenvalues --   -1.13228  -1.13208  -1.12509  -1.12507  -1.12465
  Beta  occ. eigenvalues --   -0.17221  -0.13313  -0.10740
  Beta virt. eigenvalues --   -0.07656  -0.07445  -0.06027  -0.03973  -0.02975
  Beta virt. eigenvalues --   -0.02524  -0.02324  -0.01821  -0.01550  -0.01246
  Beta virt. eigenvalues --   -0.00984  -0.00326   0.00199   0.00287   0.00344

 Mulliken charges and spin densities:
               1          2
     1  Na  -0.072109   0.475808
     2  Na   0.173171   0.099801
     3  Na  -0.233642  -0.073338
     4  Na  -0.052243   0.539427
     5  Na  -0.312049  -0.029779
     6  Na   0.238595   0.060986
     7  Na   0.258278  -0.072905
 Sum of Mulliken charges =  -0.00000   1.00000

 Dipole moment (field-independent basis, Debye):
    X=              1.0315    Y=             -0.4294    Z=              1.7879  Tot=              2.1083
 Quadrupole moment (field-independent basis, Debye-Ang):
   XX=            -81.0335   YY=            -71.5811   ZZ=            -61.8015
   XY=             -4.6748   XZ=             -7.8949   YZ=              2.9873

 Normal termination of Gaussian 16 at Wed Nov 29 03:36:50 2023.
