 Gaussian 16, Revision B.01,
 Gaussian 16:  ES64L-G16RevB.01 20-Dec-2017

 -------------------------
 #P B3LYP/6-311+g(d) force
 -------------------------

 -----
 DPGEN
 -----
 Symbolic Z-matrix:
 Charge =  0 Multiplicity = 2

                         Standard orientation:
 ---------------------------------------------------------------------
 Center     Atomic      Atomic             Coordinates (Angstroms)
 Number     Number       Type             X           Y           Z
 ---------------------------------------------------------------------
      1         11           0       -0.848108   -0.664394    2.242481
      2         11           0        0.669588    2.461329    0.228450
      3         11           0        3.116185    0.832941   -0.615436
      4         11           0       -2.730090   -1.586935   -1.129305
      5         11           0       -2.336091    1.700036    0.252291
      6         11           0        2.147295   -2.409751    0.533040
      7         11           0       -0.018779   -0.333226   -1.511523
 ---------------------------------------------------------------------

 SCF Done:  E(UB3LYP) =  -1136.12808549     A.U. after   21 cycles

 The electronic state is 2-A.
 Alpha  occ. eigenvalues --  -38.44457 -38.44115 -38.44023 -38.43896 -38.43740
 Alpha  occ. eigenvalues --  -38.43540 -38.42759  -2.20290  -2.19971  -2.19885
 Alpha  occ. eigenvalues --   -2.19682  -2.19635  -2.19517  -2.18680  -1.13950
 Alpha  occ. eigenvalues --   -1.13922  -1.13909  -1.13712  -1.13595  -1.13586
 Alpha  occ. eigenvalues --   -1.13585  -1.13551  -1.13505  -1.13351  -1.13339
 Alpha  occ. eigenvalues --   -1.13338  -1.13322  -1.13298  -1.13261  -1.13194
 Alpha  occ. eigenvalues --   -1.13161  -1.13133  -1.12357  -1.12348  -1.12315
 Alpha  occ. eigenvalues --   -0.18486  -0.13448  -0.11977  -0.11423
 Alpha virt. eigenvalues --   -0.05687  -0.05481  -0.04374  -0.03346  -0.03030
 Alpha virt. eigenvalues --   -0.02811  -0.01682  -0.01121  -0.00398  -0.00113
 Alpha virt. eigenvalues --    0.00111   0.00304   0.00607   0.00775   0.00821

  Beta  occ. eigenvalues --  -38.44365 -38.44074 -38.44018 -38.43887 -38.43731
  Beta  occ. eigenvalues --  -38.43492 -38.42758  -2.20119  -2.19899  -2.19875
  Beta  occ. eigenvalues --   -2.19666  -2.19623  -2.19432  -2.18681  -1.13835
  Beta  occ. eigenvalues --   -1.13809  -1.13781  -1.13650  -1.13580  -1.13548
  Beta  occ. eigenvalues --   -1.13536  -1.13532  -1.13501  -1.13335  -1.13333
  Beta  occ. eigenvalues --   -1.13327  -1.13308  -1.13271  -1.13244  -1.13134
  Beta  occ. eigenvalues --   -1.13100  -1.13068  -1.12362  -1.12350  -1.12293
  Beta  occ. eigenvalues --   -0.17827  -0.13191  -0.11683
  Beta virt. eigenvalues --   -0.07528  -0.05564  -0.05342  -0.04087  -0.02910
  Beta virt. eigenvalues --   -0.02347  -0.01902  -0.01516  -0.00997  -0.00299
  Beta virt. eigenvalues --    0.00035   0.00112   0.00357   0.00753   0.00830

 Mulliken charges and spin densities:
               1          2
     1  Na  -0.229630   0.425195
     2  Na  -0.574807   0.054898
     3  Na   0.907111  -0.041978
     4  Na   0.174797   0.148609
     5  Na   0.328326   0.205936
     6  Na  -0.388912   0.152902
     7  Na  -0.216884   0.054438
 Sum of Mulliken charges =  -0.00000   1.00000

 Dipole moment (field-independent basis, Debye):
    X=             -0.1798    Y=             -0.4174    Z=              0.2855  Tot=              0.5367
 Quadrupole moment (field-independent basis, Debye-Ang):
   XX=            -55.2417   YY=            -69.2678   ZZ=            -70.8348
   XY=              0.0149   XZ=             -0.1702   YZ=             -0.2457

 Normal termination of Gaussian 16 at Wed Nov 29 16:26:44 2023.
