 Gaussian 16, Revision B.01,
 Gaussian 16:  ES64L-G16RevB.01 20-Dec-2017

 -------------------------
 #P B3LYP/6-311+g(d) force
 -------------------------

 -----
 DPGEN
 -----
 Symbolic Z-matrix:
 Charge =  0 Multiplicity = 2

                         Standard orientation:
 ---------------------------------------------------------------------
 Center     Atomic      Atomic             Coordinates (Angstroms)
 Number     Number       Type             X           Y           Z
 ---------------------------------------------------------------------
      1         11           0        1.768784    0.146268    1.749440
      2         11           0       -3.175036   -0.663895   -1.278805
      3         11           0        3.866992   -0.522254   -0.759937
      4         11           0        0.490083    2.562008   -0.658909
      5         11           0        0.283881   -1.471803   -1.430174
      6         11           0       -1.967353    1.783732    0.675420
      7         11           0       -1.267351   -1.834056    1.702965
 ---------------------------------------------------------------------

 SCF Done:  E(UB3LYP) =  -1136.12561899     A.U. after   21 cycles

 The electronic state is 2-A.
 Alpha  occ. eigenvalues --  -38.44685 -38.44446 -38.44155 -38.44143 -38.43910
 Alpha  occ. eigenvalues --  -38.43183 -38.43158  -2.20470  -2.20267  -2.20003
 Alpha  occ. eigenvalues --   -2.19961  -2.19752  -2.19076  -2.19009  -1.14147
 Alpha  occ. eigenvalues --   -1.14119  -1.14105  -1.13938  -1.13926  -1.13885
 Alpha  occ. eigenvalues --   -1.13688  -1.13652  -1.13650  -1.13646  -1.13631
 Alpha  occ. eigenvalues --   -1.13559  -1.13420  -1.13405  -1.13357  -1.12930
 Alpha  occ. eigenvalues --   -1.12728  -1.12712  -1.12655  -1.12635  -1.12571
 Alpha  occ. eigenvalues --   -0.17984  -0.13442  -0.11574  -0.11336
 Alpha virt. eigenvalues --   -0.06553  -0.05166  -0.04302  -0.03468  -0.02891
 Alpha virt. eigenvalues --   -0.02718  -0.02225  -0.01116  -0.00528  -0.00173
 Alpha virt. eigenvalues --    0.00132   0.00221   0.00251   0.00754   0.00791

  Beta  occ. eigenvalues --  -38.44673 -38.44418 -38.44114 -38.44114 -38.43846
  Beta  occ. eigenvalues --  -38.43180 -38.43155  -2.20446  -2.20215  -2.19929
  Beta  occ. eigenvalues --   -2.19910  -2.19635  -2.19072  -2.19004  -1.14129
  Beta  occ. eigenvalues --   -1.14103  -1.14087  -1.13900  -1.13887  -1.13853
  Beta  occ. eigenvalues --   -1.13639  -1.13614  -1.13600  -1.13586  -1.13572
  Beta  occ. eigenvalues --   -1.13521  -1.13340  -1.13325  -1.13263  -1.12929
  Beta  occ. eigenvalues --   -1.12716  -1.12700  -1.12648  -1.12628  -1.12570
  Beta  occ. eigenvalues --   -0.17279  -0.13261  -0.11392
  Beta virt. eigenvalues --   -0.07492  -0.06379  -0.04673  -0.04082  -0.03244
  Beta virt. eigenvalues --   -0.02388  -0.02117  -0.01798  -0.00833  -0.00356
  Beta virt. eigenvalues --   -0.00091   0.00215   0.00270   0.00372   0.00841

 Mulliken charges and spin densities:
               1          2
     1  Na  -0.087816   0.049182
     2  Na   0.244330   0.043946
     3  Na   0.328423   0.105025
     4  Na  -0.120835  -0.060325
     5  Na  -0.401096   0.288661
     6  Na   0.050993   0.250359
     7  Na  -0.013999   0.323152
 Sum of Mulliken charges =  -0.00000   1.00000

 Dipole moment (field-independent basis, Debye):
    X=              0.3999    Y=             -0.5231    Z=             -0.3013  Tot=              0.7241
 Quadrupole moment (field-independent basis, Debye-Ang):
   XX=            -51.5802   YY=            -77.4122   ZZ=            -66.4415
   XY=              1.4852   XZ=             -0.9266   YZ=             -1.1340

 Normal termination of Gaussian 16 at Mon Dec  4 02:23:57 2023.
