 Gaussian 16, Revision B.01,
 Gaussian 16:  ES64L-G16RevB.01 20-Dec-2017

 -------------------------
 #P B3LYP/6-311+g(d) force
 -------------------------

 -----
 DPGEN
 -----
 Symbolic Z-matrix:
 Charge =  0 Multiplicity = 2

                         Standard orientation:
 ---------------------------------------------------------------------
 Center     Atomic      Atomic             Coordinates (Angstroms)
 Number     Number       Type             X           Y           Z
 ---------------------------------------------------------------------
      1         11           0        0.239346   -0.188968   -1.552542
      2         11           0       -1.113411   -2.388976    0.784344
      3         11           0        2.674771   -1.801576   -0.285879
      4         11           0       -2.997429   -0.363500   -0.804536
      5         11           0        2.601861    1.626278   -0.042397
      6         11           0       -1.180256    2.528743   -0.142172
      7         11           0       -0.224882    0.587998    2.043182
 ---------------------------------------------------------------------

 SCF Done:  E(UB3LYP) =  -1136.13461676     A.U. after   19 cycles

 The electronic state is 2-A.
 Alpha  occ. eigenvalues --  -38.44020 -38.43934 -38.43791 -38.43682 -38.43249
 Alpha  occ. eigenvalues --  -38.43192 -38.43125  -2.19857  -2.19814  -2.19622
 Alpha  occ. eigenvalues --   -2.19612  -2.19258  -2.19074  -2.19018  -1.13549
 Alpha  occ. eigenvalues --   -1.13534  -1.13497  -1.13477  -1.13475  -1.13446
 Alpha  occ. eigenvalues --   -1.13328  -1.13295  -1.13273  -1.13262  -1.13249
 Alpha  occ. eigenvalues --   -1.13220  -1.12944  -1.12903  -1.12886  -1.12752
 Alpha  occ. eigenvalues --   -1.12726  -1.12705  -1.12698  -1.12681  -1.12627
 Alpha  occ. eigenvalues --   -0.18858  -0.13295  -0.12162  -0.11186
 Alpha virt. eigenvalues --   -0.05520  -0.05271  -0.04141  -0.03392  -0.03039
 Alpha virt. eigenvalues --   -0.02724  -0.01572  -0.01040  -0.00261  -0.00024
 Alpha virt. eigenvalues --    0.00087   0.00351   0.00789   0.00866   0.00943

  Beta  occ. eigenvalues --  -38.44017 -38.43911 -38.43790 -38.43590 -38.43198
  Beta  occ. eigenvalues --  -38.43168 -38.43118  -2.19855  -2.19775  -2.19622
  Beta  occ. eigenvalues --   -2.19443  -2.19165  -2.19034  -2.19009  -1.13541
  Beta  occ. eigenvalues --   -1.13526  -1.13473  -1.13470  -1.13431  -1.13421
  Beta  occ. eigenvalues --   -1.13321  -1.13271  -1.13247  -1.13186  -1.13142
  Beta  occ. eigenvalues --   -1.13098  -1.12881  -1.12840  -1.12813  -1.12722
  Beta  occ. eigenvalues --   -1.12692  -1.12685  -1.12667  -1.12655  -1.12614
  Beta  occ. eigenvalues --   -0.18132  -0.13029  -0.11930
  Beta virt. eigenvalues --   -0.07214  -0.05483  -0.05212  -0.04049  -0.02692
  Beta virt. eigenvalues --   -0.02312  -0.01688  -0.01422  -0.01010  -0.00168
  Beta virt. eigenvalues --   -0.00007   0.00138   0.00392   0.00850   0.00886

 Mulliken charges and spin densities:
               1          2
     1  Na  -0.199898   0.304473
     2  Na   0.044852   0.164235
     3  Na   0.061787  -0.024854
     4  Na   0.174385   0.058109
     5  Na   0.005385  -0.069415
     6  Na   0.148846   0.027077
     7  Na  -0.235358   0.540376
 Sum of Mulliken charges =  -0.00000   1.00000

 Dipole moment (field-independent basis, Debye):
    X=              0.2991    Y=              0.1037    Z=              0.0598  Tot=              0.3222
 Quadrupole moment (field-independent basis, Debye-Ang):
   XX=            -56.2573   YY=            -65.7104   ZZ=            -72.0258
   XY=              0.0834   XZ=              1.8150   YZ=             -1.4930

 Normal termination of Gaussian 16 at Fri Dec  8 07:02:27 2023.
