 Gaussian 16, Revision B.01,
 Gaussian 16:  ES64L-G16RevB.01 20-Dec-2017

 -------------------------
 #P B3LYP/6-311+g(d) force
 -------------------------

 -----
 DPGEN
 -----
 Symbolic Z-matrix:
 Charge =  0 Multiplicity = 2

                         Standard orientation:
 ---------------------------------------------------------------------
 Center     Atomic      Atomic             Coordinates (Angstroms)
 Number     Number       Type             X           Y           Z
 ---------------------------------------------------------------------
      1         11           0        0.352153   -2.916756   -0.028097
      2         11           0       -2.069357    2.388440    0.234032
      3         11           0        0.103280    0.145016   -1.441239
      4         11           0        1.742368    2.387087   -0.230358
      5         11           0       -0.327378   -0.367051    2.440174
      6         11           0       -2.772976   -1.138332   -0.824983
      7         11           0        2.971910   -0.498404   -0.149529
 ---------------------------------------------------------------------

 SCF Done:  E(UB3LYP) =  -1136.13388593     A.U. after   18 cycles

 The electronic state is 2-A.
 Alpha  occ. eigenvalues --  -38.44320 -38.43930 -38.43771 -38.43623 -38.43495
 Alpha  occ. eigenvalues --  -38.43337 -38.43091  -2.20142  -2.19762  -2.19565
 Alpha  occ. eigenvalues --   -2.19505  -2.19380  -2.19181  -2.19134  -1.13785
 Alpha  occ. eigenvalues --   -1.13771  -1.13758  -1.13470  -1.13406  -1.13379
 Alpha  occ. eigenvalues --   -1.13249  -1.13237  -1.13229  -1.13208  -1.13180
 Alpha  occ. eigenvalues --   -1.13141  -1.13117  -1.13021  -1.12973  -1.12878
 Alpha  occ. eigenvalues --   -1.12848  -1.12814  -1.12800  -1.12764  -1.12741
 Alpha  occ. eigenvalues --   -0.18454  -0.12925  -0.12379  -0.11146
 Alpha virt. eigenvalues --   -0.05360  -0.05144  -0.04709  -0.03266  -0.03084
 Alpha virt. eigenvalues --   -0.02880  -0.01339  -0.01145  -0.00339  -0.00249
 Alpha virt. eigenvalues --   -0.00044   0.00341   0.00786   0.00862   0.00904

  Beta  occ. eigenvalues --  -38.44207 -38.43907 -38.43769 -38.43621 -38.43493
  Beta  occ. eigenvalues --  -38.43334 -38.43046  -2.19932  -2.19721  -2.19563
  Beta  occ. eigenvalues --   -2.19502  -2.19378  -2.19179  -2.19054  -1.13644
  Beta  occ. eigenvalues --   -1.13630  -1.13607  -1.13431  -1.13374  -1.13353
  Beta  occ. eigenvalues --   -1.13245  -1.13230  -1.13219  -1.13207  -1.13174
  Beta  occ. eigenvalues --   -1.13131  -1.13107  -1.13012  -1.12971  -1.12872
  Beta  occ. eigenvalues --   -1.12829  -1.12810  -1.12744  -1.12706  -1.12691
  Beta  occ. eigenvalues --   -0.17781  -0.12665  -0.12199
  Beta virt. eigenvalues --   -0.07133  -0.05290  -0.05113  -0.04635  -0.02499
  Beta virt. eigenvalues --   -0.02310  -0.01868  -0.01243  -0.01051  -0.00356
  Beta virt. eigenvalues --   -0.00279   0.00128   0.00386   0.00869   0.00882

 Mulliken charges and spin densities:
               1          2
     1  Na   0.243633   0.076416
     2  Na   0.037927   0.075937
     3  Na  -0.355974  -0.054293
     4  Na   0.316321   0.076959
     5  Na  -0.709031   0.719121
     6  Na   0.255244   0.054668
     7  Na   0.211880   0.051191
 Sum of Mulliken charges =  -0.00000   1.00000

 Dipole moment (field-independent basis, Debye):
    X=             -0.1894    Y=             -0.0174    Z=              0.3310  Tot=              0.3817
 Quadrupole moment (field-independent basis, Debye-Ang):
   XX=            -59.4411   YY=            -62.4064   ZZ=            -72.6807
   XY=             -0.4845   XZ=              0.9061   YZ=              1.2463

 Normal termination of Gaussian 16 at Thu Dec  7 09:35:51 2023.
