 Gaussian 16, Revision B.01,
 Gaussian 16:  ES64L-G16RevB.01 20-Dec-2017

 -------------------------
 #P B3LYP/6-311+g(d) force
 -------------------------

 -----
 DPGEN
 -----
 Symbolic Z-matrix:
 Charge =  0 Multiplicity = 2

                         Standard orientation:
 ---------------------------------------------------------------------
 Center     Atomic      Atomic             Coordinates (Angstroms)
 Number     Number       Type             X           Y           Z
 ---------------------------------------------------------------------
      1         11           0        1.432533   -2.618950    0.001287
      2         11           0       -0.047941   -0.280815    2.014435
      3         11           0        0.181937    3.158915   -0.019068
      4         11           0       -2.712453    1.263282    0.126459
      5         11           0        3.177380    0.592776    0.018325
      6         11           0        0.110853    0.077773   -1.866105
      7         11           0       -2.142310   -2.192981   -0.275334
 ---------------------------------------------------------------------

 SCF Done:  E(UB3LYP) =  -1136.14056200     A.U. after   19 cycles

 The electronic state is 2-A.
 Alpha  occ. eigenvalues --  -38.43960 -38.43763 -38.43693 -38.43650 -38.43578
 Alpha  occ. eigenvalues --  -38.43555 -38.43484  -2.19748  -2.19564  -2.19535
 Alpha  occ. eigenvalues --   -2.19530  -2.19418  -2.19391  -2.19385  -1.13426
 Alpha  occ. eigenvalues --   -1.13408  -1.13391  -1.13243  -1.13242  -1.13233
 Alpha  occ. eigenvalues --   -1.13214  -1.13207  -1.13190  -1.13164  -1.13151
 Alpha  occ. eigenvalues --   -1.13148  -1.13101  -1.13086  -1.13067  -1.13063
 Alpha  occ. eigenvalues --   -1.13054  -1.13040  -1.13018  -1.13010  -1.13000
 Alpha  occ. eigenvalues --   -0.18339  -0.12717  -0.12509  -0.10751
 Alpha virt. eigenvalues --   -0.05525  -0.05114  -0.05070  -0.03116  -0.03006
 Alpha virt. eigenvalues --   -0.02660  -0.01358  -0.01252  -0.00524  -0.00451
 Alpha virt. eigenvalues --   -0.00031   0.00379   0.00815   0.00849   0.00859

  Beta  occ. eigenvalues --  -38.43959 -38.43762 -38.43688 -38.43574 -38.43562
  Beta  occ. eigenvalues --  -38.43548 -38.43408  -2.19750  -2.19566  -2.19528
  Beta  occ. eigenvalues --   -2.19413  -2.19382  -2.19368  -2.19247  -1.13413
  Beta  occ. eigenvalues --   -1.13408  -1.13394  -1.13239  -1.13221  -1.13221
  Beta  occ. eigenvalues --   -1.13211  -1.13182  -1.13161  -1.13110  -1.13079
  Beta  occ. eigenvalues --   -1.13068  -1.13063  -1.13048  -1.13039  -1.13029
  Beta  occ. eigenvalues --   -1.13018  -1.13015  -1.12967  -1.12914  -1.12901
  Beta  occ. eigenvalues --   -0.17591  -0.12499  -0.12302
  Beta virt. eigenvalues --   -0.06853  -0.05552  -0.05132  -0.04913  -0.02320
  Beta virt. eigenvalues --   -0.02255  -0.01623  -0.01270  -0.01167  -0.00581
  Beta virt. eigenvalues --   -0.00519   0.00110   0.00396   0.00831   0.00867

 Mulliken charges and spin densities:
               1          2
     1  Na   0.207786  -0.088951
     2  Na  -0.303441   0.769939
     3  Na  -0.013930  -0.134730
     4  Na   0.101741  -0.058748
     5  Na  -0.006728  -0.149781
     6  Na  -0.156582   0.706262
     7  Na   0.171154  -0.043991
 Sum of Mulliken charges =  -0.00000   1.00000

 Dipole moment (field-independent basis, Debye):
    X=              0.1789    Y=              0.0152    Z=              0.0392  Tot=              0.1838
 Quadrupole moment (field-independent basis, Debye-Ang):
   XX=            -59.3964   YY=            -60.2257   ZZ=            -74.1408
   XY=              0.6101   XZ=              0.3931   YZ=              0.8621

 Normal termination of Gaussian 16 at Thu Dec  7 22:23:43 2023.
