 Gaussian 16, Revision B.01,
 Gaussian 16:  ES64L-G16RevB.01 20-Dec-2017

 -------------------------
 #P B3LYP/6-311+g(d) force
 -------------------------

 -----
 DPGEN
 -----
 Symbolic Z-matrix:
 Charge =  0 Multiplicity = 2

                         Standard orientation:
 ---------------------------------------------------------------------
 Center     Atomic      Atomic             Coordinates (Angstroms)
 Number     Number       Type             X           Y           Z
 ---------------------------------------------------------------------
      1         11           0       -3.289393   -1.478747    0.606265
      2         11           0        2.569782   -1.073517   -1.182346
      3         11           0       -0.862704   -1.093628   -1.574930
      4         11           0        3.179631   -0.166490    1.353446
      5         11           0       -0.511697   -0.162339    1.616890
      6         11           0       -2.161609    2.124849   -0.333396
      7         11           0        1.075990    1.849873   -0.485929
 ---------------------------------------------------------------------

 SCF Done:  E(UB3LYP) =  -1136.12165089     A.U. after   22 cycles

 The electronic state is 2-A.
 Alpha  occ. eigenvalues --  -38.44743 -38.44325 -38.44235 -38.43831 -38.43657
 Alpha  occ. eigenvalues --  -38.43384 -38.42619  -2.20659  -2.20262  -2.20182
 Alpha  occ. eigenvalues --   -2.19748  -2.19510  -2.19244  -2.18567  -1.14517
 Alpha  occ. eigenvalues --   -1.14279  -1.14270  -1.13904  -1.13894  -1.13879
 Alpha  occ. eigenvalues --   -1.13857  -1.13825  -1.13805  -1.13446  -1.13389
 Alpha  occ. eigenvalues --   -1.13370  -1.13181  -1.13152  -1.13146  -1.12919
 Alpha  occ. eigenvalues --   -1.12908  -1.12879  -1.12270  -1.12238  -1.12179
 Alpha  occ. eigenvalues --   -0.19069  -0.14483  -0.11550  -0.11107
 Alpha virt. eigenvalues --   -0.06507  -0.05071  -0.04980  -0.03253  -0.02564
 Alpha virt. eigenvalues --   -0.02308  -0.02212  -0.00984  -0.00750   0.00063
 Alpha virt. eigenvalues --    0.00204   0.00359   0.00424   0.00599   0.00765

  Beta  occ. eigenvalues --  -38.44710 -38.44297 -38.44186 -38.43771 -38.43653
  Beta  occ. eigenvalues --  -38.43382 -38.42605  -2.20598  -2.20214  -2.20093
  Beta  occ. eigenvalues --   -2.19639  -2.19504  -2.19242  -2.18547  -1.14480
  Beta  occ. eigenvalues --   -1.14233  -1.14223  -1.13858  -1.13849  -1.13830
  Beta  occ. eigenvalues --   -1.13808  -1.13754  -1.13744  -1.13377  -1.13307
  Beta  occ. eigenvalues --   -1.13288  -1.13166  -1.13147  -1.13136  -1.12909
  Beta  occ. eigenvalues --   -1.12904  -1.12880  -1.12261  -1.12187  -1.12170
  Beta  occ. eigenvalues --   -0.18312  -0.14315  -0.10961
  Beta virt. eigenvalues --   -0.07519  -0.06312  -0.04985  -0.04236  -0.02969
  Beta virt. eigenvalues --   -0.02216  -0.01880  -0.01586  -0.00943  -0.00308
  Beta virt. eigenvalues --    0.00118   0.00224   0.00468   0.00528   0.00705

 Mulliken charges and spin densities:
               1          2
     1  Na   0.860540  -0.023455
     2  Na  -0.001814  -0.025271
     3  Na  -0.434752   0.330234
     4  Na   0.702693   0.195236
     5  Na  -0.895898   0.359664
     6  Na  -0.011069  -0.105306
     7  Na  -0.219701   0.268898
 Sum of Mulliken charges =  -0.00000   1.00000

 Dipole moment (field-independent basis, Debye):
    X=              0.0049    Y=              0.0974    Z=              0.2050  Tot=              0.2270
 Quadrupole moment (field-independent basis, Debye-Ang):
   XX=            -51.2025   YY=            -77.1886   ZZ=            -67.8557
   XY=             -1.4805   XZ=              1.1299   YZ=              0.2373

 Normal termination of Gaussian 16 at Tue Dec  5 18:49:10 2023.
