 Gaussian 16, Revision B.01,
 Gaussian 16:  ES64L-G16RevB.01 20-Dec-2017

 -------------------------
 #P B3LYP/6-311+g(d) force
 -------------------------

 -----
 DPGEN
 -----
 Symbolic Z-matrix:
 Charge =  0 Multiplicity = 2

                         Standard orientation:
 ---------------------------------------------------------------------
 Center     Atomic      Atomic             Coordinates (Angstroms)
 Number     Number       Type             X           Y           Z
 ---------------------------------------------------------------------
      1         11           0       -1.241849   -2.045138   -0.450132
      2         11           0        1.785761   -1.521618    0.354533
      3         11           0       -0.498701    1.568787   -0.374521
      4         11           0        5.085558   -0.512914   -0.076216
      5         11           0        2.667886    2.026706    0.271702
      6         11           0       -3.711383    0.373104   -1.579315
      7         11           0       -4.087272    0.111072    1.853949
 ---------------------------------------------------------------------

 SCF Done:  E(UB3LYP) =  -1136.11308316     A.U. after   36 cycles

 The electronic state is 2-A.
 Alpha  occ. eigenvalues --  -38.45523 -38.45404 -38.44472 -38.43810 -38.43716
 Alpha  occ. eigenvalues --  -38.42973 -38.42352  -2.21316  -2.21161  -2.20338
 Alpha  occ. eigenvalues --   -2.19648  -2.19530  -2.18846  -2.18220  -1.15004
 Alpha  occ. eigenvalues --   -1.14967  -1.14950  -1.14830  -1.14826  -1.14771
 Alpha  occ. eigenvalues --   -1.14027  -1.13985  -1.13936  -1.13329  -1.13325
 Alpha  occ. eigenvalues --   -1.13272  -1.13190  -1.13182  -1.13139  -1.12544
 Alpha  occ. eigenvalues --   -1.12519  -1.12471  -1.11897  -1.11867  -1.11857
 Alpha  occ. eigenvalues --   -0.17172  -0.14520  -0.11529  -0.10608
 Alpha virt. eigenvalues --   -0.07404  -0.05364  -0.04422  -0.03572  -0.03091
 Alpha virt. eigenvalues --   -0.02137  -0.01934  -0.01357  -0.01209  -0.00900
 Alpha virt. eigenvalues --   -0.00366   0.00128   0.00233   0.00404   0.00608

  Beta  occ. eigenvalues --  -38.45528 -38.45386 -38.44383 -38.43780 -38.43664
  Beta  occ. eigenvalues --  -38.42955 -38.42341  -2.21327  -2.21127  -2.20178
  Beta  occ. eigenvalues --   -2.19600  -2.19433  -2.18813  -2.18199  -1.15004
  Beta  occ. eigenvalues --   -1.14977  -1.14954  -1.14805  -1.14802  -1.14750
  Beta  occ. eigenvalues --   -1.13921  -1.13870  -1.13813  -1.13300  -1.13293
  Beta  occ. eigenvalues --   -1.13201  -1.13118  -1.13114  -1.13081  -1.12521
  Beta  occ. eigenvalues --   -1.12491  -1.12445  -1.11883  -1.11855  -1.11840
  Beta  occ. eigenvalues --   -0.16607  -0.14080  -0.10421
  Beta virt. eigenvalues --   -0.07751  -0.07123  -0.04927  -0.04189  -0.03297
  Beta virt. eigenvalues --   -0.02632  -0.01862  -0.01536  -0.01153  -0.00913
  Beta virt. eigenvalues --   -0.00698  -0.00246   0.00242   0.00293   0.00520

 Mulliken charges and spin densities:
               1          2
     1  Na  -0.494368   0.195673
     2  Na  -0.545857   0.168941
     3  Na  -1.007977   0.449813
     4  Na   0.753771   0.083815
     5  Na  -0.224761  -0.146218
     6  Na   1.351789   0.215106
     7  Na   0.167404   0.032870
 Sum of Mulliken charges =  -0.00000   1.00000

 Dipole moment (field-independent basis, Debye):
    X=             -1.5611    Y=              0.1702    Z=             -0.1210  Tot=              1.5750
 Quadrupole moment (field-independent basis, Debye-Ang):
   XX=            -65.7084   YY=            -74.4598   ZZ=            -60.8954
   XY=              1.3148   XZ=              1.7111   YZ=             -2.0271

 Normal termination of Gaussian 16 at Sun Dec  3 13:43:35 2023.
