 Gaussian 16, Revision B.01,
 Gaussian 16:  ES64L-G16RevB.01 20-Dec-2017

 -------------------------
 #P B3LYP/6-311+g(d) force
 -------------------------

 -----
 DPGEN
 -----
 Symbolic Z-matrix:
 Charge =  0 Multiplicity = 2

                         Standard orientation:
 ---------------------------------------------------------------------
 Center     Atomic      Atomic             Coordinates (Angstroms)
 Number     Number       Type             X           Y           Z
 ---------------------------------------------------------------------
      1         11           0        1.626024   -2.929128   -0.197981
      2         11           0        0.492637   -0.171951   -1.530631
      3         11           0        0.943143    3.234069   -0.955850
      4         11           0        3.306017    0.553142    0.847797
      5         11           0       -0.329575    0.215998    2.055765
      6         11           0       -2.081888   -1.882828   -0.541311
      7         11           0       -3.956359    0.980698    0.322210
 ---------------------------------------------------------------------

 SCF Done:  E(UB3LYP) =  -1136.12344988     A.U. after   21 cycles

 The electronic state is 2-A.
 Alpha  occ. eigenvalues --  -38.44882 -38.44732 -38.44654 -38.43761 -38.43666
 Alpha  occ. eigenvalues --  -38.43483 -38.43303  -2.20670  -2.20503  -2.20398
 Alpha  occ. eigenvalues --   -2.19603  -2.19448  -2.19286  -2.19239  -1.14354
 Alpha  occ. eigenvalues --   -1.14324  -1.14268  -1.14177  -1.14155  -1.14129
 Alpha  occ. eigenvalues --   -1.14071  -1.14067  -1.14030  -1.13329  -1.13281
 Alpha  occ. eigenvalues --   -1.13188  -1.13121  -1.13099  -1.13069  -1.13000
 Alpha  occ. eigenvalues --   -1.12951  -1.12927  -1.12923  -1.12883  -1.12822
 Alpha  occ. eigenvalues --   -0.17549  -0.12934  -0.11803  -0.10758
 Alpha virt. eigenvalues --   -0.06545  -0.05218  -0.04834  -0.03135  -0.02827
 Alpha virt. eigenvalues --   -0.02458  -0.02182  -0.01445  -0.00863  -0.00405
 Alpha virt. eigenvalues --   -0.00143   0.00216   0.00440   0.00692   0.00708

  Beta  occ. eigenvalues --  -38.44816 -38.44709 -38.44659 -38.43750 -38.43624
  Beta  occ. eigenvalues --  -38.43486 -38.43250  -2.20547  -2.20461  -2.20408
  Beta  occ. eigenvalues --   -2.19585  -2.19371  -2.19295  -2.19142  -1.14270
  Beta  occ. eigenvalues --   -1.14243  -1.14174  -1.14140  -1.14125  -1.14097
  Beta  occ. eigenvalues --   -1.14077  -1.14071  -1.14036  -1.13309  -1.13264
  Beta  occ. eigenvalues --   -1.13175  -1.13058  -1.13046  -1.13021  -1.12995
  Beta  occ. eigenvalues --   -1.12952  -1.12918  -1.12865  -1.12818  -1.12751
  Beta  occ. eigenvalues --   -0.16904  -0.12747  -0.11483
  Beta virt. eigenvalues --   -0.07105  -0.06270  -0.05073  -0.04650  -0.02649
  Beta virt. eigenvalues --   -0.02280  -0.02056  -0.01564  -0.01384  -0.00727
  Beta virt. eigenvalues --   -0.00327  -0.00024   0.00269   0.00566   0.00731

 Mulliken charges and spin densities:
               1          2
     1  Na  -0.192253  -0.025539
     2  Na   0.556095   0.250216
     3  Na  -0.071440   0.136568
     4  Na   0.026280   0.185856
     5  Na  -0.252654   0.515864
     6  Na  -0.092520  -0.039625
     7  Na   0.026493  -0.023340
 Sum of Mulliken charges =  -0.00000   1.00000

 Dipole moment (field-independent basis, Debye):
    X=             -0.1168    Y=              0.0712    Z=              0.5118  Tot=              0.5298
 Quadrupole moment (field-independent basis, Debye-Ang):
   XX=            -54.4877   YY=            -64.8417   ZZ=            -74.1936
   XY=             -3.0743   XZ=              2.2325   YZ=             -0.6769

 Normal termination of Gaussian 16 at Thu Dec  7 15:51:59 2023.
