 Gaussian 16, Revision B.01,
 Gaussian 16:  ES64L-G16RevB.01 20-Dec-2017

 -------------------------
 #P B3LYP/6-311+g(d) force
 -------------------------

 -----
 DPGEN
 -----
 Symbolic Z-matrix:
 Charge =  0 Multiplicity = 2

                         Standard orientation:
 ---------------------------------------------------------------------
 Center     Atomic      Atomic             Coordinates (Angstroms)
 Number     Number       Type             X           Y           Z
 ---------------------------------------------------------------------
      1         11           0       -2.984871    1.493506   -0.352430
      2         11           0        3.262639   -0.096864   -0.018661
      3         11           0        1.079231    2.905504   -0.144445
      4         11           0       -2.885732   -1.677348    0.399075
      5         11           0        0.118577   -0.393313   -1.905189
      6         11           0        0.231894    0.556039    1.943940
      7         11           0        1.178262   -2.787524    0.077711
 ---------------------------------------------------------------------

 SCF Done:  E(UB3LYP) =  -1136.13207385     A.U. after   19 cycles

 The electronic state is 2-A.
 Alpha  occ. eigenvalues --  -38.44677 -38.44412 -38.44219 -38.43662 -38.43660
 Alpha  occ. eigenvalues --  -38.43295 -38.43285  -2.20494  -2.20200  -2.20008
 Alpha  occ. eigenvalues --   -2.19533  -2.19523  -2.19118  -2.19113  -1.14175
 Alpha  occ. eigenvalues --   -1.14157  -1.14126  -1.13883  -1.13869  -1.13841
 Alpha  occ. eigenvalues --   -1.13674  -1.13657  -1.13650  -1.13219  -1.13199
 Alpha  occ. eigenvalues --   -1.13173  -1.13166  -1.13151  -1.13145  -1.12796
 Alpha  occ. eigenvalues --   -1.12790  -1.12778  -1.12772  -1.12756  -1.12749
 Alpha  occ. eigenvalues --   -0.17946  -0.13203  -0.12007  -0.10493
 Alpha virt. eigenvalues --   -0.06149  -0.05471  -0.04618  -0.03331  -0.02904
 Alpha virt. eigenvalues --   -0.02439  -0.01836  -0.01194  -0.00670  -0.00597
 Alpha virt. eigenvalues --   -0.00056   0.00361   0.00717   0.00719   0.00803

  Beta  occ. eigenvalues --  -38.44673 -38.44409 -38.44214 -38.43587 -38.43587
  Beta  occ. eigenvalues --  -38.43292 -38.43282  -2.20491  -2.20195  -2.20000
  Beta  occ. eigenvalues --   -2.19394  -2.19387  -2.19114  -2.19110  -1.14159
  Beta  occ. eigenvalues --   -1.14148  -1.14124  -1.13882  -1.13852  -1.13840
  Beta  occ. eigenvalues --   -1.13656  -1.13652  -1.13646  -1.13126  -1.13107
  Beta  occ. eigenvalues --   -1.13074  -1.13069  -1.13051  -1.13047  -1.12789
  Beta  occ. eigenvalues --   -1.12782  -1.12764  -1.12759  -1.12747  -1.12744
  Beta  occ. eigenvalues --   -0.17229  -0.13044  -0.11804
  Beta virt. eigenvalues --   -0.06696  -0.06057  -0.05417  -0.04504  -0.02639
  Beta virt. eigenvalues --   -0.02171  -0.01749  -0.01472  -0.01101  -0.00701
  Beta virt. eigenvalues --   -0.00621   0.00103   0.00390   0.00797   0.00808

 Mulliken charges and spin densities:
               1          2
     1  Na   0.030878  -0.065044
     2  Na   0.237636  -0.060995
     3  Na   0.007982  -0.140082
     4  Na  -0.039401  -0.018060
     5  Na  -0.078985   0.667963
     6  Na  -0.170208   0.684291
     7  Na   0.012098  -0.068073
 Sum of Mulliken charges =  -0.00000   1.00000

 Dipole moment (field-independent basis, Debye):
    X=              0.0124    Y=              0.0435    Z=             -0.0120  Tot=              0.0468
 Quadrupole moment (field-independent basis, Debye-Ang):
   XX=            -54.4480   YY=            -64.4231   ZZ=            -75.1643
   XY=             -0.0969   XZ=             -0.2326   YZ=             -2.8164

 Normal termination of Gaussian 16 at Tue Dec  5 23:24:29 2023.
