 Gaussian 16, Revision B.01,
 Gaussian 16:  ES64L-G16RevB.01 20-Dec-2017

 -------------------------
 #P B3LYP/6-311+g(d) force
 -------------------------

 -----
 DPGEN
 -----
 Symbolic Z-matrix:
 Charge =  0 Multiplicity = 2

                         Standard orientation:
 ---------------------------------------------------------------------
 Center     Atomic      Atomic             Coordinates (Angstroms)
 Number     Number       Type             X           Y           Z
 ---------------------------------------------------------------------
      1         11           0        0.148734   -0.415656   -1.615973
      2         11           0        0.456818    2.925746   -0.286714
      3         11           0        3.191303    0.818678    0.425735
      4         11           0        1.935772   -2.572016   -0.339615
      5         11           0       -0.440057   -0.191841    2.006209
      6         11           0       -2.777529    1.576140   -0.289475
      7         11           0       -2.515041   -2.141051    0.099833
 ---------------------------------------------------------------------

 SCF Done:  E(UB3LYP) =  -1136.13416655     A.U. after   19 cycles

 The electronic state is 2-A.
 Alpha  occ. eigenvalues --  -38.44241 -38.44207 -38.44088 -38.43914 -38.43764
 Alpha  occ. eigenvalues --  -38.43273 -38.43193  -2.20032  -2.20008  -2.19897
 Alpha  occ. eigenvalues --   -2.19737  -2.19623  -2.19207  -2.19017  -1.13704
 Alpha  occ. eigenvalues --   -1.13689  -1.13687  -1.13672  -1.13670  -1.13646
 Alpha  occ. eigenvalues --   -1.13574  -1.13560  -1.13530  -1.13464  -1.13382
 Alpha  occ. eigenvalues --   -1.13356  -1.13293  -1.13255  -1.13235  -1.12888
 Alpha  occ. eigenvalues --   -1.12846  -1.12825  -1.12694  -1.12681  -1.12657
 Alpha  occ. eigenvalues --   -0.18088  -0.12999  -0.12309  -0.10469
 Alpha virt. eigenvalues --   -0.05917  -0.05602  -0.04652  -0.03211  -0.02777
 Alpha virt. eigenvalues --   -0.02401  -0.01706  -0.01417  -0.00735  -0.00435
 Alpha virt. eigenvalues --   -0.00029   0.00325   0.00734   0.00755   0.00839

  Beta  occ. eigenvalues --  -38.44232 -38.44203 -38.44080 -38.43905 -38.43678
  Beta  occ. eigenvalues --  -38.43212 -38.43189  -2.20016  -2.20004  -2.19885
  Beta  occ. eigenvalues --   -2.19722  -2.19465  -2.19096  -2.19013  -1.13686
  Beta  occ. eigenvalues --   -1.13676  -1.13672  -1.13663  -1.13660  -1.13644
  Beta  occ. eigenvalues --   -1.13557  -1.13547  -1.13519  -1.13442  -1.13362
  Beta  occ. eigenvalues --   -1.13349  -1.13187  -1.13147  -1.13119  -1.12809
  Beta  occ. eigenvalues --   -1.12764  -1.12751  -1.12686  -1.12676  -1.12644
  Beta  occ. eigenvalues --   -0.17415  -0.12780  -0.12036
  Beta virt. eigenvalues --   -0.06720  -0.05815  -0.05514  -0.04595  -0.02503
  Beta virt. eigenvalues --   -0.02092  -0.01581  -0.01453  -0.01278  -0.00768
  Beta virt. eigenvalues --   -0.00461   0.00119   0.00367   0.00749   0.00825

 Mulliken charges and spin densities:
               1          2
     1  Na   0.003007   0.426772
     2  Na  -0.066376  -0.013861
     3  Na  -0.025078   0.086882
     4  Na   0.166638  -0.068252
     5  Na  -0.312142   0.700771
     6  Na   0.075089  -0.027939
     7  Na   0.158863  -0.104372
 Sum of Mulliken charges =  -0.00000   1.00000

 Dipole moment (field-independent basis, Debye):
    X=             -0.1683    Y=             -0.3411    Z=              0.1520  Tot=              0.4096
 Quadrupole moment (field-independent basis, Debye-Ang):
   XX=            -54.6573   YY=            -62.7088   ZZ=            -75.7110
   XY=              0.3738   XZ=              1.8692   YZ=             -0.3475

 Normal termination of Gaussian 16 at Thu Dec  7 06:32:22 2023.
