 Gaussian 16, Revision B.01,
 Gaussian 16:  ES64L-G16RevB.01 20-Dec-2017

 -------------------------
 #P B3LYP/6-311+g(d) force
 -------------------------

 -----
 DPGEN
 -----
 Symbolic Z-matrix:
 Charge =  0 Multiplicity = 2

                         Standard orientation:
 ---------------------------------------------------------------------
 Center     Atomic      Atomic             Coordinates (Angstroms)
 Number     Number       Type             X           Y           Z
 ---------------------------------------------------------------------
      1         11           0       -0.520258   -0.354745   -1.384829
      2         11           0        0.901147   -1.536439    0.544471
      3         11           0       -3.123656   -0.942358   -0.340629
      4         11           0       -1.158160   -0.037348    1.542071
      5         11           0       -0.869970    2.130353   -0.457529
      6         11           0        1.420834    1.251464    0.627371
      7         11           0        3.350062   -0.510927   -0.530929
 ---------------------------------------------------------------------

 SCF Done:  E(UB3LYP) =  -1136.06656033     A.U. after   23 cycles

 The electronic state is 2-A.
 Alpha  occ. eigenvalues --  -38.45136 -38.44797 -38.44476 -38.44129 -38.43836
 Alpha  occ. eigenvalues --  -38.43300 -38.43081  -2.21071  -2.20775  -2.20735
 Alpha  occ. eigenvalues --   -2.20335  -2.20097  -2.19552  -2.19204  -1.14852
 Alpha  occ. eigenvalues --   -1.14755  -1.14739  -1.14666  -1.14628  -1.14533
 Alpha  occ. eigenvalues --   -1.14475  -1.14313  -1.14233  -1.14183  -1.13941
 Alpha  occ. eigenvalues --   -1.13863  -1.13761  -1.13678  -1.13604  -1.13427
 Alpha  occ. eigenvalues --   -1.13192  -1.13137  -1.12862  -1.12774  -1.12691
 Alpha  occ. eigenvalues --   -0.21193  -0.14677  -0.11869  -0.11717
 Alpha virt. eigenvalues --   -0.06791  -0.04312  -0.03956  -0.03289  -0.02414
 Alpha virt. eigenvalues --   -0.02291  -0.02179  -0.00645  -0.00284   0.00185
 Alpha virt. eigenvalues --    0.00422   0.00607   0.00794   0.00978   0.01065

  Beta  occ. eigenvalues --  -38.45130 -38.44786 -38.44414 -38.44091 -38.43753
  Beta  occ. eigenvalues --  -38.43274 -38.43063  -2.21061  -2.20729  -2.20656
  Beta  occ. eigenvalues --   -2.20275  -2.19952  -2.19514  -2.19175  -1.14847
  Beta  occ. eigenvalues --   -1.14740  -1.14677  -1.14641  -1.14589  -1.14464
  Beta  occ. eigenvalues --   -1.14439  -1.14299  -1.14144  -1.14111  -1.13899
  Beta  occ. eigenvalues --   -1.13795  -1.13677  -1.13559  -1.13514  -1.13402
  Beta  occ. eigenvalues --   -1.13163  -1.13048  -1.12834  -1.12728  -1.12668
  Beta  occ. eigenvalues --   -0.20348  -0.14421  -0.11577
  Beta virt. eigenvalues --   -0.07441  -0.06664  -0.04257  -0.03317  -0.03101
  Beta virt. eigenvalues --   -0.02299  -0.01583  -0.01188  -0.00541  -0.00050
  Beta virt. eigenvalues --    0.00215   0.00438   0.00665   0.00936   0.00990

 Mulliken charges and spin densities:
               1          2
     1  Na  -0.815900   0.374302
     2  Na   0.292665   0.254957
     3  Na   0.048651   0.023720
     4  Na  -0.039571   0.117416
     5  Na   0.155947   0.069961
     6  Na  -0.011336   0.265578
     7  Na   0.369544  -0.105933
 Sum of Mulliken charges =  -0.00000   1.00000

 Dipole moment (field-independent basis, Debye):
    X=              0.0763    Y=              0.0323    Z=             -0.2384  Tot=              0.2524
 Quadrupole moment (field-independent basis, Debye-Ang):
   XX=            -47.5695   YY=            -75.4343   ZZ=            -70.4232
   XY=              0.2762   XZ=             -1.3523   YZ=              0.1267

 Normal termination of Gaussian 16 at Fri Dec  8 18:14:43 2023.
