 Gaussian 16, Revision B.01,
 Gaussian 16:  ES64L-G16RevB.01 20-Dec-2017

 -------------------------
 #P B3LYP/6-311+g(d) force
 -------------------------

 -----
 DPGEN
 -----
 Symbolic Z-matrix:
 Charge =  0 Multiplicity = 2

                         Standard orientation:
 ---------------------------------------------------------------------
 Center     Atomic      Atomic             Coordinates (Angstroms)
 Number     Number       Type             X           Y           Z
 ---------------------------------------------------------------------
      1         11           0       -1.212537   -2.500588   -0.084450
      2         11           0       -2.969002    0.167288   -0.468182
      3         11           0       -0.792633    2.778554    0.297110
      4         11           0        2.390117    1.500164   -0.320591
      5         11           0       -0.188914   -0.170567    2.018876
      6         11           0        2.384857   -1.633636    0.225698
      7         11           0        0.388112   -0.141215   -1.668461
 ---------------------------------------------------------------------

 SCF Done:  E(UB3LYP) =  -1136.13562006     A.U. after   18 cycles

 The electronic state is 2-A.
 Alpha  occ. eigenvalues --  -38.43840 -38.43634 -38.43589 -38.43569 -38.43401
 Alpha  occ. eigenvalues --  -38.43217 -38.43130  -2.19702  -2.19567  -2.19521
 Alpha  occ. eigenvalues --   -2.19482  -2.19442  -2.19126  -2.18981  -1.13396
 Alpha  occ. eigenvalues --   -1.13380  -1.13366  -1.13345  -1.13257  -1.13228
 Alpha  occ. eigenvalues --   -1.13203  -1.13194  -1.13175  -1.13144  -1.13119
 Alpha  occ. eigenvalues --   -1.13082  -1.13066  -1.13028  -1.13012  -1.12800
 Alpha  occ. eigenvalues --   -1.12790  -1.12746  -1.12657  -1.12640  -1.12622
 Alpha  occ. eigenvalues --   -0.19244  -0.13286  -0.12499  -0.11155
 Alpha virt. eigenvalues --   -0.05318  -0.04966  -0.04545  -0.03422  -0.02990
 Alpha virt. eigenvalues --   -0.02729  -0.01296  -0.00948  -0.00134  -0.00003
 Alpha virt. eigenvalues --    0.00063   0.00371   0.00872   0.00945   0.00961

  Beta  occ. eigenvalues --  -38.43830 -38.43579 -38.43561 -38.43540 -38.43334
  Beta  occ. eigenvalues --  -38.43209 -38.43125  -2.19687  -2.19507  -2.19471
  Beta  occ. eigenvalues --   -2.19394  -2.19323  -2.19117  -2.18975  -1.13372
  Beta  occ. eigenvalues --   -1.13357  -1.13348  -1.13325  -1.13223  -1.13163
  Beta  occ. eigenvalues --   -1.13140  -1.13115  -1.13102  -1.13078  -1.13063
  Beta  occ. eigenvalues --   -1.13044  -1.13011  -1.12959  -1.12938  -1.12793
  Beta  occ. eigenvalues --   -1.12759  -1.12732  -1.12647  -1.12625  -1.12618
  Beta  occ. eigenvalues --   -0.18498  -0.13006  -0.12243
  Beta virt. eigenvalues --   -0.07198  -0.05269  -0.04959  -0.04519  -0.02598
  Beta virt. eigenvalues --   -0.02194  -0.01655  -0.01206  -0.00884  -0.00103
  Beta virt. eigenvalues --   -0.00053   0.00136   0.00396   0.00931   0.00941

 Mulliken charges and spin densities:
               1          2
     1  Na   0.263480  -0.040083
     2  Na  -0.004043  -0.009506
     3  Na   0.046029  -0.032063
     4  Na   0.289134   0.007805
     5  Na  -0.548272   0.704412
     6  Na   0.316790  -0.005441
     7  Na  -0.363119   0.374875
 Sum of Mulliken charges =  -0.00000   1.00000

 Dipole moment (field-independent basis, Debye):
    X=             -0.0699    Y=             -0.0779    Z=              0.1657  Tot=              0.1959
 Quadrupole moment (field-independent basis, Debye-Ang):
   XX=            -58.6616   YY=            -63.8690   ZZ=            -72.2217
   XY=             -0.5009   XZ=              1.3827   YZ=             -0.1369

 Normal termination of Gaussian 16 at Fri Dec  8 06:55:51 2023.
