 Gaussian 16, Revision B.01,
 Gaussian 16:  ES64L-G16RevB.01 20-Dec-2017

 -------------------------
 #P B3LYP/6-311+g(d) force
 -------------------------

 -----
 DPGEN
 -----
 Symbolic Z-matrix:
 Charge =  0 Multiplicity = 2

                         Standard orientation:
 ---------------------------------------------------------------------
 Center     Atomic      Atomic             Coordinates (Angstroms)
 Number     Number       Type             X           Y           Z
 ---------------------------------------------------------------------
      1         11           0        1.464570    3.741010    0.194372
      2         11           0        0.668392   -1.917474    1.065779
      3         11           0       -1.351648    1.690320    0.152551
      4         11           0       -2.655057   -2.398550   -0.546382
      5         11           0       -4.418210    0.548715   -0.052241
      6         11           0        3.320993   -2.607871   -0.153477
      7         11           0        2.970961    0.943851   -0.660603
 ---------------------------------------------------------------------

 SCF Done:  E(UB3LYP) =  -1136.12020343     A.U. after   24 cycles

 The electronic state is 2-A.
 Alpha  occ. eigenvalues --  -38.45010 -38.44772 -38.44517 -38.44118 -38.43583
 Alpha  occ. eigenvalues --  -38.43513 -38.43451  -2.20809  -2.20573  -2.20308
 Alpha  occ. eigenvalues --   -2.19960  -2.19407  -2.19366  -2.19298  -1.14511
 Alpha  occ. eigenvalues --   -1.14485  -1.14418  -1.14281  -1.14263  -1.14179
 Alpha  occ. eigenvalues --   -1.13985  -1.13955  -1.13936  -1.13681  -1.13627
 Alpha  occ. eigenvalues --   -1.13588  -1.13077  -1.13060  -1.13041  -1.13029
 Alpha  occ. eigenvalues --   -1.13007  -1.12988  -1.12959  -1.12941  -1.12915
 Alpha  occ. eigenvalues --   -0.16613  -0.14028  -0.13104  -0.09996
 Alpha virt. eigenvalues --   -0.06943  -0.05384  -0.04596  -0.03290  -0.02959
 Alpha virt. eigenvalues --   -0.02272  -0.01951  -0.01894  -0.01342  -0.00575
 Alpha virt. eigenvalues --   -0.00157   0.00085   0.00427   0.00447   0.00646

  Beta  occ. eigenvalues --  -38.44996 -38.44756 -38.44475 -38.44099 -38.43573
  Beta  occ. eigenvalues --  -38.43485 -38.43388  -2.20785  -2.20547  -2.20233
  Beta  occ. eigenvalues --   -2.19927  -2.19388  -2.19315  -2.19183  -1.14498
  Beta  occ. eigenvalues --   -1.14472  -1.14380  -1.14267  -1.14238  -1.14142
  Beta  occ. eigenvalues --   -1.13936  -1.13897  -1.13872  -1.13663  -1.13609
  Beta  occ. eigenvalues --   -1.13537  -1.13064  -1.13047  -1.13028  -1.12999
  Beta  occ. eigenvalues --   -1.12971  -1.12944  -1.12872  -1.12863  -1.12843
  Beta  occ. eigenvalues --   -0.16205  -0.13446  -0.12728
  Beta virt. eigenvalues --   -0.06848  -0.06444  -0.05256  -0.04334  -0.02838
  Beta virt. eigenvalues --   -0.02672  -0.02087  -0.01821  -0.01400  -0.01174
  Beta virt. eigenvalues --   -0.00351   0.00219   0.00340   0.00452   0.00587

 Mulliken charges and spin densities:
               1          2
     1  Na   1.164109   0.268821
     2  Na  -0.285421   0.200522
     3  Na  -1.928439   0.250655
     4  Na   0.035350   0.187959
     5  Na   0.948978  -0.075036
     6  Na   0.351998   0.051941
     7  Na  -0.286576   0.115139
 Sum of Mulliken charges =  -0.00000   1.00000

 Dipole moment (field-independent basis, Debye):
    X=              0.4380    Y=             -0.0213    Z=             -0.2902  Tot=              0.5259
 Quadrupole moment (field-independent basis, Debye-Ang):
   XX=            -64.4598   YY=            -64.9523   ZZ=            -69.8814
   XY=              5.5860   XZ=             -0.6896   YZ=              2.7244

 Normal termination of Gaussian 16 at Sun Dec  3 16:04:00 2023.
