 Gaussian 16, Revision B.01,
 Gaussian 16:  ES64L-G16RevB.01 20-Dec-2017

 -------------------------
 #P B3LYP/6-311+g(d) force
 -------------------------

 -----
 DPGEN
 -----
 Symbolic Z-matrix:
 Charge =  0 Multiplicity = 2

                         Standard orientation:
 ---------------------------------------------------------------------
 Center     Atomic      Atomic             Coordinates (Angstroms)
 Number     Number       Type             X           Y           Z
 ---------------------------------------------------------------------
      1         11           0        2.509078   -1.942030   -1.030775
      2         11           0       -0.687069   -0.866519   -1.435347
      3         11           0        0.325683    2.466248   -0.823397
      4         11           0        3.766360    0.751017    0.727646
      5         11           0        0.081567   -0.590347    2.238352
      6         11           0       -3.332711   -1.757753    0.288697
      7         11           0       -2.662907    1.939384    0.034824
 ---------------------------------------------------------------------

 SCF Done:  E(UB3LYP) =  -1136.11927220     A.U. after   22 cycles

 The electronic state is 2-A.
 Alpha  occ. eigenvalues --  -38.45313 -38.45265 -38.44242 -38.44186 -38.43967
 Alpha  occ. eigenvalues --  -38.43572 -38.42735  -2.21078  -2.21021  -2.20030
 Alpha  occ. eigenvalues --   -2.19996  -2.19795  -2.19476  -2.18569  -1.14747
 Alpha  occ. eigenvalues --   -1.14732  -1.14688  -1.14680  -1.14676  -1.14657
 Alpha  occ. eigenvalues --   -1.13719  -1.13692  -1.13673  -1.13671  -1.13650
 Alpha  occ. eigenvalues --   -1.13624  -1.13472  -1.13467  -1.13425  -1.13166
 Alpha  occ. eigenvalues --   -1.13118  -1.13101  -1.12254  -1.12234  -1.12197
 Alpha  occ. eigenvalues --   -0.17616  -0.13515  -0.11415  -0.10963
 Alpha virt. eigenvalues --   -0.07084  -0.05731  -0.04150  -0.03395  -0.02752
 Alpha virt. eigenvalues --   -0.02605  -0.02498  -0.01533  -0.00711  -0.00484
 Alpha virt. eigenvalues --    0.00020   0.00149   0.00244   0.00543   0.00607

  Beta  occ. eigenvalues --  -38.45251 -38.45230 -38.44254 -38.44151 -38.43969
  Beta  occ. eigenvalues --  -38.43517 -38.42729  -2.20996  -2.20924  -2.20054
  Beta  occ. eigenvalues --   -2.19933  -2.19798  -2.19377  -2.18559  -1.14666
  Beta  occ. eigenvalues --   -1.14662  -1.14643  -1.14639  -1.14626  -1.14562
  Beta  occ. eigenvalues --   -1.13732  -1.13709  -1.13682  -1.13619  -1.13606
  Beta  occ. eigenvalues --   -1.13575  -1.13479  -1.13458  -1.13430  -1.13103
  Beta  occ. eigenvalues --   -1.13044  -1.13017  -1.12246  -1.12221  -1.12189
  Beta  occ. eigenvalues --   -0.16951  -0.13400  -0.11237
  Beta virt. eigenvalues --   -0.07196  -0.06691  -0.05606  -0.03840  -0.03091
  Beta virt. eigenvalues --   -0.02350  -0.02047  -0.01801  -0.01334  -0.00594
  Beta virt. eigenvalues --   -0.00377   0.00066   0.00193   0.00414   0.00640

 Mulliken charges and spin densities:
               1          2
     1  Na   0.106695   0.010984
     2  Na  -0.393268   0.348133
     3  Na  -0.159045  -0.077848
     4  Na   0.077844   0.193026
     5  Na  -0.319462   0.528837
     6  Na   0.456226  -0.001455
     7  Na   0.231010  -0.001677
 Sum of Mulliken charges =  -0.00000   1.00000

 Dipole moment (field-independent basis, Debye):
    X=              0.2728    Y=             -0.1769    Z=              0.6679  Tot=              0.7428
 Quadrupole moment (field-independent basis, Debye-Ang):
   XX=            -48.2204   YY=            -74.0805   ZZ=            -72.7031
   XY=              1.5087   XZ=             -0.9336   YZ=              1.5959

 Normal termination of Gaussian 16 at Thu Dec  7 18:49:10 2023.
