 Gaussian 16, Revision B.01,
 Gaussian 16:  ES64L-G16RevB.01 20-Dec-2017

 -------------------------
 #P B3LYP/6-311+g(d) force
 -------------------------

 -----
 DPGEN
 -----
 Symbolic Z-matrix:
 Charge =  0 Multiplicity = 2

                         Standard orientation:
 ---------------------------------------------------------------------
 Center     Atomic      Atomic             Coordinates (Angstroms)
 Number     Number       Type             X           Y           Z
 ---------------------------------------------------------------------
      1         11           0        1.669539    3.440212   -0.426239
      2         11           0        3.909907    0.586484    1.075164
      3         11           0        3.245283   -1.869695   -0.830404
      4         11           0        0.568312   -3.603883    0.076285
      5         11           0       -3.311615   -2.413419    0.047344
      6         11           0       -4.527758    0.644073    0.199712
      7         11           0       -1.553669    3.216229   -0.141862
 ---------------------------------------------------------------------

 SCF Done:  E(UB3LYP) =  -1136.10775098     A.U. after   20 cycles

 The electronic state is 2-A.
 Alpha  occ. eigenvalues --  -38.45129 -38.44652 -38.44569 -38.44444 -38.44442
 Alpha  occ. eigenvalues --  -38.44398 -38.44081  -2.20880  -2.20461  -2.20383
 Alpha  occ. eigenvalues --   -2.20222  -2.20220  -2.20187  -2.19878  -1.14562
 Alpha  occ. eigenvalues --   -1.14550  -1.14526  -1.14182  -1.14130  -1.14127
 Alpha  occ. eigenvalues --   -1.14023  -1.14006  -1.13995  -1.13943  -1.13898
 Alpha  occ. eigenvalues --   -1.13883  -1.13874  -1.13866  -1.13845  -1.13833
 Alpha  occ. eigenvalues --   -1.13827  -1.13802  -1.13528  -1.13520  -1.13502
 Alpha  occ. eigenvalues --   -0.15511  -0.13975  -0.13341  -0.10847
 Alpha virt. eigenvalues --   -0.07584  -0.05009  -0.04315  -0.03579  -0.03305
 Alpha virt. eigenvalues --   -0.02660  -0.02339  -0.01831  -0.01398  -0.00790
 Alpha virt. eigenvalues --   -0.00281  -0.00143   0.00075   0.00283   0.00495

  Beta  occ. eigenvalues --  -38.45127 -38.44653 -38.44498 -38.44432 -38.44409
  Beta  occ. eigenvalues --  -38.44361 -38.44008  -2.20881  -2.20470  -2.20251
  Beta  occ. eigenvalues --   -2.20204  -2.20164  -2.20118  -2.19741  -1.14566
  Beta  occ. eigenvalues --   -1.14555  -1.14495  -1.14163  -1.14140  -1.14106
  Beta  occ. eigenvalues --   -1.13932  -1.13923  -1.13915  -1.13909  -1.13886
  Beta  occ. eigenvalues --   -1.13852  -1.13848  -1.13834  -1.13799  -1.13789
  Beta  occ. eigenvalues --   -1.13776  -1.13755  -1.13435  -1.13429  -1.13413
  Beta  occ. eigenvalues --   -0.14932  -0.13342  -0.12543
  Beta virt. eigenvalues --   -0.07738  -0.07716  -0.04604  -0.03814  -0.03348
  Beta virt. eigenvalues --   -0.02953  -0.02426  -0.02114  -0.01757  -0.01212
  Beta virt. eigenvalues --   -0.00470  -0.00009   0.00047   0.00214   0.00338

 Mulliken charges and spin densities:
               1          2
     1  Na  -0.045734  -0.066234
     2  Na   0.045717   0.330366
     3  Na  -0.129172  -0.002281
     4  Na  -0.074633   0.371051
     5  Na  -0.030725   0.019144
     6  Na   0.216359   0.188992
     7  Na   0.018187   0.158963
 Sum of Mulliken charges =  -0.00000   1.00000

 Dipole moment (field-independent basis, Debye):
    X=              0.0217    Y=              0.0949    Z=              0.1029  Tot=              0.1417
 Quadrupole moment (field-independent basis, Debye-Ang):
   XX=            -61.8679   YY=            -68.3081   ZZ=            -70.8009
   XY=              0.6752   XZ=             -0.9463   YZ=              0.7647

 Normal termination of Gaussian 16 at Mon Dec  4 03:39:54 2023.
