 Gaussian 16, Revision B.01,
 Gaussian 16:  ES64L-G16RevB.01 20-Dec-2017

 -------------------------
 #P B3LYP/6-311+g(d) force
 -------------------------

 -----
 DPGEN
 -----
 Symbolic Z-matrix:
 Charge =  0 Multiplicity = 2

                         Standard orientation:
 ---------------------------------------------------------------------
 Center     Atomic      Atomic             Coordinates (Angstroms)
 Number     Number       Type             X           Y           Z
 ---------------------------------------------------------------------
      1         11           0       -1.754386    1.470369   -0.445292
      2         11           0        4.014489   -0.272592   -0.063921
      3         11           0        1.007932    0.146457    1.889467
      4         11           0       -1.597694   -2.209988    0.310784
      5         11           0        1.337130   -2.298504   -1.089512
      6         11           0        1.766320    2.778899   -0.511804
      7         11           0       -4.773792    0.385358   -0.089721
 ---------------------------------------------------------------------

 SCF Done:  E(UB3LYP) =  -1136.12269186     A.U. after   22 cycles

 The electronic state is 2-A.
 Alpha  occ. eigenvalues --  -38.45385 -38.44105 -38.43925 -38.43851 -38.43845
 Alpha  occ. eigenvalues --  -38.43700 -38.43598  -2.21199  -2.19883  -2.19757
 Alpha  occ. eigenvalues --   -2.19669  -2.19664  -2.19523  -2.19420  -1.14875
 Alpha  occ. eigenvalues --   -1.14860  -1.14814  -1.13570  -1.13532  -1.13524
 Alpha  occ. eigenvalues --   -1.13425  -1.13406  -1.13370  -1.13356  -1.13340
 Alpha  occ. eigenvalues --   -1.13329  -1.13310  -1.13306  -1.13285  -1.13206
 Alpha  occ. eigenvalues --   -1.13189  -1.13127  -1.13121  -1.13095  -1.13035
 Alpha  occ. eigenvalues --   -0.17337  -0.13830  -0.12029  -0.10528
 Alpha virt. eigenvalues --   -0.07050  -0.05484  -0.04234  -0.03460  -0.03014
 Alpha virt. eigenvalues --   -0.02510  -0.01734  -0.01598  -0.00978  -0.00774
 Alpha virt. eigenvalues --   -0.00419  -0.00105   0.00327   0.00570   0.00716

  Beta  occ. eigenvalues --  -38.45351 -38.44101 -38.43851 -38.43847 -38.43771
  Beta  occ. eigenvalues --  -38.43688 -38.43596  -2.21138  -2.19878  -2.19665
  Beta  occ. eigenvalues --   -2.19619  -2.19526  -2.19502  -2.19424  -1.14824
  Beta  occ. eigenvalues --   -1.14815  -1.14768  -1.13568  -1.13525  -1.13511
  Beta  occ. eigenvalues --   -1.13354  -1.13339  -1.13330  -1.13323  -1.13286
  Beta  occ. eigenvalues --   -1.13270  -1.13243  -1.13211  -1.13195  -1.13192
  Beta  occ. eigenvalues --   -1.13168  -1.13128  -1.13109  -1.13090  -1.13003
  Beta  occ. eigenvalues --   -0.16812  -0.13102  -0.11781
  Beta virt. eigenvalues --   -0.07135  -0.06848  -0.05362  -0.03725  -0.03078
  Beta virt. eigenvalues --   -0.02722  -0.02303  -0.01355  -0.01340  -0.00776
  Beta virt. eigenvalues --   -0.00377  -0.00135   0.00024   0.00423   0.00639

 Mulliken charges and spin densities:
               1          2
     1  Na  -1.239012   0.112830
     2  Na   0.108283   0.462597
     3  Na  -0.112877   0.192775
     4  Na   0.064367   0.028354
     5  Na  -0.075562   0.003818
     6  Na   0.282893  -0.008616
     7  Na   0.971908   0.208242
 Sum of Mulliken charges =  -0.00000   1.00000

 Dipole moment (field-independent basis, Debye):
    X=              0.4237    Y=             -0.0134    Z=              0.6133  Tot=              0.7455
 Quadrupole moment (field-independent basis, Debye-Ang):
   XX=            -67.2465   YY=            -71.8759   ZZ=            -63.8654
   XY=              5.8116   XZ=             -0.5250   YZ=             -1.8889

 Normal termination of Gaussian 16 at Mon Dec  4 00:40:51 2023.
