 Gaussian 16, Revision B.01,
 Gaussian 16:  ES64L-G16RevB.01 20-Dec-2017

 -------------------------
 #P B3LYP/6-311+g(d) force
 -------------------------

 -----
 DPGEN
 -----
 Symbolic Z-matrix:
 Charge =  0 Multiplicity = 2

                         Standard orientation:
 ---------------------------------------------------------------------
 Center     Atomic      Atomic             Coordinates (Angstroms)
 Number     Number       Type             X           Y           Z
 ---------------------------------------------------------------------
      1         11           0        1.509544    2.812061   -1.645511
      2         11           0        3.238124    0.341030    0.583670
      3         11           0       -2.767838   -0.271378    0.980643
      4         11           0        2.744598   -2.825139   -0.664406
      5         11           0       -5.262496   -0.339253   -0.971960
      6         11           0        0.125458    0.865193    2.409382
      7         11           0        0.412609   -0.582513   -0.691819
 ---------------------------------------------------------------------

 SCF Done:  E(UB3LYP) =  -1136.11181414     A.U. after   23 cycles

 The electronic state is 2-A.
 Alpha  occ. eigenvalues --  -38.45157 -38.44632 -38.44614 -38.44496 -38.44143
 Alpha  occ. eigenvalues --  -38.43277 -38.42710  -2.21008  -2.20546  -2.20417
 Alpha  occ. eigenvalues --   -2.20302  -2.19992  -2.19126  -2.18537  -1.14716
 Alpha  occ. eigenvalues --   -1.14700  -1.14599  -1.14257  -1.14214  -1.14169
 Alpha  occ. eigenvalues --   -1.14071  -1.14053  -1.14012  -1.13951  -1.13937
 Alpha  occ. eigenvalues --   -1.13931  -1.13655  -1.13645  -1.13603  -1.12814
 Alpha  occ. eigenvalues --   -1.12796  -1.12779  -1.12215  -1.12196  -1.12186
 Alpha  occ. eigenvalues --   -0.17623  -0.13828  -0.11685  -0.11403
 Alpha virt. eigenvalues --   -0.07294  -0.05078  -0.04216  -0.03297  -0.02949
 Alpha virt. eigenvalues --   -0.02434  -0.02316  -0.01517  -0.01270  -0.00624
 Alpha virt. eigenvalues --   -0.00482  -0.00206   0.00089   0.00583   0.00718

  Beta  occ. eigenvalues --  -38.45157 -38.44635 -38.44511 -38.44426 -38.44085
  Beta  occ. eigenvalues --  -38.43273 -38.42726  -2.21012  -2.20554  -2.20225
  Beta  occ. eigenvalues --   -2.20171  -2.19885  -2.19128  -2.18567  -1.14720
  Beta  occ. eigenvalues --   -1.14683  -1.14608  -1.14246  -1.14213  -1.14183
  Beta  occ. eigenvalues --   -1.13939  -1.13918  -1.13890  -1.13865  -1.13848
  Beta  occ. eigenvalues --   -1.13843  -1.13580  -1.13569  -1.13535  -1.12824
  Beta  occ. eigenvalues --   -1.12803  -1.12722  -1.12242  -1.12214  -1.12200
  Beta  occ. eigenvalues --   -0.17155  -0.13144  -0.11239
  Beta virt. eigenvalues --   -0.07899  -0.07119  -0.04666  -0.03947  -0.02979
  Beta virt. eigenvalues --   -0.02628  -0.02270  -0.01958  -0.01197  -0.00862
  Beta virt. eigenvalues --   -0.00379  -0.00291   0.00009   0.00135   0.00647

 Mulliken charges and spin densities:
               1          2
     1  Na  -0.092589   0.328056
     2  Na   1.095260   0.181412
     3  Na   0.049257   0.146473
     4  Na   0.270066  -0.214916
     5  Na   0.066425   0.328798
     6  Na   0.101345  -0.020041
     7  Na  -1.489763   0.250218
 Sum of Mulliken charges =  -0.00000   1.00000

 Dipole moment (field-independent basis, Debye):
    X=              0.6976    Y=              0.8807    Z=              0.2713  Tot=              1.1558
 Quadrupole moment (field-independent basis, Debye-Ang):
   XX=            -60.1352   YY=            -72.2170   ZZ=            -65.8400
   XY=              1.9147   XZ=              7.3791   YZ=             -0.3676

 Normal termination of Gaussian 16 at Tue Nov 28 19:31:19 2023.
