 Gaussian 16, Revision B.01,
 Gaussian 16:  ES64L-G16RevB.01 20-Dec-2017

 -------------------------
 #P B3LYP/6-311+g(d) force
 -------------------------

 -----
 DPGEN
 -----
 Symbolic Z-matrix:
 Charge =  0 Multiplicity = 2

                         Standard orientation:
 ---------------------------------------------------------------------
 Center     Atomic      Atomic             Coordinates (Angstroms)
 Number     Number       Type             X           Y           Z
 ---------------------------------------------------------------------
      1         11           0       -4.227876   -1.211693   -0.396584
      2         11           0       -3.525938    1.949662   -0.158222
      3         11           0       -1.078359   -3.299478    0.914679
      4         11           0       -0.455344    3.530589   -0.080732
      5         11           0        2.989153    1.971510    0.834053
      6         11           0        4.844777   -0.535985   -0.636940
      7         11           0        1.453587   -2.404606   -0.476254
 ---------------------------------------------------------------------

 SCF Done:  E(UB3LYP) =  -1136.10982849     A.U. after   19 cycles

 The electronic state is 2-A.
 Alpha  occ. eigenvalues --  -38.45408 -38.44842 -38.44671 -38.44450 -38.44280
 Alpha  occ. eigenvalues --  -38.43915 -38.43834  -2.21148  -2.20637  -2.20474
 Alpha  occ. eigenvalues --   -2.20246  -2.20071  -2.19699  -2.19650  -1.14840
 Alpha  occ. eigenvalues --   -1.14824  -1.14779  -1.14300  -1.14292  -1.14255
 Alpha  occ. eigenvalues --   -1.14176  -1.14138  -1.14105  -1.13899  -1.13892
 Alpha  occ. eigenvalues --   -1.13868  -1.13749  -1.13743  -1.13723  -1.13358
 Alpha  occ. eigenvalues --   -1.13350  -1.13327  -1.13322  -1.13297  -1.13275
 Alpha  occ. eigenvalues --   -0.15571  -0.14024  -0.13163  -0.11031
 Alpha virt. eigenvalues --   -0.07302  -0.04961  -0.04556  -0.03425  -0.03319
 Alpha virt. eigenvalues --   -0.02457  -0.02275  -0.01839  -0.01263  -0.00781
 Alpha virt. eigenvalues --   -0.00585  -0.00247   0.00019   0.00489   0.00580

  Beta  occ. eigenvalues --  -38.45408 -38.44778 -38.44643 -38.44393 -38.44279
  Beta  occ. eigenvalues --  -38.43859 -38.43808  -2.21151  -2.20521  -2.20428
  Beta  occ. eigenvalues --   -2.20140  -2.20076  -2.19608  -2.19594  -1.14846
  Beta  occ. eigenvalues --   -1.14830  -1.14748  -1.14219  -1.14214  -1.14172
  Beta  occ. eigenvalues --   -1.14132  -1.14110  -1.14062  -1.13826  -1.13819
  Beta  occ. eigenvalues --   -1.13800  -1.13757  -1.13750  -1.13688  -1.13287
  Beta  occ. eigenvalues --   -1.13286  -1.13280  -1.13270  -1.13255  -1.13244
  Beta  occ. eigenvalues --   -0.15034  -0.13289  -0.12459
  Beta virt. eigenvalues --   -0.07899  -0.07364  -0.04494  -0.04195  -0.03138
  Beta virt. eigenvalues --   -0.02993  -0.02222  -0.02111  -0.01573  -0.01055
  Beta virt. eigenvalues --   -0.00456  -0.00371  -0.00055   0.00184   0.00502

 Mulliken charges and spin densities:
               1          2
     1  Na   0.064497   0.265693
     2  Na   0.037858   0.015512
     3  Na   0.181772   0.014549
     4  Na  -0.104863   0.256181
     5  Na  -0.024889   0.023879
     6  Na   0.433708   0.269750
     7  Na  -0.588083   0.154436
 Sum of Mulliken charges =  -0.00000   1.00000

 Dipole moment (field-independent basis, Debye):
    X=              0.5727    Y=             -0.3973    Z=             -0.0154  Tot=              0.6972
 Quadrupole moment (field-independent basis, Debye-Ang):
   XX=            -59.6981   YY=            -69.0316   ZZ=            -70.4570
   XY=              2.5091   XZ=             -1.2911   YZ=              1.5006

 Normal termination of Gaussian 16 at Mon Dec  4 03:55:50 2023.
