 Gaussian 16, Revision B.01,
 Gaussian 16:  ES64L-G16RevB.01 20-Dec-2017

 -------------------------
 #P B3LYP/6-311+g(d) force
 -------------------------

 -----
 DPGEN
 -----
 Symbolic Z-matrix:
 Charge =  0 Multiplicity = 2

                         Standard orientation:
 ---------------------------------------------------------------------
 Center     Atomic      Atomic             Coordinates (Angstroms)
 Number     Number       Type             X           Y           Z
 ---------------------------------------------------------------------
      1         11           0       -2.288326    1.197067   -0.675708
      2         11           0        1.236870    0.425792    0.379809
      3         11           0        2.410721   -2.754535   -0.340606
      4         11           0       -1.244145   -2.080833   -0.239888
      5         11           0       -4.539850   -0.811020    0.645791
      6         11           0        4.216236    0.435007    0.346916
      7         11           0        0.208495    3.588521   -0.116313
 ---------------------------------------------------------------------

 SCF Done:  E(UB3LYP) =  -1136.12834143     A.U. after   18 cycles

 The electronic state is 2-A.
 Alpha  occ. eigenvalues --  -38.44403 -38.44156 -38.43876 -38.43868 -38.43785
 Alpha  occ. eigenvalues --  -38.43365 -38.43320  -2.20199  -2.20015  -2.19738
 Alpha  occ. eigenvalues --   -2.19701  -2.19624  -2.19272  -2.19168  -1.13883
 Alpha  occ. eigenvalues --   -1.13861  -1.13834  -1.13731  -1.13642  -1.13600
 Alpha  occ. eigenvalues --   -1.13456  -1.13437  -1.13391  -1.13344  -1.13335
 Alpha  occ. eigenvalues --   -1.13326  -1.13318  -1.13278  -1.13203  -1.12991
 Alpha  occ. eigenvalues --   -1.12964  -1.12889  -1.12833  -1.12818  -1.12790
 Alpha  occ. eigenvalues --   -0.17230  -0.14236  -0.12412  -0.10625
 Alpha virt. eigenvalues --   -0.05976  -0.05284  -0.04566  -0.03743  -0.02550
 Alpha virt. eigenvalues --   -0.02069  -0.01838  -0.01481  -0.01031  -0.00718
 Alpha virt. eigenvalues --   -0.00158   0.00057   0.00525   0.00634   0.00738

  Beta  occ. eigenvalues --  -38.44394 -38.44069 -38.43868 -38.43800 -38.43757
  Beta  occ. eigenvalues --  -38.43367 -38.43307  -2.20187  -2.19853  -2.19728
  Beta  occ. eigenvalues --   -2.19578  -2.19572  -2.19254  -2.19174  -1.13878
  Beta  occ. eigenvalues --   -1.13855  -1.13793  -1.13624  -1.13531  -1.13494
  Beta  occ. eigenvalues --   -1.13441  -1.13432  -1.13342  -1.13293  -1.13290
  Beta  occ. eigenvalues --   -1.13256  -1.13254  -1.13215  -1.13143  -1.12962
  Beta  occ. eigenvalues --   -1.12921  -1.12889  -1.12838  -1.12819  -1.12791
  Beta  occ. eigenvalues --   -0.16699  -0.13548  -0.12051
  Beta virt. eigenvalues --   -0.07186  -0.05814  -0.05054  -0.04250  -0.03231
  Beta virt. eigenvalues --   -0.02247  -0.01818  -0.01461  -0.01283  -0.00871
  Beta virt. eigenvalues --   -0.00395   0.00111   0.00286   0.00623   0.00716

 Mulliken charges and spin densities:
               1          2
     1  Na  -0.076214   0.154456
     2  Na  -2.086997   0.116044
     3  Na   0.264178  -0.055097
     4  Na  -0.387177   0.080732
     5  Na   0.845792   0.400829
     6  Na   0.813406   0.316120
     7  Na   0.627012  -0.013084
 Sum of Mulliken charges =  -0.00000   1.00000

 Dipole moment (field-independent basis, Debye):
    X=              0.2784    Y=             -0.4404    Z=             -0.1402  Tot=              0.5396
 Quadrupole moment (field-independent basis, Debye-Ang):
   XX=            -61.9329   YY=            -60.9569   ZZ=            -71.0369
   XY=             -2.3372   XZ=             -1.9153   YZ=             -0.0062

 Normal termination of Gaussian 16 at Wed Nov 29 02:35:59 2023.
