 Gaussian 16, Revision B.01,
 Gaussian 16:  ES64L-G16RevB.01 20-Dec-2017

 -------------------------
 #P B3LYP/6-311+g(d) force
 -------------------------

 -----
 DPGEN
 -----
 Symbolic Z-matrix:
 Charge =  0 Multiplicity = 2

                         Standard orientation:
 ---------------------------------------------------------------------
 Center     Atomic      Atomic             Coordinates (Angstroms)
 Number     Number       Type             X           Y           Z
 ---------------------------------------------------------------------
      1         11           0        3.500354   -1.280469    0.079644
      2         11           0       -3.449163   -1.779583   -0.440866
      3         11           0        0.178030   -2.123170   -0.358074
      4         11           0        1.455679    0.882632   -1.405639
      5         11           0       -0.617213    3.004664   -0.668327
      6         11           0       -2.225347    0.652834    0.985999
      7         11           0        1.157660    0.643093    1.807262
 ---------------------------------------------------------------------

 SCF Done:  E(UB3LYP) =  -1136.12889721     A.U. after   21 cycles

 The electronic state is 2-A.
 Alpha  occ. eigenvalues --  -38.44597 -38.44152 -38.43819 -38.43653 -38.43603
 Alpha  occ. eigenvalues --  -38.43489 -38.43231  -2.20441  -2.19993  -2.19637
 Alpha  occ. eigenvalues --   -2.19573  -2.19504  -2.19459  -2.19104  -1.14115
 Alpha  occ. eigenvalues --   -1.14099  -1.14080  -1.13712  -1.13688  -1.13576
 Alpha  occ. eigenvalues --   -1.13379  -1.13287  -1.13278  -1.13269  -1.13253
 Alpha  occ. eigenvalues --   -1.13186  -1.13170  -1.13148  -1.13135  -1.13113
 Alpha  occ. eigenvalues --   -1.13099  -1.13091  -1.12764  -1.12756  -1.12717
 Alpha  occ. eigenvalues --   -0.18528  -0.13675  -0.12392  -0.10629
 Alpha virt. eigenvalues --   -0.06312  -0.05379  -0.04574  -0.03280  -0.02774
 Alpha virt. eigenvalues --   -0.02232  -0.02160  -0.01233  -0.00455  -0.00193
 Alpha virt. eigenvalues --    0.00048   0.00223   0.00622   0.00706   0.00824

  Beta  occ. eigenvalues --  -38.44594 -38.44139 -38.43820 -38.43585 -38.43572
  Beta  occ. eigenvalues --  -38.43434 -38.43216  -2.20437  -2.19971  -2.19638
  Beta  occ. eigenvalues --   -2.19473  -2.19425  -2.19359  -2.19079  -1.14115
  Beta  occ. eigenvalues --   -1.14081  -1.14073  -1.13700  -1.13647  -1.13564
  Beta  occ. eigenvalues --   -1.13376  -1.13285  -1.13268  -1.13190  -1.13163
  Beta  occ. eigenvalues --   -1.13147  -1.13127  -1.13084  -1.13070  -1.13047
  Beta  occ. eigenvalues --   -1.13036  -1.13006  -1.12743  -1.12729  -1.12691
  Beta  occ. eigenvalues --   -0.17855  -0.13535  -0.12115
  Beta virt. eigenvalues --   -0.06761  -0.06179  -0.05297  -0.04240  -0.02774
  Beta virt. eigenvalues --   -0.02212  -0.02147  -0.01345  -0.01085  -0.00249
  Beta virt. eigenvalues --   -0.00114   0.00186   0.00303   0.00739   0.00749

 Mulliken charges and spin densities:
               1          2
     1  Na   1.363093   0.184901
     2  Na   0.345571  -0.149049
     3  Na  -0.865335   0.083172
     4  Na  -0.412707   0.364392
     5  Na   0.077523  -0.064786
     6  Na  -0.137655   0.295654
     7  Na  -0.370489   0.285715
 Sum of Mulliken charges =  -0.00000   1.00000

 Dipole moment (field-independent basis, Debye):
    X=              0.7249    Y=             -0.4601    Z=             -0.0221  Tot=              0.8589
 Quadrupole moment (field-independent basis, Debye-Ang):
   XX=            -52.4121   YY=            -66.9443   ZZ=            -74.3290
   XY=             -3.7237   XZ=              1.5408   YZ=              0.9627

 Normal termination of Gaussian 16 at Sun Dec  3 18:43:24 2023.
