 Gaussian 16, Revision B.01,
 Gaussian 16:  ES64L-G16RevB.01 20-Dec-2017

 -------------------------
 #P B3LYP/6-311+g(d) force
 -------------------------

 -----
 DPGEN
 -----
 Symbolic Z-matrix:
 Charge =  0 Multiplicity = 2

                         Standard orientation:
 ---------------------------------------------------------------------
 Center     Atomic      Atomic             Coordinates (Angstroms)
 Number     Number       Type             X           Y           Z
 ---------------------------------------------------------------------
      1         11           0        0.182816    0.024016   -1.581171
      2         11           0       -0.158050   -2.136336    0.314229
      3         11           0        2.487678   -0.974941   -0.170571
      4         11           0        1.578106    1.783002    0.209829
      5         11           0       -1.326096    1.817722   -0.196871
      6         11           0       -0.303695    0.193085    1.704229
      7         11           0       -2.460759   -0.706549   -0.279671
 ---------------------------------------------------------------------

 SCF Done:  E(UB3LYP) =  -1136.07345677     A.U. after   19 cycles

 The electronic state is 2-A.
 Alpha  occ. eigenvalues --  -38.44247 -38.43978 -38.43961 -38.43850 -38.43778
 Alpha  occ. eigenvalues --  -38.43501 -38.43481  -2.20544  -2.20317  -2.20117
 Alpha  occ. eigenvalues --   -2.19988  -2.19898  -2.19680  -2.19611  -1.14481
 Alpha  occ. eigenvalues --   -1.14367  -1.14209  -1.14189  -1.14066  -1.14046
 Alpha  occ. eigenvalues --   -1.13956  -1.13829  -1.13685  -1.13626  -1.13593
 Alpha  occ. eigenvalues --   -1.13566  -1.13544  -1.13484  -1.13458  -1.13298
 Alpha  occ. eigenvalues --   -1.13270  -1.13265  -1.13223  -1.13188  -1.13144
 Alpha  occ. eigenvalues --   -0.21803  -0.14036  -0.13060  -0.12113
 Alpha virt. eigenvalues --   -0.05243  -0.04402  -0.04088  -0.03627  -0.03128
 Alpha virt. eigenvalues --   -0.02614  -0.01119  -0.00530  -0.00042   0.00346
 Alpha virt. eigenvalues --    0.00739   0.00816   0.01031   0.01151   0.01170

  Beta  occ. eigenvalues --  -38.44152 -38.43963 -38.43874 -38.43843 -38.43759
  Beta  occ. eigenvalues --  -38.43482 -38.43467  -2.20373  -2.20167  -2.20094
  Beta  occ. eigenvalues --   -2.19959  -2.19889  -2.19652  -2.19592  -1.14404
  Beta  occ. eigenvalues --   -1.14252  -1.14111  -1.14090  -1.13973  -1.13952
  Beta  occ. eigenvalues --   -1.13942  -1.13783  -1.13624  -1.13613  -1.13565
  Beta  occ. eigenvalues --   -1.13531  -1.13482  -1.13454  -1.13406  -1.13276
  Beta  occ. eigenvalues --   -1.13251  -1.13193  -1.13180  -1.13153  -1.13137
  Beta  occ. eigenvalues --   -0.21002  -0.13664  -0.12694
  Beta virt. eigenvalues --   -0.07878  -0.05265  -0.04382  -0.04064  -0.02679
  Beta virt. eigenvalues --   -0.02201  -0.01506  -0.01040  -0.00495   0.00100
  Beta virt. eigenvalues --    0.00378   0.00721   0.00797   0.01052   0.01155

 Mulliken charges and spin densities:
               1          2
     1  Na  -0.547568   0.385301
     2  Na   0.498858   0.134894
     3  Na  -0.025916  -0.024353
     4  Na   0.226787   0.046339
     5  Na   0.242881   0.026410
     6  Na  -0.433389   0.447328
     7  Na   0.038346  -0.015920
 Sum of Mulliken charges =  -0.00000   1.00000

 Dipole moment (field-independent basis, Debye):
    X=              0.2128    Y=             -0.1080    Z=              0.0688  Tot=              0.2484
 Quadrupole moment (field-independent basis, Debye-Ang):
   XX=            -58.9702   YY=            -68.4594   ZZ=            -70.0034
   XY=              0.1268   XZ=              0.8948   YZ=             -0.0047

 Normal termination of Gaussian 16 at Fri Dec  8 18:17:34 2023.
