 Gaussian 16, Revision B.01,
 Gaussian 16:  ES64L-G16RevB.01 20-Dec-2017

 -------------------------
 #P B3LYP/6-311+g(d) force
 -------------------------

 -----
 DPGEN
 -----
 Symbolic Z-matrix:
 Charge =  0 Multiplicity = 2

                         Standard orientation:
 ---------------------------------------------------------------------
 Center     Atomic      Atomic             Coordinates (Angstroms)
 Number     Number       Type             X           Y           Z
 ---------------------------------------------------------------------
      1         11           0        2.503333    2.836740   -0.577780
      2         11           0        5.197652   -0.287036    0.844303
      3         11           0        2.675373   -1.907855   -0.547161
      4         11           0       -0.674855   -2.174618    0.014083
      5         11           0       -0.484265    1.473933    0.297784
      6         11           0       -3.310072   -0.350925   -0.581002
      7         11           0       -5.907165    0.409762    0.549774
 ---------------------------------------------------------------------

 SCF Done:  E(UB3LYP) =  -1136.10821912     A.U. after   26 cycles

 The electronic state is 2-A.
 Alpha  occ. eigenvalues --  -38.45356 -38.45264 -38.44773 -38.44331 -38.44129
 Alpha  occ. eigenvalues --  -38.43880 -38.42850  -2.21134  -2.21084  -2.20611
 Alpha  occ. eigenvalues --   -2.20128  -2.19901  -2.19787  -2.18698  -1.14796
 Alpha  occ. eigenvalues --   -1.14788  -1.14768  -1.14746  -1.14733  -1.14694
 Alpha  occ. eigenvalues --   -1.14323  -1.14228  -1.14224  -1.13819  -1.13796
 Alpha  occ. eigenvalues --   -1.13758  -1.13574  -1.13566  -1.13520  -1.13464
 Alpha  occ. eigenvalues --   -1.13446  -1.13437  -1.12372  -1.12357  -1.12345
 Alpha  occ. eigenvalues --   -0.16678  -0.14435  -0.12342  -0.11520
 Alpha virt. eigenvalues --   -0.06447  -0.05558  -0.04528  -0.03328  -0.02975
 Alpha virt. eigenvalues --   -0.02773  -0.02315  -0.01464  -0.00990  -0.00753
 Alpha virt. eigenvalues --   -0.00572  -0.00116   0.00085   0.00249   0.00634

  Beta  occ. eigenvalues --  -38.45298 -38.45195 -38.44696 -38.44326 -38.44095
  Beta  occ. eigenvalues --  -38.43872 -38.42851  -2.21028  -2.20961  -2.20469
  Beta  occ. eigenvalues --   -2.20120  -2.19841  -2.19780  -2.18699  -1.14718
  Beta  occ. eigenvalues --   -1.14712  -1.14687  -1.14679  -1.14655  -1.14584
  Beta  occ. eigenvalues --   -1.14227  -1.14132  -1.14129  -1.13813  -1.13791
  Beta  occ. eigenvalues --   -1.13746  -1.13533  -1.13520  -1.13473  -1.13457
  Beta  occ. eigenvalues --   -1.13444  -1.13392  -1.12378  -1.12360  -1.12342
  Beta  occ. eigenvalues --   -0.16089  -0.13583  -0.11139
  Beta virt. eigenvalues --   -0.08818  -0.06036  -0.05368  -0.04331  -0.03038
  Beta virt. eigenvalues --   -0.02715  -0.02346  -0.01924  -0.01209  -0.00699
  Beta virt. eigenvalues --   -0.00575  -0.00287   0.00011   0.00174   0.00273

 Mulliken charges and spin densities:
               1          2
     1  Na   0.298433  -0.041389
     2  Na   0.306566   0.088332
     3  Na  -0.309030   0.302380
     4  Na  -0.019178  -0.189062
     5  Na  -0.716272   0.386046
     6  Na   0.338082   0.222251
     7  Na   0.101399   0.231442
 Sum of Mulliken charges =  -0.00000   1.00000

 Dipole moment (field-independent basis, Debye):
    X=              0.5052    Y=              0.1519    Z=              0.5708  Tot=              0.7772
 Quadrupole moment (field-independent basis, Debye-Ang):
   XX=            -51.1081   YY=            -73.7902   ZZ=            -69.5452
   XY=             -0.3216   XZ=             -0.3347   YZ=              0.2262

 Normal termination of Gaussian 16 at Wed Nov 29 02:25:59 2023.
