 Gaussian 16, Revision B.01,
 Gaussian 16:  ES64L-G16RevB.01 20-Dec-2017

 -------------------------
 #P B3LYP/6-311+g(d) force
 -------------------------

 -----
 DPGEN
 -----
 Symbolic Z-matrix:
 Charge =  0 Multiplicity = 2

                         Standard orientation:
 ---------------------------------------------------------------------
 Center     Atomic      Atomic             Coordinates (Angstroms)
 Number     Number       Type             X           Y           Z
 ---------------------------------------------------------------------
      1         11           0        1.538722   -2.633715    0.263621
      2         11           0       -0.321478    0.053084    2.093996
      3         11           0        2.851297    0.289204   -0.319117
      4         11           0       -2.179680   -2.006460   -0.339970
      5         11           0        1.047214    2.974954   -0.043353
      6         11           0       -0.110829   -0.186495   -1.545259
      7         11           0       -2.825247    1.509428   -0.109918
 ---------------------------------------------------------------------

 SCF Done:  E(UB3LYP) =  -1136.13613782     A.U. after   19 cycles

 The electronic state is 2-A.
 Alpha  occ. eigenvalues --  -38.44161 -38.43884 -38.43633 -38.43593 -38.43474
 Alpha  occ. eigenvalues --  -38.43453 -38.43143  -2.19968  -2.19755  -2.19506
 Alpha  occ. eigenvalues --   -2.19409  -2.19371  -2.19303  -2.19155  -1.13646
 Alpha  occ. eigenvalues --   -1.13631  -1.13606  -1.13505  -1.13404  -1.13356
 Alpha  occ. eigenvalues --   -1.13174  -1.13135  -1.13125  -1.13122  -1.13092
 Alpha  occ. eigenvalues --   -1.13076  -1.13050  -1.13036  -1.12993  -1.12961
 Alpha  occ. eigenvalues --   -1.12953  -1.12925  -1.12828  -1.12796  -1.12756
 Alpha  occ. eigenvalues --   -0.18642  -0.13101  -0.12403  -0.10725
 Alpha virt. eigenvalues --   -0.05675  -0.05087  -0.04798  -0.03172  -0.02869
 Alpha virt. eigenvalues --   -0.02553  -0.01472  -0.01248  -0.00405  -0.00321
 Alpha virt. eigenvalues --    0.00004   0.00353   0.00800   0.00857   0.00903

  Beta  occ. eigenvalues --  -38.44159 -38.43872 -38.43593 -38.43535 -38.43467
  Beta  occ. eigenvalues --  -38.43448 -38.43084  -2.19966  -2.19736  -2.19412
  Beta  occ. eigenvalues --   -2.19361  -2.19323  -2.19297  -2.19048  -1.13635
  Beta  occ. eigenvalues --   -1.13624  -1.13603  -1.13483  -1.13371  -1.13347
  Beta  occ. eigenvalues --   -1.13129  -1.13088  -1.13065  -1.13054  -1.13047
  Beta  occ. eigenvalues --   -1.13013  -1.13004  -1.12990  -1.12985  -1.12950
  Beta  occ. eigenvalues --   -1.12931  -1.12923  -1.12754  -1.12716  -1.12684
  Beta  occ. eigenvalues --   -0.17924  -0.12845  -0.12195
  Beta virt. eigenvalues --   -0.06792  -0.05672  -0.05007  -0.04787  -0.02390
  Beta virt. eigenvalues --   -0.02115  -0.01494  -0.01384  -0.01162  -0.00456
  Beta virt. eigenvalues --   -0.00355   0.00142   0.00384   0.00812   0.00898

 Mulliken charges and spin densities:
               1          2
     1  Na   0.166676   0.040529
     2  Na  -0.555814   0.804323
     3  Na   0.185639   0.008350
     4  Na   0.325998  -0.002816
     5  Na   0.005937  -0.072012
     6  Na  -0.184492   0.302737
     7  Na   0.056056  -0.081110
 Sum of Mulliken charges =  -0.00000   1.00000

 Dipole moment (field-independent basis, Debye):
    X=             -0.4530    Y=              0.0727    Z=              0.1824  Tot=              0.4937
 Quadrupole moment (field-independent basis, Debye-Ang):
   XX=            -58.6056   YY=            -59.9752   ZZ=            -74.7904
   XY=             -1.0952   XZ=              0.4465   YZ=             -0.5726

 Normal termination of Gaussian 16 at Thu Dec  7 23:13:04 2023.
