 Gaussian 16, Revision B.01,
 Gaussian 16:  ES64L-G16RevB.01 20-Dec-2017

 -------------------------
 #P B3LYP/6-311+g(d) force
 -------------------------

 -----
 DPGEN
 -----
 Symbolic Z-matrix:
 Charge =  0 Multiplicity = 2

                         Standard orientation:
 ---------------------------------------------------------------------
 Center     Atomic      Atomic             Coordinates (Angstroms)
 Number     Number       Type             X           Y           Z
 ---------------------------------------------------------------------
      1         11           0        2.904985    0.022389    0.241123
      2         11           0        3.219387   -3.329391    0.653592
      3         11           0       -3.369903   -0.266646   -1.242504
      4         11           0        1.939216    4.021390    0.462143
      5         11           0       -4.632969   -0.296031    1.722053
      6         11           0       -0.199253   -1.794479   -1.020431
      7         11           0        0.138538    1.642767   -0.815978
 ---------------------------------------------------------------------

 SCF Done:  E(UB3LYP) =  -1136.12312439     A.U. after   18 cycles

 The electronic state is 2-A.
 Alpha  occ. eigenvalues --  -38.44473 -38.44342 -38.44332 -38.43938 -38.43934
 Alpha  occ. eigenvalues --  -38.43798 -38.43710  -2.20285  -2.20168  -2.20152
 Alpha  occ. eigenvalues --   -2.19731  -2.19717  -2.19617  -2.19584  -1.13924
 Alpha  occ. eigenvalues --   -1.13916  -1.13910  -1.13876  -1.13857  -1.13854
 Alpha  occ. eigenvalues --   -1.13847  -1.13749  -1.13732  -1.13412  -1.13391
 Alpha  occ. eigenvalues --   -1.13380  -1.13379  -1.13363  -1.13335  -1.13299
 Alpha  occ. eigenvalues --   -1.13291  -1.13290  -1.13266  -1.13262  -1.13160
 Alpha  occ. eigenvalues --   -0.16746  -0.13832  -0.12400  -0.10964
 Alpha virt. eigenvalues --   -0.06047  -0.05205  -0.04853  -0.03852  -0.02486
 Alpha virt. eigenvalues --   -0.02422  -0.01800  -0.01635  -0.01292  -0.00959
 Alpha virt. eigenvalues --   -0.00190   0.00030   0.00154   0.00351   0.00581

  Beta  occ. eigenvalues --  -38.44372 -38.44324 -38.44292 -38.43926 -38.43909
  Beta  occ. eigenvalues --  -38.43802 -38.43691  -2.20138  -2.20097  -2.20079
  Beta  occ. eigenvalues --   -2.19707  -2.19671  -2.19631  -2.19552  -1.13852
  Beta  occ. eigenvalues --   -1.13846  -1.13800  -1.13798  -1.13788  -1.13788
  Beta  occ. eigenvalues --   -1.13784  -1.13722  -1.13679  -1.13395  -1.13374
  Beta  occ. eigenvalues --   -1.13348  -1.13346  -1.13343  -1.13317  -1.13308
  Beta  occ. eigenvalues --   -1.13302  -1.13273  -1.13247  -1.13217  -1.13114
  Beta  occ. eigenvalues --   -0.16179  -0.13106  -0.12199
  Beta virt. eigenvalues --   -0.07506  -0.05754  -0.04883  -0.04587  -0.03601
  Beta virt. eigenvalues --   -0.02337  -0.02008  -0.01503  -0.01417  -0.01127
  Beta virt. eigenvalues --   -0.00568   0.00101   0.00144   0.00343   0.00517

 Mulliken charges and spin densities:
               1          2
     1  Na  -0.088541   0.170837
     2  Na   0.609461   0.151967
     3  Na  -0.146537  -0.113661
     4  Na   0.970307   0.098283
     5  Na   0.164954   0.524084
     6  Na  -0.508368   0.069439
     7  Na  -1.001276   0.099051
 Sum of Mulliken charges =  -0.00000   1.00000

 Dipole moment (field-independent basis, Debye):
    X=              0.3596    Y=             -0.0649    Z=              0.3082  Tot=              0.4780
 Quadrupole moment (field-independent basis, Debye-Ang):
   XX=            -69.2526   YY=            -59.6011   ZZ=            -67.8850
   XY=              0.3253   XZ=              2.1095   YZ=              0.8307

 Normal termination of Gaussian 16 at Tue Nov 28 20:16:31 2023.
