 Gaussian 16, Revision B.01,
 Gaussian 16:  ES64L-G16RevB.01 20-Dec-2017

 -------------------------
 #P B3LYP/6-311+g(d) force
 -------------------------

 -----
 DPGEN
 -----
 Symbolic Z-matrix:
 Charge =  0 Multiplicity = 2

                         Standard orientation:
 ---------------------------------------------------------------------
 Center     Atomic      Atomic             Coordinates (Angstroms)
 Number     Number       Type             X           Y           Z
 ---------------------------------------------------------------------
      1         11           0        0.158446   -0.271190   -1.602361
      2         11           0       -0.548814    0.042770    2.198008
      3         11           0       -2.712238    1.772065   -0.275337
      4         11           0        1.563478   -2.675134    0.159306
      5         11           0       -2.539844   -2.092107   -0.314099
      6         11           0        3.141645    0.326646   -0.080881
      7         11           0        0.937326    2.896950   -0.084634
 ---------------------------------------------------------------------

 SCF Done:  E(UB3LYP) =  -1136.13558462     A.U. after   19 cycles

 The electronic state is 2-A.
 Alpha  occ. eigenvalues --  -38.44301 -38.44228 -38.43841 -38.43763 -38.43722
 Alpha  occ. eigenvalues --  -38.43436 -38.43294  -2.20082  -2.20010  -2.19686
 Alpha  occ. eigenvalues --   -2.19587  -2.19556  -2.19252  -2.19228  -1.13761
 Alpha  occ. eigenvalues --   -1.13742  -1.13720  -1.13690  -1.13666  -1.13646
 Alpha  occ. eigenvalues --   -1.13371  -1.13351  -1.13342  -1.13272  -1.13246
 Alpha  occ. eigenvalues --   -1.13213  -1.13210  -1.13181  -1.13176  -1.12936
 Alpha  occ. eigenvalues --   -1.12922  -1.12912  -1.12889  -1.12858  -1.12852
 Alpha  occ. eigenvalues --   -0.18067  -0.12956  -0.12274  -0.10530
 Alpha virt. eigenvalues --   -0.05872  -0.05467  -0.04795  -0.03193  -0.02807
 Alpha virt. eigenvalues --   -0.02539  -0.01572  -0.01378  -0.00664  -0.00573
 Alpha virt. eigenvalues --   -0.00037   0.00340   0.00737   0.00767   0.00859

  Beta  occ. eigenvalues --  -38.44298 -38.44222 -38.43840 -38.43759 -38.43620
  Beta  occ. eigenvalues --  -38.43434 -38.43241  -2.20079  -2.20001  -2.19685
  Beta  occ. eigenvalues --   -2.19583  -2.19367  -2.19251  -2.19132  -1.13743
  Beta  occ. eigenvalues --   -1.13738  -1.13720  -1.13670  -1.13655  -1.13642
  Beta  occ. eigenvalues --   -1.13368  -1.13346  -1.13334  -1.13266  -1.13228
  Beta  occ. eigenvalues --   -1.13212  -1.13085  -1.13050  -1.13041  -1.12927
  Beta  occ. eigenvalues --   -1.12907  -1.12888  -1.12847  -1.12792  -1.12781
  Beta  occ. eigenvalues --   -0.17382  -0.12752  -0.12085
  Beta virt. eigenvalues --   -0.06630  -0.05879  -0.05383  -0.04727  -0.02450
  Beta virt. eigenvalues --   -0.02087  -0.01508  -0.01459  -0.01309  -0.00711
  Beta virt. eigenvalues --   -0.00616   0.00133   0.00383   0.00769   0.00819

 Mulliken charges and spin densities:
               1          2
     1  Na  -0.035288   0.375302
     2  Na  -0.530884   0.799046
     3  Na   0.103081  -0.055395
     4  Na   0.158532  -0.013388
     5  Na   0.113128  -0.061540
     6  Na   0.139557   0.003354
     7  Na   0.051874  -0.047379
 Sum of Mulliken charges =  -0.00000   1.00000

 Dipole moment (field-independent basis, Debye):
    X=             -0.3136    Y=             -0.1557    Z=              0.0224  Tot=              0.3508
 Quadrupole moment (field-independent basis, Debye-Ang):
   XX=            -56.3305   YY=            -61.3905   ZZ=            -75.6529
   XY=             -0.2460   XZ=              1.4790   YZ=             -0.7543

 Normal termination of Gaussian 16 at Thu Dec  7 06:38:05 2023.
