 Gaussian 16, Revision B.01,
 Gaussian 16:  ES64L-G16RevB.01 20-Dec-2017

 -------------------------
 #P B3LYP/6-311+g(d) force
 -------------------------

 -----
 DPGEN
 -----
 Symbolic Z-matrix:
 Charge =  0 Multiplicity = 2

                         Standard orientation:
 ---------------------------------------------------------------------
 Center     Atomic      Atomic             Coordinates (Angstroms)
 Number     Number       Type             X           Y           Z
 ---------------------------------------------------------------------
      1         11           0       -0.722927    2.728712   -0.230234
      2         11           0        3.066483    1.490619    0.281943
      3         11           0        0.193947   -0.539905    2.009847
      4         11           0        2.737286   -1.592388   -0.578894
      5         11           0       -3.242671    0.737688    0.137034
      6         11           0       -0.418790   -0.251056   -1.678443
      7         11           0       -1.613328   -2.573669    0.058748
 ---------------------------------------------------------------------

 SCF Done:  E(UB3LYP) =  -1136.13068862     A.U. after   20 cycles

 The electronic state is 2-A.
 Alpha  occ. eigenvalues --  -38.44655 -38.44345 -38.44322 -38.43717 -38.43416
 Alpha  occ. eigenvalues --  -38.43290 -38.43050  -2.20485  -2.20144  -2.20139
 Alpha  occ. eigenvalues --   -2.19580  -2.19365  -2.19153  -2.18893  -1.14157
 Alpha  occ. eigenvalues --   -1.14153  -1.14119  -1.13877  -1.13815  -1.13803
 Alpha  occ. eigenvalues --   -1.13788  -1.13776  -1.13736  -1.13252  -1.13217
 Alpha  occ. eigenvalues --   -1.13197  -1.13067  -1.13040  -1.12979  -1.12813
 Alpha  occ. eigenvalues --   -1.12810  -1.12778  -1.12581  -1.12558  -1.12522
 Alpha  occ. eigenvalues --   -0.18284  -0.13467  -0.11974  -0.10603
 Alpha virt. eigenvalues --   -0.06223  -0.05586  -0.04227  -0.03435  -0.02700
 Alpha virt. eigenvalues --   -0.02504  -0.01947  -0.01304  -0.00520  -0.00308
 Alpha virt. eigenvalues --   -0.00048   0.00318   0.00701   0.00775   0.00809

  Beta  occ. eigenvalues --  -38.44653 -38.44344 -38.44308 -38.43630 -38.43350
  Beta  occ. eigenvalues --  -38.43285 -38.43047  -2.20484  -2.20140  -2.20119
  Beta  occ. eigenvalues --   -2.19419  -2.19246  -2.19148  -2.18890  -1.14157
  Beta  occ. eigenvalues --   -1.14140  -1.14118  -1.13872  -1.13793  -1.13789
  Beta  occ. eigenvalues --   -1.13772  -1.13765  -1.13728  -1.13146  -1.13104
  Beta  occ. eigenvalues --   -1.13081  -1.12997  -1.12954  -1.12890  -1.12800
  Beta  occ. eigenvalues --   -1.12783  -1.12769  -1.12576  -1.12547  -1.12516
  Beta  occ. eigenvalues --   -0.17584  -0.13289  -0.11738
  Beta virt. eigenvalues --   -0.06749  -0.06127  -0.05526  -0.04173  -0.02730
  Beta virt. eigenvalues --   -0.01992  -0.01852  -0.01475  -0.01216  -0.00557
  Beta virt. eigenvalues --   -0.00312   0.00111   0.00356   0.00784   0.00784

 Mulliken charges and spin densities:
               1          2
     1  Na  -0.093910  -0.042120
     2  Na  -0.103401   0.009175
     3  Na  -0.397537   0.666212
     4  Na   0.200405  -0.020333
     5  Na   0.139328   0.005008
     6  Na   0.046677   0.456745
     7  Na   0.208438  -0.074687
 Sum of Mulliken charges =  -0.00000   1.00000

 Dipole moment (field-independent basis, Debye):
    X=              0.0220    Y=             -0.1184    Z=              0.1620  Tot=              0.2019
 Quadrupole moment (field-independent basis, Debye-Ang):
   XX=            -52.2424   YY=            -66.5529   ZZ=            -75.0918
   XY=              1.0001   XZ=             -1.2014   YZ=              1.2716

 Normal termination of Gaussian 16 at Thu Dec  7 16:49:57 2023.
