 Gaussian 16, Revision B.01,
 Gaussian 16:  ES64L-G16RevB.01 20-Dec-2017

 -------------------------
 #P B3LYP/6-311+g(d) force
 -------------------------

 -----
 DPGEN
 -----
 Symbolic Z-matrix:
 Charge =  0 Multiplicity = 2

                         Standard orientation:
 ---------------------------------------------------------------------
 Center     Atomic      Atomic             Coordinates (Angstroms)
 Number     Number       Type             X           Y           Z
 ---------------------------------------------------------------------
      1         11           0        1.412101    2.146144   -0.012465
      2         11           0       -0.851849   -0.132500    1.396893
      3         11           0       -1.079173   -3.009660   -0.221824
      4         11           0        1.956992   -1.605729   -0.913656
      5         11           0        4.444211    0.264608    0.345731
      6         11           0       -3.642039   -0.578399    0.080291
      7         11           0       -2.240243    2.915537   -0.674970
 ---------------------------------------------------------------------

 SCF Done:  E(UB3LYP) =  -1136.12422292     A.U. after   22 cycles

 The electronic state is 2-A.
 Alpha  occ. eigenvalues --  -38.44921 -38.44598 -38.44172 -38.43890 -38.43486
 Alpha  occ. eigenvalues --  -38.43427 -38.43326  -2.20811  -2.20347  -2.20004
 Alpha  occ. eigenvalues --   -2.19706  -2.19340  -2.19300  -2.19167  -1.14522
 Alpha  occ. eigenvalues --   -1.14491  -1.14420  -1.14039  -1.14003  -1.13985
 Alpha  occ. eigenvalues --   -1.13701  -1.13671  -1.13637  -1.13415  -1.13394
 Alpha  occ. eigenvalues --   -1.13294  -1.13014  -1.13007  -1.12987  -1.12975
 Alpha  occ. eigenvalues --   -1.12938  -1.12890  -1.12820  -1.12809  -1.12777
 Alpha  occ. eigenvalues --   -0.17453  -0.13976  -0.12616  -0.09892
 Alpha virt. eigenvalues --   -0.06889  -0.05446  -0.04694  -0.03190  -0.02937
 Alpha virt. eigenvalues --   -0.02536  -0.01871  -0.00991  -0.00910  -0.00769
 Alpha virt. eigenvalues --   -0.00223  -0.00102   0.00472   0.00554   0.00725

  Beta  occ. eigenvalues --  -38.44910 -38.44606 -38.44155 -38.43871 -38.43475
  Beta  occ. eigenvalues --  -38.43354 -38.43248  -2.20795  -2.20366  -2.19978
  Beta  occ. eigenvalues --   -2.19675  -2.19324  -2.19164  -2.19020  -1.14508
  Beta  occ. eigenvalues --   -1.14456  -1.14413  -1.14055  -1.14009  -1.13985
  Beta  occ. eigenvalues --   -1.13684  -1.13654  -1.13585  -1.13395  -1.13370
  Beta  occ. eigenvalues --   -1.13256  -1.13008  -1.12998  -1.12942  -1.12888
  Beta  occ. eigenvalues --   -1.12848  -1.12803  -1.12718  -1.12707  -1.12684
  Beta  occ. eigenvalues --   -0.16974  -0.13274  -0.12236
  Beta virt. eigenvalues --   -0.06785  -0.06517  -0.05323  -0.04369  -0.02781
  Beta virt. eigenvalues --   -0.02486  -0.02343  -0.01335  -0.00870  -0.00812
  Beta virt. eigenvalues --   -0.00667   0.00117   0.00212   0.00635   0.00680

 Mulliken charges and spin densities:
               1          2
     1  Na  -0.328442   0.051841
     2  Na   0.469312   0.038451
     3  Na  -0.030978  -0.016249
     4  Na  -0.302193   0.062582
     5  Na   0.327627   0.466236
     6  Na  -0.039112   0.487361
     7  Na  -0.096214  -0.090221
 Sum of Mulliken charges =  -0.00000   1.00000

 Dipole moment (field-independent basis, Debye):
    X=             -0.5811    Y=              0.1559    Z=             -0.3739  Tot=              0.7084
 Quadrupole moment (field-independent basis, Debye-Ang):
   XX=            -74.1354   YY=            -64.1086   ZZ=            -65.7394
   XY=             -2.3686   XZ=              3.0745   YZ=             -0.0611

 Normal termination of Gaussian 16 at Wed Nov 29 04:09:55 2023.
