 Gaussian 16, Revision B.01,
 Gaussian 16:  ES64L-G16RevB.01 20-Dec-2017

 -------------------------
 #P B3LYP/6-311+g(d) force
 -------------------------

 -----
 DPGEN
 -----
 Symbolic Z-matrix:
 Charge =  0 Multiplicity = 2

                         Standard orientation:
 ---------------------------------------------------------------------
 Center     Atomic      Atomic             Coordinates (Angstroms)
 Number     Number       Type             X           Y           Z
 ---------------------------------------------------------------------
      1         11           0        3.642935    0.905947   -0.655693
      2         11           0       -1.634337    3.206966   -0.714410
      3         11           0       -3.016182   -2.931363   -0.090005
      4         11           0       -4.030156    0.572734   -0.163458
      5         11           0        1.120799    3.498845    1.271381
      6         11           0        0.543768   -3.253634    0.820707
      7         11           0        3.373172   -1.999495   -0.468522
 ---------------------------------------------------------------------

 SCF Done:  E(UB3LYP) =  -1136.10568221     A.U. after   22 cycles

 The electronic state is 2-A.
 Alpha  occ. eigenvalues --  -38.45219 -38.44962 -38.44914 -38.44536 -38.44202
 Alpha  occ. eigenvalues --  -38.44195 -38.44014  -2.21038  -2.20696  -2.20672
 Alpha  occ. eigenvalues --   -2.20324  -2.20051  -2.19990  -2.19801  -1.14758
 Alpha  occ. eigenvalues --   -1.14686  -1.14656  -1.14386  -1.14370  -1.14358
 Alpha  occ. eigenvalues --   -1.14348  -1.14341  -1.14315  -1.13990  -1.13977
 Alpha  occ. eigenvalues --   -1.13950  -1.13733  -1.13691  -1.13684  -1.13642
 Alpha  occ. eigenvalues --   -1.13630  -1.13622  -1.13460  -1.13448  -1.13422
 Alpha  occ. eigenvalues --   -0.15637  -0.13929  -0.13353  -0.10676
 Alpha virt. eigenvalues --   -0.07726  -0.05077  -0.04351  -0.03543  -0.03218
 Alpha virt. eigenvalues --   -0.02606  -0.02316  -0.01717  -0.01496  -0.00877
 Alpha virt. eigenvalues --   -0.00442  -0.00094   0.00020   0.00381   0.00647

  Beta  occ. eigenvalues --  -38.45175 -38.44978 -38.44915 -38.44483 -38.44179
  Beta  occ. eigenvalues --  -38.44143 -38.43948  -2.20962  -2.20729  -2.20680
  Beta  occ. eigenvalues --   -2.20224  -2.20028  -2.19880  -2.19678  -1.14694
  Beta  occ. eigenvalues --   -1.14637  -1.14593  -1.14413  -1.14395  -1.14368
  Beta  occ. eigenvalues --   -1.14359  -1.14337  -1.14281  -1.13925  -1.13910
  Beta  occ. eigenvalues --   -1.13884  -1.13701  -1.13679  -1.13654  -1.13567
  Beta  occ. eigenvalues --   -1.13555  -1.13549  -1.13375  -1.13366  -1.13345
  Beta  occ. eigenvalues --   -0.15113  -0.13253  -0.12695
  Beta virt. eigenvalues --   -0.07809  -0.07516  -0.04621  -0.03985  -0.03245
  Beta virt. eigenvalues --   -0.02844  -0.02420  -0.02046  -0.01612  -0.01367
  Beta virt. eigenvalues --   -0.00574  -0.00298   0.00165   0.00245   0.00416

 Mulliken charges and spin densities:
               1          2
     1  Na  -0.172072   0.180615
     2  Na  -0.078380  -0.017686
     3  Na   0.160448  -0.115707
     4  Na  -0.083922   0.329224
     5  Na   0.116892   0.284365
     6  Na  -0.416163   0.288582
     7  Na   0.473197   0.050606
 Sum of Mulliken charges =  -0.00000   1.00000

 Dipole moment (field-independent basis, Debye):
    X=              0.4814    Y=              0.0324    Z=             -0.0985  Tot=              0.4925
 Quadrupole moment (field-independent basis, Debye-Ang):
   XX=            -65.2218   YY=            -66.2705   ZZ=            -70.3276
   XY=              2.7433   XZ=              1.4179   YZ=             -0.7892

 Normal termination of Gaussian 16 at Sun Dec  3 11:50:19 2023.
