 Gaussian 16, Revision B.01,
 Gaussian 16:  ES64L-G16RevB.01 20-Dec-2017

 -------------------------
 #P B3LYP/6-311+g(d) force
 -------------------------

 -----
 DPGEN
 -----
 Symbolic Z-matrix:
 Charge =  0 Multiplicity = 2

                         Standard orientation:
 ---------------------------------------------------------------------
 Center     Atomic      Atomic             Coordinates (Angstroms)
 Number     Number       Type             X           Y           Z
 ---------------------------------------------------------------------
      1         11           0        0.571413   -0.947475   -1.351957
      2         11           0        0.570314   -0.927975    1.363843
      3         11           0        2.909242   -0.043348    0.000443
      4         11           0        0.673096    1.716322   -0.010357
      5         11           0       -1.496831    0.830990   -1.375657
      6         11           0       -1.497131    0.849690    1.364443
      7         11           0       -1.730103   -1.478203    0.009243
 ---------------------------------------------------------------------

 SCF Done:  E(UB3LYP) =  -1136.03677370     A.U. after   26 cycles

 The electronic state is 2-A.
 Alpha  occ. eigenvalues --  -38.44876 -38.44861 -38.44636 -38.44429 -38.44406
 Alpha  occ. eigenvalues --  -38.43968 -38.43118  -2.21202  -2.21135  -2.20824
 Alpha  occ. eigenvalues --   -2.20742  -2.20676  -2.20238  -2.19413  -1.15319
 Alpha  occ. eigenvalues --   -1.15058  -1.15052  -1.14933  -1.14883  -1.14810
 Alpha  occ. eigenvalues --   -1.14680  -1.14548  -1.14476  -1.14374  -1.14301
 Alpha  occ. eigenvalues --   -1.14289  -1.14238  -1.14209  -1.14137  -1.13822
 Alpha  occ. eigenvalues --   -1.13786  -1.13724  -1.13109  -1.13033  -1.12978
 Alpha  occ. eigenvalues --   -0.22507  -0.14426  -0.13366  -0.12166
 Alpha virt. eigenvalues --   -0.05784  -0.04184  -0.03942  -0.03727  -0.02913
 Alpha virt. eigenvalues --   -0.02849  -0.01205  -0.00353  -0.00173   0.00259
 Alpha virt. eigenvalues --    0.00773   0.01051   0.01062   0.01075   0.01125

  Beta  occ. eigenvalues --  -38.44812 -38.44798 -38.44634 -38.44361 -38.44340
  Beta  occ. eigenvalues --  -38.43949 -38.43097  -2.21093  -2.21026  -2.20722
  Beta  occ. eigenvalues --   -2.20663  -2.20625  -2.20213  -2.19383  -1.15263
  Beta  occ. eigenvalues --   -1.14947  -1.14946  -1.14860  -1.14817  -1.14728
  Beta  occ. eigenvalues --   -1.14628  -1.14469  -1.14413  -1.14341  -1.14239
  Beta  occ. eigenvalues --   -1.14222  -1.14171  -1.14169  -1.14036  -1.13807
  Beta  occ. eigenvalues --   -1.13711  -1.13692  -1.13098  -1.12968  -1.12937
  Beta  occ. eigenvalues --   -0.21609  -0.14182  -0.11911
  Beta virt. eigenvalues --   -0.08716  -0.05701  -0.03739  -0.03408  -0.03373
  Beta virt. eigenvalues --   -0.02156  -0.01970  -0.01148  -0.00167  -0.00084
  Beta virt. eigenvalues --    0.00304   0.00832   0.01114   0.01126   0.01132

 Mulliken charges and spin densities:
               1          2
     1  Na  -0.419828   0.330398
     2  Na  -0.416115   0.323984
     3  Na   1.002826  -0.074251
     4  Na  -0.879964   0.268028
     5  Na   0.366285   0.125009
     6  Na   0.362055   0.126891
     7  Na  -0.015259  -0.100060
 Sum of Mulliken charges =  -0.00000   1.00000

 Dipole moment (field-independent basis, Debye):
    X=              0.4668    Y=              0.1012    Z=             -0.0022  Tot=              0.4777
 Quadrupole moment (field-independent basis, Debye-Ang):
   XX=            -57.5304   YY=            -76.6820   ZZ=            -64.3267
   XY=              0.3019   XZ=             -0.0073   YZ=              0.0037

 Normal termination of Gaussian 16 at Fri Dec  8 17:23:54 2023.
