 Gaussian 16, Revision B.01,
 Gaussian 16:  ES64L-G16RevB.01 20-Dec-2017

 -------------------------
 #P B3LYP/6-311+g(d) force
 -------------------------

 -----
 DPGEN
 -----
 Symbolic Z-matrix:
 Charge =  0 Multiplicity = 2

                         Standard orientation:
 ---------------------------------------------------------------------
 Center     Atomic      Atomic             Coordinates (Angstroms)
 Number     Number       Type             X           Y           Z
 ---------------------------------------------------------------------
      1         11           0        1.181731    0.890473    1.828721
      2         11           0       -0.128893   -1.990629    1.298278
      3         11           0       -3.824540   -0.892734   -0.328160
      4         11           0        3.049298    2.014964   -0.544967
      5         11           0        2.850164   -1.715308   -0.661470
      6         11           0       -2.923507    2.071392    0.009916
      7         11           0       -0.204252   -0.378157   -1.602317
 ---------------------------------------------------------------------

 SCF Done:  E(UB3LYP) =  -1136.11848044     A.U. after   23 cycles

 The electronic state is 2-A.
 Alpha  occ. eigenvalues --  -38.45184 -38.44749 -38.44657 -38.44627 -38.43398
 Alpha  occ. eigenvalues --  -38.43180 -38.42640  -2.20984  -2.20592  -2.20450
 Alpha  occ. eigenvalues --   -2.20444  -2.19296  -2.18991  -2.18535  -1.14671
 Alpha  occ. eigenvalues --   -1.14647  -1.14615  -1.14298  -1.14240  -1.14220
 Alpha  occ. eigenvalues --   -1.14123  -1.14113  -1.14093  -1.14091  -1.14089
 Alpha  occ. eigenvalues --   -1.14069  -1.12970  -1.12944  -1.12933  -1.12658
 Alpha  occ. eigenvalues --   -1.12646  -1.12634  -1.12229  -1.12178  -1.12150
 Alpha  occ. eigenvalues --   -0.17826  -0.13996  -0.11040  -0.10939
 Alpha virt. eigenvalues --   -0.06602  -0.06124  -0.03883  -0.03280  -0.02868
 Alpha virt. eigenvalues --   -0.02521  -0.02465  -0.01419  -0.00731  -0.00488
 Alpha virt. eigenvalues --    0.00035   0.00158   0.00435   0.00478   0.00629

  Beta  occ. eigenvalues --  -38.45182 -38.44717 -38.44660 -38.44591 -38.43320
  Beta  occ. eigenvalues --  -38.43176 -38.42598  -2.20980  -2.20534  -2.20451
  Beta  occ. eigenvalues --   -2.20386  -2.19152  -2.18985  -2.18461  -1.14670
  Beta  occ. eigenvalues --   -1.14638  -1.14614  -1.14252  -1.14203  -1.14168
  Beta  occ. eigenvalues --   -1.14118  -1.14097  -1.14089  -1.14062  -1.14051
  Beta  occ. eigenvalues --   -1.14024  -1.12871  -1.12845  -1.12830  -1.12652
  Beta  occ. eigenvalues --   -1.12634  -1.12618  -1.12177  -1.12120  -1.12086
  Beta  occ. eigenvalues --   -0.17138  -0.13789  -0.10886
  Beta virt. eigenvalues --   -0.06989  -0.06386  -0.06084  -0.03560  -0.03020
  Beta virt. eigenvalues --   -0.02351  -0.02245  -0.01585  -0.01283  -0.00705
  Beta virt. eigenvalues --   -0.00225   0.00071   0.00229   0.00488   0.00620

 Mulliken charges and spin densities:
               1          2
     1  Na  -0.109973   0.265296
     2  Na  -0.042794   0.237403
     3  Na   0.275418   0.007212
     4  Na  -0.107445   0.036904
     5  Na   0.236985   0.247827
     6  Na  -0.036409   0.014489
     7  Na  -0.215782   0.190869
 Sum of Mulliken charges =  -0.00000   1.00000

 Dipole moment (field-independent basis, Debye):
    X=             -1.1431    Y=             -0.6584    Z=             -0.4684  Tot=              1.3999
 Quadrupole moment (field-independent basis, Debye-Ang):
   XX=            -53.6748   YY=            -70.1785   ZZ=            -72.3568
   XY=             -1.2839   XZ=             -1.8168   YZ=             -0.9211

 Normal termination of Gaussian 16 at Wed Nov 29 16:10:21 2023.
