 Gaussian 16, Revision B.01,
 Gaussian 16:  ES64L-G16RevB.01 20-Dec-2017

 -------------------------
 #P B3LYP/6-311+g(d) force
 -------------------------

 -----
 DPGEN
 -----
 Symbolic Z-matrix:
 Charge =  0 Multiplicity = 2

                         Standard orientation:
 ---------------------------------------------------------------------
 Center     Atomic      Atomic             Coordinates (Angstroms)
 Number     Number       Type             X           Y           Z
 ---------------------------------------------------------------------
      1         11           0        2.215557   -1.065499   -0.829323
      2         11           0        4.786847   -1.292427    1.635720
      3         11           0        4.357474    1.754898   -0.039745
      4         11           0        0.874311    1.799319   -1.015927
      5         11           0       -1.341373   -1.378692   -0.471300
      6         11           0       -4.725876   -0.969595   -0.776895
      7         11           0       -6.166939    1.151996    1.497470
 ---------------------------------------------------------------------

 SCF Done:  E(UB3LYP) =  -1136.11431808     A.U. after   21 cycles

 The electronic state is 2-A.
 Alpha  occ. eigenvalues --  -38.44701 -38.44467 -38.44376 -38.44293 -38.44162
 Alpha  occ. eigenvalues --  -38.43794 -38.43567  -2.20459  -2.20278  -2.20244
 Alpha  occ. eigenvalues --   -2.20136  -2.19940  -2.19605  -2.19375  -1.14119
 Alpha  occ. eigenvalues --   -1.14117  -1.14083  -1.13998  -1.13966  -1.13946
 Alpha  occ. eigenvalues --   -1.13938  -1.13904  -1.13836  -1.13802  -1.13784
 Alpha  occ. eigenvalues --   -1.13721  -1.13621  -1.13615  -1.13577  -1.13261
 Alpha  occ. eigenvalues --   -1.13259  -1.13219  -1.13052  -1.13041  -1.12983
 Alpha  occ. eigenvalues --   -0.16644  -0.13969  -0.11758  -0.11032
 Alpha virt. eigenvalues --   -0.07131  -0.05132  -0.04501  -0.03553  -0.02951
 Alpha virt. eigenvalues --   -0.02598  -0.02151  -0.01606  -0.01008  -0.00784
 Alpha virt. eigenvalues --   -0.00374  -0.00157  -0.00138   0.00286   0.00475

  Beta  occ. eigenvalues --  -38.44665 -38.44449 -38.44366 -38.44241 -38.44174
  Beta  occ. eigenvalues --  -38.43744 -38.43535  -2.20392  -2.20248  -2.20229
  Beta  occ. eigenvalues --   -2.20040  -2.19965  -2.19509  -2.19314  -1.14072
  Beta  occ. eigenvalues --   -1.14070  -1.14040  -1.13963  -1.13950  -1.13929
  Beta  occ. eigenvalues --   -1.13916  -1.13855  -1.13827  -1.13740  -1.13728
  Beta  occ. eigenvalues --   -1.13638  -1.13636  -1.13634  -1.13580  -1.13195
  Beta  occ. eigenvalues --   -1.13189  -1.13163  -1.13009  -1.12996  -1.12955
  Beta  occ. eigenvalues --   -0.16035  -0.13715  -0.11442
  Beta virt. eigenvalues --   -0.07597  -0.06605  -0.04852  -0.04130  -0.03394
  Beta virt. eigenvalues --   -0.02494  -0.02433  -0.01783  -0.01444  -0.00826
  Beta virt. eigenvalues --   -0.00480  -0.00111   0.00004   0.00063   0.00338

 Mulliken charges and spin densities:
               1          2
     1  Na  -0.225201   0.014868
     2  Na   0.176382   0.265770
     3  Na   0.320173   0.002118
     4  Na  -0.147114   0.367698
     5  Na  -0.503582   0.168292
     6  Na   0.338422  -0.005169
     7  Na   0.040919   0.186422
 Sum of Mulliken charges =  -0.00000   1.00000

 Dipole moment (field-independent basis, Debye):
    X=              0.3175    Y=              0.9004    Z=              0.3699  Tot=              1.0239
 Quadrupole moment (field-independent basis, Debye-Ang):
   XX=            -66.2238   YY=            -64.8059   ZZ=            -67.4274
   XY=             -1.1042   XZ=             -1.4045   YZ=              2.6759

 Normal termination of Gaussian 16 at Wed Nov 29 02:40:16 2023.
