 Gaussian 16, Revision B.01,
 Gaussian 16:  ES64L-G16RevB.01 20-Dec-2017

 -------------------------
 #P B3LYP/6-311+g(d) force
 -------------------------

 -----
 DPGEN
 -----
 Symbolic Z-matrix:
 Charge =  0 Multiplicity = 2

                         Standard orientation:
 ---------------------------------------------------------------------
 Center     Atomic      Atomic             Coordinates (Angstroms)
 Number     Number       Type             X           Y           Z
 ---------------------------------------------------------------------
      1         11           0       -0.168585   -1.839135   -0.514445
      2         11           0        3.112379   -3.046628   -0.021631
      3         11           0        3.042019    0.050254    0.277609
      4         11           0        2.891656    3.401832   -0.524001
      5         11           0       -0.306642    1.691589    0.695607
      6         11           0       -2.828140   -0.610726    0.467808
      7         11           0       -5.742687    0.352814   -0.380948
 ---------------------------------------------------------------------

 SCF Done:  E(UB3LYP) =  -1136.12343792     A.U. after   20 cycles

 The electronic state is 2-A.
 Alpha  occ. eigenvalues --  -38.44769 -38.44696 -38.44249 -38.43922 -38.43713
 Alpha  occ. eigenvalues --  -38.43411 -38.43337  -2.20596  -2.20502  -2.20114
 Alpha  occ. eigenvalues --   -2.19702  -2.19586  -2.19253  -2.19243  -1.14234
 Alpha  occ. eigenvalues --   -1.14215  -1.14213  -1.14199  -1.14189  -1.14090
 Alpha  occ. eigenvalues --   -1.13802  -1.13781  -1.13747  -1.13379  -1.13370
 Alpha  occ. eigenvalues --   -1.13326  -1.13283  -1.13269  -1.13217  -1.12939
 Alpha  occ. eigenvalues --   -1.12911  -1.12903  -1.12898  -1.12891  -1.12870
 Alpha  occ. eigenvalues --   -0.17085  -0.14270  -0.12295  -0.11383
 Alpha virt. eigenvalues --   -0.06170  -0.04931  -0.04796  -0.03926  -0.02694
 Alpha virt. eigenvalues --   -0.02369  -0.01822  -0.01497  -0.01131  -0.00777
 Alpha virt. eigenvalues --   -0.00581  -0.00030   0.00283   0.00530   0.00685

  Beta  occ. eigenvalues --  -38.44672 -38.44645 -38.44220 -38.43913 -38.43695
  Beta  occ. eigenvalues --  -38.43392 -38.43325  -2.20459  -2.20366  -2.20064
  Beta  occ. eigenvalues --   -2.19685  -2.19554  -2.19232  -2.19217  -1.14172
  Beta  occ. eigenvalues --   -1.14157  -1.14082  -1.14059  -1.14057  -1.14054
  Beta  occ. eigenvalues --   -1.13770  -1.13743  -1.13703  -1.13364  -1.13358
  Beta  occ. eigenvalues --   -1.13316  -1.13260  -1.13245  -1.13190  -1.12924
  Beta  occ. eigenvalues --   -1.12898  -1.12881  -1.12874  -1.12853  -1.12825
  Beta  occ. eigenvalues --   -0.16517  -0.13351  -0.12208
  Beta virt. eigenvalues --   -0.07739  -0.05933  -0.04820  -0.04345  -0.03592
  Beta virt. eigenvalues --   -0.02453  -0.02004  -0.01654  -0.01079  -0.00850
  Beta virt. eigenvalues --   -0.00530  -0.00154   0.00160   0.00402   0.00650

 Mulliken charges and spin densities:
               1          2
     1  Na  -0.730956  -0.035858
     2  Na   1.040259   0.114846
     3  Na  -0.889242   0.244490
     4  Na   0.485700   0.023415
     5  Na  -0.148457   0.021671
     6  Na  -0.039915   0.084843
     7  Na   0.282611   0.546594
 Sum of Mulliken charges =  -0.00000   1.00000

 Dipole moment (field-independent basis, Debye):
    X=              0.0279    Y=              0.3651    Z=             -0.2674  Tot=              0.4533
 Quadrupole moment (field-independent basis, Debye-Ang):
   XX=            -64.7915   YY=            -62.3144   ZZ=            -70.5946
   XY=             -0.7272   XZ=              0.2054   YZ=             -0.8173

 Normal termination of Gaussian 16 at Wed Nov 29 02:34:00 2023.
