 Gaussian 16, Revision B.01,
 Gaussian 16:  ES64L-G16RevB.01 20-Dec-2017

 -------------------------
 #P B3LYP/6-311+g(d) force
 -------------------------

 -----
 DPGEN
 -----
 Symbolic Z-matrix:
 Charge =  0 Multiplicity = 2

                         Standard orientation:
 ---------------------------------------------------------------------
 Center     Atomic      Atomic             Coordinates (Angstroms)
 Number     Number       Type             X           Y           Z
 ---------------------------------------------------------------------
      1         11           0        4.304940    0.621862   -0.574188
      2         11           0        1.537891    1.451294   -0.458603
      3         11           0       -0.538907   -1.662187   -1.396614
      4         11           0       -1.459861   -0.335907    1.607534
      5         11           0        1.942743   -2.042176    1.226614
      6         11           0       -1.916278    2.704893    0.420468
      7         11           0       -3.870527   -0.737779   -0.825211
 ---------------------------------------------------------------------

 SCF Done:  E(UB3LYP) =  -1136.11855423     A.U. after   23 cycles

 The electronic state is 2-A.
 Alpha  occ. eigenvalues --  -38.44582 -38.44427 -38.44365 -38.44135 -38.44128
 Alpha  occ. eigenvalues --  -38.43655 -38.43200  -2.20405  -2.20247  -2.20213
 Alpha  occ. eigenvalues --   -2.20021  -2.19936  -2.19522  -2.19007  -1.14073
 Alpha  occ. eigenvalues --   -1.14045  -1.14022  -1.13959  -1.13947  -1.13914
 Alpha  occ. eigenvalues --   -1.13864  -1.13842  -1.13818  -1.13709  -1.13684
 Alpha  occ. eigenvalues --   -1.13637  -1.13610  -1.13579  -1.13561  -1.13217
 Alpha  occ. eigenvalues --   -1.13175  -1.13143  -1.12682  -1.12664  -1.12643
 Alpha  occ. eigenvalues --   -0.17688  -0.14084  -0.11584  -0.10827
 Alpha virt. eigenvalues --   -0.07009  -0.05352  -0.04272  -0.03429  -0.02993
 Alpha virt. eigenvalues --   -0.02470  -0.01915  -0.01371  -0.01078  -0.00528
 Alpha virt. eigenvalues --   -0.00208   0.00092   0.00285   0.00619   0.00707

  Beta  occ. eigenvalues --  -38.44512 -38.44424 -38.44319 -38.44098 -38.44094
  Beta  occ. eigenvalues --  -38.43651 -38.43188  -2.20275  -2.20244  -2.20128
  Beta  occ. eigenvalues --   -2.19962  -2.19870  -2.19518  -2.18988  -1.13985
  Beta  occ. eigenvalues --   -1.13967  -1.13946  -1.13931  -1.13910  -1.13903
  Beta  occ. eigenvalues --   -1.13834  -1.13783  -1.13760  -1.13671  -1.13623
  Beta  occ. eigenvalues --   -1.13590  -1.13561  -1.13537  -1.13510  -1.13219
  Beta  occ. eigenvalues --   -1.13158  -1.13123  -1.12662  -1.12652  -1.12630
  Beta  occ. eigenvalues --   -0.17186  -0.13508  -0.11187
  Beta virt. eigenvalues --   -0.07401  -0.06809  -0.05150  -0.03718  -0.03271
  Beta virt. eigenvalues --   -0.02667  -0.02137  -0.01461  -0.01121  -0.00667
  Beta virt. eigenvalues --   -0.00374  -0.00053   0.00184   0.00368   0.00637

 Mulliken charges and spin densities:
               1          2
     1  Na   0.409721   0.201261
     2  Na  -1.088048   0.056909
     3  Na   0.043636   0.074882
     4  Na  -0.190562   0.426191
     5  Na   0.182774   0.095456
     6  Na   0.516139  -0.136737
     7  Na   0.126341   0.282038
 Sum of Mulliken charges =  -0.00000   1.00000

 Dipole moment (field-independent basis, Debye):
    X=              0.0181    Y=             -0.8287    Z=              0.2219  Tot=              0.8581
 Quadrupole moment (field-independent basis, Debye-Ang):
   XX=            -54.2760   YY=            -75.8049   ZZ=            -67.6195
   XY=             -5.6604   XZ=              0.6197   YZ=             -2.4152

 Normal termination of Gaussian 16 at Mon Dec  4 03:03:56 2023.
