 Gaussian 16, Revision B.01,
 Gaussian 16:  ES64L-G16RevB.01 20-Dec-2017

 -------------------------
 #P B3LYP/6-311+g(d) force
 -------------------------

 -----
 DPGEN
 -----
 Symbolic Z-matrix:
 Charge =  0 Multiplicity = 2

                         Standard orientation:
 ---------------------------------------------------------------------
 Center     Atomic      Atomic             Coordinates (Angstroms)
 Number     Number       Type             X           Y           Z
 ---------------------------------------------------------------------
      1         11           0       -0.057479    0.013536   -1.813417
      2         11           0        0.984433    2.657856    0.070327
      3         11           0       -2.334311    1.879454   -0.132859
      4         11           0       -2.774392   -1.723910    0.191984
      5         11           0        0.090815   -0.003666    1.852540
      6         11           0        0.754606   -2.482224   -0.171677
      7         11           0        3.336328   -0.341046    0.003102
 ---------------------------------------------------------------------

 SCF Done:  E(UB3LYP) =  -1136.13817165     A.U. after   19 cycles

 The electronic state is 2-A.
 Alpha  occ. eigenvalues --  -38.44267 -38.43834 -38.43711 -38.43386 -38.43334
 Alpha  occ. eigenvalues --  -38.43217 -38.43165  -2.20076  -2.19640  -2.19562
 Alpha  occ. eigenvalues --   -2.19327  -2.19298  -2.19087  -2.19085  -1.13744
 Alpha  occ. eigenvalues --   -1.13739  -1.13719  -1.13310  -1.13301  -1.13289
 Alpha  occ. eigenvalues --   -1.13249  -1.13228  -1.13191  -1.13045  -1.13002
 Alpha  occ. eigenvalues --   -1.12986  -1.12951  -1.12931  -1.12901  -1.12763
 Alpha  occ. eigenvalues --   -1.12759  -1.12754  -1.12745  -1.12704  -1.12677
 Alpha  occ. eigenvalues --   -0.18815  -0.12982  -0.12462  -0.10723
 Alpha virt. eigenvalues --   -0.05803  -0.05175  -0.04426  -0.03112  -0.02878
 Alpha virt. eigenvalues --   -0.02496  -0.01776  -0.01137  -0.00270  -0.00152
 Alpha virt. eigenvalues --   -0.00015   0.00338   0.00767   0.00882   0.00910

  Beta  occ. eigenvalues --  -38.44267 -38.43832 -38.43706 -38.43304 -38.43253
  Beta  occ. eigenvalues --  -38.43211 -38.43153  -2.20079  -2.19639  -2.19556
  Beta  occ. eigenvalues --   -2.19177  -2.19149  -2.19079  -2.19068  -1.13746
  Beta  occ. eigenvalues --   -1.13725  -1.13721  -1.13304  -1.13291  -1.13289
  Beta  occ. eigenvalues --   -1.13238  -1.13206  -1.13191  -1.12958  -1.12905
  Beta  occ. eigenvalues --   -1.12886  -1.12850  -1.12824  -1.12797  -1.12748
  Beta  occ. eigenvalues --   -1.12730  -1.12720  -1.12702  -1.12688  -1.12670
  Beta  occ. eigenvalues --   -0.18065  -0.12760  -0.12198
  Beta virt. eigenvalues --   -0.06799  -0.05762  -0.05183  -0.04409  -0.02341
  Beta virt. eigenvalues --   -0.02069  -0.01688  -0.01433  -0.01080  -0.00331
  Beta virt. eigenvalues --   -0.00186   0.00112   0.00351   0.00820   0.00865

 Mulliken charges and spin densities:
               1          2
     1  Na  -0.244609   0.671193
     2  Na   0.108848  -0.136836
     3  Na   0.132031  -0.093070
     4  Na   0.045504  -0.084097
     5  Na  -0.401445   0.815949
     6  Na   0.277123  -0.066835
     7  Na   0.082548  -0.106305
 Sum of Mulliken charges =  -0.00000   1.00000

 Dipole moment (field-independent basis, Debye):
    X=              0.0774    Y=              0.0593    Z=              0.0534  Tot=              0.1112
 Quadrupole moment (field-independent basis, Debye-Ang):
   XX=            -53.1711   YY=            -64.7807   ZZ=            -74.5502
   XY=              0.5475   XZ=             -0.3272   YZ=             -0.1674

 Normal termination of Gaussian 16 at Thu Dec  7 15:58:34 2023.
