 Gaussian 16, Revision B.01,
 Gaussian 16:  ES64L-G16RevB.01 20-Dec-2017

 -------------------------
 #P B3LYP/6-311+g(d) force
 -------------------------

 -----
 DPGEN
 -----
 Symbolic Z-matrix:
 Charge =  0 Multiplicity = 2

                         Standard orientation:
 ---------------------------------------------------------------------
 Center     Atomic      Atomic             Coordinates (Angstroms)
 Number     Number       Type             X           Y           Z
 ---------------------------------------------------------------------
      1         11           0       -0.748079    2.851651   -0.304307
      2         11           0       -0.614015   -0.134953    2.112041
      3         11           0       -0.622992   -2.675538   -0.092296
      4         11           0       -3.341053   -0.136649   -0.304125
      5         11           0        2.525494    1.684252    0.321464
      6         11           0        2.667612   -1.623624   -0.231105
      7         11           0        0.133034    0.034862   -1.501672
 ---------------------------------------------------------------------

 SCF Done:  E(UB3LYP) =  -1136.13641632     A.U. after   20 cycles

 The electronic state is 2-A.
 Alpha  occ. eigenvalues --  -38.44487 -38.43747 -38.43622 -38.43592 -38.43467
 Alpha  occ. eigenvalues --  -38.43335 -38.43002  -2.20278  -2.19588  -2.19479
 Alpha  occ. eigenvalues --   -2.19467  -2.19307  -2.19225  -2.19024  -1.13954
 Alpha  occ. eigenvalues --   -1.13925  -1.13922  -1.13276  -1.13252  -1.13237
 Alpha  occ. eigenvalues --   -1.13165  -1.13142  -1.13127  -1.13115  -1.13099
 Alpha  occ. eigenvalues --   -1.13081  -1.13029  -1.12963  -1.12955  -1.12924
 Alpha  occ. eigenvalues --   -1.12891  -1.12826  -1.12700  -1.12655  -1.12633
 Alpha  occ. eigenvalues --   -0.18612  -0.13007  -0.12489  -0.10626
 Alpha virt. eigenvalues --   -0.05933  -0.04998  -0.04668  -0.03189  -0.02821
 Alpha virt. eigenvalues --   -0.02467  -0.01762  -0.01061  -0.00392  -0.00305
 Alpha virt. eigenvalues --   -0.00017   0.00334   0.00781   0.00863   0.00886

  Beta  occ. eigenvalues --  -38.44482 -38.43742 -38.43620 -38.43495 -38.43461
  Beta  occ. eigenvalues --  -38.43326 -38.42945  -2.20272  -2.19581  -2.19476
  Beta  occ. eigenvalues --   -2.19299  -2.19287  -2.19213  -2.18922  -1.13934
  Beta  occ. eigenvalues --   -1.13924  -1.13917  -1.13274  -1.13237  -1.13227
  Beta  occ. eigenvalues --   -1.13156  -1.13120  -1.13112  -1.13027  -1.13015
  Beta  occ. eigenvalues --   -1.12975  -1.12955  -1.12941  -1.12933  -1.12920
  Beta  occ. eigenvalues --   -1.12851  -1.12820  -1.12628  -1.12584  -1.12559
  Beta  occ. eigenvalues --   -0.17906  -0.12799  -0.12240
  Beta virt. eigenvalues --   -0.06717  -0.05885  -0.04978  -0.04617  -0.02443
  Beta virt. eigenvalues --   -0.02060  -0.01678  -0.01407  -0.00995  -0.00419
  Beta virt. eigenvalues --   -0.00345   0.00138   0.00368   0.00819   0.00869

 Mulliken charges and spin densities:
               1          2
     1  Na   0.104192  -0.039417
     2  Na  -0.579917   0.744916
     3  Na   0.336897  -0.016319
     4  Na   0.145338  -0.072483
     5  Na   0.093969   0.056620
     6  Na   0.190556   0.005724
     7  Na  -0.291034   0.320960
 Sum of Mulliken charges =  -0.00000   1.00000

 Dipole moment (field-independent basis, Debye):
    X=             -0.3399    Y=              0.0551    Z=              0.1584  Tot=              0.3791
 Quadrupole moment (field-independent basis, Debye-Ang):
   XX=            -54.2016   YY=            -63.5456   ZZ=            -74.9307
   XY=             -0.2757   XZ=              1.7574   YZ=              0.6214

 Normal termination of Gaussian 16 at Thu Dec  7 14:08:50 2023.
