 Gaussian 16, Revision B.01,
 Gaussian 16:  ES64L-G16RevB.01 20-Dec-2017

 -------------------------
 #P B3LYP/6-311+g(d) force
 -------------------------

 -----
 DPGEN
 -----
 Symbolic Z-matrix:
 Charge =  0 Multiplicity = 2

                         Standard orientation:
 ---------------------------------------------------------------------
 Center     Atomic      Atomic             Coordinates (Angstroms)
 Number     Number       Type             X           Y           Z
 ---------------------------------------------------------------------
      1         11           0        2.925047    0.639657   -0.995992
      2         11           0       -2.662116    0.479301    1.180209
      3         11           0        2.309025   -2.274635    0.241091
      4         11           0        0.122947    0.155729   -2.435995
      5         11           0        0.070772    2.943428    0.448119
      6         11           0        1.017379   -0.608827    2.432604
      7         11           0       -3.783053   -1.334654   -0.870036
 ---------------------------------------------------------------------

 SCF Done:  E(UB3LYP) =  -1136.11474661     A.U. after   21 cycles

 The electronic state is 2-A.
 Alpha  occ. eigenvalues --  -38.44632 -38.44575 -38.44418 -38.44312 -38.43988
 Alpha  occ. eigenvalues --  -38.43717 -38.43495  -2.20423  -2.20397  -2.20214
 Alpha  occ. eigenvalues --   -2.20169  -2.19816  -2.19544  -2.19362  -1.14117
 Alpha  occ. eigenvalues --   -1.14085  -1.14073  -1.14028  -1.14027  -1.14020
 Alpha  occ. eigenvalues --   -1.13943  -1.13872  -1.13856  -1.13833  -1.13820
 Alpha  occ. eigenvalues --   -1.13766  -1.13488  -1.13467  -1.13462  -1.13275
 Alpha  occ. eigenvalues --   -1.13195  -1.13185  -1.13020  -1.13004  -1.12975
 Alpha  occ. eigenvalues --   -0.17369  -0.13676  -0.11969  -0.11347
 Alpha virt. eigenvalues --   -0.06104  -0.05297  -0.04901  -0.03457  -0.03271
 Alpha virt. eigenvalues --   -0.02996  -0.01764  -0.01033  -0.00608  -0.00287
 Alpha virt. eigenvalues --   -0.00147  -0.00016   0.00385   0.00472   0.00703

  Beta  occ. eigenvalues --  -38.44553 -38.44531 -38.44390 -38.44306 -38.43986
  Beta  occ. eigenvalues --  -38.43690 -38.43490  -2.20315  -2.20277  -2.20164
  Beta  occ. eigenvalues --   -2.20160  -2.19817  -2.19494  -2.19354  -1.14069
  Beta  occ. eigenvalues --   -1.13987  -1.13972  -1.13970  -1.13961  -1.13927
  Beta  occ. eigenvalues --   -1.13915  -1.13838  -1.13820  -1.13816  -1.13804
  Beta  occ. eigenvalues --   -1.13753  -1.13480  -1.13469  -1.13440  -1.13246
  Beta  occ. eigenvalues --   -1.13162  -1.13147  -1.13014  -1.12996  -1.12958
  Beta  occ. eigenvalues --   -0.16685  -0.13278  -0.11230
  Beta virt. eigenvalues --   -0.08313  -0.05805  -0.04709  -0.04434  -0.03226
  Beta virt. eigenvalues --   -0.02965  -0.02432  -0.01619  -0.00646  -0.00459
  Beta virt. eigenvalues --   -0.00108  -0.00017   0.00077   0.00417   0.00591

 Mulliken charges and spin densities:
               1          2
     1  Na   0.390488   0.117529
     2  Na  -0.268376  -0.185537
     3  Na   0.142258   0.034459
     4  Na  -0.280593   0.075876
     5  Na  -0.077271   0.550003
     6  Na  -0.237973   0.117359
     7  Na   0.331467   0.290313
 Sum of Mulliken charges =  -0.00000   1.00000

 Dipole moment (field-independent basis, Debye):
    X=              0.0123    Y=              0.0864    Z=             -0.6575  Tot=              0.6632
 Quadrupole moment (field-independent basis, Debye-Ang):
   XX=            -62.8574   YY=            -67.1433   ZZ=            -70.5643
   XY=              3.2145   XZ=              0.3907   YZ=              8.9433

 Normal termination of Gaussian 16 at Sun Dec  3 12:46:46 2023.
