 Gaussian 16, Revision B.01,
 Gaussian 16:  ES64L-G16RevB.01 20-Dec-2017

 -------------------------
 #P B3LYP/6-311+g(d) force
 -------------------------

 -----
 DPGEN
 -----
 Symbolic Z-matrix:
 Charge =  0 Multiplicity = 2

                         Standard orientation:
 ---------------------------------------------------------------------
 Center     Atomic      Atomic             Coordinates (Angstroms)
 Number     Number       Type             X           Y           Z
 ---------------------------------------------------------------------
      1         11           0        0.921769   -0.034822   -1.618321
      2         11           0        2.436012   -2.739026   -0.425177
      3         11           0        3.184963    0.594501    0.587294
      4         11           0        0.509159    3.021177   -0.224340
      5         11           0       -2.759595    1.426660   -0.068758
      6         11           0       -0.080927   -0.567444    1.924339
      7         11           0       -4.211382   -1.701047   -0.175039
 ---------------------------------------------------------------------

 SCF Done:  E(UB3LYP) =  -1136.12030122     A.U. after   23 cycles

 The electronic state is 2-A.
 Alpha  occ. eigenvalues --  -38.45311 -38.44673 -38.44290 -38.44079 -38.43896
 Alpha  occ. eigenvalues --  -38.43798 -38.42832  -2.21152  -2.20411  -2.20104
 Alpha  occ. eigenvalues --   -2.19872  -2.19814  -2.19616  -2.18662  -1.14848
 Alpha  occ. eigenvalues --   -1.14814  -1.14765  -1.14084  -1.14081  -1.14050
 Alpha  occ. eigenvalues --   -1.13779  -1.13738  -1.13709  -1.13563  -1.13552
 Alpha  occ. eigenvalues --   -1.13496  -1.13487  -1.13484  -1.13430  -1.13284
 Alpha  occ. eigenvalues --   -1.13265  -1.13245  -1.12337  -1.12318  -1.12313
 Alpha  occ. eigenvalues --   -0.17816  -0.13429  -0.11677  -0.10361
 Alpha virt. eigenvalues --   -0.07052  -0.05655  -0.04444  -0.03331  -0.02602
 Alpha virt. eigenvalues --   -0.02283  -0.02162  -0.01580  -0.01224  -0.00496
 Alpha virt. eigenvalues --   -0.00216   0.00126   0.00330   0.00555   0.00671

  Beta  occ. eigenvalues --  -38.45296 -38.44684 -38.44195 -38.44076 -38.43842
  Beta  occ. eigenvalues --  -38.43783 -38.42829  -2.21129  -2.20431  -2.19930
  Beta  occ. eigenvalues --   -2.19867  -2.19716  -2.19591  -2.18658  -1.14830
  Beta  occ. eigenvalues --   -1.14768  -1.14754  -1.14096  -1.14093  -1.14063
  Beta  occ. eigenvalues --   -1.13661  -1.13617  -1.13582  -1.13551  -1.13545
  Beta  occ. eigenvalues --   -1.13487  -1.13429  -1.13415  -1.13357  -1.13266
  Beta  occ. eigenvalues --   -1.13231  -1.13225  -1.12329  -1.12318  -1.12298
  Beta  occ. eigenvalues --   -0.17091  -0.13320  -0.11488
  Beta virt. eigenvalues --   -0.06887  -0.06469  -0.05535  -0.04425  -0.02739
  Beta virt. eigenvalues --   -0.02256  -0.01868  -0.01559  -0.01286  -0.01137
  Beta virt. eigenvalues --   -0.00408  -0.00048   0.00188   0.00511   0.00619

 Mulliken charges and spin densities:
               1          2
     1  Na  -0.165814   0.455043
     2  Na   0.028776  -0.044280
     3  Na   0.397733   0.180465
     4  Na   0.124126  -0.014852
     5  Na  -0.108183  -0.005312
     6  Na  -0.349405   0.521048
     7  Na   0.072766  -0.092112
 Sum of Mulliken charges =  -0.00000   1.00000

 Dipole moment (field-independent basis, Debye):
    X=              0.5258    Y=             -0.4144    Z=              0.2481  Tot=              0.7140
 Quadrupole moment (field-independent basis, Debye-Ang):
   XX=            -55.0588   YY=            -62.7694   ZZ=            -76.8595
   XY=              2.7830   XZ=              2.8662   YZ=              1.4520

 Normal termination of Gaussian 16 at Thu Dec  7 09:26:35 2023.
