 Gaussian 16, Revision B.01,
 Gaussian 16:  ES64L-G16RevB.01 20-Dec-2017

 -------------------------
 #P B3LYP/6-311+g(d) force
 -------------------------

 -----
 DPGEN
 -----
 Symbolic Z-matrix:
 Charge =  0 Multiplicity = 2

                         Standard orientation:
 ---------------------------------------------------------------------
 Center     Atomic      Atomic             Coordinates (Angstroms)
 Number     Number       Type             X           Y           Z
 ---------------------------------------------------------------------
      1         11           0       -2.002350    1.898369   -0.028105
      2         11           0        2.157277    2.420938    0.161784
      3         11           0       -0.040047    0.230751   -1.634366
      4         11           0       -0.030342   -0.499580    2.053567
      5         11           0        3.096391   -0.779006   -0.158920
      6         11           0        0.374708   -2.709026   -0.335118
      7         11           0       -3.555637   -0.562445   -0.058842
 ---------------------------------------------------------------------

 SCF Done:  E(UB3LYP) =  -1136.12628837     A.U. after   21 cycles

 The electronic state is 2-A.
 Alpha  occ. eigenvalues --  -38.45231 -38.44620 -38.43829 -38.43673 -38.43565
 Alpha  occ. eigenvalues --  -38.43233 -38.42713  -2.21053  -2.20466  -2.19749
 Alpha  occ. eigenvalues --   -2.19548  -2.19530  -2.19044  -2.18603  -1.14790
 Alpha  occ. eigenvalues --   -1.14696  -1.14671  -1.14140  -1.14128  -1.14105
 Alpha  occ. eigenvalues --   -1.13506  -1.13394  -1.13375  -1.13228  -1.13198
 Alpha  occ. eigenvalues --   -1.13181  -1.13173  -1.13158  -1.13124  -1.12714
 Alpha  occ. eigenvalues --   -1.12706  -1.12689  -1.12292  -1.12262  -1.12231
 Alpha  occ. eigenvalues --   -0.18581  -0.13742  -0.11798  -0.10662
 Alpha virt. eigenvalues --   -0.06612  -0.05098  -0.04081  -0.03525  -0.02709
 Alpha virt. eigenvalues --   -0.02370  -0.02281  -0.01141  -0.00369  -0.00168
 Alpha virt. eigenvalues --   -0.00079   0.00305   0.00696   0.00727   0.00855

  Beta  occ. eigenvalues --  -38.45233 -38.44616 -38.43820 -38.43580 -38.43501
  Beta  occ. eigenvalues --  -38.43232 -38.42702  -2.21058  -2.20461  -2.19736
  Beta  occ. eigenvalues --   -2.19414  -2.19375  -2.19044  -2.18588  -1.14796
  Beta  occ. eigenvalues --   -1.14683  -1.14675  -1.14128  -1.14112  -1.14108
  Beta  occ. eigenvalues --   -1.13483  -1.13388  -1.13343  -1.13137  -1.13099
  Beta  occ. eigenvalues --   -1.13089  -1.13059  -1.13042  -1.13035  -1.12717
  Beta  occ. eigenvalues --   -1.12692  -1.12689  -1.12284  -1.12227  -1.12216
  Beta  occ. eigenvalues --   -0.17848  -0.13546  -0.11580
  Beta virt. eigenvalues --   -0.06744  -0.06526  -0.05096  -0.04053  -0.02745
  Beta virt. eigenvalues --   -0.02173  -0.01919  -0.01384  -0.01080  -0.00410
  Beta virt. eigenvalues --   -0.00184   0.00099   0.00324   0.00755   0.00862

 Mulliken charges and spin densities:
               1          2
     1  Na   0.218381   0.073013
     2  Na  -0.029771  -0.025603
     3  Na  -0.175508   0.385537
     4  Na  -0.562835   0.716432
     5  Na   0.244101  -0.009051
     6  Na   0.139276  -0.069068
     7  Na   0.166355  -0.071261
 Sum of Mulliken charges =  -0.00000   1.00000

 Dipole moment (field-independent basis, Debye):
    X=             -0.4722    Y=             -0.3171    Z=              0.1272  Tot=              0.5828
 Quadrupole moment (field-independent basis, Debye-Ang):
   XX=            -50.0793   YY=            -68.3387   ZZ=            -75.0190
   XY=              1.0301   XZ=              0.0966   YZ=              1.6157

 Normal termination of Gaussian 16 at Thu Dec  7 11:10:00 2023.
