 Gaussian 16, Revision B.01,
 Gaussian 16:  ES64L-G16RevB.01 20-Dec-2017

 -------------------------
 #P B3LYP/6-311+g(d) force
 -------------------------

 -----
 DPGEN
 -----
 Symbolic Z-matrix:
 Charge =  0 Multiplicity = 2

                         Standard orientation:
 ---------------------------------------------------------------------
 Center     Atomic      Atomic             Coordinates (Angstroms)
 Number     Number       Type             X           Y           Z
 ---------------------------------------------------------------------
      1         11           0        0.577014   -0.363055    1.915388
      2         11           0       -0.349595   -2.619276    0.150696
      3         11           0        2.725313   -0.981068   -0.257953
      4         11           0        1.325996    2.494037   -0.188329
      5         11           0        0.067855   -0.141664   -1.829023
      6         11           0       -1.404168    2.217038    0.416010
      7         11           0       -2.942415   -0.606013   -0.206789
 ---------------------------------------------------------------------

 SCF Done:  E(UB3LYP) =  -1136.13117182     A.U. after   19 cycles

 The electronic state is 2-A.
 Alpha  occ. eigenvalues --  -38.43700 -38.43622 -38.43557 -38.43496 -38.43464
 Alpha  occ. eigenvalues --  -38.43428 -38.43422  -2.19685  -2.19531  -2.19486
 Alpha  occ. eigenvalues --   -2.19473  -2.19447  -2.19362  -2.19296  -1.13440
 Alpha  occ. eigenvalues --   -1.13397  -1.13361  -1.13310  -1.13257  -1.13199
 Alpha  occ. eigenvalues --   -1.13174  -1.13159  -1.13141  -1.13111  -1.13101
 Alpha  occ. eigenvalues --   -1.13089  -1.13076  -1.13053  -1.13044  -1.13021
 Alpha  occ. eigenvalues --   -1.12989  -1.12950  -1.12944  -1.12926  -1.12896
 Alpha  occ. eigenvalues --   -0.19498  -0.13107  -0.12859  -0.11323
 Alpha virt. eigenvalues --   -0.05214  -0.04848  -0.04627  -0.03396  -0.03161
 Alpha virt. eigenvalues --   -0.02823  -0.01178  -0.00939  -0.00086   0.00144
 Alpha virt. eigenvalues --    0.00169   0.00373   0.00918   0.00986   0.00989

  Beta  occ. eigenvalues --  -38.43616 -38.43612 -38.43551 -38.43484 -38.43427
  Beta  occ. eigenvalues --  -38.43414 -38.43381  -2.19532  -2.19516  -2.19480
  Beta  occ. eigenvalues --   -2.19430  -2.19350  -2.19322  -2.19296  -1.13394
  Beta  occ. eigenvalues --   -1.13363  -1.13280  -1.13214  -1.13199  -1.13153
  Beta  occ. eigenvalues --   -1.13138  -1.13121  -1.13109  -1.13090  -1.13061
  Beta  occ. eigenvalues --   -1.13037  -1.13037  -1.13012  -1.12976  -1.12965
  Beta  occ. eigenvalues --   -1.12954  -1.12938  -1.12925  -1.12922  -1.12894
  Beta  occ. eigenvalues --   -0.18730  -0.12833  -0.12603
  Beta virt. eigenvalues --   -0.07329  -0.05201  -0.04802  -0.04606  -0.02540
  Beta virt. eigenvalues --   -0.02365  -0.01732  -0.01116  -0.00882   0.00041
  Beta virt. eigenvalues --    0.00094   0.00160   0.00397   0.00923   0.00983

 Mulliken charges and spin densities:
               1          2
     1  Na  -0.487564   0.578852
     2  Na   0.444046  -0.025288
     3  Na   0.363678  -0.106809
     4  Na   0.162970  -0.048178
     5  Na  -0.505784   0.610421
     6  Na   0.061053   0.040495
     7  Na  -0.038399  -0.049492
 Sum of Mulliken charges =  -0.00000   1.00000

 Dipole moment (field-independent basis, Debye):
    X=              0.1954    Y=             -0.1829    Z=              0.0075  Tot=              0.2677
 Quadrupole moment (field-independent basis, Debye-Ang):
   XX=            -60.2825   YY=            -64.1519   ZZ=            -71.3973
   XY=              0.3026   XZ=             -0.9876   YZ=              0.3306

 Normal termination of Gaussian 16 at Sun Dec  3 16:08:29 2023.
