 Gaussian 16, Revision B.01,
 Gaussian 16:  ES64L-G16RevB.01 20-Dec-2017

 -------------------------
 #P B3LYP/6-311+g(d) force
 -------------------------

 -----
 DPGEN
 -----
 Symbolic Z-matrix:
 Charge =  0 Multiplicity = 2

                         Standard orientation:
 ---------------------------------------------------------------------
 Center     Atomic      Atomic             Coordinates (Angstroms)
 Number     Number       Type             X           Y           Z
 ---------------------------------------------------------------------
      1         11           0        2.970394    1.163863   -0.034116
      2         11           0        0.335696    0.159433   -1.623624
      3         11           0       -1.649964   -2.344369   -0.168436
      4         11           0       -3.539748    0.287866    0.070251
      5         11           0        1.984716   -2.453995   -0.134416
      6         11           0        0.383113    0.062199    2.074475
      7         11           0       -0.484207    3.125004   -0.184133
 ---------------------------------------------------------------------

 SCF Done:  E(UB3LYP) =  -1136.13362996     A.U. after   19 cycles

 The electronic state is 2-A.
 Alpha  occ. eigenvalues --  -38.44499 -38.44428 -38.43853 -38.43650 -38.43621
 Alpha  occ. eigenvalues --  -38.43384 -38.43210  -2.20329  -2.20201  -2.19637
 Alpha  occ. eigenvalues --   -2.19486  -2.19477  -2.19230  -2.19161  -1.14022
 Alpha  occ. eigenvalues --   -1.13997  -1.13946  -1.13879  -1.13870  -1.13837
 Alpha  occ. eigenvalues --   -1.13327  -1.13301  -1.13266  -1.13160  -1.13153
 Alpha  occ. eigenvalues --   -1.13136  -1.13121  -1.13111  -1.13096  -1.12921
 Alpha  occ. eigenvalues --   -1.12897  -1.12861  -1.12841  -1.12800  -1.12775
 Alpha  occ. eigenvalues --   -0.18208  -0.12952  -0.12274  -0.10498
 Alpha virt. eigenvalues --   -0.06173  -0.05298  -0.04732  -0.03060  -0.02752
 Alpha virt. eigenvalues --   -0.02498  -0.01758  -0.01346  -0.00796  -0.00405
 Alpha virt. eigenvalues --   -0.00034   0.00324   0.00738   0.00777   0.00828

  Beta  occ. eigenvalues --  -38.44491 -38.44432 -38.43850 -38.43645 -38.43523
  Beta  occ. eigenvalues --  -38.43380 -38.43147  -2.20319  -2.20210  -2.19634
  Beta  occ. eigenvalues --   -2.19472  -2.19303  -2.19225  -2.19047  -1.14010
  Beta  occ. eigenvalues --   -1.13964  -1.13944  -1.13887  -1.13867  -1.13843
  Beta  occ. eigenvalues --   -1.13317  -1.13290  -1.13267  -1.13148  -1.13124
  Beta  occ. eigenvalues --   -1.13113  -1.13027  -1.12982  -1.12972  -1.12913
  Beta  occ. eigenvalues --   -1.12875  -1.12862  -1.12763  -1.12719  -1.12691
  Beta  occ. eigenvalues --   -0.17485  -0.12782  -0.12052
  Beta virt. eigenvalues --   -0.06573  -0.06119  -0.05280  -0.04688  -0.02347
  Beta virt. eigenvalues --   -0.02019  -0.01687  -0.01415  -0.01273  -0.00847
  Beta virt. eigenvalues --   -0.00445   0.00128   0.00364   0.00754   0.00826

 Mulliken charges and spin densities:
               1          2
     1  Na   0.324911  -0.078794
     2  Na   0.011813   0.538009
     3  Na   0.006742  -0.062215
     4  Na  -0.086531  -0.064496
     5  Na   0.236547  -0.031303
     6  Na  -0.435443   0.834671
     7  Na  -0.058039  -0.135871
 Sum of Mulliken charges =  -0.00000   1.00000

 Dipole moment (field-independent basis, Debye):
    X=              0.2076    Y=              0.3053    Z=              0.1063  Tot=              0.3842
 Quadrupole moment (field-independent basis, Debye-Ang):
   XX=            -54.3283   YY=            -62.2572   ZZ=            -76.2552
   XY=             -1.3330   XZ=             -0.4136   YZ=              0.3336

 Normal termination of Gaussian 16 at Thu Dec  7 08:00:19 2023.
