 Gaussian 16, Revision B.01,
 Gaussian 16:  ES64L-G16RevB.01 20-Dec-2017

 -------------------------
 #P B3LYP/6-311+g(d) force
 -------------------------

 -----
 DPGEN
 -----
 Symbolic Z-matrix:
 Charge =  0 Multiplicity = 2

                         Standard orientation:
 ---------------------------------------------------------------------
 Center     Atomic      Atomic             Coordinates (Angstroms)
 Number     Number       Type             X           Y           Z
 ---------------------------------------------------------------------
      1         11           0       -0.844829    1.834357   -0.619593
      2         11           0       -0.677024   -1.226047   -1.542466
      3         11           0       -3.352607   -0.106650    0.077679
      4         11           0       -0.655100   -0.710981    1.717669
      5         11           0        1.515977    1.597300    1.462268
      6         11           0        1.907078   -1.998978    0.456464
      7         11           0        2.106505    0.610999   -1.552022
 ---------------------------------------------------------------------

 SCF Done:  E(UB3LYP) =  -1136.12896044     A.U. after   21 cycles

 The electronic state is 2-A.
 Alpha  occ. eigenvalues --  -38.44069 -38.43969 -38.43748 -38.43567 -38.43418
 Alpha  occ. eigenvalues --  -38.42774 -38.42597  -2.19954  -2.19914  -2.19774
 Alpha  occ. eigenvalues --   -2.19558  -2.19363  -2.18688  -2.18595  -1.13650
 Alpha  occ. eigenvalues --   -1.13620  -1.13613  -1.13594  -1.13576  -1.13521
 Alpha  occ. eigenvalues --   -1.13480  -1.13418  -1.13388  -1.13263  -1.13193
 Alpha  occ. eigenvalues --   -1.13158  -1.13054  -1.12995  -1.12975  -1.12377
 Alpha  occ. eigenvalues --   -1.12345  -1.12314  -1.12305  -1.12268  -1.12191
 Alpha  occ. eigenvalues --   -0.19785  -0.13552  -0.12441  -0.11560
 Alpha virt. eigenvalues --   -0.05636  -0.04382  -0.04119  -0.03551  -0.03149
 Alpha virt. eigenvalues --   -0.02995  -0.01545  -0.00537  -0.00415   0.00317
 Alpha virt. eigenvalues --    0.00445   0.00607   0.00701   0.00976   0.01013

  Beta  occ. eigenvalues --  -38.44068 -38.43925 -38.43678 -38.43517 -38.43377
  Beta  occ. eigenvalues --  -38.42767 -38.42580  -2.19954  -2.19835  -2.19648
  Beta  occ. eigenvalues --   -2.19469  -2.19290  -2.18679  -2.18568  -1.13640
  Beta  occ. eigenvalues --   -1.13611  -1.13596  -1.13548  -1.13518  -1.13467
  Beta  occ. eigenvalues --   -1.13401  -1.13317  -1.13303  -1.13202  -1.13112
  Beta  occ. eigenvalues --   -1.13093  -1.12999  -1.12942  -1.12916  -1.12365
  Beta  occ. eigenvalues --   -1.12330  -1.12299  -1.12288  -1.12211  -1.12179
  Beta  occ. eigenvalues --   -0.18919  -0.13362  -0.11369
  Beta virt. eigenvalues --   -0.08175  -0.05511  -0.04117  -0.03713  -0.03165
  Beta virt. eigenvalues --   -0.02440  -0.02141  -0.01469  -0.00402  -0.00192
  Beta virt. eigenvalues --    0.00344   0.00528   0.00671   0.00800   0.01001

 Mulliken charges and spin densities:
               1          2
     1  Na  -0.378541   0.184394
     2  Na  -0.228110   0.341498
     3  Na   0.567632  -0.079066
     4  Na  -0.196129   0.452370
     5  Na   0.140140   0.030726
     6  Na  -0.064356  -0.084566
     7  Na   0.159364   0.154644
 Sum of Mulliken charges =  -0.00000   1.00000

 Dipole moment (field-independent basis, Debye):
    X=             -0.3540    Y=             -0.0400    Z=             -0.0780  Tot=              0.3647
 Quadrupole moment (field-independent basis, Debye-Ang):
   XX=            -55.1660   YY=            -75.9066   ZZ=            -63.8996
   XY=              0.3259   XZ=             -0.4615   YZ=              0.3497

 Normal termination of Gaussian 16 at Tue Dec  5 11:06:44 2023.
