 Gaussian 16, Revision B.01,
 Gaussian 16:  ES64L-G16RevB.01 20-Dec-2017

 -------------------------
 #P B3LYP/6-311+g(d) force
 -------------------------

 -----
 DPGEN
 -----
 Symbolic Z-matrix:
 Charge =  0 Multiplicity = 2

                         Standard orientation:
 ---------------------------------------------------------------------
 Center     Atomic      Atomic             Coordinates (Angstroms)
 Number     Number       Type             X           Y           Z
 ---------------------------------------------------------------------
      1         11           0       -0.339219   -0.299820   -1.203679
      2         11           0        2.302322    2.115672    0.539634
      3         11           0       -4.306902   -0.183060   -0.916338
      4         11           0        3.602499   -1.176745   -1.522443
      5         11           0       -1.872836   -1.641636    1.282105
      6         11           0        1.633900   -1.276484    1.562059
      7         11           0       -1.019763    2.462073    0.258661
 ---------------------------------------------------------------------

 SCF Done:  E(UB3LYP) =  -1136.12217904     A.U. after   22 cycles

 The electronic state is 2-A.
 Alpha  occ. eigenvalues --  -38.45074 -38.44958 -38.44007 -38.43921 -38.43747
 Alpha  occ. eigenvalues --  -38.43687 -38.42940  -2.20951  -2.20733  -2.19803
 Alpha  occ. eigenvalues --   -2.19731  -2.19604  -2.19536  -2.18774  -1.14686
 Alpha  occ. eigenvalues --   -1.14623  -1.14550  -1.14402  -1.14382  -1.14341
 Alpha  occ. eigenvalues --   -1.13461  -1.13448  -1.13424  -1.13414  -1.13386
 Alpha  occ. eigenvalues --   -1.13358  -1.13307  -1.13266  -1.13226  -1.13203
 Alpha  occ. eigenvalues --   -1.13194  -1.13154  -1.12485  -1.12440  -1.12381
 Alpha  occ. eigenvalues --   -0.17778  -0.13774  -0.11483  -0.10831
 Alpha virt. eigenvalues --   -0.06891  -0.05104  -0.04886  -0.03263  -0.02844
 Alpha virt. eigenvalues --   -0.02402  -0.02083  -0.01207  -0.01188  -0.00351
 Alpha virt. eigenvalues --   -0.00052   0.00095   0.00278   0.00476   0.00729

  Beta  occ. eigenvalues --  -38.45072 -38.44913 -38.43933 -38.43919 -38.43709
  Beta  occ. eigenvalues --  -38.43657 -38.42944  -2.20948  -2.20647  -2.19729
  Beta  occ. eigenvalues --   -2.19664  -2.19540  -2.19484  -2.18784  -1.14659
  Beta  occ. eigenvalues --   -1.14627  -1.14553  -1.14342  -1.14324  -1.14287
  Beta  occ. eigenvalues --   -1.13417  -1.13386  -1.13365  -1.13357  -1.13350
  Beta  occ. eigenvalues --   -1.13326  -1.13265  -1.13223  -1.13185  -1.13164
  Beta  occ. eigenvalues --   -1.13137  -1.13086  -1.12493  -1.12441  -1.12385
  Beta  occ. eigenvalues --   -0.17265  -0.13340  -0.11150
  Beta virt. eigenvalues --   -0.07308  -0.06632  -0.04868  -0.04441  -0.03090
  Beta virt. eigenvalues --   -0.02609  -0.01958  -0.01502  -0.01071  -0.00752
  Beta virt. eigenvalues --   -0.00236   0.00059   0.00237   0.00405   0.00615

 Mulliken charges and spin densities:
               1          2
     1  Na  -1.162159  -0.028218
     2  Na   0.141755   0.062300
     3  Na   0.624277   0.279729
     4  Na   0.290861   0.440757
     5  Na   0.030767   0.120637
     6  Na   0.079588   0.133033
     7  Na  -0.005088  -0.008238
 Sum of Mulliken charges =  -0.00000   1.00000

 Dipole moment (field-independent basis, Debye):
    X=             -0.7452    Y=              0.0313    Z=              0.1533  Tot=              0.7615
 Quadrupole moment (field-independent basis, Debye-Ang):
   XX=            -52.5243   YY=            -77.0731   ZZ=            -66.8926
   XY=              1.5068   XZ=              2.1052   YZ=              0.9816

 Normal termination of Gaussian 16 at Tue Dec  5 20:51:33 2023.
