 Gaussian 16, Revision B.01,
 Gaussian 16:  ES64L-G16RevB.01 20-Dec-2017

 -------------------------
 #P B3LYP/6-311+g(d) force
 -------------------------

 -----
 DPGEN
 -----
 Symbolic Z-matrix:
 Charge =  0 Multiplicity = 2

                         Standard orientation:
 ---------------------------------------------------------------------
 Center     Atomic      Atomic             Coordinates (Angstroms)
 Number     Number       Type             X           Y           Z
 ---------------------------------------------------------------------
      1         11           0       -2.318812   -1.196682   -1.609064
      2         11           0        1.754226    1.730924   -0.757735
      3         11           0        5.012977    0.213778    0.647535
      4         11           0        1.938732   -2.124817   -0.544267
      5         11           0       -0.459661   -0.775994    1.600330
      6         11           0       -1.469432    2.167233   -0.301341
      7         11           0       -4.458030   -0.014442    0.964543
 ---------------------------------------------------------------------

 SCF Done:  E(UB3LYP) =  -1136.11159549     A.U. after   32 cycles

 The electronic state is 2-A.
 Alpha  occ. eigenvalues --  -38.46109 -38.45774 -38.44751 -38.44702 -38.43531
 Alpha  occ. eigenvalues --  -38.42907 -38.42303  -2.21872  -2.21569  -2.20552
 Alpha  occ. eigenvalues --   -2.20482  -2.19310  -2.18716  -2.18158  -1.15552
 Alpha  occ. eigenvalues --   -1.15527  -1.15508  -1.15242  -1.15211  -1.15207
 Alpha  occ. eigenvalues --   -1.14216  -1.14190  -1.14163  -1.14130  -1.14118
 Alpha  occ. eigenvalues --   -1.14083  -1.13002  -1.12988  -1.12931  -1.12415
 Alpha  occ. eigenvalues --   -1.12397  -1.12345  -1.11851  -1.11838  -1.11769
 Alpha  occ. eigenvalues --   -0.17304  -0.14033  -0.10983  -0.10756
 Alpha virt. eigenvalues --   -0.07460  -0.05596  -0.04837  -0.03246  -0.02940
 Alpha virt. eigenvalues --   -0.02141  -0.01964  -0.01724  -0.01614  -0.00785
 Alpha virt. eigenvalues --   -0.00415   0.00111   0.00200   0.00366   0.00591

  Beta  occ. eigenvalues --  -38.46108 -38.45755 -38.44684 -38.44594 -38.43530
  Beta  occ. eigenvalues --  -38.42911 -38.42295  -2.21873  -2.21537  -2.20426
  Beta  occ. eigenvalues --   -2.20281  -2.19311  -2.18727  -2.18147  -1.15553
  Beta  occ. eigenvalues --   -1.15533  -1.15487  -1.15212  -1.15192  -1.15183
  Beta  occ. eigenvalues --   -1.14128  -1.14103  -1.14082  -1.13992  -1.13980
  Beta  occ. eigenvalues --   -1.13951  -1.13007  -1.12987  -1.12913  -1.12424
  Beta  occ. eigenvalues --   -1.12397  -1.12341  -1.11845  -1.11825  -1.11757
  Beta  occ. eigenvalues --   -0.16868  -0.13231  -0.10561
  Beta virt. eigenvalues --   -0.07506  -0.07357  -0.05013  -0.04528  -0.03017
  Beta virt. eigenvalues --   -0.02821  -0.01891  -0.01636  -0.01414  -0.01123
  Beta virt. eigenvalues --   -0.00337  -0.00252   0.00196   0.00281   0.00488

 Mulliken charges and spin densities:
               1          2
     1  Na   0.163761   0.111025
     2  Na  -0.269249   0.065101
     3  Na   0.273113   0.573608
     4  Na   0.050166   0.063904
     5  Na  -0.146203  -0.127832
     6  Na  -0.461014  -0.072438
     7  Na   0.389425   0.386632
 Sum of Mulliken charges =  -0.00000   1.00000

 Dipole moment (field-independent basis, Debye):
    X=             -1.2990    Y=             -0.9238    Z=              0.3140  Tot=              1.6247
 Quadrupole moment (field-independent basis, Debye-Ang):
   XX=            -61.6673   YY=            -82.9661   ZZ=            -58.0850
   XY=             -0.9203   XZ=              0.4775   YZ=              3.7376

 Normal termination of Gaussian 16 at Fri Dec  8 17:33:22 2023.
