 Gaussian 16, Revision B.01,
 Gaussian 16:  ES64L-G16RevB.01 20-Dec-2017

 -------------------------
 #P B3LYP/6-311+g(d) force
 -------------------------

 -----
 DPGEN
 -----
 Symbolic Z-matrix:
 Charge =  0 Multiplicity = 2

                         Standard orientation:
 ---------------------------------------------------------------------
 Center     Atomic      Atomic             Coordinates (Angstroms)
 Number     Number       Type             X           Y           Z
 ---------------------------------------------------------------------
      1         11           0       -0.535945    1.808820    0.274216
      2         11           0        2.698602    3.514428   -0.314121
      3         11           0        2.571074    0.308707    0.697848
      4         11           0        3.264979   -2.896677   -0.990540
      5         11           0        0.301786   -2.378436    1.213628
      6         11           0       -2.760933   -0.399370   -1.012103
      7         11           0       -5.539563    0.042529    0.131072
 ---------------------------------------------------------------------

 SCF Done:  E(UB3LYP) =  -1136.11897751     A.U. after   20 cycles

 The electronic state is 2-A.
 Alpha  occ. eigenvalues --  -38.44584 -38.44379 -38.44327 -38.44099 -38.43967
 Alpha  occ. eigenvalues --  -38.43743 -38.43634  -2.20361  -2.20155  -2.20147
 Alpha  occ. eigenvalues --   -2.19927  -2.19820  -2.19543  -2.19477  -1.14057
 Alpha  occ. eigenvalues --   -1.14022  -1.13970  -1.13846  -1.13829  -1.13820
 Alpha  occ. eigenvalues --   -1.13814  -1.13760  -1.13740  -1.13613  -1.13556
 Alpha  occ. eigenvalues --   -1.13551  -1.13537  -1.13520  -1.13410  -1.13206
 Alpha  occ. eigenvalues --   -1.13205  -1.13159  -1.13157  -1.13136  -1.13114
 Alpha  occ. eigenvalues --   -0.16618  -0.13730  -0.12502  -0.10361
 Alpha virt. eigenvalues --   -0.06483  -0.05521  -0.04761  -0.03274  -0.03040
 Alpha virt. eigenvalues --   -0.02595  -0.01613  -0.01364  -0.01204  -0.00703
 Alpha virt. eigenvalues --   -0.00634  -0.00068   0.00308   0.00394   0.00457

  Beta  occ. eigenvalues --  -38.44565 -38.44333 -38.44301 -38.44020 -38.43958
  Beta  occ. eigenvalues --  -38.43723 -38.43636  -2.20326  -2.20099  -2.20069
  Beta  occ. eigenvalues --   -2.19807  -2.19779  -2.19507  -2.19488  -1.14035
  Beta  occ. eigenvalues --   -1.13997  -1.13935  -1.13816  -1.13791  -1.13761
  Beta  occ. eigenvalues --   -1.13752  -1.13707  -1.13706  -1.13522  -1.13521
  Beta  occ. eigenvalues --   -1.13491  -1.13454  -1.13450  -1.13405  -1.13180
  Beta  occ. eigenvalues --   -1.13177  -1.13164  -1.13147  -1.13138  -1.13075
  Beta  occ. eigenvalues --   -0.16079  -0.13091  -0.12304
  Beta virt. eigenvalues --   -0.07165  -0.05894  -0.05251  -0.04507  -0.02965
  Beta virt. eigenvalues --   -0.02795  -0.02406  -0.01449  -0.01136  -0.00878
  Beta virt. eigenvalues --   -0.00437  -0.00265   0.00145   0.00435   0.00494

 Mulliken charges and spin densities:
               1          2
     1  Na  -0.689639  -0.097703
     2  Na   0.710258   0.140808
     3  Na  -0.301674   0.278127
     4  Na   0.228444   0.260021
     5  Na  -0.048081   0.054607
     6  Na  -0.139997  -0.037565
     7  Na   0.240687   0.401704
 Sum of Mulliken charges =  -0.00000   1.00000

 Dipole moment (field-independent basis, Debye):
    X=              0.4199    Y=             -0.2112    Z=              0.0979  Tot=              0.4801
 Quadrupole moment (field-independent basis, Debye-Ang):
   XX=            -70.0663   YY=            -62.7275   ZZ=            -67.0797
   XY=              0.4289   XZ=             -5.8668   YZ=             -0.0098

 Normal termination of Gaussian 16 at Wed Nov 29 04:07:18 2023.
