 Gaussian 16, Revision B.01,
 Gaussian 16:  ES64L-G16RevB.01 20-Dec-2017

 -------------------------
 #P B3LYP/6-311+g(d) force
 -------------------------

 -----
 DPGEN
 -----
 Symbolic Z-matrix:
 Charge =  0 Multiplicity = 2

                         Standard orientation:
 ---------------------------------------------------------------------
 Center     Atomic      Atomic             Coordinates (Angstroms)
 Number     Number       Type             X           Y           Z
 ---------------------------------------------------------------------
      1         11           0        0.796203    2.847288    0.189062
      2         11           0       -1.120748   -0.320256    2.142284
      3         11           0        3.440532    0.469870    0.006848
      4         11           0        0.198672   -0.205566   -1.942111
      5         11           0       -1.965551   -2.139234   -0.662461
      6         11           0        1.364791   -2.494972    0.498576
      7         11           0       -2.713899    1.842871   -0.232197
 ---------------------------------------------------------------------

 SCF Done:  E(UB3LYP) =  -1136.13516250     A.U. after   19 cycles

 The electronic state is 2-A.
 Alpha  occ. eigenvalues --  -38.44033 -38.43964 -38.43881 -38.43828 -38.43752
 Alpha  occ. eigenvalues --  -38.43732 -38.43691  -2.19878  -2.19772  -2.19749
 Alpha  occ. eigenvalues --   -2.19613  -2.19600  -2.19538  -2.19518  -1.13534
 Alpha  occ. eigenvalues --   -1.13531  -1.13495  -1.13481  -1.13423  -1.13416
 Alpha  occ. eigenvalues --   -1.13406  -1.13397  -1.13391  -1.13288  -1.13271
 Alpha  occ. eigenvalues --   -1.13267  -1.13262  -1.13250  -1.13225  -1.13223
 Alpha  occ. eigenvalues --   -1.13209  -1.13194  -1.13182  -1.13156  -1.13138
 Alpha  occ. eigenvalues --   -0.17985  -0.12678  -0.12423  -0.11051
 Alpha virt. eigenvalues --   -0.05578  -0.05391  -0.04811  -0.03299  -0.03167
 Alpha virt. eigenvalues --   -0.02839  -0.01378  -0.01168  -0.00547  -0.00362
 Alpha virt. eigenvalues --   -0.00098   0.00378   0.00769   0.00819   0.00843

  Beta  occ. eigenvalues --  -38.43964 -38.43952 -38.43830 -38.43804 -38.43751
  Beta  occ. eigenvalues --  -38.43713 -38.43679  -2.19752  -2.19726  -2.19632
  Beta  occ. eigenvalues --   -2.19616  -2.19570  -2.19539  -2.19500  -1.13443
  Beta  occ. eigenvalues --   -1.13428  -1.13415  -1.13409  -1.13400  -1.13395
  Beta  occ. eigenvalues --   -1.13368  -1.13316  -1.13301  -1.13285  -1.13272
  Beta  occ. eigenvalues --   -1.13266  -1.13229  -1.13212  -1.13211  -1.13209
  Beta  occ. eigenvalues --   -1.13193  -1.13177  -1.13159  -1.13151  -1.13128
  Beta  occ. eigenvalues --   -0.17250  -0.12503  -0.12237
  Beta virt. eigenvalues --   -0.07124  -0.05552  -0.05337  -0.04584  -0.02668
  Beta virt. eigenvalues --   -0.02437  -0.01855  -0.01329  -0.01090  -0.00534
  Beta virt. eigenvalues --   -0.00387   0.00083   0.00427   0.00833   0.00849

 Mulliken charges and spin densities:
               1          2
     1  Na  -0.178334  -0.075530
     2  Na  -0.214350   0.583136
     3  Na   0.006247  -0.066970
     4  Na   0.010983   0.566292
     5  Na   0.410650  -0.001146
     6  Na  -0.072037   0.076727
     7  Na   0.036840  -0.082509
 Sum of Mulliken charges =  -0.00000   1.00000

 Dipole moment (field-independent basis, Debye):
    X=             -0.1593    Y=             -0.0286    Z=              0.0775  Tot=              0.1795
 Quadrupole moment (field-independent basis, Debye-Ang):
   XX=            -59.0879   YY=            -64.8290   ZZ=            -71.7836
   XY=             -0.3894   XZ=              2.0034   YZ=             -0.1291

 Normal termination of Gaussian 16 at Sun Dec  3 20:41:50 2023.
