 Gaussian 16, Revision B.01,
 Gaussian 16:  ES64L-G16RevB.01 20-Dec-2017

 -------------------------
 #P B3LYP/6-311+g(d) force
 -------------------------

 -----
 DPGEN
 -----
 Symbolic Z-matrix:
 Charge =  0 Multiplicity = 2

                         Standard orientation:
 ---------------------------------------------------------------------
 Center     Atomic      Atomic             Coordinates (Angstroms)
 Number     Number       Type             X           Y           Z
 ---------------------------------------------------------------------
      1         11           0       -3.994553   -0.720957    0.351718
      2         11           0        2.221813    0.629828    1.882753
      3         11           0       -0.543673   -0.435756   -1.654241
      4         11           0        2.379437   -2.418760   -0.691981
      5         11           0        2.377119    1.893709   -0.795271
      6         11           0       -1.865062    2.060112   -0.295398
      7         11           0       -0.575081   -1.008177    1.202421
 ---------------------------------------------------------------------

 SCF Done:  E(UB3LYP) =  -1136.11695562     A.U. after   24 cycles

 The electronic state is 2-A.
 Alpha  occ. eigenvalues --  -38.45419 -38.44033 -38.43916 -38.43888 -38.43871
 Alpha  occ. eigenvalues --  -38.43760 -38.43497  -2.21206  -2.19880  -2.19871
 Alpha  occ. eigenvalues --   -2.19779  -2.19697  -2.19691  -2.19280  -1.14876
 Alpha  occ. eigenvalues --   -1.14866  -1.14822  -1.13740  -1.13632  -1.13581
 Alpha  occ. eigenvalues --   -1.13547  -1.13489  -1.13465  -1.13460  -1.13431
 Alpha  occ. eigenvalues --   -1.13381  -1.13360  -1.13340  -1.13324  -1.13317
 Alpha  occ. eigenvalues --   -1.13289  -1.13255  -1.12951  -1.12940  -1.12909
 Alpha  occ. eigenvalues --   -0.18344  -0.13892  -0.11105  -0.10997
 Alpha virt. eigenvalues --   -0.06815  -0.05392  -0.04383  -0.02999  -0.02836
 Alpha virt. eigenvalues --   -0.02456  -0.02239  -0.01396  -0.00683  -0.00177
 Alpha virt. eigenvalues --    0.00125   0.00139   0.00429   0.00575   0.00735

  Beta  occ. eigenvalues --  -38.45401 -38.44019 -38.43880 -38.43848 -38.43828
  Beta  occ. eigenvalues --  -38.43731 -38.43485  -2.21174  -2.19853  -2.19754
  Beta  occ. eigenvalues --   -2.19713  -2.19663  -2.19646  -2.19258  -1.14847
  Beta  occ. eigenvalues --   -1.14842  -1.14803  -1.13676  -1.13587  -1.13548
  Beta  occ. eigenvalues --   -1.13523  -1.13450  -1.13405  -1.13383  -1.13353
  Beta  occ. eigenvalues --   -1.13347  -1.13329  -1.13311  -1.13293  -1.13266
  Beta  occ. eigenvalues --   -1.13253  -1.13221  -1.12933  -1.12916  -1.12898
  Beta  occ. eigenvalues --   -0.17662  -0.13639  -0.10836
  Beta virt. eigenvalues --   -0.07310  -0.06506  -0.05334  -0.03739  -0.02888
  Beta virt. eigenvalues --   -0.02517  -0.01941  -0.01565  -0.01235  -0.00343
  Beta virt. eigenvalues --   -0.00097   0.00133   0.00206   0.00567   0.00647

 Mulliken charges and spin densities:
               1          2
     1  Na   0.486239   0.048131
     2  Na   0.230087   0.149668
     3  Na  -0.124776   0.725164
     4  Na  -0.137959   0.000908
     5  Na  -0.024430  -0.126914
     6  Na  -0.070395  -0.058352
     7  Na  -0.358767   0.261395
 Sum of Mulliken charges =  -0.00000   1.00000

 Dipole moment (field-independent basis, Debye):
    X=             -1.4135    Y=             -0.1454    Z=             -0.1512  Tot=              1.4290
 Quadrupole moment (field-independent basis, Debye-Ang):
   XX=            -47.2814   YY=            -74.5815   ZZ=            -70.5451
   XY=             -0.4222   XZ=             -2.0096   YZ=             -0.2912

 Normal termination of Gaussian 16 at Thu Dec  7 05:45:46 2023.
