 Gaussian 16, Revision B.01,
 Gaussian 16:  ES64L-G16RevB.01 20-Dec-2017

 -------------------------
 #P B3LYP/6-311+g(d) force
 -------------------------

 -----
 DPGEN
 -----
 Symbolic Z-matrix:
 Charge =  0 Multiplicity = 2

                         Standard orientation:
 ---------------------------------------------------------------------
 Center     Atomic      Atomic             Coordinates (Angstroms)
 Number     Number       Type             X           Y           Z
 ---------------------------------------------------------------------
      1         11           0       -1.401601    3.079153   -0.142182
      2         11           0       -0.634318    0.461704    0.124487
      3         11           0       -3.284542   -0.529592    0.098250
      4         11           0       -1.092537   -2.829627   -0.207753
      5         11           0        2.085407   -1.972490   -0.009082
      6         11           0        2.254225    0.984327   -1.593550
      7         11           0        2.073365    0.806525    1.729830
 ---------------------------------------------------------------------

 SCF Done:  E(UB3LYP) =  -1136.11577462     A.U. after   22 cycles

 The electronic state is 2-A.
 Alpha  occ. eigenvalues --  -38.44771 -38.44706 -38.43982 -38.43728 -38.43592
 Alpha  occ. eigenvalues --  -38.43527 -38.42859  -2.20649  -2.20541  -2.19870
 Alpha  occ. eigenvalues --   -2.19611  -2.19459  -2.19446  -2.19040  -1.14425
 Alpha  occ. eigenvalues --   -1.14355  -1.14287  -1.14248  -1.14168  -1.14131
 Alpha  occ. eigenvalues --   -1.13549  -1.13540  -1.13532  -1.13277  -1.13265
 Alpha  occ. eigenvalues --   -1.13226  -1.13140  -1.13135  -1.13109  -1.13105
 Alpha  occ. eigenvalues --   -1.13062  -1.13055  -1.12700  -1.12697  -1.12677
 Alpha  occ. eigenvalues --   -0.18593  -0.13796  -0.12698  -0.10022
 Alpha virt. eigenvalues --   -0.06314  -0.05425  -0.04869  -0.03180  -0.02412
 Alpha virt. eigenvalues --   -0.02019  -0.01514  -0.01382  -0.00581  -0.00509
 Alpha virt. eigenvalues --   -0.00120   0.00340   0.00646   0.00714   0.00791

  Beta  occ. eigenvalues --  -38.44773 -38.44707 -38.43970 -38.43661 -38.43591
  Beta  occ. eigenvalues --  -38.43451 -38.42840  -2.20653  -2.20544  -2.19853
  Beta  occ. eigenvalues --   -2.19487  -2.19459  -2.19308  -2.19012  -1.14428
  Beta  occ. eigenvalues --   -1.14358  -1.14285  -1.14255  -1.14159  -1.14135
  Beta  occ. eigenvalues --   -1.13543  -1.13529  -1.13480  -1.13195  -1.13172
  Beta  occ. eigenvalues --   -1.13140  -1.13138  -1.13111  -1.13096  -1.13042
  Beta  occ. eigenvalues --   -1.12962  -1.12957  -1.12687  -1.12682  -1.12602
  Beta  occ. eigenvalues --   -0.18014  -0.13556  -0.12555
  Beta virt. eigenvalues --   -0.06277  -0.06032  -0.05279  -0.04714  -0.02642
  Beta virt. eigenvalues --   -0.01868  -0.01622  -0.01432  -0.00860  -0.00585
  Beta virt. eigenvalues --   -0.00361   0.00214   0.00435   0.00707   0.00803

 Mulliken charges and spin densities:
               1          2
     1  Na   0.487901   0.097669
     2  Na  -3.338302   0.533740
     3  Na   0.230870  -0.279068
     4  Na   0.832538  -0.192906
     5  Na   1.021416   0.464720
     6  Na   0.037939   0.236938
     7  Na   0.727639   0.138907
 Sum of Mulliken charges =  -0.00000   1.00000

 Dipole moment (field-independent basis, Debye):
    X=             -0.7124    Y=              0.1527    Z=             -0.0309  Tot=              0.7292
 Quadrupole moment (field-independent basis, Debye-Ang):
   XX=            -56.3613   YY=            -58.6362   ZZ=            -77.0066
   XY=             -1.3027   XZ=              0.1451   YZ=             -0.0461

 Normal termination of Gaussian 16 at Sat Dec  9 06:02:37 2023.
