 Gaussian 16, Revision B.01,
 Gaussian 16:  ES64L-G16RevB.01 20-Dec-2017

 -------------------------
 #P B3LYP/6-311+g(d) force
 -------------------------

 -----
 DPGEN
 -----
 Symbolic Z-matrix:
 Charge =  0 Multiplicity = 2

                         Standard orientation:
 ---------------------------------------------------------------------
 Center     Atomic      Atomic             Coordinates (Angstroms)
 Number     Number       Type             X           Y           Z
 ---------------------------------------------------------------------
      1         11           0        3.086944   -1.634003    0.341906
      2         11           0       -2.904502   -1.969635    0.363434
      3         11           0        0.299615   -0.590857    1.781106
      4         11           0       -0.580315    2.675021    1.347769
      5         11           0        0.427126   -1.404461   -1.463814
      6         11           0        1.819777    1.999543   -1.063214
      7         11           0       -2.148645    0.924392   -1.307186
 ---------------------------------------------------------------------

 SCF Done:  E(UB3LYP) =  -1136.13342603     A.U. after   19 cycles

 The electronic state is 2-A.
 Alpha  occ. eigenvalues --  -38.44158 -38.43931 -38.43830 -38.43704 -38.43663
 Alpha  occ. eigenvalues --  -38.43572 -38.43248  -2.19956  -2.19774  -2.19620
 Alpha  occ. eigenvalues --   -2.19575  -2.19542  -2.19484  -2.19090  -1.13636
 Alpha  occ. eigenvalues --   -1.13616  -1.13579  -1.13473  -1.13441  -1.13389
 Alpha  occ. eigenvalues --   -1.13298  -1.13289  -1.13282  -1.13257  -1.13246
 Alpha  occ. eigenvalues --   -1.13235  -1.13208  -1.13178  -1.13165  -1.13156
 Alpha  occ. eigenvalues --   -1.13128  -1.13064  -1.12764  -1.12740  -1.12715
 Alpha  occ. eigenvalues --   -0.18195  -0.12784  -0.12119  -0.11281
 Alpha virt. eigenvalues --   -0.05562  -0.05346  -0.04275  -0.03392  -0.03200
 Alpha virt. eigenvalues --   -0.02834  -0.01546  -0.01238  -0.00484   0.00083
 Alpha virt. eigenvalues --    0.00278   0.00371   0.00471   0.00706   0.00806

  Beta  occ. eigenvalues --  -38.44135 -38.43906 -38.43831 -38.43703 -38.43589
  Beta  occ. eigenvalues --  -38.43533 -38.43220  -2.19915  -2.19730  -2.19624
  Beta  occ. eigenvalues --   -2.19541  -2.19439  -2.19416  -2.19041  -1.13597
  Beta  occ. eigenvalues --   -1.13584  -1.13553  -1.13433  -1.13404  -1.13365
  Beta  occ. eigenvalues --   -1.13285  -1.13280  -1.13255  -1.13253  -1.13217
  Beta  occ. eigenvalues --   -1.13184  -1.13172  -1.13124  -1.13104  -1.13083
  Beta  occ. eigenvalues --   -1.13058  -1.13022  -1.12720  -1.12709  -1.12677
  Beta  occ. eigenvalues --   -0.17426  -0.12615  -0.11951
  Beta virt. eigenvalues --   -0.07365  -0.05413  -0.05202  -0.03997  -0.02910
  Beta virt. eigenvalues --   -0.02642  -0.01898  -0.01467  -0.01084  -0.00223
  Beta virt. eigenvalues --    0.00084   0.00330   0.00402   0.00606   0.00735

 Mulliken charges and spin densities:
               1          2
     1  Na   0.528199  -0.077492
     2  Na   0.056519  -0.146884
     3  Na  -0.294768   0.566259
     4  Na   0.167605  -0.040397
     5  Na  -0.300971   0.435367
     6  Na  -0.332029   0.057915
     7  Na   0.175445   0.205231
 Sum of Mulliken charges =  -0.00000   1.00000

 Dipole moment (field-independent basis, Debye):
    X=              0.1773    Y=             -0.1043    Z=             -0.1367  Tot=              0.2470
 Quadrupole moment (field-independent basis, Debye-Ang):
   XX=            -58.0043   YY=            -67.0154   ZZ=            -68.9949
   XY=              0.2114   XZ=             -1.2345   YZ=             -1.5083

 Normal termination of Gaussian 16 at Sun Dec  3 15:26:32 2023.
