 Gaussian 16, Revision B.01,
 Gaussian 16:  ES64L-G16RevB.01 20-Dec-2017

 -------------------------
 #P B3LYP/6-311+g(d) force
 -------------------------

 -----
 DPGEN
 -----
 Symbolic Z-matrix:
 Charge =  0 Multiplicity = 2

                         Standard orientation:
 ---------------------------------------------------------------------
 Center     Atomic      Atomic             Coordinates (Angstroms)
 Number     Number       Type             X           Y           Z
 ---------------------------------------------------------------------
      1         11           0        1.185754    0.219766    1.798905
      2         11           0        2.988328   -0.003640   -0.591600
      3         11           0        0.008135   -0.390340   -1.802437
      4         11           0        0.749298   -2.187678    0.261544
      5         11           0        0.695085    2.232216   -0.296084
      6         11           0       -1.542445    0.145857    0.877759
      7         11           0       -4.084156   -0.016180   -0.248087
 ---------------------------------------------------------------------

 SCF Done:  E(UB3LYP) =  -1136.09360002     A.U. after   26 cycles

 The electronic state is 2-A.
 Alpha  occ. eigenvalues --  -38.45886 -38.45035 -38.44419 -38.44064 -38.43375
 Alpha  occ. eigenvalues --  -38.42375 -38.42284  -2.21695  -2.21015  -2.20480
 Alpha  occ. eigenvalues --   -2.20231  -2.19488  -2.18426  -2.18300  -1.15461
 Alpha  occ. eigenvalues --   -1.15316  -1.15310  -1.14748  -1.14699  -1.14599
 Alpha  occ. eigenvalues --   -1.14219  -1.14133  -1.14067  -1.14005  -1.13864
 Alpha  occ. eigenvalues --   -1.13826  -1.13222  -1.13134  -1.13033  -1.12139
 Alpha  occ. eigenvalues --   -1.12100  -1.12012  -1.12003  -1.11958  -1.11903
 Alpha  occ. eigenvalues --   -0.20448  -0.13827  -0.12092  -0.11470
 Alpha virt. eigenvalues --   -0.07418  -0.03902  -0.03437  -0.03313  -0.02737
 Alpha virt. eigenvalues --   -0.02702  -0.02520  -0.00761  -0.00369   0.00029
 Alpha virt. eigenvalues --    0.00283   0.00324   0.00376   0.00866   0.01079

  Beta  occ. eigenvalues --  -38.45894 -38.45013 -38.44345 -38.43973 -38.43341
  Beta  occ. eigenvalues --  -38.42360 -38.42268  -2.21710  -2.20978  -2.20345
  Beta  occ. eigenvalues --   -2.20068  -2.19432  -2.18406  -2.18276  -1.15471
  Beta  occ. eigenvalues --   -1.15325  -1.15317  -1.14722  -1.14639  -1.14580
  Beta  occ. eigenvalues --   -1.14137  -1.14034  -1.13958  -1.13886  -1.13755
  Beta  occ. eigenvalues --   -1.13702  -1.13178  -1.13059  -1.12999  -1.12134
  Beta  occ. eigenvalues --   -1.12042  -1.12002  -1.11983  -1.11910  -1.11878
  Beta  occ. eigenvalues --   -0.19566  -0.13694  -0.11169
  Beta virt. eigenvalues --   -0.07782  -0.07284  -0.03380  -0.03269  -0.03184
  Beta virt. eigenvalues --   -0.02570  -0.01896  -0.01608  -0.00446  -0.00335
  Beta virt. eigenvalues --    0.00060   0.00299   0.00360   0.00496   0.00934

 Mulliken charges and spin densities:
               1          2
     1  Na  -0.502094   0.169016
     2  Na   0.503055   0.110631
     3  Na   0.257239   0.668932
     4  Na  -0.616754  -0.101575
     5  Na  -0.717480   0.004260
     6  Na   0.358232   0.160715
     7  Na   0.717802  -0.011977
 Sum of Mulliken charges =  -0.00000   1.00000

 Dipole moment (field-independent basis, Debye):
    X=             -0.5566    Y=             -0.0071    Z=             -0.6174  Tot=              0.8313
 Quadrupole moment (field-independent basis, Debye-Ang):
   XX=            -45.6605   YY=            -77.8613   ZZ=            -68.0377
   XY=              0.1721   XZ=              1.4909   YZ=             -1.4370

 Normal termination of Gaussian 16 at Sat Dec  9 05:49:35 2023.
