 Gaussian 16, Revision B.01,
 Gaussian 16:  ES64L-G16RevB.01 20-Dec-2017

 -------------------------
 #P B3LYP/6-311+g(d) force
 -------------------------

 -----
 DPGEN
 -----
 Symbolic Z-matrix:
 Charge =  0 Multiplicity = 2

                         Standard orientation:
 ---------------------------------------------------------------------
 Center     Atomic      Atomic             Coordinates (Angstroms)
 Number     Number       Type             X           Y           Z
 ---------------------------------------------------------------------
      1         11           0       -2.022539    2.144440   -0.025072
      2         11           0        0.108380    0.062049   -1.591024
      3         11           0        1.757868    2.273288    0.092229
      4         11           0       -0.267063    0.086138    1.625421
      5         11           0       -3.165719   -1.135615   -0.194390
      6         11           0        3.274351   -0.729177   -0.084778
      7         11           0        0.314722   -2.701123    0.177614
 ---------------------------------------------------------------------

 SCF Done:  E(UB3LYP) =  -1136.13424641     A.U. after   23 cycles

 The electronic state is 2-A.
 Alpha  occ. eigenvalues --  -38.44520 -38.44499 -38.43582 -38.43351 -38.43059
 Alpha  occ. eigenvalues --  -38.43030 -38.42774  -2.20327  -2.20319  -2.19464
 Alpha  occ. eigenvalues --   -2.19237  -2.19040  -2.18939  -2.18800  -1.13998
 Alpha  occ. eigenvalues --   -1.13987  -1.13984  -1.13982  -1.13967  -1.13961
 Alpha  occ. eigenvalues --   -1.13172  -1.13136  -1.13080  -1.12950  -1.12909
 Alpha  occ. eigenvalues --   -1.12857  -1.12779  -1.12695  -1.12652  -1.12635
 Alpha  occ. eigenvalues --   -1.12590  -1.12542  -1.12480  -1.12416  -1.12395
 Alpha  occ. eigenvalues --   -0.18993  -0.13438  -0.12293  -0.10194
 Alpha virt. eigenvalues --   -0.06243  -0.05318  -0.04281  -0.03094  -0.02501
 Alpha virt. eigenvalues --   -0.02083  -0.01911  -0.01271  -0.00371  -0.00269
 Alpha virt. eigenvalues --    0.00015   0.00310   0.00730   0.00855   0.00879

  Beta  occ. eigenvalues --  -38.44515 -38.44497 -38.43574 -38.43344 -38.43050
  Beta  occ. eigenvalues --  -38.42964 -38.42693  -2.20321  -2.20318  -2.19454
  Beta  occ. eigenvalues --   -2.19228  -2.18925  -2.18920  -2.18654  -1.13986
  Beta  occ. eigenvalues --   -1.13985  -1.13971  -1.13969  -1.13964  -1.13959
  Beta  occ. eigenvalues --   -1.13164  -1.13102  -1.13073  -1.12941  -1.12875
  Beta  occ. eigenvalues --   -1.12850  -1.12711  -1.12640  -1.12599  -1.12550
  Beta  occ. eigenvalues --   -1.12542  -1.12534  -1.12381  -1.12312  -1.12291
  Beta  occ. eigenvalues --   -0.18285  -0.13194  -0.12012
  Beta virt. eigenvalues --   -0.06352  -0.06151  -0.05323  -0.04285  -0.02341
  Beta virt. eigenvalues --   -0.01980  -0.01721  -0.01232  -0.00918  -0.00413
  Beta virt. eigenvalues --   -0.00306   0.00161   0.00349   0.00775   0.00855

 Mulliken charges and spin densities:
               1          2
     1  Na   0.288941  -0.065235
     2  Na  -0.508703   0.707567
     3  Na   0.287497  -0.091111
     4  Na  -0.329200   0.665129
     5  Na   0.067005  -0.039836
     6  Na   0.104298  -0.044208
     7  Na   0.090161  -0.132306
 Sum of Mulliken charges =  -0.00000   1.00000

 Dipole moment (field-independent basis, Debye):
    X=             -0.0721    Y=             -0.1128    Z=             -0.0266  Tot=              0.1365
 Quadrupole moment (field-independent basis, Debye-Ang):
   XX=            -48.8145   YY=            -64.0641   ZZ=            -77.2966
   XY=              0.1699   XZ=              0.8031   YZ=              0.1442

 Normal termination of Gaussian 16 at Thu Dec  7 06:37:46 2023.
