 Gaussian 16, Revision B.01,
 Gaussian 16:  ES64L-G16RevB.01 20-Dec-2017

 -------------------------
 #P B3LYP/6-311+g(d) force
 -------------------------

 -----
 DPGEN
 -----
 Symbolic Z-matrix:
 Charge =  0 Multiplicity = 2

                         Standard orientation:
 ---------------------------------------------------------------------
 Center     Atomic      Atomic             Coordinates (Angstroms)
 Number     Number       Type             X           Y           Z
 ---------------------------------------------------------------------
      1         11           0        1.675408    2.547932   -0.303712
      2         11           0        0.004466   -0.243787    1.876814
      3         11           0       -3.150172   -0.753080   -0.227845
      4         11           0       -1.990191    2.166695    0.311804
      5         11           0        0.290656   -2.930118    0.064607
      6         11           0       -0.257528   -0.331968   -1.705683
      7         11           0        3.427361   -0.455675   -0.015984
 ---------------------------------------------------------------------

 SCF Done:  E(UB3LYP) =  -1136.13410650     A.U. after   21 cycles

 The electronic state is 2-A.
 Alpha  occ. eigenvalues --  -38.44835 -38.44406 -38.43438 -38.43424 -38.43354
 Alpha  occ. eigenvalues --  -38.43342 -38.43281  -2.20603  -2.20259  -2.19300
 Alpha  occ. eigenvalues --   -2.19287  -2.19258  -2.19243  -2.19138  -1.14283
 Alpha  occ. eigenvalues --   -1.14259  -1.14241  -1.13947  -1.13922  -1.13890
 Alpha  occ. eigenvalues --   -1.13017  -1.12982  -1.12961  -1.12944  -1.12938
 Alpha  occ. eigenvalues --   -1.12930  -1.12926  -1.12914  -1.12903  -1.12896
 Alpha  occ. eigenvalues --   -1.12880  -1.12866  -1.12795  -1.12786  -1.12747
 Alpha  occ. eigenvalues --   -0.18466  -0.13182  -0.12234  -0.10520
 Alpha virt. eigenvalues --   -0.06283  -0.05029  -0.04631  -0.03202  -0.02764
 Alpha virt. eigenvalues --   -0.02360  -0.01995  -0.01066  -0.00557  -0.00387
 Alpha virt. eigenvalues --   -0.00019   0.00324   0.00757   0.00821   0.00828

  Beta  occ. eigenvalues --  -38.44836 -38.44398 -38.43434 -38.43415 -38.43287
  Beta  occ. eigenvalues --  -38.43274 -38.43255  -2.20607  -2.20246  -2.19275
  Beta  occ. eigenvalues --   -2.19239  -2.19176  -2.19129  -2.19096  -1.14276
  Beta  occ. eigenvalues --   -1.14260  -1.14244  -1.13938  -1.13894  -1.13879
  Beta  occ. eigenvalues --   -1.12964  -1.12944  -1.12935  -1.12915  -1.12908
  Beta  occ. eigenvalues --   -1.12899  -1.12876  -1.12868  -1.12849  -1.12825
  Beta  occ. eigenvalues --   -1.12802  -1.12765  -1.12755  -1.12744  -1.12724
  Beta  occ. eigenvalues --   -0.17749  -0.12968  -0.11979
  Beta virt. eigenvalues --   -0.06648  -0.06243  -0.05010  -0.04576  -0.02458
  Beta virt. eigenvalues --   -0.02013  -0.01903  -0.01334  -0.00997  -0.00608
  Beta virt. eigenvalues --   -0.00410   0.00124   0.00360   0.00783   0.00847

 Mulliken charges and spin densities:
               1          2
     1  Na  -0.082330  -0.049969
     2  Na  -0.180577   0.696851
     3  Na   0.377171  -0.037601
     4  Na   0.003995   0.020364
     5  Na   0.047647  -0.203942
     6  Na  -0.153689   0.671624
     7  Na  -0.012217  -0.097327
 Sum of Mulliken charges =  -0.00000   1.00000

 Dipole moment (field-independent basis, Debye):
    X=              0.1876    Y=             -0.2960    Z=              0.0324  Tot=              0.3519
 Quadrupole moment (field-independent basis, Debye-Ang):
   XX=            -52.5914   YY=            -64.3616   ZZ=            -75.7397
   XY=             -0.6000   XZ=             -0.2755   YZ=             -0.0875

 Normal termination of Gaussian 16 at Tue Dec  5 23:45:13 2023.
