 Gaussian 16, Revision B.01,
 Gaussian 16:  ES64L-G16RevB.01 20-Dec-2017

 -------------------------
 #P B3LYP/6-311+g(d) force
 -------------------------

 -----
 DPGEN
 -----
 Symbolic Z-matrix:
 Charge =  0 Multiplicity = 2

                         Standard orientation:
 ---------------------------------------------------------------------
 Center     Atomic      Atomic             Coordinates (Angstroms)
 Number     Number       Type             X           Y           Z
 ---------------------------------------------------------------------
      1         11           0        2.601169    1.926557   -0.266212
      2         11           0       -1.035791    2.792167   -0.154814
      3         11           0        2.390680   -2.230318   -0.164169
      4         11           0       -1.393645   -2.536320   -0.255556
      5         11           0       -3.131397    0.096943    0.050613
      6         11           0        0.427193   -0.040064    2.154451
      7         11           0        0.141790   -0.008964   -1.364313
 ---------------------------------------------------------------------

 SCF Done:  E(UB3LYP) =  -1136.13528196     A.U. after   19 cycles

 The electronic state is 2-A.
 Alpha  occ. eigenvalues --  -38.44222 -38.44123 -38.43664 -38.43662 -38.43588
 Alpha  occ. eigenvalues --  -38.43492 -38.42831  -2.20027  -2.19922  -2.19521
 Alpha  occ. eigenvalues --   -2.19501  -2.19463  -2.19352  -2.18862  -1.13713
 Alpha  occ. eigenvalues --   -1.13684  -1.13656  -1.13601  -1.13579  -1.13559
 Alpha  occ. eigenvalues --   -1.13256  -1.13219  -1.13183  -1.13177  -1.13159
 Alpha  occ. eigenvalues --   -1.13152  -1.13113  -1.13106  -1.13057  -1.13018
 Alpha  occ. eigenvalues --   -1.12972  -1.12967  -1.12553  -1.12507  -1.12486
 Alpha  occ. eigenvalues --   -0.18504  -0.12903  -0.12585  -0.10449
 Alpha virt. eigenvalues --   -0.05854  -0.05340  -0.04712  -0.02983  -0.02768
 Alpha virt. eigenvalues --   -0.02403  -0.01568  -0.01462  -0.00502  -0.00445
 Alpha virt. eigenvalues --   -0.00005   0.00327   0.00775   0.00797   0.00892

  Beta  occ. eigenvalues --  -38.44216 -38.44119 -38.43663 -38.43658 -38.43581
  Beta  occ. eigenvalues --  -38.43385 -38.42783  -2.20018  -2.19919  -2.19521
  Beta  occ. eigenvalues --   -2.19497  -2.19453  -2.19156  -2.18776  -1.13698
  Beta  occ. eigenvalues --   -1.13667  -1.13652  -1.13590  -1.13568  -1.13559
  Beta  occ. eigenvalues --   -1.13256  -1.13218  -1.13174  -1.13158  -1.13145
  Beta  occ. eigenvalues --   -1.13138  -1.13114  -1.13083  -1.13056  -1.12887
  Beta  occ. eigenvalues --   -1.12835  -1.12828  -1.12482  -1.12443  -1.12425
  Beta  occ. eigenvalues --   -0.17811  -0.12691  -0.12360
  Beta virt. eigenvalues --   -0.06504  -0.05863  -0.05273  -0.04691  -0.02231
  Beta virt. eigenvalues --   -0.02031  -0.01493  -0.01402  -0.01301  -0.00549
  Beta virt. eigenvalues --   -0.00481   0.00160   0.00373   0.00790   0.00833

 Mulliken charges and spin densities:
               1          2
     1  Na   0.227349  -0.028698
     2  Na   0.302187   0.041803
     3  Na   0.234738  -0.031115
     4  Na   0.427063   0.063657
     5  Na   0.109240   0.045061
     6  Na  -0.620221   0.793023
     7  Na  -0.680356   0.116268
 Sum of Mulliken charges =  -0.00000   1.00000

 Dipole moment (field-independent basis, Debye):
    X=              0.4451    Y=              0.0523    Z=              0.1433  Tot=              0.4705
 Quadrupole moment (field-independent basis, Debye-Ang):
   XX=            -55.7338   YY=            -59.9590   ZZ=            -76.4574
   XY=             -0.4293   XZ=             -0.7941   YZ=              0.1305

 Normal termination of Gaussian 16 at Tue Dec  5 22:28:49 2023.
