 Gaussian 16, Revision B.01,
 Gaussian 16:  ES64L-G16RevB.01 20-Dec-2017

 -------------------------
 #P B3LYP/6-311+g(d) force
 -------------------------

 -----
 DPGEN
 -----
 Symbolic Z-matrix:
 Charge =  0 Multiplicity = 2

                         Standard orientation:
 ---------------------------------------------------------------------
 Center     Atomic      Atomic             Coordinates (Angstroms)
 Number     Number       Type             X           Y           Z
 ---------------------------------------------------------------------
      1         11           0       -0.210707    0.237984    1.290105
      2         11           0        2.164446    2.064607   -0.462724
      3         11           0        0.921889   -2.156711   -0.706425
      4         11           0       -3.608152    0.288753   -0.306834
      5         11           0       -1.911320   -2.740901    0.109309
      6         11           0        4.111245   -0.581322    0.204135
      7         11           0       -1.467400    2.887591   -0.127567
 ---------------------------------------------------------------------

 SCF Done:  E(UB3LYP) =  -1136.12652621     A.U. after   20 cycles

 The electronic state is 2-A.
 Alpha  occ. eigenvalues --  -38.44453 -38.44295 -38.44141 -38.43949 -38.43753
 Alpha  occ. eigenvalues --  -38.43428 -38.43219  -2.20274  -2.20212  -2.20019
 Alpha  occ. eigenvalues --   -2.19818  -2.19595  -2.19262  -2.19075  -1.13970
 Alpha  occ. eigenvalues --   -1.13961  -1.13916  -1.13899  -1.13869  -1.13829
 Alpha  occ. eigenvalues --   -1.13742  -1.13683  -1.13671  -1.13477  -1.13457
 Alpha  occ. eigenvalues --   -1.13435  -1.13274  -1.13268  -1.13228  -1.12914
 Alpha  occ. eigenvalues --   -1.12910  -1.12878  -1.12730  -1.12708  -1.12703
 Alpha  occ. eigenvalues --   -0.17818  -0.13901  -0.13090  -0.09839
 Alpha virt. eigenvalues --   -0.06235  -0.06079  -0.04745  -0.03077  -0.02633
 Alpha virt. eigenvalues --   -0.02499  -0.02047  -0.01262  -0.00931  -0.00630
 Alpha virt. eigenvalues --    0.00034   0.00115   0.00533   0.00615   0.00702

  Beta  occ. eigenvalues --  -38.44445 -38.44265 -38.44129 -38.43944 -38.43748
  Beta  occ. eigenvalues --  -38.43358 -38.43140  -2.20264  -2.20157  -2.20002
  Beta  occ. eigenvalues --   -2.19814  -2.19591  -2.19131  -2.18928  -1.13968
  Beta  occ. eigenvalues --   -1.13952  -1.13882  -1.13853  -1.13840  -1.13787
  Beta  occ. eigenvalues --   -1.13713  -1.13672  -1.13662  -1.13478  -1.13456
  Beta  occ. eigenvalues --   -1.13402  -1.13277  -1.13270  -1.13189  -1.12824
  Beta  occ. eigenvalues --   -1.12818  -1.12795  -1.12629  -1.12607  -1.12606
  Beta  occ. eigenvalues --   -0.17397  -0.13160  -0.12736
  Beta virt. eigenvalues --   -0.06428  -0.06109  -0.05967  -0.04523  -0.02485
  Beta virt. eigenvalues --   -0.02301  -0.02190  -0.01617  -0.01074  -0.00846
  Beta virt. eigenvalues --   -0.00472   0.00298   0.00358   0.00614   0.00780

 Mulliken charges and spin densities:
               1          2
     1  Na  -0.080637  -0.104044
     2  Na  -0.137068   0.033074
     3  Na  -0.444147  -0.042622
     4  Na  -0.193083   0.505180
     5  Na   0.419213   0.088338
     6  Na   0.359570   0.478642
     7  Na   0.076151   0.041432
 Sum of Mulliken charges =  -0.00000   1.00000

 Dipole moment (field-independent basis, Debye):
    X=              0.1970    Y=              0.0483    Z=             -0.0026  Tot=              0.2029
 Quadrupole moment (field-independent basis, Debye-Ang):
   XX=            -77.0802   YY=            -61.0564   ZZ=            -67.2406
   XY=              2.8699   XZ=             -0.3914   YZ=             -1.8073

 Normal termination of Gaussian 16 at Tue Nov 28 20:22:51 2023.
