 Gaussian 16, Revision B.01,
 Gaussian 16:  ES64L-G16RevB.01 20-Dec-2017

 -------------------------
 #P B3LYP/6-311+g(d) force
 -------------------------

 -----
 DPGEN
 -----
 Symbolic Z-matrix:
 Charge =  0 Multiplicity = 2

                         Standard orientation:
 ---------------------------------------------------------------------
 Center     Atomic      Atomic             Coordinates (Angstroms)
 Number     Number       Type             X           Y           Z
 ---------------------------------------------------------------------
      1         11           0       -0.673720   -3.668070    0.318715
      2         11           0        3.193565   -2.134609   -0.272481
      3         11           0       -3.564782    1.232712    0.021837
      4         11           0        1.640602    2.768463   -0.131788
      5         11           0        4.697531    0.341727    0.168487
      6         11           0       -3.676420   -2.404793   -0.202999
      7         11           0       -1.616776    3.864569    0.098229
 ---------------------------------------------------------------------

 SCF Done:  E(UB3LYP) =  -1136.10766645     A.U. after   23 cycles

 The electronic state is 2-A.
 Alpha  occ. eigenvalues --  -38.45546 -38.45155 -38.44630 -38.44561 -38.44157
 Alpha  occ. eigenvalues --  -38.44000 -38.43860  -2.21352  -2.20927  -2.20401
 Alpha  occ. eigenvalues --   -2.20398  -2.19952  -2.19807  -2.19653  -1.15061
 Alpha  occ. eigenvalues --   -1.15006  -1.14992  -1.14596  -1.14585  -1.14532
 Alpha  occ. eigenvalues --   -1.14080  -1.14075  -1.14074  -1.14055  -1.14037
 Alpha  occ. eigenvalues --   -1.14023  -1.13646  -1.13625  -1.13607  -1.13466
 Alpha  occ. eigenvalues --   -1.13452  -1.13417  -1.13306  -1.13298  -1.13284
 Alpha  occ. eigenvalues --   -0.15630  -0.14168  -0.13437  -0.10607
 Alpha virt. eigenvalues --   -0.07874  -0.04967  -0.04483  -0.03643  -0.03138
 Alpha virt. eigenvalues --   -0.02589  -0.02355  -0.02114  -0.01660  -0.00348
 Alpha virt. eigenvalues --   -0.00137   0.00024   0.00085   0.00261   0.00360

  Beta  occ. eigenvalues --  -38.45527 -38.45090 -38.44643 -38.44536 -38.44170
  Beta  occ. eigenvalues --  -38.43933 -38.43800  -2.21320  -2.20807  -2.20429
  Beta  occ. eigenvalues --   -2.20357  -2.19980  -2.19682  -2.19542  -1.15022
  Beta  occ. eigenvalues --   -1.14988  -1.14961  -1.14515  -1.14505  -1.14444
  Beta  occ. eigenvalues --   -1.14106  -1.14098  -1.14040  -1.14038  -1.14009
  Beta  occ. eigenvalues --   -1.13992  -1.13660  -1.13649  -1.13596  -1.13380
  Beta  occ. eigenvalues --   -1.13367  -1.13346  -1.13229  -1.13222  -1.13215
  Beta  occ. eigenvalues --   -0.15112  -0.13656  -0.12854
  Beta virt. eigenvalues --   -0.07773  -0.07347  -0.04581  -0.04033  -0.03405
  Beta virt. eigenvalues --   -0.02614  -0.02471  -0.02261  -0.01972  -0.01544
  Beta virt. eigenvalues --   -0.00127   0.00135   0.00191   0.00371   0.00379

 Mulliken charges and spin densities:
               1          2
     1  Na  -0.300053   0.275035
     2  Na  -0.322472   0.095383
     3  Na  -0.283607   0.273435
     4  Na  -0.498983   0.361234
     5  Na   0.449676   0.154973
     6  Na   0.179946  -0.128904
     7  Na   0.775493  -0.031156
 Sum of Mulliken charges =  -0.00000   1.00000

 Dipole moment (field-independent basis, Debye):
    X=              1.3535    Y=              0.2065    Z=             -0.0642  Tot=              1.3707
 Quadrupole moment (field-independent basis, Debye-Ang):
   XX=            -60.3259   YY=            -65.6543   ZZ=            -74.3066
   XY=              1.5259   XZ=              0.9113   YZ=              1.2609

 Normal termination of Gaussian 16 at Sun Dec  3 15:32:49 2023.
