 Gaussian 16, Revision B.01,
 Gaussian 16:  ES64L-G16RevB.01 20-Dec-2017

 -------------------------
 #P B3LYP/6-311+g(d) force
 -------------------------

 -----
 DPGEN
 -----
 Symbolic Z-matrix:
 Charge =  0 Multiplicity = 2

                         Standard orientation:
 ---------------------------------------------------------------------
 Center     Atomic      Atomic             Coordinates (Angstroms)
 Number     Number       Type             X           Y           Z
 ---------------------------------------------------------------------
      1         11           0        0.715387    0.342826    1.651895
      2         11           0        0.675486   -0.586432   -1.576725
      3         11           0        2.907341   -0.239476    0.011913
      4         11           0       -0.559294   -2.090248    0.615595
      5         11           0       -2.033032   -0.207153   -1.381343
      6         11           0        0.223511    2.146657   -0.606584
      7         11           0       -1.929400    0.633825    1.285249
 ---------------------------------------------------------------------

 SCF Done:  E(UB3LYP) =  -1136.08522472     A.U. after   28 cycles

 The electronic state is 2-A.
 Alpha  occ. eigenvalues --  -38.44288 -38.44270 -38.44193 -38.43950 -38.43890
 Alpha  occ. eigenvalues --  -38.43259 -38.43150  -2.20453  -2.20394  -2.20260
 Alpha  occ. eigenvalues --   -2.20127  -2.20064  -2.19336  -2.19203  -1.14473
 Alpha  occ. eigenvalues --   -1.14368  -1.14250  -1.14189  -1.14070  -1.14069
 Alpha  occ. eigenvalues --   -1.13951  -1.13865  -1.13815  -1.13749  -1.13739
 Alpha  occ. eigenvalues --   -1.13643  -1.13622  -1.13587  -1.13578  -1.13045
 Alpha  occ. eigenvalues --   -1.12967  -1.12917  -1.12899  -1.12849  -1.12761
 Alpha  occ. eigenvalues --   -0.21356  -0.13728  -0.13332  -0.11865
 Alpha virt. eigenvalues --   -0.05358  -0.04299  -0.04078  -0.03533  -0.03273
 Alpha virt. eigenvalues --   -0.02970  -0.01171  -0.00468  -0.00237   0.00327
 Alpha virt. eigenvalues --    0.00707   0.00811   0.01013   0.01075   0.01124

  Beta  occ. eigenvalues --  -38.44266 -38.44246 -38.44124 -38.43917 -38.43831
  Beta  occ. eigenvalues --  -38.43220 -38.43113  -2.20337  -2.20321  -2.20250
  Beta  occ. eigenvalues --   -2.20029  -2.20008  -2.19270  -2.19140  -1.14391
  Beta  occ. eigenvalues --   -1.14296  -1.14206  -1.14143  -1.14031  -1.13965
  Beta  occ. eigenvalues --   -1.13886  -1.13822  -1.13795  -1.13693  -1.13656
  Beta  occ. eigenvalues --   -1.13594  -1.13558  -1.13544  -1.13522  -1.12998
  Beta  occ. eigenvalues --   -1.12890  -1.12875  -1.12858  -1.12774  -1.12721
  Beta  occ. eigenvalues --   -0.20462  -0.13506  -0.11697
  Beta virt. eigenvalues --   -0.08750  -0.05300  -0.03689  -0.03510  -0.03264
  Beta virt. eigenvalues --   -0.02627  -0.02139  -0.01127  -0.00263  -0.00148
  Beta virt. eigenvalues --    0.00355   0.00770   0.00951   0.01039   0.01128

 Mulliken charges and spin densities:
               1          2
     1  Na   0.493710   0.328000
     2  Na   0.508364   0.363861
     3  Na  -0.220338  -0.077886
     4  Na  -0.912472   0.185746
     5  Na   0.565892   0.050976
     6  Na  -1.040217   0.221984
     7  Na   0.605061  -0.072680
 Sum of Mulliken charges =  -0.00000   1.00000

 Dipole moment (field-independent basis, Debye):
    X=              0.1287    Y=              0.0518    Z=             -0.0610  Tot=              0.1516
 Quadrupole moment (field-independent basis, Debye-Ang):
   XX=            -59.3019   YY=            -73.5475   ZZ=            -64.3776
   XY=             -0.2651   XZ=              0.4436   YZ=             -4.8359

 Normal termination of Gaussian 16 at Thu Dec  7 20:58:35 2023.
