 Gaussian 16, Revision B.01,
 Gaussian 16:  ES64L-G16RevB.01 20-Dec-2017

 -------------------------
 #P B3LYP/6-311+g(d) force
 -------------------------

 -----
 DPGEN
 -----
 Symbolic Z-matrix:
 Charge =  0 Multiplicity = 2

                         Standard orientation:
 ---------------------------------------------------------------------
 Center     Atomic      Atomic             Coordinates (Angstroms)
 Number     Number       Type             X           Y           Z
 ---------------------------------------------------------------------
      1         11           0       -0.137403    0.151489   -2.018313
      2         11           0       -0.233896   -2.820134   -0.078071
      3         11           0        0.418849   -0.173132    2.400784
      4         11           0        3.313420   -0.807908   -0.165058
      5         11           0       -2.773441   -1.344670   -0.179165
      6         11           0        1.553512    2.456158   -0.315569
      7         11           0       -2.141040    2.538198    0.355391
 ---------------------------------------------------------------------

 SCF Done:  E(UB3LYP) =  -1136.13047329     A.U. after   19 cycles

 The electronic state is 2-A.
 Alpha  occ. eigenvalues --  -38.44589 -38.44147 -38.44043 -38.43842 -38.43795
 Alpha  occ. eigenvalues --  -38.43779 -38.43449  -2.20393  -2.20016  -2.19806
 Alpha  occ. eigenvalues --   -2.19657  -2.19652  -2.19542  -2.19324  -1.14042
 Alpha  occ. eigenvalues --   -1.14027  -1.14009  -1.13695  -1.13667  -1.13636
 Alpha  occ. eigenvalues --   -1.13481  -1.13464  -1.13455  -1.13418  -1.13353
 Alpha  occ. eigenvalues --   -1.13325  -1.13304  -1.13282  -1.13267  -1.13215
 Alpha  occ. eigenvalues --   -1.13199  -1.13185  -1.12983  -1.12978  -1.12941
 Alpha  occ. eigenvalues --   -0.17896  -0.12782  -0.12085  -0.11250
 Alpha virt. eigenvalues --   -0.05634  -0.05233  -0.04813  -0.03424  -0.03302
 Alpha virt. eigenvalues --   -0.02999  -0.01487  -0.01098  -0.00409  -0.00306
 Alpha virt. eigenvalues --   -0.00141   0.00373   0.00644   0.00698   0.00821

  Beta  occ. eigenvalues --  -38.44489 -38.44078 -38.44046 -38.43835 -38.43793
  Beta  occ. eigenvalues --  -38.43774 -38.43444  -2.20206  -2.19890  -2.19814
  Beta  occ. eigenvalues --   -2.19652  -2.19648  -2.19535  -2.19320  -1.13918
  Beta  occ. eigenvalues --   -1.13897  -1.13876  -1.13613  -1.13573  -1.13546
  Beta  occ. eigenvalues --   -1.13479  -1.13463  -1.13462  -1.13420  -1.13335
  Beta  occ. eigenvalues --   -1.13308  -1.13290  -1.13277  -1.13264  -1.13199
  Beta  occ. eigenvalues --   -1.13195  -1.13182  -1.12982  -1.12957  -1.12932
  Beta  occ. eigenvalues --   -0.17142  -0.12589  -0.11926
  Beta virt. eigenvalues --   -0.07351  -0.05552  -0.05140  -0.04656  -0.02653
  Beta virt. eigenvalues --   -0.02522  -0.02136  -0.01388  -0.01013  -0.00459
  Beta virt. eigenvalues --   -0.00349   0.00036   0.00411   0.00820   0.00844

 Mulliken charges and spin densities:
               1          2
     1  Na  -0.015482   0.452653
     2  Na   0.123579  -0.015333
     3  Na  -0.489039   0.733765
     4  Na   0.093821  -0.107878
     5  Na   0.176245  -0.026266
     6  Na   0.149092  -0.037258
     7  Na  -0.038216   0.000317
 Sum of Mulliken charges =  -0.00000   1.00000

 Dipole moment (field-independent basis, Debye):
    X=              0.1801    Y=              0.0701    Z=              0.0938  Tot=              0.2148
 Quadrupole moment (field-independent basis, Debye-Ang):
   XX=            -60.0618   YY=            -65.7915   ZZ=            -70.7190
   XY=             -0.7732   XZ=             -1.1837   YZ=              0.8923

 Normal termination of Gaussian 16 at Fri Dec  8 01:34:50 2023.
