 Gaussian 16, Revision B.01,
 Gaussian 16:  ES64L-G16RevB.01 20-Dec-2017

 -------------------------
 #P B3LYP/6-311+g(d) force
 -------------------------

 -----
 DPGEN
 -----
 Symbolic Z-matrix:
 Charge =  0 Multiplicity = 2

                         Standard orientation:
 ---------------------------------------------------------------------
 Center     Atomic      Atomic             Coordinates (Angstroms)
 Number     Number       Type             X           Y           Z
 ---------------------------------------------------------------------
      1         11           0        1.238056   -2.045088   -0.201321
      2         11           0        2.512624    1.314994    0.288955
      3         11           0       -1.085868    1.166072    0.094008
      4         11           0       -2.176345   -2.586977    0.743551
      5         11           0       -4.321051   -0.624397   -0.641292
      6         11           0       -0.607062    3.993877    0.052929
      7         11           0        4.439646   -1.218482   -0.336831
 ---------------------------------------------------------------------

 SCF Done:  E(UB3LYP) =  -1136.12495749     A.U. after   19 cycles

 The electronic state is 2-A.
 Alpha  occ. eigenvalues --  -38.44892 -38.44279 -38.43864 -38.43768 -38.43716
 Alpha  occ. eigenvalues --  -38.43642 -38.43432  -2.20716  -2.20110  -2.19718
 Alpha  occ. eigenvalues --   -2.19613  -2.19593  -2.19504  -2.19271  -1.14418
 Alpha  occ. eigenvalues --   -1.14413  -1.14312  -1.13892  -1.13750  -1.13723
 Alpha  occ. eigenvalues --   -1.13382  -1.13362  -1.13355  -1.13299  -1.13298
 Alpha  occ. eigenvalues --   -1.13278  -1.13264  -1.13249  -1.13192  -1.13186
 Alpha  occ. eigenvalues --   -1.13180  -1.13094  -1.12912  -1.12908  -1.12884
 Alpha  occ. eigenvalues --   -0.17036  -0.14058  -0.13028  -0.10214
 Alpha virt. eigenvalues --   -0.06177  -0.05630  -0.04409  -0.03755  -0.02590
 Alpha virt. eigenvalues --   -0.02227  -0.01862  -0.01574  -0.01265  -0.00798
 Alpha virt. eigenvalues --    0.00012   0.00049   0.00554   0.00592   0.00632

  Beta  occ. eigenvalues --  -38.44880 -38.44284 -38.43824 -38.43757 -38.43709
  Beta  occ. eigenvalues --  -38.43592 -38.43352  -2.20697  -2.20119  -2.19644
  Beta  occ. eigenvalues --   -2.19602  -2.19580  -2.19415  -2.19119  -1.14405
  Beta  occ. eigenvalues --   -1.14396  -1.14284  -1.13898  -1.13757  -1.13728
  Beta  occ. eigenvalues --   -1.13326  -1.13311  -1.13308  -1.13293  -1.13272
  Beta  occ. eigenvalues --   -1.13271  -1.13252  -1.13195  -1.13190  -1.13128
  Beta  occ. eigenvalues --   -1.13121  -1.13013  -1.12809  -1.12804  -1.12790
  Beta  occ. eigenvalues --   -0.16559  -0.13513  -0.12726
  Beta virt. eigenvalues --   -0.06620  -0.06069  -0.05418  -0.04149  -0.03195
  Beta virt. eigenvalues --   -0.02230  -0.02106  -0.01814  -0.01206  -0.01076
  Beta virt. eigenvalues --   -0.00372   0.00232   0.00385   0.00582   0.00706

 Mulliken charges and spin densities:
               1          2
     1  Na  -0.205302   0.191424
     2  Na  -0.510451   0.169779
     3  Na  -1.917752  -0.067593
     4  Na   0.673096  -0.007287
     5  Na   0.913700   0.385956
     6  Na  -0.227076   0.014793
     7  Na   1.273785   0.312928
 Sum of Mulliken charges =  -0.00000   1.00000

 Dipole moment (field-independent basis, Debye):
    X=              1.1088    Y=              0.6114    Z=              0.0490  Tot=              1.2671
 Quadrupole moment (field-independent basis, Debye-Ang):
   XX=            -67.8116   YY=            -57.4007   ZZ=            -71.2986
   XY=             -2.5055   XZ=             -0.3153   YZ=             -0.4001

 Normal termination of Gaussian 16 at Wed Nov 29 03:06:29 2023.
