 Gaussian 16, Revision B.01,
 Gaussian 16:  ES64L-G16RevB.01 20-Dec-2017

 -------------------------
 #P B3LYP/6-311+g(d) force
 -------------------------

 -----
 DPGEN
 -----
 Symbolic Z-matrix:
 Charge =  0 Multiplicity = 2

                         Standard orientation:
 ---------------------------------------------------------------------
 Center     Atomic      Atomic             Coordinates (Angstroms)
 Number     Number       Type             X           Y           Z
 ---------------------------------------------------------------------
      1         11           0       -3.901983   -2.316411   -0.115363
      2         11           0        3.948014   -0.003986   -0.403126
      3         11           0       -0.539271   -3.646562    0.459306
      4         11           0        2.115759    3.249517    0.853627
      5         11           0        2.841887   -2.863507   -0.251762
      6         11           0       -0.759057    3.717414   -0.581179
      7         11           0       -3.705350    1.863535    0.038497
 ---------------------------------------------------------------------

 SCF Done:  E(UB3LYP) =  -1136.10436276     A.U. after   23 cycles

 The electronic state is 2-A.
 Alpha  occ. eigenvalues --  -38.45350 -38.45120 -38.44989 -38.44676 -38.44438
 Alpha  occ. eigenvalues --  -38.44133 -38.43981  -2.21138  -2.20847  -2.20745
 Alpha  occ. eigenvalues --   -2.20458  -2.20216  -2.19957  -2.19789  -1.14824
 Alpha  occ. eigenvalues --   -1.14803  -1.14775  -1.14529  -1.14511  -1.14488
 Alpha  occ. eigenvalues --   -1.14423  -1.14412  -1.14362  -1.14143  -1.14134
 Alpha  occ. eigenvalues --   -1.14114  -1.13870  -1.13858  -1.13832  -1.13628
 Alpha  occ. eigenvalues --   -1.13607  -1.13598  -1.13434  -1.13433  -1.13420
 Alpha  occ. eigenvalues --   -0.15426  -0.13933  -0.13422  -0.10859
 Alpha virt. eigenvalues --   -0.07940  -0.04962  -0.04443  -0.03544  -0.03344
 Alpha virt. eigenvalues --   -0.02579  -0.02395  -0.01853  -0.01673  -0.00635
 Alpha virt. eigenvalues --   -0.00427  -0.00240   0.00008   0.00236   0.00394

  Beta  occ. eigenvalues --  -38.45330 -38.45118 -38.44960 -38.44673 -38.44356
  Beta  occ. eigenvalues --  -38.44110 -38.43917  -2.21106  -2.20846  -2.20694
  Beta  occ. eigenvalues --   -2.20460  -2.20063  -2.19918  -2.19670  -1.14795
  Beta  occ. eigenvalues --   -1.14785  -1.14734  -1.14531  -1.14513  -1.14469
  Beta  occ. eigenvalues --   -1.14389  -1.14379  -1.14320  -1.14149  -1.14142
  Beta  occ. eigenvalues --   -1.14066  -1.13767  -1.13756  -1.13727  -1.13594
  Beta  occ. eigenvalues --   -1.13582  -1.13569  -1.13358  -1.13351  -1.13340
  Beta  occ. eigenvalues --   -0.14919  -0.13175  -0.12707
  Beta virt. eigenvalues --   -0.08148  -0.07694  -0.04461  -0.04000  -0.03304
  Beta virt. eigenvalues --   -0.03050  -0.02388  -0.02158  -0.01687  -0.01555
  Beta virt. eigenvalues --   -0.00323  -0.00164  -0.00043   0.00201   0.00337

 Mulliken charges and spin densities:
               1          2
     1  Na   0.103547  -0.043010
     2  Na  -0.133513   0.112842
     3  Na  -0.168849   0.157627
     4  Na  -0.062338   0.289593
     5  Na   0.446793   0.090778
     6  Na  -0.203244  -0.001386
     7  Na   0.017605   0.393556
 Sum of Mulliken charges =  -0.00000   1.00000

 Dipole moment (field-independent basis, Debye):
    X=              0.2315    Y=             -0.4509    Z=             -0.0613  Tot=              0.5106
 Quadrupole moment (field-independent basis, Debye-Ang):
   XX=            -60.2436   YY=            -67.8693   ZZ=            -72.4780
   XY=              1.8899   XZ=              0.5027   YZ=             -1.0688

 Normal termination of Gaussian 16 at Sun Dec  3 12:35:19 2023.
