 Gaussian 16, Revision B.01,
 Gaussian 16:  ES64L-G16RevB.01 20-Dec-2017

 -------------------------
 #P B3LYP/6-311+g(d) force
 -------------------------

 -----
 DPGEN
 -----
 Symbolic Z-matrix:
 Charge =  0 Multiplicity = 2

                         Standard orientation:
 ---------------------------------------------------------------------
 Center     Atomic      Atomic             Coordinates (Angstroms)
 Number     Number       Type             X           Y           Z
 ---------------------------------------------------------------------
      1         11           0       -0.186977   -0.011435    1.900992
      2         11           0        1.370954   -2.738785    0.103354
      3         11           0        0.754071   -0.001928   -1.675723
      4         11           0       -2.879326   -1.905197   -0.292190
      5         11           0        3.542647    0.293955    0.107250
      6         11           0       -3.235304    1.431576   -0.089730
      7         11           0        0.633936    2.931814   -0.053952
 ---------------------------------------------------------------------

 SCF Done:  E(UB3LYP) =  -1136.12754621     A.U. after   20 cycles

 The electronic state is 2-A.
 Alpha  occ. eigenvalues --  -38.45430 -38.44582 -38.44243 -38.43702 -38.43443
 Alpha  occ. eigenvalues --  -38.43246 -38.43219  -2.21215  -2.20353  -2.20018
 Alpha  occ. eigenvalues --   -2.19612  -2.19263  -2.19114  -2.19031  -1.14898
 Alpha  occ. eigenvalues --   -1.14868  -1.14848  -1.14030  -1.14019  -1.13991
 Alpha  occ. eigenvalues --   -1.13691  -1.13672  -1.13657  -1.13300  -1.13261
 Alpha  occ. eigenvalues --   -1.13241  -1.12945  -1.12929  -1.12890  -1.12793
 Alpha  occ. eigenvalues --   -1.12741  -1.12731  -1.12719  -1.12690  -1.12655
 Alpha  occ. eigenvalues --   -0.17849  -0.13319  -0.11854  -0.10116
 Alpha virt. eigenvalues --   -0.06630  -0.05599  -0.04558  -0.03211  -0.02555
 Alpha virt. eigenvalues --   -0.02270  -0.02161  -0.01357  -0.00803  -0.00720
 Alpha virt. eigenvalues --   -0.00092   0.00252   0.00642   0.00703   0.00759

  Beta  occ. eigenvalues --  -38.45428 -38.44579 -38.44236 -38.43650 -38.43436
  Beta  occ. eigenvalues --  -38.43215 -38.43151  -2.21214  -2.20349  -2.20005
  Beta  occ. eigenvalues --   -2.19516  -2.19254  -2.19026  -2.18939  -1.14882
  Beta  occ. eigenvalues --   -1.14861  -1.14851  -1.14020  -1.14016  -1.13986
  Beta  occ. eigenvalues --   -1.13673  -1.13666  -1.13646  -1.13229  -1.13194
  Beta  occ. eigenvalues --   -1.13171  -1.12938  -1.12900  -1.12886  -1.12719
  Beta  occ. eigenvalues --   -1.12684  -1.12668  -1.12653  -1.12612  -1.12598
  Beta  occ. eigenvalues --   -0.17176  -0.13088  -0.11640
  Beta virt. eigenvalues --   -0.06543  -0.06309  -0.05600  -0.04489  -0.02547
  Beta virt. eigenvalues --   -0.02168  -0.01835  -0.01328  -0.01208  -0.00814
  Beta virt. eigenvalues --   -0.00723   0.00085   0.00316   0.00736   0.00761

 Mulliken charges and spin densities:
               1          2
     1  Na  -0.083802   0.785058
     2  Na  -0.080659  -0.127832
     3  Na   0.083214   0.687249
     4  Na  -0.069677  -0.015078
     5  Na   0.298549  -0.091468
     6  Na  -0.003391  -0.038062
     7  Na  -0.144232  -0.199868
 Sum of Mulliken charges =  -0.00000   1.00000

 Dipole moment (field-independent basis, Debye):
    X=              0.4873    Y=              0.0745    Z=              0.1074  Tot=              0.5045
 Quadrupole moment (field-independent basis, Debye-Ang):
   XX=            -50.6659   YY=            -64.5797   ZZ=            -77.1092
   XY=             -0.4226   XZ=              2.3597   YZ=              0.3239

 Normal termination of Gaussian 16 at Thu Dec  7 21:20:15 2023.
