 Gaussian 16, Revision B.01,
 Gaussian 16:  ES64L-G16RevB.01 20-Dec-2017

 -------------------------
 #P B3LYP/6-311+g(d) force
 -------------------------

 -----
 DPGEN
 -----
 Symbolic Z-matrix:
 Charge =  0 Multiplicity = 2

                         Standard orientation:
 ---------------------------------------------------------------------
 Center     Atomic      Atomic             Coordinates (Angstroms)
 Number     Number       Type             X           Y           Z
 ---------------------------------------------------------------------
      1         11           0       -0.073903    0.197282    1.988913
      2         11           0        2.867908    0.940772   -0.208307
      3         11           0        0.104455   -0.225382   -1.651472
      4         11           0       -0.153455    2.773075   -0.219343
      5         11           0       -1.854998   -2.416461   -0.218144
      6         11           0       -3.216893    0.678855    0.043097
      7         11           0        2.326887   -1.948142    0.265256
 ---------------------------------------------------------------------

 SCF Done:  E(UB3LYP) =  -1136.13485363     A.U. after   20 cycles

 The electronic state is 2-A.
 Alpha  occ. eigenvalues --  -38.44619 -38.44031 -38.43725 -38.43585 -38.43496
 Alpha  occ. eigenvalues --  -38.43213 -38.42780  -2.20426  -2.19938  -2.19603
 Alpha  occ. eigenvalues --   -2.19482  -2.19331  -2.19195  -2.18651  -1.14102
 Alpha  occ. eigenvalues --   -1.14082  -1.14067  -1.13685  -1.13600  -1.13570
 Alpha  occ. eigenvalues --   -1.13263  -1.13249  -1.13235  -1.13158  -1.13112
 Alpha  occ. eigenvalues --   -1.13096  -1.13039  -1.12987  -1.12965  -1.12877
 Alpha  occ. eigenvalues --   -1.12826  -1.12813  -1.12336  -1.12318  -1.12276
 Alpha  occ. eigenvalues --   -0.18796  -0.13518  -0.12068  -0.10741
 Alpha virt. eigenvalues --   -0.06077  -0.05192  -0.04278  -0.03417  -0.02689
 Alpha virt. eigenvalues --   -0.02489  -0.01842  -0.01036  -0.00372  -0.00236
 Alpha virt. eigenvalues --   -0.00018   0.00352   0.00742   0.00875   0.00909

  Beta  occ. eigenvalues --  -38.44618 -38.44023 -38.43718 -38.43495 -38.43492
  Beta  occ. eigenvalues --  -38.43145 -38.42773  -2.20427  -2.19929  -2.19593
  Beta  occ. eigenvalues --   -2.19327  -2.19316  -2.19073  -2.18642  -1.14090
  Beta  occ. eigenvalues --   -1.14082  -1.14069  -1.13683  -1.13577  -1.13552
  Beta  occ. eigenvalues --   -1.13258  -1.13232  -1.13214  -1.13050  -1.13023
  Beta  occ. eigenvalues --   -1.12996  -1.12976  -1.12969  -1.12962  -1.12794
  Beta  occ. eigenvalues --   -1.12738  -1.12725  -1.12331  -1.12290  -1.12267
  Beta  occ. eigenvalues --   -0.18057  -0.13296  -0.11814
  Beta virt. eigenvalues --   -0.06824  -0.06017  -0.05192  -0.04250  -0.02621
  Beta virt. eigenvalues --   -0.01934  -0.01744  -0.01435  -0.00959  -0.00420
  Beta virt. eigenvalues --   -0.00281   0.00127   0.00378   0.00803   0.00880

 Mulliken charges and spin densities:
               1          2
     1  Na  -0.473545   0.724259
     2  Na   0.320894   0.014369
     3  Na  -0.222678   0.486902
     4  Na   0.067442  -0.080078
     5  Na   0.087124  -0.089958
     6  Na   0.067088  -0.064181
     7  Na   0.153674   0.008687
 Sum of Mulliken charges =  -0.00000   1.00000

 Dipole moment (field-independent basis, Debye):
    X=             -0.3321    Y=             -0.0188    Z=              0.1562  Tot=              0.3674
 Quadrupole moment (field-independent basis, Debye-Ang):
   XX=            -53.3941   YY=            -65.5009   ZZ=            -74.5614
   XY=             -0.6994   XZ=              0.0426   YZ=             -1.1061

 Normal termination of Gaussian 16 at Thu Dec  7 17:38:04 2023.
