 Gaussian 16, Revision B.01,
 Gaussian 16:  ES64L-G16RevB.01 20-Dec-2017

 -------------------------
 #P B3LYP/6-311+g(d) force
 -------------------------

 -----
 DPGEN
 -----
 Symbolic Z-matrix:
 Charge =  0 Multiplicity = 2

                         Standard orientation:
 ---------------------------------------------------------------------
 Center     Atomic      Atomic             Coordinates (Angstroms)
 Number     Number       Type             X           Y           Z
 ---------------------------------------------------------------------
      1         11           0       -1.998995   -1.494748    0.848472
      2         11           0       -4.794618   -0.573302   -0.471003
      3         11           0        2.519180   -2.717228   -0.797849
      4         11           0        3.907523    0.094765   -0.318919
      5         11           0        1.443285    2.928466    0.177997
      6         11           0        0.732300   -0.118660    1.358625
      7         11           0       -1.808674    1.880707   -0.797323
 ---------------------------------------------------------------------

 SCF Done:  E(UB3LYP) =  -1136.12238608     A.U. after   21 cycles

 The electronic state is 2-A.
 Alpha  occ. eigenvalues --  -38.45061 -38.44315 -38.44165 -38.43998 -38.43652
 Alpha  occ. eigenvalues --  -38.43638 -38.43180  -2.20834  -2.20103  -2.20007
 Alpha  occ. eigenvalues --   -2.19819  -2.19588  -2.19524  -2.19003  -1.14542
 Alpha  occ. eigenvalues --   -1.14514  -1.14430  -1.13812  -1.13772  -1.13747
 Alpha  occ. eigenvalues --   -1.13672  -1.13646  -1.13606  -1.13491  -1.13466
 Alpha  occ. eigenvalues --   -1.13441  -1.13365  -1.13247  -1.13191  -1.13177
 Alpha  occ. eigenvalues --   -1.13162  -1.13124  -1.12680  -1.12663  -1.12642
 Alpha  occ. eigenvalues --   -0.17304  -0.14192  -0.11989  -0.10785
 Alpha virt. eigenvalues --   -0.06891  -0.04798  -0.04506  -0.03930  -0.02992
 Alpha virt. eigenvalues --   -0.02288  -0.01827  -0.01525  -0.00760  -0.00627
 Alpha virt. eigenvalues --   -0.00425   0.00151   0.00451   0.00528   0.00709

  Beta  occ. eigenvalues --  -38.45055 -38.44318 -38.44124 -38.43942 -38.43597
  Beta  occ. eigenvalues --  -38.43580 -38.43178  -2.20824  -2.20111  -2.19931
  Beta  occ. eigenvalues --   -2.19713  -2.19465  -2.19455  -2.19000  -1.14537
  Beta  occ. eigenvalues --   -1.14501  -1.14417  -1.13804  -1.13780  -1.13742
  Beta  occ. eigenvalues --   -1.13620  -1.13600  -1.13559  -1.13422  -1.13393
  Beta  occ. eigenvalues --   -1.13368  -1.13257  -1.13165  -1.13140  -1.13112
  Beta  occ. eigenvalues --   -1.13101  -1.13028  -1.12676  -1.12662  -1.12635
  Beta  occ. eigenvalues --   -0.16647  -0.13703  -0.11801
  Beta virt. eigenvalues --   -0.07130  -0.06714  -0.04635  -0.04048  -0.03582
  Beta virt. eigenvalues --   -0.02582  -0.02116  -0.01466  -0.01087  -0.00677
  Beta virt. eigenvalues --   -0.00440  -0.00182   0.00294   0.00548   0.00687

 Mulliken charges and spin densities:
               1          2
     1  Na  -0.491475   0.062750
     2  Na   0.406811   0.374912
     3  Na  -0.008335  -0.029050
     4  Na   0.183083   0.284812
     5  Na   0.259935   0.066966
     6  Na   0.026459   0.200174
     7  Na  -0.376479   0.039436
 Sum of Mulliken charges =  -0.00000   1.00000

 Dipole moment (field-independent basis, Debye):
    X=              0.0488    Y=             -0.0055    Z=             -0.5282  Tot=              0.5305
 Quadrupole moment (field-independent basis, Debye-Ang):
   XX=            -62.8790   YY=            -65.5103   ZZ=            -70.2149
   XY=              2.6312   XZ=              1.3270   YZ=              0.7702

 Normal termination of Gaussian 16 at Mon Dec  4 02:20:24 2023.
