 Gaussian 16, Revision B.01,
 Gaussian 16:  ES64L-G16RevB.01 20-Dec-2017

 -------------------------
 #P B3LYP/6-311+g(d) force
 -------------------------

 -----
 DPGEN
 -----
 Symbolic Z-matrix:
 Charge =  0 Multiplicity = 2

                         Standard orientation:
 ---------------------------------------------------------------------
 Center     Atomic      Atomic             Coordinates (Angstroms)
 Number     Number       Type             X           Y           Z
 ---------------------------------------------------------------------
      1         11           0        0.102512   -2.537003   -0.120598
      2         11           0        0.599544    0.011162   -1.626698
      3         11           0       -1.620751    2.374905   -0.249007
      4         11           0        2.915037   -1.249438    0.154897
      5         11           0       -3.261212   -0.996961   -0.335899
      6         11           0        1.825368    2.446521    0.107913
      7         11           0       -0.560497   -0.049186    2.069392
 ---------------------------------------------------------------------

 SCF Done:  E(UB3LYP) =  -1136.13369976     A.U. after   19 cycles

 The electronic state is 2-A.
 Alpha  occ. eigenvalues --  -38.44165 -38.43998 -38.43700 -38.43571 -38.43563
 Alpha  occ. eigenvalues --  -38.43293 -38.43233  -2.19948  -2.19871  -2.19539
 Alpha  occ. eigenvalues --   -2.19453  -2.19402  -2.19300  -2.19176  -1.13617
 Alpha  occ. eigenvalues --   -1.13607  -1.13589  -1.13581  -1.13530  -1.13506
 Alpha  occ. eigenvalues --   -1.13228  -1.13222  -1.13166  -1.13131  -1.13117
 Alpha  occ. eigenvalues --   -1.13085  -1.13071  -1.13063  -1.13053  -1.13029
 Alpha  occ. eigenvalues --   -1.12931  -1.12908  -1.12832  -1.12806  -1.12771
 Alpha  occ. eigenvalues --   -0.18681  -0.13013  -0.12532  -0.10655
 Alpha virt. eigenvalues --   -0.05693  -0.05341  -0.04526  -0.03264  -0.02927
 Alpha virt. eigenvalues --   -0.02422  -0.01649  -0.01165  -0.00342  -0.00154
 Alpha virt. eigenvalues --   -0.00037   0.00331   0.00764   0.00856   0.00902

  Beta  occ. eigenvalues --  -38.44161 -38.43995 -38.43694 -38.43560 -38.43480
  Beta  occ. eigenvalues --  -38.43234 -38.43220  -2.19942  -2.19869  -2.19530
  Beta  occ. eigenvalues --   -2.19400  -2.19283  -2.19194  -2.19158  -1.13605
  Beta  occ. eigenvalues --   -1.13598  -1.13587  -1.13580  -1.13523  -1.13492
  Beta  occ. eigenvalues --   -1.13222  -1.13189  -1.13164  -1.13101  -1.13046
  Beta  occ. eigenvalues --   -1.13033  -1.13031  -1.13002  -1.12966  -1.12938
  Beta  occ. eigenvalues --   -1.12860  -1.12832  -1.12800  -1.12768  -1.12747
  Beta  occ. eigenvalues --   -0.17953  -0.12806  -0.12306
  Beta virt. eigenvalues --   -0.06761  -0.05598  -0.05325  -0.04490  -0.02507
  Beta virt. eigenvalues --   -0.02154  -0.01557  -0.01410  -0.01105  -0.00381
  Beta virt. eigenvalues --   -0.00187   0.00124   0.00364   0.00824   0.00862

 Mulliken charges and spin densities:
               1          2
     1  Na   0.305060   0.017519
     2  Na  -0.201263   0.478922
     3  Na   0.072589  -0.075693
     4  Na   0.243411  -0.011427
     5  Na   0.033353  -0.035053
     6  Na   0.110497  -0.065550
     7  Na  -0.563647   0.691282
 Sum of Mulliken charges =  -0.00000   1.00000

 Dipole moment (field-independent basis, Debye):
    X=             -0.0449    Y=              0.1282    Z=              0.1672  Tot=              0.2154
 Quadrupole moment (field-independent basis, Debye-Ang):
   XX=            -54.4296   YY=            -64.5913   ZZ=            -74.2656
   XY=              0.1633   XZ=              2.6413   YZ=              0.2393

 Normal termination of Gaussian 16 at Wed Dec  6 00:38:27 2023.
