 Gaussian 16, Revision B.01,
 Gaussian 16:  ES64L-G16RevB.01 20-Dec-2017

 -------------------------
 #P B3LYP/6-311+g(d) force
 -------------------------

 -----
 DPGEN
 -----
 Symbolic Z-matrix:
 Charge =  0 Multiplicity = 2

                         Standard orientation:
 ---------------------------------------------------------------------
 Center     Atomic      Atomic             Coordinates (Angstroms)
 Number     Number       Type             X           Y           Z
 ---------------------------------------------------------------------
      1         11           0        0.877739   -1.139806    1.625853
      2         11           0       -2.210952    0.104094    2.412218
      3         11           0       -3.509141    0.829291   -1.285728
      4         11           0       -0.820101   -2.029958   -0.990554
      5         11           0        2.449043   -1.878498   -1.007921
      6         11           0        0.314943    1.877431   -1.252385
      7         11           0        2.898468    2.237446    0.498518
 ---------------------------------------------------------------------

 SCF Done:  E(UB3LYP) =  -1136.12340428     A.U. after   20 cycles

 The electronic state is 2-A.
 Alpha  occ. eigenvalues --  -38.44929 -38.44290 -38.44124 -38.43942 -38.43916
 Alpha  occ. eigenvalues --  -38.43572 -38.43154  -2.20723  -2.20050  -2.19977
 Alpha  occ. eigenvalues --   -2.19850  -2.19777  -2.19380  -2.18958  -1.14392
 Alpha  occ. eigenvalues --   -1.14370  -1.14324  -1.13718  -1.13709  -1.13695
 Alpha  occ. eigenvalues --   -1.13679  -1.13662  -1.13588  -1.13566  -1.13483
 Alpha  occ. eigenvalues --   -1.13472  -1.13459  -1.13427  -1.13357  -1.13072
 Alpha  occ. eigenvalues --   -1.13056  -1.13016  -1.12617  -1.12616  -1.12595
 Alpha  occ. eigenvalues --   -0.17647  -0.12941  -0.11923  -0.11663
 Alpha virt. eigenvalues --   -0.05822  -0.05191  -0.04925  -0.03442  -0.03033
 Alpha virt. eigenvalues --   -0.02801  -0.01757  -0.01111  -0.00969   0.00027
 Alpha virt. eigenvalues --    0.00111   0.00200   0.00296   0.00506   0.00588

  Beta  occ. eigenvalues --  -38.44849 -38.44266 -38.44110 -38.43901 -38.43889
  Beta  occ. eigenvalues --  -38.43563 -38.43152  -2.20578  -2.20007  -2.19950
  Beta  occ. eigenvalues --   -2.19778  -2.19730  -2.19364  -2.18955  -1.14284
  Beta  occ. eigenvalues --   -1.14271  -1.14221  -1.13686  -1.13674  -1.13673
  Beta  occ. eigenvalues --   -1.13654  -1.13633  -1.13569  -1.13527  -1.13437
  Beta  occ. eigenvalues --   -1.13423  -1.13403  -1.13378  -1.13323  -1.13055
  Beta  occ. eigenvalues --   -1.13045  -1.13004  -1.12616  -1.12611  -1.12593
  Beta  occ. eigenvalues --   -0.16975  -0.12633  -0.11634
  Beta virt. eigenvalues --   -0.07886  -0.05699  -0.04748  -0.04515  -0.03255
  Beta virt. eigenvalues --   -0.02453  -0.02199  -0.01657  -0.00907  -0.00578
  Beta virt. eigenvalues --    0.00126   0.00233   0.00283   0.00398   0.00629

 Mulliken charges and spin densities:
               1          2
     1  Na  -0.051910   0.311829
     2  Na   0.004203   0.194417
     3  Na   0.318101   0.054036
     4  Na  -0.445184   0.300428
     5  Na   0.620965   0.098931
     6  Na  -0.656895   0.078248
     7  Na   0.210720  -0.037889
 Sum of Mulliken charges =  -0.00000   1.00000

 Dipole moment (field-independent basis, Debye):
    X=             -0.3112    Y=             -0.5399    Z=              0.0852  Tot=              0.6289
 Quadrupole moment (field-independent basis, Debye-Ang):
   XX=            -56.2466   YY=            -75.2998   ZZ=            -65.1166
   XY=             -3.4735   XZ=              0.3280   YZ=              3.0158

 Normal termination of Gaussian 16 at Wed Nov 29 03:46:56 2023.
