 Gaussian 16, Revision B.01,
 Gaussian 16:  ES64L-G16RevB.01 20-Dec-2017

 -------------------------
 #P B3LYP/6-311+g(d) force
 -------------------------

 -----
 DPGEN
 -----
 Symbolic Z-matrix:
 Charge =  0 Multiplicity = 2

                         Standard orientation:
 ---------------------------------------------------------------------
 Center     Atomic      Atomic             Coordinates (Angstroms)
 Number     Number       Type             X           Y           Z
 ---------------------------------------------------------------------
      1         11           0        0.261277   -0.269668    2.090338
      2         11           0       -3.087629   -0.786044   -0.144057
      3         11           0        0.144082   -0.195826   -1.581500
      4         11           0       -1.787352    2.618898    0.120404
      5         11           0        1.466911    2.248194   -0.285305
      6         11           0       -0.402976   -2.984801   -0.144765
      7         11           0        3.405687   -0.630753   -0.055114
 ---------------------------------------------------------------------

 SCF Done:  E(UB3LYP) =  -1136.13481532     A.U. after   19 cycles

 The electronic state is 2-A.
 Alpha  occ. eigenvalues --  -38.44409 -38.44283 -38.43623 -38.43617 -38.43370
 Alpha  occ. eigenvalues --  -38.43339 -38.43253  -2.20199  -2.20090  -2.19482
 Alpha  occ. eigenvalues --   -2.19471  -2.19280  -2.19233  -2.19159  -1.13868
 Alpha  occ. eigenvalues --   -1.13859  -1.13842  -1.13768  -1.13750  -1.13729
 Alpha  occ. eigenvalues --   -1.13194  -1.13157  -1.13137  -1.13098  -1.13096
 Alpha  occ. eigenvalues --   -1.13088  -1.13073  -1.12942  -1.12913  -1.12894
 Alpha  occ. eigenvalues --   -1.12847  -1.12825  -1.12819  -1.12806  -1.12798
 Alpha  occ. eigenvalues --   -0.18451  -0.13001  -0.12394  -0.10593
 Alpha virt. eigenvalues --   -0.06039  -0.04945  -0.04841  -0.03113  -0.02812
 Alpha virt. eigenvalues --   -0.02517  -0.01860  -0.01130  -0.00543  -0.00275
 Alpha virt. eigenvalues --   -0.00027   0.00319   0.00765   0.00816   0.00892

  Beta  occ. eigenvalues --  -38.44408 -38.44281 -38.43616 -38.43517 -38.43359
  Beta  occ. eigenvalues --  -38.43339 -38.43191  -2.20201  -2.20088  -2.19463
  Beta  occ. eigenvalues --   -2.19297  -2.19263  -2.19161  -2.19123  -1.13865
  Beta  occ. eigenvalues --   -1.13850  -1.13844  -1.13757  -1.13745  -1.13730
  Beta  occ. eigenvalues --   -1.13178  -1.13109  -1.13088  -1.13051  -1.13018
  Beta  occ. eigenvalues --   -1.12978  -1.12963  -1.12916  -1.12895  -1.12823
  Beta  occ. eigenvalues --   -1.12814  -1.12805  -1.12798  -1.12777  -1.12745
  Beta  occ. eigenvalues --   -0.17729  -0.12778  -0.12191
  Beta virt. eigenvalues --   -0.06659  -0.06016  -0.04929  -0.04794  -0.02345
  Beta virt. eigenvalues --   -0.02066  -0.01782  -0.01433  -0.01062  -0.00607
  Beta virt. eigenvalues --   -0.00302   0.00128   0.00348   0.00784   0.00834

 Mulliken charges and spin densities:
               1          2
     1  Na  -0.536398   0.795518
     2  Na   0.075361  -0.011244
     3  Na  -0.129444   0.342475
     4  Na  -0.078215  -0.028692
     5  Na   0.254051   0.072548
     6  Na   0.195848  -0.097507
     7  Na   0.218797  -0.073098
 Sum of Mulliken charges =  -0.00000   1.00000

 Dipole moment (field-independent basis, Debye):
    X=              0.1303    Y=             -0.4291    Z=              0.1382  Tot=              0.4692
 Quadrupole moment (field-independent basis, Debye-Ang):
   XX=            -54.0025   YY=            -63.1813   ZZ=            -75.5605
   XY=             -1.1216   XZ=             -0.2871   YZ=              0.2811

 Normal termination of Gaussian 16 at Tue Dec  5 21:20:08 2023.
