 Gaussian 16, Revision B.01,
 Gaussian 16:  ES64L-G16RevB.01 20-Dec-2017

 -------------------------
 #P B3LYP/6-311+g(d) force
 -------------------------

 -----
 DPGEN
 -----
 Symbolic Z-matrix:
 Charge =  0 Multiplicity = 2

                         Standard orientation:
 ---------------------------------------------------------------------
 Center     Atomic      Atomic             Coordinates (Angstroms)
 Number     Number       Type             X           Y           Z
 ---------------------------------------------------------------------
      1         11           0        0.220961   -3.174520    0.486326
      2         11           0       -1.691744    2.397728    1.270206
      3         11           0        3.581028    1.168056   -0.081173
      4         11           0        3.903682   -1.802223    0.060110
      5         11           0        0.821942    3.466347   -0.828171
      6         11           0       -4.173907    0.469761   -0.240055
      7         11           0       -2.661963   -2.525148   -0.667243
 ---------------------------------------------------------------------

 SCF Done:  E(UB3LYP) =  -1136.11011593     A.U. after   22 cycles

 The electronic state is 2-A.
 Alpha  occ. eigenvalues --  -38.45200 -38.44769 -38.44484 -38.44334 -38.44120
 Alpha  occ. eigenvalues --  -38.44004 -38.43928  -2.20959  -2.20582  -2.20283
 Alpha  occ. eigenvalues --   -2.20147  -2.19938  -2.19835  -2.19727  -1.14645
 Alpha  occ. eigenvalues --   -1.14634  -1.14599  -1.14291  -1.14249  -1.14222
 Alpha  occ. eigenvalues --   -1.13983  -1.13941  -1.13915  -1.13813  -1.13803
 Alpha  occ. eigenvalues --   -1.13785  -1.13586  -1.13572  -1.13570  -1.13505
 Alpha  occ. eigenvalues --   -1.13476  -1.13455  -1.13379  -1.13369  -1.13364
 Alpha  occ. eigenvalues --   -0.15817  -0.14071  -0.13386  -0.10720
 Alpha virt. eigenvalues --   -0.07422  -0.04891  -0.04136  -0.03686  -0.03317
 Alpha virt. eigenvalues --   -0.02588  -0.02306  -0.01504  -0.01282  -0.00733
 Alpha virt. eigenvalues --   -0.00555  -0.00149   0.00350   0.00492   0.00687

  Beta  occ. eigenvalues --  -38.45205 -38.44747 -38.44430 -38.44324 -38.44055
  Beta  occ. eigenvalues --  -38.43965 -38.43876  -2.20972  -2.20550  -2.20187
  Beta  occ. eigenvalues --   -2.20135  -2.19817  -2.19766  -2.19630  -1.14658
  Beta  occ. eigenvalues --   -1.14647  -1.14574  -1.14253  -1.14232  -1.14179
  Beta  occ. eigenvalues --   -1.13915  -1.13877  -1.13848  -1.13810  -1.13795
  Beta  occ. eigenvalues --   -1.13728  -1.13502  -1.13495  -1.13490  -1.13451
  Beta  occ. eigenvalues --   -1.13430  -1.13405  -1.13313  -1.13304  -1.13301
  Beta  occ. eigenvalues --   -0.15297  -0.13323  -0.12621
  Beta virt. eigenvalues --   -0.07584  -0.07523  -0.04592  -0.03688  -0.03410
  Beta virt. eigenvalues --   -0.02951  -0.02288  -0.02049  -0.01364  -0.01116
  Beta virt. eigenvalues --   -0.00537  -0.00210   0.00064   0.00361   0.00524

 Mulliken charges and spin densities:
               1          2
     1  Na  -0.270195   0.217488
     2  Na   0.026644  -0.033383
     3  Na  -0.381815   0.116944
     4  Na   0.436265   0.151369
     5  Na   0.065841   0.227990
     6  Na  -0.029132   0.330592
     7  Na   0.152392  -0.011001
 Sum of Mulliken charges =  -0.00000   1.00000

 Dipole moment (field-independent basis, Debye):
    X=             -0.1615    Y=              0.1623    Z=              0.0857  Tot=              0.2445
 Quadrupole moment (field-independent basis, Debye-Ang):
   XX=            -66.1718   YY=            -68.2768   ZZ=            -68.2099
   XY=             -0.3213   XZ=              1.0181   YZ=             -0.1913

 Normal termination of Gaussian 16 at Sun Dec  3 14:18:36 2023.
