 Gaussian 16, Revision B.01,
 Gaussian 16:  ES64L-G16RevB.01 20-Dec-2017

 -------------------------
 #P B3LYP/6-311+g(d) force
 -------------------------

 -----
 DPGEN
 -----
 Symbolic Z-matrix:
 Charge =  0 Multiplicity = 2

                         Standard orientation:
 ---------------------------------------------------------------------
 Center     Atomic      Atomic             Coordinates (Angstroms)
 Number     Number       Type             X           Y           Z
 ---------------------------------------------------------------------
      1         11           0        3.605149   -1.636560   -0.608825
      2         11           0        2.395885    2.183637    0.089345
      3         11           0       -3.877313    0.079609   -0.471463
      4         11           0        0.780489   -0.476499    1.957412
      5         11           0       -1.171394    2.279573    0.377696
      6         11           0       -0.006687   -0.101737   -1.891703
      7         11           0       -1.726129   -2.328022    0.547538
 ---------------------------------------------------------------------

 SCF Done:  E(UB3LYP) =  -1136.12310839     A.U. after   23 cycles

 The electronic state is 2-A.
 Alpha  occ. eigenvalues --  -38.45090 -38.44980 -38.44585 -38.44183 -38.43654
 Alpha  occ. eigenvalues --  -38.43553 -38.42919  -2.20896  -2.20768  -2.20327
 Alpha  occ. eigenvalues --   -2.19977  -2.19514  -2.19379  -2.18757  -1.14590
 Alpha  occ. eigenvalues --   -1.14546  -1.14503  -1.14439  -1.14423  -1.14403
 Alpha  occ. eigenvalues --   -1.13996  -1.13989  -1.13955  -1.13662  -1.13637
 Alpha  occ. eigenvalues --   -1.13605  -1.13203  -1.13143  -1.13135  -1.13047
 Alpha  occ. eigenvalues --   -1.13042  -1.13010  -1.12450  -1.12434  -1.12376
 Alpha  occ. eigenvalues --   -0.17770  -0.13385  -0.11417  -0.10784
 Alpha virt. eigenvalues --   -0.06964  -0.05694  -0.04197  -0.03191  -0.02879
 Alpha virt. eigenvalues --   -0.02538  -0.02377  -0.01503  -0.00787  -0.00367
 Alpha virt. eigenvalues --   -0.00026   0.00088   0.00376   0.00560   0.00687

  Beta  occ. eigenvalues --  -38.45041 -38.44973 -38.44564 -38.44180 -38.43571
  Beta  occ. eigenvalues --  -38.43534 -38.42915  -2.20805  -2.20756  -2.20288
  Beta  occ. eigenvalues --   -2.19974  -2.19363  -2.19348  -2.18752  -1.14524
  Beta  occ. eigenvalues --   -1.14486  -1.14433  -1.14428  -1.14417  -1.14393
  Beta  occ. eigenvalues --   -1.13967  -1.13957  -1.13931  -1.13648  -1.13637
  Beta  occ. eigenvalues --   -1.13599  -1.13105  -1.13041  -1.13031  -1.13018
  Beta  occ. eigenvalues --   -1.13007  -1.12973  -1.12450  -1.12416  -1.12367
  Beta  occ. eigenvalues --   -0.17106  -0.13177  -0.11118
  Beta virt. eigenvalues --   -0.07153  -0.06650  -0.05667  -0.03865  -0.02869
  Beta virt. eigenvalues --   -0.02413  -0.01975  -0.01658  -0.01447  -0.00684
  Beta virt. eigenvalues --   -0.00196  -0.00028   0.00136   0.00534   0.00654

 Mulliken charges and spin densities:
               1          2
     1  Na  -0.063161   0.078350
     2  Na   0.091139  -0.007475
     3  Na   0.295937   0.109879
     4  Na   0.150858   0.346121
     5  Na  -0.224531  -0.053219
     6  Na  -0.195513   0.512372
     7  Na  -0.054729   0.013974
 Sum of Mulliken charges =  -0.00000   1.00000

 Dipole moment (field-independent basis, Debye):
    X=             -0.1592    Y=              0.1534    Z=             -0.3238  Tot=              0.3921
 Quadrupole moment (field-independent basis, Debye-Ang):
   XX=            -49.5204   YY=            -72.2146   ZZ=            -72.5246
   XY=              1.0942   XZ=              0.7341   YZ=              1.0516

 Normal termination of Gaussian 16 at Mon Dec  4 04:32:23 2023.
