 Gaussian 16, Revision B.01,
 Gaussian 16:  ES64L-G16RevB.01 20-Dec-2017

 -------------------------
 #P B3LYP/6-311+g(d) force
 -------------------------

 -----
 DPGEN
 -----
 Symbolic Z-matrix:
 Charge =  0 Multiplicity = 2

                         Standard orientation:
 ---------------------------------------------------------------------
 Center     Atomic      Atomic             Coordinates (Angstroms)
 Number     Number       Type             X           Y           Z
 ---------------------------------------------------------------------
      1         11           0        2.726616    1.224369   -0.790850
      2         11           0       -1.837579   -2.484939   -0.457692
      3         11           0       -2.962969    1.030878   -0.274551
      4         11           0       -0.144923    2.863422    0.477742
      5         11           0        0.109820   -0.208649   -1.565355
      6         11           0       -0.030041   -0.357346    2.232034
      7         11           0        2.139077   -2.067734    0.378672
 ---------------------------------------------------------------------

 SCF Done:  E(UB3LYP) =  -1136.13610764     A.U. after   19 cycles

 The electronic state is 2-A.
 Alpha  occ. eigenvalues --  -38.44168 -38.43902 -38.43751 -38.43680 -38.43569
 Alpha  occ. eigenvalues --  -38.43238 -38.43217  -2.20033  -2.19713  -2.19601
 Alpha  occ. eigenvalues --   -2.19506  -2.19435  -2.19242  -2.19054  -1.13694
 Alpha  occ. eigenvalues --   -1.13660  -1.13654  -1.13398  -1.13375  -1.13349
 Alpha  occ. eigenvalues --   -1.13285  -1.13274  -1.13234  -1.13222  -1.13174
 Alpha  occ. eigenvalues --   -1.13158  -1.13124  -1.13073  -1.13052  -1.12909
 Alpha  occ. eigenvalues --   -1.12866  -1.12856  -1.12730  -1.12716  -1.12691
 Alpha  occ. eigenvalues --   -0.18485  -0.12831  -0.12391  -0.11258
 Alpha virt. eigenvalues --   -0.05456  -0.04976  -0.04647  -0.03286  -0.03154
 Alpha virt. eigenvalues --   -0.02898  -0.01354  -0.01151  -0.00343  -0.00136
 Alpha virt. eigenvalues --    0.00018   0.00358   0.00824   0.00859   0.00880

  Beta  occ. eigenvalues --  -38.44066 -38.43901 -38.43740 -38.43670 -38.43550
  Beta  occ. eigenvalues --  -38.43210 -38.43184  -2.19844  -2.19714  -2.19586
  Beta  occ. eigenvalues --   -2.19491  -2.19402  -2.19143  -2.19044  -1.13571
  Beta  occ. eigenvalues --   -1.13528  -1.13517  -1.13394  -1.13373  -1.13346
  Beta  occ. eigenvalues --   -1.13274  -1.13239  -1.13217  -1.13204  -1.13145
  Beta  occ. eigenvalues --   -1.13139  -1.13112  -1.13045  -1.13033  -1.12842
  Beta  occ. eigenvalues --   -1.12801  -1.12785  -1.12717  -1.12703  -1.12680
  Beta  occ. eigenvalues --   -0.17774  -0.12561  -0.12147
  Beta virt. eigenvalues --   -0.07321  -0.05443  -0.04896  -0.04536  -0.02541
  Beta virt. eigenvalues --   -0.02419  -0.01877  -0.01262  -0.01080  -0.00303
  Beta virt. eigenvalues --   -0.00147   0.00119   0.00396   0.00852   0.00902

 Mulliken charges and spin densities:
               1          2
     1  Na   0.215905   0.051687
     2  Na   0.073037  -0.036125
     3  Na  -0.037940  -0.019581
     4  Na  -0.020831   0.096560
     5  Na  -0.032502   0.217940
     6  Na  -0.343303   0.613685
     7  Na   0.145635   0.075835
 Sum of Mulliken charges =  -0.00000   1.00000

 Dipole moment (field-independent basis, Debye):
    X=             -0.1193    Y=             -0.2520    Z=              0.2504  Tot=              0.3748
 Quadrupole moment (field-independent basis, Debye-Ang):
   XX=            -59.0956   YY=            -63.2974   ZZ=            -71.9863
   XY=             -0.0238   XZ=              0.0061   YZ=              0.0353

 Normal termination of Gaussian 16 at Tue Dec  5 11:19:27 2023.
