 Gaussian 16, Revision B.01,
 Gaussian 16:  ES64L-G16RevB.01 20-Dec-2017

 -------------------------
 #P B3LYP/6-311+g(d) force
 -------------------------

 -----
 DPGEN
 -----
 Symbolic Z-matrix:
 Charge =  0 Multiplicity = 2

                         Standard orientation:
 ---------------------------------------------------------------------
 Center     Atomic      Atomic             Coordinates (Angstroms)
 Number     Number       Type             X           Y           Z
 ---------------------------------------------------------------------
      1         11           0        0.392811    3.112677    1.766774
      2         11           0        3.894455   -2.769577   -0.123139
      3         11           0       -1.862904   -0.503185   -1.315500
      4         11           0        2.249408   -0.161601   -0.242512
      5         11           0       -1.108346   -0.065349    2.227705
      6         11           0       -3.528581   -2.557823   -0.075679
      7         11           0       -0.036842    2.944858   -2.237650
 ---------------------------------------------------------------------

 SCF Done:  E(UB3LYP) =  -1136.11250141     A.U. after   20 cycles

 The electronic state is 2-A.
 Alpha  occ. eigenvalues --  -38.45665 -38.45120 -38.44679 -38.44558 -38.44502
 Alpha  occ. eigenvalues --  -38.42928 -38.42835  -2.21455  -2.20892  -2.20442
 Alpha  occ. eigenvalues --   -2.20417  -2.20323  -2.18744  -2.18627  -1.15124
 Alpha  occ. eigenvalues --   -1.15120  -1.15046  -1.14544  -1.14537  -1.14497
 Alpha  occ. eigenvalues --   -1.14218  -1.14118  -1.14102  -1.14077  -1.14073
 Alpha  occ. eigenvalues --   -1.14073  -1.13963  -1.13953  -1.13882  -1.12443
 Alpha  occ. eigenvalues --   -1.12428  -1.12420  -1.12279  -1.12278  -1.12226
 Alpha  occ. eigenvalues --   -0.16891  -0.13122  -0.12116  -0.11623
 Alpha virt. eigenvalues --   -0.06385  -0.05506  -0.04984  -0.03471  -0.02984
 Alpha virt. eigenvalues --   -0.02458  -0.02096  -0.01458  -0.01274  -0.00504
 Alpha virt. eigenvalues --   -0.00432  -0.00082   0.00116   0.00422   0.00625

  Beta  occ. eigenvalues --  -38.45592 -38.45031 -38.44662 -38.44536 -38.44501
  Beta  occ. eigenvalues --  -38.42925 -38.42839  -2.21322  -2.20726  -2.20415
  Beta  occ. eigenvalues --   -2.20377  -2.20321  -2.18739  -2.18635  -1.15039
  Beta  occ. eigenvalues --   -1.15030  -1.14939  -1.14431  -1.14416  -1.14392
  Beta  occ. eigenvalues --   -1.14196  -1.14103  -1.14073  -1.14049  -1.14048
  Beta  occ. eigenvalues --   -1.14048  -1.13961  -1.13947  -1.13865  -1.12445
  Beta  occ. eigenvalues --   -1.12425  -1.12408  -1.12285  -1.12284  -1.12230
  Beta  occ. eigenvalues --   -0.16159  -0.12969  -0.11496
  Beta virt. eigenvalues --   -0.08118  -0.06239  -0.04948  -0.04579  -0.02950
  Beta virt. eigenvalues --   -0.02718  -0.02100  -0.01963  -0.01359  -0.00780
  Beta virt. eigenvalues --   -0.00427  -0.00151   0.00098   0.00181   0.00619

 Mulliken charges and spin densities:
               1          2
     1  Na   0.204276  -0.015954
     2  Na   0.022672  -0.046820
     3  Na  -0.781325   0.169050
     4  Na  -0.670677   0.164878
     5  Na   0.080849   0.399714
     6  Na   0.560872   0.096076
     7  Na   0.583333   0.233056
 Sum of Mulliken charges =  -0.00000   1.00000

 Dipole moment (field-independent basis, Debye):
    X=             -2.0601    Y=              0.4815    Z=              0.6037  Tot=              2.2001
 Quadrupole moment (field-independent basis, Debye-Ang):
   XX=            -71.6395   YY=            -58.6347   ZZ=            -66.0955
   XY=              7.4096   XZ=             -0.5338   YZ=             -2.7634

 Normal termination of Gaussian 16 at Sun Dec  3 17:55:43 2023.
