 Gaussian 16, Revision B.01,
 Gaussian 16:  ES64L-G16RevB.01 20-Dec-2017

 -------------------------
 #P B3LYP/6-311+g(d) force
 -------------------------

 -----
 DPGEN
 -----
 Symbolic Z-matrix:
 Charge =  0 Multiplicity = 2

                         Standard orientation:
 ---------------------------------------------------------------------
 Center     Atomic      Atomic             Coordinates (Angstroms)
 Number     Number       Type             X           Y           Z
 ---------------------------------------------------------------------
      1         11           0        0.981293   -0.092934   -1.905323
      2         11           0        2.808305   -0.900120    0.171003
      3         11           0        1.597379    2.281046    0.351146
      4         11           0       -1.503260    2.305198   -0.302105
      5         11           0       -0.380238   -2.597396   -0.434287
      6         11           0       -3.440323   -0.411619   -0.101602
      7         11           0       -0.063155   -0.584176    2.221168
 ---------------------------------------------------------------------

 SCF Done:  E(UB3LYP) =  -1136.13062601     A.U. after   19 cycles

 The electronic state is 2-A.
 Alpha  occ. eigenvalues --  -38.44291 -38.44261 -38.44149 -38.43942 -38.43342
 Alpha  occ. eigenvalues --  -38.43206 -38.43155  -2.20124  -2.20072  -2.20068
 Alpha  occ. eigenvalues --   -2.19919  -2.19211  -2.19057  -2.19049  -1.13921
 Alpha  occ. eigenvalues --   -1.13791  -1.13757  -1.13749  -1.13745  -1.13739
 Alpha  occ. eigenvalues --   -1.13708  -1.13705  -1.13674  -1.13562  -1.13525
 Alpha  occ. eigenvalues --   -1.13501  -1.12909  -1.12886  -1.12813  -1.12807
 Alpha  occ. eigenvalues --   -1.12728  -1.12711  -1.12704  -1.12695  -1.12640
 Alpha  occ. eigenvalues --   -0.18723  -0.13022  -0.12370  -0.11400
 Alpha virt. eigenvalues --   -0.05963  -0.04832  -0.04349  -0.03564  -0.03145
 Alpha virt. eigenvalues --   -0.03019  -0.01514  -0.00756  -0.00266  -0.00138
 Alpha virt. eigenvalues --    0.00020   0.00354   0.00678   0.00856   0.00900

  Beta  occ. eigenvalues --  -38.44294 -38.44166 -38.44139 -38.43870 -38.43331
  Beta  occ. eigenvalues --  -38.43203 -38.43147  -2.20078  -2.20056  -2.19948
  Beta  occ. eigenvalues --   -2.19788  -2.19194  -2.19053  -2.19038  -1.13884
  Beta  occ. eigenvalues --   -1.13749  -1.13739  -1.13714  -1.13698  -1.13673
  Beta  occ. eigenvalues --   -1.13657  -1.13632  -1.13605  -1.13477  -1.13439
  Beta  occ. eigenvalues --   -1.13414  -1.12894  -1.12847  -1.12806  -1.12805
  Beta  occ. eigenvalues --   -1.12718  -1.12701  -1.12700  -1.12665  -1.12637
  Beta  occ. eigenvalues --   -0.17947  -0.12857  -0.12138
  Beta virt. eigenvalues --   -0.07406  -0.05865  -0.04824  -0.04217  -0.02808
  Beta virt. eigenvalues --   -0.02387  -0.01987  -0.01463  -0.00716  -0.00278
  Beta virt. eigenvalues --   -0.00022   0.00055   0.00407   0.00868   0.00924

 Mulliken charges and spin densities:
               1          2
     1  Na  -0.055629   0.508439
     2  Na   0.680974   0.055502
     3  Na  -0.022667   0.056018
     4  Na  -0.125124  -0.072104
     5  Na   0.088407  -0.089085
     6  Na  -0.045871  -0.090361
     7  Na  -0.520090   0.631592
 Sum of Mulliken charges =  -0.00000   1.00000

 Dipole moment (field-independent basis, Debye):
    X=             -0.0509    Y=             -0.3539    Z=              0.2167  Tot=              0.4181
 Quadrupole moment (field-independent basis, Debye-Ang):
   XX=            -57.7936   YY=            -68.9236   ZZ=            -69.8230
   XY=              0.7508   XZ=              1.4788   YZ=              0.5488

 Normal termination of Gaussian 16 at Thu Dec  7 08:37:19 2023.
