 Gaussian 16, Revision B.01,
 Gaussian 16:  ES64L-G16RevB.01 20-Dec-2017

 -------------------------
 #P B3LYP/6-311+g(d) force
 -------------------------

 -----
 DPGEN
 -----
 Symbolic Z-matrix:
 Charge =  0 Multiplicity = 2

                         Standard orientation:
 ---------------------------------------------------------------------
 Center     Atomic      Atomic             Coordinates (Angstroms)
 Number     Number       Type             X           Y           Z
 ---------------------------------------------------------------------
      1         11           0        0.891029    2.553858   -0.254030
      2         11           0       -0.150474   -0.038084   -1.798662
      3         11           0        0.045416   -0.509379    1.835153
      4         11           0       -2.112973    1.821459    0.172925
      5         11           0        2.955861    0.068842    0.446303
      6         11           0        0.989391   -2.443557   -0.591299
      7         11           0       -2.618250   -1.453139    0.189610
 ---------------------------------------------------------------------

 SCF Done:  E(UB3LYP) =  -1136.13450135     A.U. after   17 cycles

 The electronic state is 2-A.
 Alpha  occ. eigenvalues --  -38.43714 -38.43641 -38.43511 -38.43478 -38.43430
 Alpha  occ. eigenvalues --  -38.43388 -38.43002  -2.19601  -2.19519  -2.19514
 Alpha  occ. eigenvalues --   -2.19493  -2.19370  -2.19304  -2.18921  -1.13339
 Alpha  occ. eigenvalues --   -1.13306  -1.13254  -1.13252  -1.13245  -1.13201
 Alpha  occ. eigenvalues --   -1.13180  -1.13164  -1.13146  -1.13131  -1.13107
 Alpha  occ. eigenvalues --   -1.13084  -1.13003  -1.12993  -1.12982  -1.12955
 Alpha  occ. eigenvalues --   -1.12952  -1.12936  -1.12600  -1.12569  -1.12550
 Alpha  occ. eigenvalues --   -0.19454  -0.13211  -0.12653  -0.11300
 Alpha virt. eigenvalues --   -0.05311  -0.04891  -0.04410  -0.03387  -0.03089
 Alpha virt. eigenvalues --   -0.02766  -0.01352  -0.00885  -0.00120   0.00132
 Alpha virt. eigenvalues --    0.00167   0.00365   0.00894   0.00948   0.00976

  Beta  occ. eigenvalues --  -38.43703 -38.43634 -38.43436 -38.43408 -38.43392
  Beta  occ. eigenvalues --  -38.43384 -38.42996  -2.19584  -2.19511  -2.19364
  Beta  occ. eigenvalues --   -2.19355  -2.19330  -2.19298  -2.18915  -1.13289
  Beta  occ. eigenvalues --   -1.13254  -1.13243  -1.13221  -1.13212  -1.13177
  Beta  occ. eigenvalues --   -1.13142  -1.13099  -1.13068  -1.13041  -1.13014
  Beta  occ. eigenvalues --   -1.12995  -1.12985  -1.12950  -1.12945  -1.12933
  Beta  occ. eigenvalues --   -1.12920  -1.12897  -1.12590  -1.12562  -1.12532
  Beta  occ. eigenvalues --   -0.18712  -0.12930  -0.12375
  Beta virt. eigenvalues --   -0.07308  -0.05274  -0.04885  -0.04386  -0.02574
  Beta virt. eigenvalues --   -0.02293  -0.01669  -0.01251  -0.00826  -0.00041
  Beta virt. eigenvalues --    0.00120   0.00165   0.00393   0.00930   0.00951

 Mulliken charges and spin densities:
               1          2
     1  Na   0.110919  -0.018895
     2  Na  -0.316781   0.496286
     3  Na  -0.458607   0.581192
     4  Na   0.005926  -0.016025
     5  Na   0.104370   0.035944
     6  Na   0.321646  -0.022899
     7  Na   0.232526  -0.055604
 Sum of Mulliken charges =  -0.00000   1.00000

 Dipole moment (field-independent basis, Debye):
    X=             -0.0688    Y=             -0.2169    Z=              0.1845  Tot=              0.2930
 Quadrupole moment (field-independent basis, Debye-Ang):
   XX=            -58.0240   YY=            -65.0250   ZZ=            -71.8399
   XY=              0.4891   XZ=             -0.0938   YZ=              0.8544

 Normal termination of Gaussian 16 at Thu Dec  7 22:47:16 2023.
