 Gaussian 16, Revision B.01,
 Gaussian 16:  ES64L-G16RevB.01 20-Dec-2017

 -------------------------
 #P B3LYP/6-311+g(d) force
 -------------------------

 -----
 DPGEN
 -----
 Symbolic Z-matrix:
 Charge =  0 Multiplicity = 2

                         Standard orientation:
 ---------------------------------------------------------------------
 Center     Atomic      Atomic             Coordinates (Angstroms)
 Number     Number       Type             X           Y           Z
 ---------------------------------------------------------------------
      1         11           0        2.182716   -1.923206    0.893609
      2         11           0        1.699545    0.753407   -0.963508
      3         11           0       -2.617323    1.925835   -0.806554
      4         11           0       -1.454040   -1.810895    0.466340
      5         11           0       -4.368802   -1.174550   -0.608806
      6         11           0       -0.065358    2.157081    1.944365
      7         11           0        4.623262    0.072327   -0.925445
 ---------------------------------------------------------------------

 SCF Done:  E(UB3LYP) =  -1136.11860741     A.U. after   24 cycles

 The electronic state is 2-A.
 Alpha  occ. eigenvalues --  -38.44711 -38.44521 -38.44428 -38.44419 -38.43747
 Alpha  occ. eigenvalues --  -38.43440 -38.43252  -2.20481  -2.20355  -2.20316
 Alpha  occ. eigenvalues --   -2.20279  -2.19572  -2.19213  -2.19080  -1.14181
 Alpha  occ. eigenvalues --   -1.14141  -1.14108  -1.14086  -1.14073  -1.14022
 Alpha  occ. eigenvalues --   -1.13988  -1.13977  -1.13944  -1.13906  -1.13887
 Alpha  occ. eigenvalues --   -1.13817  -1.13267  -1.13229  -1.13221  -1.12886
 Alpha  occ. eigenvalues --   -1.12874  -1.12838  -1.12738  -1.12732  -1.12721
 Alpha  occ. eigenvalues --   -0.17163  -0.14293  -0.11519  -0.11087
 Alpha virt. eigenvalues --   -0.06006  -0.05969  -0.04557  -0.03173  -0.02960
 Alpha virt. eigenvalues --   -0.02637  -0.02037  -0.01346  -0.01153  -0.00664
 Alpha virt. eigenvalues --   -0.00125   0.00120   0.00277   0.00533   0.00629

  Beta  occ. eigenvalues --  -38.44690 -38.44476 -38.44413 -38.44354 -38.43719
  Beta  occ. eigenvalues --  -38.43427 -38.43238  -2.20442  -2.20292  -2.20277
  Beta  occ. eigenvalues --   -2.20160  -2.19524  -2.19189  -2.19054  -1.14156
  Beta  occ. eigenvalues --   -1.14118  -1.14063  -1.14049  -1.14025  -1.13973
  Beta  occ. eigenvalues --   -1.13951  -1.13931  -1.13879  -1.13826  -1.13807
  Beta  occ. eigenvalues --   -1.13764  -1.13240  -1.13200  -1.13158  -1.12870
  Beta  occ. eigenvalues --   -1.12853  -1.12824  -1.12724  -1.12715  -1.12694
  Beta  occ. eigenvalues --   -0.16472  -0.13855  -0.11093
  Beta virt. eigenvalues --   -0.07651  -0.05792  -0.05654  -0.04047  -0.02940
  Beta virt. eigenvalues --   -0.02689  -0.02220  -0.01694  -0.01190  -0.00772
  Beta virt. eigenvalues --   -0.00386   0.00001   0.00196   0.00384   0.00658

 Mulliken charges and spin densities:
               1          2
     1  Na   0.159150  -0.060220
     2  Na  -1.289916   0.175974
     3  Na   0.003700   0.089121
     4  Na  -0.866783  -0.037963
     5  Na   0.743618   0.527797
     6  Na   0.065387   0.175136
     7  Na   1.184842   0.130155
 Sum of Mulliken charges =  -0.00000   1.00000

 Dipole moment (field-independent basis, Debye):
    X=              1.0786    Y=              0.2914    Z=              0.1062  Tot=              1.1223
 Quadrupole moment (field-independent basis, Debye-Ang):
   XX=            -57.2560   YY=            -74.6246   ZZ=            -65.7361
   XY=             -4.3791   XZ=              3.2242   YZ=             -3.1594

 Normal termination of Gaussian 16 at Tue Nov 28 21:54:27 2023.
