 Gaussian 16, Revision B.01,
 Gaussian 16:  ES64L-G16RevB.01 20-Dec-2017

 -------------------------
 #P B3LYP/6-311+g(d) force
 -------------------------

 -----
 DPGEN
 -----
 Symbolic Z-matrix:
 Charge =  0 Multiplicity = 2

                         Standard orientation:
 ---------------------------------------------------------------------
 Center     Atomic      Atomic             Coordinates (Angstroms)
 Number     Number       Type             X           Y           Z
 ---------------------------------------------------------------------
      1         11           0       -2.284830   -1.487156    1.497802
      2         11           0       -0.976991    1.221719   -0.468600
      3         11           0        2.142710    0.673682    1.232207
      4         11           0        0.580737   -2.061150   -0.774626
      5         11           0        3.860077   -1.807019   -0.538045
      6         11           0        0.845765    3.778709   -0.220007
      7         11           0       -4.167468   -0.318785   -0.728732
 ---------------------------------------------------------------------

 SCF Done:  E(UB3LYP) =  -1136.12254555     A.U. after   23 cycles

 The electronic state is 2-A.
 Alpha  occ. eigenvalues --  -38.45027 -38.44343 -38.44299 -38.43764 -38.43648
 Alpha  occ. eigenvalues --  -38.43332 -38.43156  -2.20836  -2.20195  -2.20138
 Alpha  occ. eigenvalues --   -2.19666  -2.19464  -2.19196  -2.18996  -1.14535
 Alpha  occ. eigenvalues --   -1.14524  -1.14434  -1.13873  -1.13860  -1.13844
 Alpha  occ. eigenvalues --   -1.13836  -1.13797  -1.13751  -1.13382  -1.13358
 Alpha  occ. eigenvalues --   -1.13308  -1.13122  -1.13118  -1.13080  -1.12851
 Alpha  occ. eigenvalues --   -1.12829  -1.12814  -1.12654  -1.12641  -1.12622
 Alpha  occ. eigenvalues --   -0.17545  -0.13901  -0.12592  -0.09754
 Alpha virt. eigenvalues --   -0.06839  -0.05608  -0.04630  -0.03390  -0.02846
 Alpha virt. eigenvalues --   -0.02480  -0.01670  -0.01345  -0.01005  -0.00478
 Alpha virt. eigenvalues --   -0.00232  -0.00082   0.00185   0.00548   0.00635

  Beta  occ. eigenvalues --  -38.45021 -38.44319 -38.44283 -38.43753 -38.43652
  Beta  occ. eigenvalues --  -38.43257 -38.43105  -2.20828  -2.20156  -2.20113
  Beta  occ. eigenvalues --   -2.19651  -2.19471  -2.19055  -2.18901  -1.14522
  Beta  occ. eigenvalues --   -1.14506  -1.14430  -1.13846  -1.13832  -1.13828
  Beta  occ. eigenvalues --   -1.13783  -1.13774  -1.13709  -1.13377  -1.13324
  Beta  occ. eigenvalues --   -1.13292  -1.13126  -1.13123  -1.13083  -1.12755
  Beta  occ. eigenvalues --   -1.12731  -1.12723  -1.12587  -1.12575  -1.12564
  Beta  occ. eigenvalues --   -0.17011  -0.13398  -0.12402
  Beta virt. eigenvalues --   -0.06737  -0.06229  -0.05356  -0.04243  -0.03113
  Beta virt. eigenvalues --   -0.02459  -0.02313  -0.01566  -0.01151  -0.00403
  Beta virt. eigenvalues --   -0.00370   0.00112   0.00187   0.00334   0.00610

 Mulliken charges and spin densities:
               1          2
     1  Na   0.442228   0.203076
     2  Na  -1.584896   0.072313
     3  Na  -0.065390   0.112864
     4  Na  -0.285252  -0.108338
     5  Na   0.349636   0.348708
     6  Na   0.805839  -0.056717
     7  Na   0.337835   0.428093
 Sum of Mulliken charges =  -0.00000   1.00000

 Dipole moment (field-independent basis, Debye):
    X=              0.5134    Y=             -0.0636    Z=              0.8694  Tot=              1.0117
 Quadrupole moment (field-independent basis, Debye-Ang):
   XX=            -73.6546   YY=            -65.8495   ZZ=            -63.9568
   XY=              6.3936   XZ=             -0.2006   YZ=              0.3976

 Normal termination of Gaussian 16 at Tue Nov 28 21:08:58 2023.
