 Gaussian 16, Revision B.01,
 Gaussian 16:  ES64L-G16RevB.01 20-Dec-2017

 -------------------------
 #P B3LYP/6-311+g(d) force
 -------------------------

 -----
 DPGEN
 -----
 Symbolic Z-matrix:
 Charge =  0 Multiplicity = 2

                         Standard orientation:
 ---------------------------------------------------------------------
 Center     Atomic      Atomic             Coordinates (Angstroms)
 Number     Number       Type             X           Y           Z
 ---------------------------------------------------------------------
      1         11           0        2.079369   -1.897733    0.103562
      2         11           0        0.086311   -0.315947   -1.797732
      3         11           0       -1.244435   -2.487080    0.164546
      4         11           0        0.167090    0.119585    1.901546
      5         11           0        2.590169    1.465980   -0.281887
      6         11           0       -3.064405    0.418614   -0.204751
      7         11           0       -0.614099    2.696582    0.114715
 ---------------------------------------------------------------------

 SCF Done:  E(UB3LYP) =  -1136.14016501     A.U. after   19 cycles

 The electronic state is 2-A.
 Alpha  occ. eigenvalues --  -38.43725 -38.43556 -38.43407 -38.43402 -38.43339
 Alpha  occ. eigenvalues --  -38.43265 -38.43219  -2.19567  -2.19428  -2.19375
 Alpha  occ. eigenvalues --   -2.19330  -2.19322  -2.19169  -2.19105  -1.13240
 Alpha  occ. eigenvalues --   -1.13227  -1.13222  -1.13139  -1.13103  -1.13089
 Alpha  occ. eigenvalues --   -1.13076  -1.13054  -1.13043  -1.12994  -1.12989
 Alpha  occ. eigenvalues --   -1.12966  -1.12956  -1.12939  -1.12911  -1.12830
 Alpha  occ. eigenvalues --   -1.12823  -1.12784  -1.12781  -1.12764  -1.12727
 Alpha  occ. eigenvalues --   -0.19215  -0.13011  -0.12731  -0.11021
 Alpha virt. eigenvalues --   -0.05286  -0.05036  -0.04625  -0.03170  -0.03083
 Alpha virt. eigenvalues --   -0.02636  -0.01319  -0.01005  -0.00131  -0.00044
 Alpha virt. eigenvalues --    0.00010   0.00372   0.00874   0.00941   0.00957

  Beta  occ. eigenvalues --  -38.43723 -38.43549 -38.43393 -38.43319 -38.43263
  Beta  occ. eigenvalues --  -38.43258 -38.43214  -2.19566  -2.19418  -2.19312
  Beta  occ. eigenvalues --   -2.19215  -2.19189  -2.19159  -2.19098  -1.13236
  Beta  occ. eigenvalues --   -1.13227  -1.13209  -1.13118  -1.13081  -1.13059
  Beta  occ. eigenvalues --   -1.13054  -1.12980  -1.12951  -1.12944  -1.12917
  Beta  occ. eigenvalues --   -1.12895  -1.12876  -1.12871  -1.12830  -1.12805
  Beta  occ. eigenvalues --   -1.12786  -1.12772  -1.12764  -1.12733  -1.12727
  Beta  occ. eigenvalues --   -0.18455  -0.12756  -0.12462
  Beta virt. eigenvalues --   -0.07063  -0.05257  -0.05045  -0.04596  -0.02370
  Beta virt. eigenvalues --   -0.02247  -0.01564  -0.01239  -0.00940  -0.00160
  Beta virt. eigenvalues --   -0.00105   0.00120   0.00388   0.00928   0.00934

 Mulliken charges and spin densities:
               1          2
     1  Na   0.397377  -0.048123
     2  Na  -0.472200   0.668466
     3  Na   0.224822  -0.061535
     4  Na  -0.426602   0.666252
     5  Na   0.143719  -0.066207
     6  Na  -0.017569  -0.086475
     7  Na   0.150453  -0.072379
 Sum of Mulliken charges =  -0.00000   1.00000

 Dipole moment (field-independent basis, Debye):
    X=             -0.0065    Y=              0.0153    Z=              0.0028  Tot=              0.0169
 Quadrupole moment (field-independent basis, Debye-Ang):
   XX=            -57.9584   YY=            -63.3274   ZZ=            -72.8406
   XY=              0.2824   XZ=             -0.1116   YZ=             -1.0425

 Normal termination of Gaussian 16 at Thu Dec  7 12:04:49 2023.
