 Gaussian 16, Revision B.01,
 Gaussian 16:  ES64L-G16RevB.01 20-Dec-2017

 -------------------------
 #P B3LYP/6-311+g(d) force
 -------------------------

 -----
 DPGEN
 -----
 Symbolic Z-matrix:
 Charge =  0 Multiplicity = 2

                         Standard orientation:
 ---------------------------------------------------------------------
 Center     Atomic      Atomic             Coordinates (Angstroms)
 Number     Number       Type             X           Y           Z
 ---------------------------------------------------------------------
      1         11           0        2.646885   -1.436231   -0.383406
      2         11           0       -2.811874   -0.718753   -0.556951
      3         11           0       -1.430086    2.675295   -0.256976
      4         11           0        0.286584    0.082271   -1.400912
      5         11           0        2.386697    1.585654    0.209723
      6         11           0       -0.341259    0.469390    1.876237
      7         11           0       -0.736947   -2.657626    0.512285
 ---------------------------------------------------------------------

 SCF Done:  E(UB3LYP) =  -1136.13144463     A.U. after   19 cycles

 The electronic state is 2-A.
 Alpha  occ. eigenvalues --  -38.43892 -38.43873 -38.43732 -38.43454 -38.43215
 Alpha  occ. eigenvalues --  -38.43169 -38.42956  -2.19816  -2.19772  -2.19638
 Alpha  occ. eigenvalues --   -2.19315  -2.19183  -2.19070  -2.19065  -1.13575
 Alpha  occ. eigenvalues --   -1.13482  -1.13480  -1.13455  -1.13436  -1.13398
 Alpha  occ. eigenvalues --   -1.13365  -1.13262  -1.13242  -1.13016  -1.12998
 Alpha  occ. eigenvalues --   -1.12940  -1.12878  -1.12807  -1.12796  -1.12746
 Alpha  occ. eigenvalues --   -1.12732  -1.12716  -1.12708  -1.12688  -1.12667
 Alpha  occ. eigenvalues --   -0.19286  -0.13443  -0.12547  -0.10779
 Alpha virt. eigenvalues --   -0.05422  -0.05136  -0.04537  -0.03285  -0.02895
 Alpha virt. eigenvalues --   -0.02287  -0.01415  -0.01148  -0.00185  -0.00042
 Alpha virt. eigenvalues --    0.00110   0.00366   0.00856   0.00890   0.00942

  Beta  occ. eigenvalues --  -38.43884 -38.43859 -38.43724 -38.43448 -38.43157
  Beta  occ. eigenvalues --  -38.43129 -38.42901  -2.19804  -2.19749  -2.19628
  Beta  occ. eigenvalues --   -2.19307  -2.19051  -2.19024  -2.18967  -1.13567
  Beta  occ. eigenvalues --   -1.13469  -1.13465  -1.13428  -1.13395  -1.13385
  Beta  occ. eigenvalues --   -1.13348  -1.13246  -1.13233  -1.13005  -1.12972
  Beta  occ. eigenvalues --   -1.12928  -1.12786  -1.12736  -1.12707  -1.12691
  Beta  occ. eigenvalues --   -1.12687  -1.12651  -1.12651  -1.12618  -1.12605
  Beta  occ. eigenvalues --   -0.18568  -0.13157  -0.12301
  Beta virt. eigenvalues --   -0.06844  -0.05394  -0.05078  -0.04501  -0.02497
  Beta virt. eigenvalues --   -0.02148  -0.01331  -0.01245  -0.01101  -0.00133
  Beta virt. eigenvalues --   -0.00050   0.00181   0.00402   0.00879   0.00925

 Mulliken charges and spin densities:
               1          2
     1  Na   0.193326   0.050193
     2  Na   0.058944   0.036430
     3  Na   0.019492  -0.028764
     4  Na  -0.423762   0.215768
     5  Na   0.314893   0.016761
     6  Na  -0.312045   0.617388
     7  Na   0.149152   0.092223
 Sum of Mulliken charges =  -0.00000   1.00000

 Dipole moment (field-independent basis, Debye):
    X=              0.0227    Y=              0.1935    Z=              0.1593  Tot=              0.2516
 Quadrupole moment (field-independent basis, Debye-Ang):
   XX=            -57.3156   YY=            -61.7497   ZZ=            -74.1400
   XY=             -0.7224   XZ=              1.5879   YZ=             -0.6575

 Normal termination of Gaussian 16 at Tue Dec  5 19:24:51 2023.
