 Gaussian 16, Revision B.01,
 Gaussian 16:  ES64L-G16RevB.01 20-Dec-2017

 -------------------------
 #P B3LYP/6-311+g(d) force
 -------------------------

 -----
 DPGEN
 -----
 Symbolic Z-matrix:
 Charge =  0 Multiplicity = 2

                         Standard orientation:
 ---------------------------------------------------------------------
 Center     Atomic      Atomic             Coordinates (Angstroms)
 Number     Number       Type             X           Y           Z
 ---------------------------------------------------------------------
      1         11           0        0.220799    3.039386    0.080917
      2         11           0        0.358025    0.123470    1.785307
      3         11           0        3.111049    0.783476   -0.262656
      4         11           0       -2.409194   -1.699562    0.772342
      5         11           0       -0.377202   -0.773722   -1.553059
      6         11           0       -2.854340    0.970914   -0.632701
      7         11           0        1.950863   -2.443962   -0.190150
 ---------------------------------------------------------------------

 SCF Done:  E(UB3LYP) =  -1136.13216577     A.U. after   20 cycles

 The electronic state is 2-A.
 Alpha  occ. eigenvalues --  -38.44569 -38.43974 -38.43948 -38.43525 -38.43375
 Alpha  occ. eigenvalues --  -38.43276 -38.43134  -2.20384  -2.19869  -2.19848
 Alpha  occ. eigenvalues --   -2.19380  -2.19348  -2.19211  -2.18944  -1.14068
 Alpha  occ. eigenvalues --   -1.14046  -1.14011  -1.13655  -1.13562  -1.13508
 Alpha  occ. eigenvalues --   -1.13499  -1.13473  -1.13417  -1.13123  -1.13043
 Alpha  occ. eigenvalues --   -1.13019  -1.13015  -1.12972  -1.12943  -1.12893
 Alpha  occ. eigenvalues --   -1.12840  -1.12835  -1.12622  -1.12606  -1.12580
 Alpha  occ. eigenvalues --   -0.18650  -0.13617  -0.12120  -0.10617
 Alpha virt. eigenvalues --   -0.05989  -0.05209  -0.04597  -0.03502  -0.02652
 Alpha virt. eigenvalues --   -0.02280  -0.01748  -0.01110  -0.00499  -0.00255
 Alpha virt. eigenvalues --    0.00007   0.00345   0.00737   0.00832   0.00851

  Beta  occ. eigenvalues --  -38.44566 -38.43954 -38.43924 -38.43519 -38.43323
  Beta  occ. eigenvalues --  -38.43198 -38.43134  -2.20380  -2.19835  -2.19807
  Beta  occ. eigenvalues --   -2.19373  -2.19255  -2.19068  -2.18946  -1.14056
  Beta  occ. eigenvalues --   -1.14043  -1.14007  -1.13635  -1.13521  -1.13479
  Beta  occ. eigenvalues --   -1.13461  -1.13431  -1.13389  -1.13098  -1.13023
  Beta  occ. eigenvalues --   -1.13001  -1.12959  -1.12909  -1.12882  -1.12800
  Beta  occ. eigenvalues --   -1.12747  -1.12725  -1.12612  -1.12605  -1.12578
  Beta  occ. eigenvalues --   -0.17957  -0.13378  -0.11903
  Beta virt. eigenvalues --   -0.06736  -0.05923  -0.05141  -0.04490  -0.02784
  Beta virt. eigenvalues --   -0.02003  -0.01647  -0.01306  -0.01012  -0.00502
  Beta virt. eigenvalues --   -0.00233   0.00148   0.00399   0.00804   0.00852

 Mulliken charges and spin densities:
               1          2
     1  Na  -0.200440  -0.029490
     2  Na  -0.036330   0.474945
     3  Na  -0.123957  -0.032202
     4  Na   0.049779   0.140474
     5  Na  -0.036517   0.337920
     6  Na   0.146658   0.074726
     7  Na   0.200807   0.033627
 Sum of Mulliken charges =  -0.00000   1.00000

 Dipole moment (field-independent basis, Debye):
    X=              0.2799    Y=             -0.1209    Z=              0.0001  Tot=              0.3049
 Quadrupole moment (field-independent basis, Debye-Ang):
   XX=            -54.0969   YY=            -64.7993   ZZ=            -74.7074
   XY=              0.0842   XZ=             -1.2644   YZ=             -2.4311

 Normal termination of Gaussian 16 at Sun Dec  3 22:19:31 2023.
