 Gaussian 16, Revision B.01,
 Gaussian 16:  ES64L-G16RevB.01 20-Dec-2017

 -------------------------
 #P B3LYP/6-311+g(d) force
 -------------------------

 -----
 DPGEN
 -----
 Symbolic Z-matrix:
 Charge =  0 Multiplicity = 2

                         Standard orientation:
 ---------------------------------------------------------------------
 Center     Atomic      Atomic             Coordinates (Angstroms)
 Number     Number       Type             X           Y           Z
 ---------------------------------------------------------------------
      1         11           0        1.216318    1.608411    1.621543
      2         11           0       -2.021533   -0.590214    1.563473
      3         11           0        1.677468   -2.138583    0.573662
      4         11           0       -3.723104   -0.984949   -0.694156
      5         11           0        3.796735   -0.258403   -0.817112
      6         11           0       -0.844886    2.701106   -0.694939
      7         11           0       -0.100999   -0.337367   -1.552471
 ---------------------------------------------------------------------

 SCF Done:  E(UB3LYP) =  -1136.12048924     A.U. after   22 cycles

 The electronic state is 2-A.
 Alpha  occ. eigenvalues --  -38.45232 -38.44390 -38.44116 -38.44076 -38.43838
 Alpha  occ. eigenvalues --  -38.43210 -38.42790  -2.21029  -2.20228  -2.20015
 Alpha  occ. eigenvalues --   -2.19929  -2.19729  -2.19052  -2.18637  -1.14699
 Alpha  occ. eigenvalues --   -1.14684  -1.14667  -1.14025  -1.13859  -1.13849
 Alpha  occ. eigenvalues --   -1.13743  -1.13681  -1.13627  -1.13592  -1.13574
 Alpha  occ. eigenvalues --   -1.13558  -1.13383  -1.13369  -1.13333  -1.12722
 Alpha  occ. eigenvalues --   -1.12704  -1.12690  -1.12324  -1.12277  -1.12269
 Alpha  occ. eigenvalues --   -0.18068  -0.13715  -0.11475  -0.10856
 Alpha virt. eigenvalues --   -0.06938  -0.04696  -0.04540  -0.03316  -0.02807
 Alpha virt. eigenvalues --   -0.02724  -0.02348  -0.01052  -0.00724  -0.00180
 Alpha virt. eigenvalues --    0.00096   0.00254   0.00339   0.00720   0.00831

  Beta  occ. eigenvalues --  -38.45224 -38.44389 -38.44064 -38.44060 -38.43799
  Beta  occ. eigenvalues --  -38.43172 -38.42775  -2.21015  -2.20228  -2.19916
  Beta  occ. eigenvalues --   -2.19909  -2.19657  -2.18983  -2.18611  -1.14689
  Beta  occ. eigenvalues --   -1.14670  -1.14656  -1.14019  -1.13860  -1.13839
  Beta  occ. eigenvalues --   -1.13676  -1.13616  -1.13578  -1.13561  -1.13537
  Beta  occ. eigenvalues --   -1.13520  -1.13331  -1.13317  -1.13282  -1.12675
  Beta  occ. eigenvalues --   -1.12650  -1.12639  -1.12298  -1.12260  -1.12244
  Beta  occ. eigenvalues --   -0.17346  -0.13560  -0.11322
  Beta virt. eigenvalues --   -0.07048  -0.06767  -0.04511  -0.04083  -0.03119
  Beta virt. eigenvalues --   -0.02483  -0.02251  -0.01557  -0.00755  -0.00566
  Beta virt. eigenvalues --   -0.00160   0.00137   0.00304   0.00439   0.00820

 Mulliken charges and spin densities:
               1          2
     1  Na  -0.164530   0.228247
     2  Na  -0.032152   0.139065
     3  Na   0.035339   0.280384
     4  Na   0.264349   0.088264
     5  Na   0.269088   0.010130
     6  Na  -0.206645   0.041081
     7  Na  -0.165448   0.212830
 Sum of Mulliken charges =  -0.00000   1.00000

 Dipole moment (field-independent basis, Debye):
    X=              0.8052    Y=             -0.0714    Z=             -0.3617  Tot=              0.8856
 Quadrupole moment (field-independent basis, Debye-Ang):
   XX=            -50.8847   YY=            -73.3828   ZZ=            -70.1664
   XY=              1.1145   XZ=              1.2530   YZ=             -1.1182

 Normal termination of Gaussian 16 at Tue Dec  5 17:14:22 2023.
