 Gaussian 16, Revision B.01,
 Gaussian 16:  ES64L-G16RevB.01 20-Dec-2017

 -------------------------
 #P B3LYP/6-311+g(d) force
 -------------------------

 -----
 DPGEN
 -----
 Symbolic Z-matrix:
 Charge =  0 Multiplicity = 2

                         Standard orientation:
 ---------------------------------------------------------------------
 Center     Atomic      Atomic             Coordinates (Angstroms)
 Number     Number       Type             X           Y           Z
 ---------------------------------------------------------------------
      1         11           0        2.975413   -0.978009    0.135273
      2         11           0       -0.128817   -3.002093   -0.195085
      3         11           0        1.935504    2.415910   -0.384217
      4         11           0       -2.892944   -0.976840   -0.071993
      5         11           0        0.207258    0.012778    1.832585
      6         11           0       -0.077922    0.062830   -1.509623
      7         11           0       -2.018492    2.465425    0.193060
 ---------------------------------------------------------------------

 SCF Done:  E(UB3LYP) =  -1136.13954441     A.U. after   21 cycles

 The electronic state is 2-A.
 Alpha  occ. eigenvalues --  -38.43944 -38.43807 -38.43799 -38.43799 -38.43400
 Alpha  occ. eigenvalues --  -38.43141 -38.42848  -2.19778  -2.19652  -2.19638
 Alpha  occ. eigenvalues --   -2.19610  -2.19254  -2.19071  -2.18857  -1.13459
 Alpha  occ. eigenvalues --   -1.13442  -1.13415  -1.13343  -1.13328  -1.13317
 Alpha  occ. eigenvalues --   -1.13299  -1.13294  -1.13282  -1.13268  -1.13259
 Alpha  occ. eigenvalues --   -1.13241  -1.12943  -1.12918  -1.12884  -1.12772
 Alpha  occ. eigenvalues --   -1.12691  -1.12682  -1.12548  -1.12485  -1.12475
 Alpha  occ. eigenvalues --   -0.18674  -0.13024  -0.12560  -0.10295
 Alpha virt. eigenvalues --   -0.05526  -0.05359  -0.04970  -0.02980  -0.02740
 Alpha virt. eigenvalues --   -0.02101  -0.01541  -0.01362  -0.00562  -0.00461
 Alpha virt. eigenvalues --    0.00030   0.00348   0.00809   0.00833   0.00861

  Beta  occ. eigenvalues --  -38.43938 -38.43795 -38.43794 -38.43794 -38.43394
  Beta  occ. eigenvalues --  -38.43056 -38.42787  -2.19771  -2.19647  -2.19618
  Beta  occ. eigenvalues --   -2.19606  -2.19247  -2.18916  -2.18746  -1.13447
  Beta  occ. eigenvalues --   -1.13424  -1.13410  -1.13337  -1.13307  -1.13306
  Beta  occ. eigenvalues --   -1.13288  -1.13268  -1.13263  -1.13260  -1.13251
  Beta  occ. eigenvalues --   -1.13238  -1.12934  -1.12902  -1.12873  -1.12669
  Beta  occ. eigenvalues --   -1.12584  -1.12566  -1.12465  -1.12401  -1.12397
  Beta  occ. eigenvalues --   -0.17978  -0.12765  -0.12302
  Beta virt. eigenvalues --   -0.06451  -0.05488  -0.05337  -0.04937  -0.02215
  Beta virt. eigenvalues --   -0.02011  -0.01442  -0.01268  -0.01096  -0.00610
  Beta virt. eigenvalues --   -0.00510   0.00165   0.00384   0.00837   0.00853

 Mulliken charges and spin densities:
               1          2
     1  Na   0.217251  -0.031220
     2  Na   0.127629  -0.065079
     3  Na   0.064939  -0.046725
     4  Na   0.142607  -0.050270
     5  Na  -0.324589   0.767576
     6  Na  -0.279513   0.479563
     7  Na   0.051676  -0.053845
 Sum of Mulliken charges =  -0.00000   1.00000

 Dipole moment (field-independent basis, Debye):
    X=              0.0725    Y=              0.1094    Z=              0.1054  Tot=              0.1683
 Quadrupole moment (field-independent basis, Debye-Ang):
   XX=            -55.7327   YY=            -58.8420   ZZ=            -76.7849
   XY=             -0.5016   XZ=             -0.6341   YZ=              0.1524

 Normal termination of Gaussian 16 at Thu Dec  7 02:18:06 2023.
