 Gaussian 16, Revision B.01,
 Gaussian 16:  ES64L-G16RevB.01 20-Dec-2017

 -------------------------
 #P B3LYP/6-311+g(d) force
 -------------------------

 -----
 DPGEN
 -----
 Symbolic Z-matrix:
 Charge =  0 Multiplicity = 2

                         Standard orientation:
 ---------------------------------------------------------------------
 Center     Atomic      Atomic             Coordinates (Angstroms)
 Number     Number       Type             X           Y           Z
 ---------------------------------------------------------------------
      1         11           0       -1.642309   -2.306967    0.037318
      2         11           0       -2.867048    0.460934    0.094048
      3         11           0        0.145214    0.134048    2.236039
      4         11           0        2.519156    1.295344    0.130468
      5         11           0        2.242016   -2.196047   -0.282149
      6         11           0       -0.302400    2.787031   -0.483527
      7         11           0       -0.094630   -0.174342   -1.732197
 ---------------------------------------------------------------------

 SCF Done:  E(UB3LYP) =  -1136.13690660     A.U. after   19 cycles

 The electronic state is 2-A.
 Alpha  occ. eigenvalues --  -38.44169 -38.43579 -38.43568 -38.43541 -38.43523
 Alpha  occ. eigenvalues --  -38.43381 -38.43083  -2.20039  -2.19481  -2.19452
 Alpha  occ. eigenvalues --   -2.19420  -2.19383  -2.19356  -2.18974  -1.13695
 Alpha  occ. eigenvalues --   -1.13672  -1.13657  -1.13275  -1.13158  -1.13145
 Alpha  occ. eigenvalues --   -1.13130  -1.13129  -1.13126  -1.13096  -1.13065
 Alpha  occ. eigenvalues --   -1.13050  -1.13045  -1.13012  -1.12999  -1.12991
 Alpha  occ. eigenvalues --   -1.12990  -1.12972  -1.12655  -1.12615  -1.12608
 Alpha  occ. eigenvalues --   -0.18953  -0.13093  -0.12407  -0.11330
 Alpha virt. eigenvalues --   -0.05176  -0.05115  -0.04533  -0.03477  -0.03034
 Alpha virt. eigenvalues --   -0.03000  -0.01218  -0.01008  -0.00135  -0.00065
 Alpha virt. eigenvalues --    0.00015   0.00384   0.00852   0.00929   0.00946

  Beta  occ. eigenvalues --  -38.44066 -38.43574 -38.43563 -38.43538 -38.43519
  Beta  occ. eigenvalues --  -38.43314 -38.43072  -2.19851  -2.19476  -2.19446
  Beta  occ. eigenvalues --   -2.19415  -2.19354  -2.19261  -2.18957  -1.13571
  Beta  occ. eigenvalues --   -1.13534  -1.13527  -1.13273  -1.13139  -1.13139
  Beta  occ. eigenvalues --   -1.13112  -1.13101  -1.13096  -1.13089  -1.13042
  Beta  occ. eigenvalues --   -1.13029  -1.13006  -1.12997  -1.12991  -1.12973
  Beta  occ. eigenvalues --   -1.12921  -1.12898  -1.12636  -1.12601  -1.12586
  Beta  occ. eigenvalues --   -0.18190  -0.12857  -0.12162
  Beta virt. eigenvalues --   -0.07346  -0.05181  -0.05033  -0.04507  -0.02611
  Beta virt. eigenvalues --   -0.02250  -0.01950  -0.01140  -0.00933  -0.00134
  Beta virt. eigenvalues --   -0.00093   0.00101   0.00399   0.00919   0.00935

 Mulliken charges and spin densities:
               1          2
     1  Na   0.167367  -0.028998
     2  Na   0.203405   0.053874
     3  Na  -0.596697   0.615190
     4  Na   0.211898   0.045960
     5  Na   0.072050  -0.077651
     6  Na   0.228456   0.017489
     7  Na  -0.286479   0.374135
 Sum of Mulliken charges =  -0.00000   1.00000

 Dipole moment (field-independent basis, Debye):
    X=              0.0659    Y=             -0.1140    Z=              0.2977  Tot=              0.3255
 Quadrupole moment (field-independent basis, Debye-Ang):
   XX=            -60.5134   YY=            -63.7297   ZZ=            -71.2007
   XY=             -0.5688   XZ=             -0.4102   YZ=             -0.5493

 Normal termination of Gaussian 16 at Thu Dec  7 08:37:59 2023.
