 Gaussian 16, Revision B.01,
 Gaussian 16:  ES64L-G16RevB.01 20-Dec-2017

 -------------------------
 #P B3LYP/6-311+g(d) force
 -------------------------

 -----
 DPGEN
 -----
 Symbolic Z-matrix:
 Charge =  0 Multiplicity = 2

                         Standard orientation:
 ---------------------------------------------------------------------
 Center     Atomic      Atomic             Coordinates (Angstroms)
 Number     Number       Type             X           Y           Z
 ---------------------------------------------------------------------
      1         11           0        0.618171   -0.975194    1.323743
      2         11           0        2.254364   -2.848006   -0.484791
      3         11           0        4.007093   -0.561636   -0.348398
      4         11           0       -0.370958    1.453128   -0.925666
      5         11           0       -3.090376    0.119841    1.042852
      6         11           0        2.126076    3.360071    0.153908
      7         11           0       -5.544370   -0.548204   -0.761649
 ---------------------------------------------------------------------

 SCF Done:  E(UB3LYP) =  -1136.11407890     A.U. after   19 cycles

 The electronic state is 2-A.
 Alpha  occ. eigenvalues --  -38.44915 -38.44516 -38.44241 -38.44196 -38.44010
 Alpha  occ. eigenvalues --  -38.43516 -38.43509  -2.20770  -2.20401  -2.20097
 Alpha  occ. eigenvalues --   -2.20064  -2.19828  -2.19337  -2.19296  -1.14504
 Alpha  occ. eigenvalues --   -1.14417  -1.14380  -1.14113  -1.14052  -1.14025
 Alpha  occ. eigenvalues --   -1.13752  -1.13749  -1.13739  -1.13727  -1.13716
 Alpha  occ. eigenvalues --   -1.13680  -1.13491  -1.13460  -1.13458  -1.13016
 Alpha  occ. eigenvalues --   -1.13008  -1.12982  -1.12963  -1.12949  -1.12936
 Alpha  occ. eigenvalues --   -0.17169  -0.14032  -0.12143  -0.10876
 Alpha virt. eigenvalues --   -0.06041  -0.05754  -0.04707  -0.03703  -0.02769
 Alpha virt. eigenvalues --   -0.02310  -0.02094  -0.01540  -0.01009  -0.00617
 Alpha virt. eigenvalues --   -0.00369  -0.00016   0.00320   0.00456   0.00656

  Beta  occ. eigenvalues --  -38.44865 -38.44455 -38.44238 -38.44193 -38.43932
  Beta  occ. eigenvalues --  -38.43512 -38.43503  -2.20676  -2.20290  -2.20095
  Beta  occ. eigenvalues --   -2.20060  -2.19683  -2.19349  -2.19271  -1.14443
  Beta  occ. eigenvalues --   -1.14353  -1.14313  -1.14044  -1.13977  -1.13938
  Beta  occ. eigenvalues --   -1.13748  -1.13737  -1.13728  -1.13716  -1.13706
  Beta  occ. eigenvalues --   -1.13677  -1.13400  -1.13361  -1.13359  -1.13033
  Beta  occ. eigenvalues --   -1.13022  -1.12946  -1.12933  -1.12930  -1.12920
  Beta  occ. eigenvalues --   -0.16582  -0.13508  -0.11775
  Beta virt. eigenvalues --   -0.07586  -0.05796  -0.05059  -0.04524  -0.03459
  Beta virt. eigenvalues --   -0.02535  -0.02024  -0.01791  -0.01168  -0.00851
  Beta virt. eigenvalues --   -0.00327  -0.00175   0.00153   0.00488   0.00538

 Mulliken charges and spin densities:
               1          2
     1  Na  -0.434939   0.283082
     2  Na   0.579913   0.011771
     3  Na   0.023343   0.324589
     4  Na  -0.677895  -0.138114
     5  Na   0.178125   0.017529
     6  Na   0.382654   0.123688
     7  Na  -0.051202   0.377455
 Sum of Mulliken charges =  -0.00000   1.00000

 Dipole moment (field-independent basis, Debye):
    X=              1.0754    Y=             -0.7459    Z=             -0.2283  Tot=              1.3285
 Quadrupole moment (field-independent basis, Debye-Ang):
   XX=            -67.6626   YY=            -69.3782   ZZ=            -65.5175
   XY=              0.9023   XZ=              3.7523   YZ=              3.5547

 Normal termination of Gaussian 16 at Tue Nov 28 22:20:53 2023.
