 Gaussian 16, Revision B.01,
 Gaussian 16:  ES64L-G16RevB.01 20-Dec-2017

 -------------------------
 #P B3LYP/6-311+g(d) force
 -------------------------

 -----
 DPGEN
 -----
 Symbolic Z-matrix:
 Charge =  0 Multiplicity = 2

                         Standard orientation:
 ---------------------------------------------------------------------
 Center     Atomic      Atomic             Coordinates (Angstroms)
 Number     Number       Type             X           Y           Z
 ---------------------------------------------------------------------
      1         11           0        1.013698   -1.185265    2.182422
      2         11           0        3.517435   -0.025418   -0.222208
      3         11           0        1.992520    2.574767   -0.882961
      4         11           0       -0.590996    1.991008    0.832644
      5         11           0       -4.278713    0.992644   -0.472673
      6         11           0       -2.933536   -1.696573   -0.151270
      7         11           0        1.279592   -2.651164   -1.285954
 ---------------------------------------------------------------------

 SCF Done:  E(UB3LYP) =  -1136.11404849     A.U. after   21 cycles

 The electronic state is 2-A.
 Alpha  occ. eigenvalues --  -38.44684 -38.44534 -38.44522 -38.44434 -38.44361
 Alpha  occ. eigenvalues --  -38.43930 -38.43470  -2.20475  -2.20383  -2.20332
 Alpha  occ. eigenvalues --   -2.20190  -2.20170  -2.19740  -2.19326  -1.14219
 Alpha  occ. eigenvalues --   -1.14144  -1.14120  -1.14076  -1.14042  -1.14006
 Alpha  occ. eigenvalues --   -1.13980  -1.13962  -1.13941  -1.13868  -1.13843
 Alpha  occ. eigenvalues --   -1.13832  -1.13828  -1.13816  -1.13771  -1.13439
 Alpha  occ. eigenvalues --   -1.13399  -1.13369  -1.12997  -1.12977  -1.12958
 Alpha  occ. eigenvalues --   -0.16928  -0.13878  -0.11976  -0.10763
 Alpha virt. eigenvalues --   -0.06767  -0.06034  -0.03965  -0.03431  -0.03220
 Alpha virt. eigenvalues --   -0.02468  -0.02199  -0.01791  -0.00938  -0.00485
 Alpha virt. eigenvalues --   -0.00360   0.00123   0.00276   0.00611   0.00675

  Beta  occ. eigenvalues --  -38.44679 -38.44506 -38.44493 -38.44424 -38.44278
  Beta  occ. eigenvalues --  -38.43901 -38.43456  -2.20467  -2.20311  -2.20302
  Beta  occ. eigenvalues --   -2.20173  -2.20017  -2.19688  -2.19302  -1.14206
  Beta  occ. eigenvalues --   -1.14139  -1.14107  -1.14021  -1.13984  -1.13960
  Beta  occ. eigenvalues --   -1.13954  -1.13939  -1.13924  -1.13857  -1.13822
  Beta  occ. eigenvalues --   -1.13816  -1.13729  -1.13712  -1.13660  -1.13408
  Beta  occ. eigenvalues --   -1.13355  -1.13333  -1.12974  -1.12963  -1.12932
  Beta  occ. eigenvalues --   -0.16281  -0.13469  -0.11877
  Beta virt. eigenvalues --   -0.07094  -0.06549  -0.05831  -0.03623  -0.03146
  Beta virt. eigenvalues --   -0.02704  -0.02189  -0.01728  -0.01473  -0.00839
  Beta virt. eigenvalues --   -0.00447  -0.00032   0.00301   0.00347   0.00661

 Mulliken charges and spin densities:
               1          2
     1  Na   0.204370   0.323668
     2  Na  -0.134311   0.513442
     3  Na   0.496538  -0.147683
     4  Na  -0.726446   0.240000
     5  Na   0.480112  -0.020313
     6  Na  -0.329541   0.092891
     7  Na   0.009279  -0.002005
 Sum of Mulliken charges =  -0.00000   1.00000

 Dipole moment (field-independent basis, Debye):
    X=             -0.5438    Y=             -0.3580    Z=             -0.1446  Tot=              0.6670
 Quadrupole moment (field-independent basis, Debye-Ang):
   XX=            -61.2485   YY=            -68.5693   ZZ=            -70.0126
   XY=             -3.2333   XZ=              2.1599   YZ=             -0.5465

 Normal termination of Gaussian 16 at Sun Dec  3 19:34:22 2023.
