 Gaussian 16, Revision B.01,
 Gaussian 16:  ES64L-G16RevB.01 20-Dec-2017

 -------------------------
 #P B3LYP/6-311+g(d) force
 -------------------------

 -----
 DPGEN
 -----
 Symbolic Z-matrix:
 Charge =  0 Multiplicity = 2

                         Standard orientation:
 ---------------------------------------------------------------------
 Center     Atomic      Atomic             Coordinates (Angstroms)
 Number     Number       Type             X           Y           Z
 ---------------------------------------------------------------------
      1         11           0        0.051535   -3.023473    0.098355
      2         11           0        0.543765    2.845267    0.196193
      3         11           0        0.530621   -0.470645    2.577999
      4         11           0        3.709323    0.407100   -0.245623
      5         11           0       -3.114842    2.003597   -0.133067
      6         11           0       -2.782441   -1.420314   -0.433216
      7         11           0        1.062038   -0.341532   -2.060641
 ---------------------------------------------------------------------

 SCF Done:  E(UB3LYP) =  -1136.12259072     A.U. after   20 cycles

 The electronic state is 2-A.
 Alpha  occ. eigenvalues --  -38.44871 -38.44860 -38.44559 -38.44308 -38.44039
 Alpha  occ. eigenvalues --  -38.43522 -38.43396  -2.20655  -2.20641  -2.20383
 Alpha  occ. eigenvalues --   -2.20058  -2.19840  -2.19290  -2.19224  -1.14327
 Alpha  occ. eigenvalues --   -1.14299  -1.14291  -1.14285  -1.14279  -1.14270
 Alpha  occ. eigenvalues --   -1.14040  -1.14039  -1.13995  -1.13749  -1.13740
 Alpha  occ. eigenvalues --   -1.13670  -1.13516  -1.13506  -1.13485  -1.12964
 Alpha  occ. eigenvalues --   -1.12955  -1.12931  -1.12892  -1.12885  -1.12875
 Alpha  occ. eigenvalues --   -0.17146  -0.12854  -0.12042  -0.11356
 Alpha virt. eigenvalues --   -0.06346  -0.05350  -0.04803  -0.03489  -0.03266
 Alpha virt. eigenvalues --   -0.02905  -0.01918  -0.00955  -0.00744  -0.00551
 Alpha virt. eigenvalues --   -0.00248   0.00208   0.00423   0.00623   0.00777

  Beta  occ. eigenvalues --  -38.44870 -38.44741 -38.44503 -38.44303 -38.44032
  Beta  occ. eigenvalues --  -38.43525 -38.43394  -2.20642  -2.20432  -2.20279
  Beta  occ. eigenvalues --   -2.20050  -2.19827  -2.19295  -2.19224  -1.14315
  Beta  occ. eigenvalues --   -1.14295  -1.14281  -1.14139  -1.14137  -1.14112
  Beta  occ. eigenvalues --   -1.13974  -1.13965  -1.13920  -1.13737  -1.13728
  Beta  occ. eigenvalues --   -1.13669  -1.13500  -1.13498  -1.13479  -1.12967
  Beta  occ. eigenvalues --   -1.12956  -1.12934  -1.12895  -1.12880  -1.12856
  Beta  occ. eigenvalues --   -0.16462  -0.12679  -0.11909
  Beta virt. eigenvalues --   -0.07402  -0.06241  -0.05191  -0.04506  -0.02808
  Beta virt. eigenvalues --   -0.02424  -0.02335  -0.01845  -0.00944  -0.00699
  Beta virt. eigenvalues --   -0.00550  -0.00003   0.00337   0.00630   0.00762

 Mulliken charges and spin densities:
               1          2
     1  Na   0.068032   0.006294
     2  Na  -0.405546   0.070818
     3  Na   0.043374   0.626146
     4  Na   0.088754  -0.068052
     5  Na   0.026344  -0.064909
     6  Na  -0.204644   0.047735
     7  Na   0.383685   0.381969
 Sum of Mulliken charges =  -0.00000   1.00000

 Dipole moment (field-independent basis, Debye):
    X=              1.0833    Y=             -0.0671    Z=              0.0198  Tot=              1.0855
 Quadrupole moment (field-independent basis, Debye-Ang):
   XX=            -59.0592   YY=            -68.6485   ZZ=            -70.9137
   XY=              1.3373   XZ=              1.4634   YZ=              0.4604

 Normal termination of Gaussian 16 at Sun Dec  3 16:19:16 2023.
