 Gaussian 16, Revision B.01,
 Gaussian 16:  ES64L-G16RevB.01 20-Dec-2017

 -------------------------
 #P B3LYP/6-311+g(d) force
 -------------------------

 -----
 DPGEN
 -----
 Symbolic Z-matrix:
 Charge =  0 Multiplicity = 2

                         Standard orientation:
 ---------------------------------------------------------------------
 Center     Atomic      Atomic             Coordinates (Angstroms)
 Number     Number       Type             X           Y           Z
 ---------------------------------------------------------------------
      1         11           0        0.075755   -0.229083   -1.645674
      2         11           0        2.933552    1.233752    0.060387
      3         11           0       -2.580180   -2.073338   -0.042521
      4         11           0       -3.146161    1.235404   -0.050902
      5         11           0        2.354056   -2.173940   -0.368983
      6         11           0        0.091176    2.727828    0.057038
      7         11           0        0.271802   -0.720623    1.990656
 ---------------------------------------------------------------------

 SCF Done:  E(UB3LYP) =  -1136.13228919     A.U. after   21 cycles

 The electronic state is 2-A.
 Alpha  occ. eigenvalues --  -38.44532 -38.44365 -38.44272 -38.43837 -38.43547
 Alpha  occ. eigenvalues --  -38.43436 -38.42744  -2.20330  -2.20215  -2.20074
 Alpha  occ. eigenvalues --   -2.19686  -2.19409  -2.19368  -2.18606  -1.14002
 Alpha  occ. eigenvalues --   -1.13989  -1.13983  -1.13893  -1.13877  -1.13855
 Alpha  occ. eigenvalues --   -1.13744  -1.13729  -1.13717  -1.13376  -1.13342
 Alpha  occ. eigenvalues --   -1.13326  -1.13086  -1.13047  -1.13038  -1.13025
 Alpha  occ. eigenvalues --   -1.13008  -1.12983  -1.12291  -1.12262  -1.12252
 Alpha  occ. eigenvalues --   -0.18340  -0.13504  -0.12037  -0.10460
 Alpha virt. eigenvalues --   -0.06108  -0.05986  -0.04158  -0.03334  -0.02677
 Alpha virt. eigenvalues --   -0.02353  -0.01923  -0.01472  -0.00727  -0.00215
 Alpha virt. eigenvalues --   -0.00036   0.00304   0.00668   0.00733   0.00880

  Beta  occ. eigenvalues --  -38.44533 -38.44360 -38.44272 -38.43826 -38.43458
  Beta  occ. eigenvalues --  -38.43372 -38.42740  -2.20333  -2.20209  -2.20075
  Beta  occ. eigenvalues --   -2.19669  -2.19251  -2.19243  -2.18601  -1.13996
  Beta  occ. eigenvalues --   -1.13992  -1.13985  -1.13892  -1.13857  -1.13846
  Beta  occ. eigenvalues --   -1.13734  -1.13728  -1.13716  -1.13358  -1.13320
  Beta  occ. eigenvalues --   -1.13303  -1.12987  -1.12951  -1.12926  -1.12923
  Beta  occ. eigenvalues --   -1.12905  -1.12895  -1.12289  -1.12253  -1.12236
  Beta  occ. eigenvalues --   -0.17640  -0.13321  -0.11806
  Beta virt. eigenvalues --   -0.06571  -0.06017  -0.05982  -0.04116  -0.02607
  Beta virt. eigenvalues --   -0.01933  -0.01819  -0.01487  -0.01245  -0.00797
  Beta virt. eigenvalues --   -0.00229   0.00143   0.00347   0.00726   0.00754

 Mulliken charges and spin densities:
               1          2
     1  Na  -0.104266   0.354969
     2  Na   0.220075   0.089224
     3  Na   0.240647  -0.038163
     4  Na  -0.068926  -0.000792
     5  Na   0.344005   0.006297
     6  Na  -0.197508  -0.025673
     7  Na  -0.434027   0.614139
 Sum of Mulliken charges =  -0.00000   1.00000

 Dipole moment (field-independent basis, Debye):
    X=             -0.1941    Y=             -0.3336    Z=              0.0540  Tot=              0.3897
 Quadrupole moment (field-independent basis, Debye-Ang):
   XX=            -51.1857   YY=            -66.0083   ZZ=            -76.1005
   XY=             -0.2480   XZ=             -0.1807   YZ=              0.9958

 Normal termination of Gaussian 16 at Fri Dec  8 07:23:16 2023.
