 Gaussian 16, Revision B.01,
 Gaussian 16:  ES64L-G16RevB.01 20-Dec-2017

 -------------------------
 #P B3LYP/6-311+g(d) force
 -------------------------

 -----
 DPGEN
 -----
 Symbolic Z-matrix:
 Charge =  0 Multiplicity = 2

                         Standard orientation:
 ---------------------------------------------------------------------
 Center     Atomic      Atomic             Coordinates (Angstroms)
 Number     Number       Type             X           Y           Z
 ---------------------------------------------------------------------
      1         11           0        2.573295   -3.236924   -0.216500
      2         11           0       -4.166693   -1.733592    0.201906
      3         11           0       -1.213128   -2.706058    0.135232
      4         11           0        3.888464   -0.357530   -0.215491
      5         11           0       -3.408331    1.717298   -0.164593
      6         11           0       -0.548291    3.824754   -0.319479
      7         11           0        2.874684    2.492052    0.578925
 ---------------------------------------------------------------------

 SCF Done:  E(UB3LYP) =  -1136.11102030     A.U. after   23 cycles

 The electronic state is 2-A.
 Alpha  occ. eigenvalues --  -38.45566 -38.45273 -38.44567 -38.44332 -38.44132
 Alpha  occ. eigenvalues --  -38.44099 -38.43690  -2.21343  -2.21042  -2.20403
 Alpha  occ. eigenvalues --   -2.20091  -2.19952  -2.19940  -2.19512  -1.15025
 Alpha  occ. eigenvalues --   -1.15013  -1.14988  -1.14724  -1.14709  -1.14658
 Alpha  occ. eigenvalues --   -1.14112  -1.14066  -1.14060  -1.13771  -1.13761
 Alpha  occ. eigenvalues --   -1.13724  -1.13611  -1.13611  -1.13600  -1.13581
 Alpha  occ. eigenvalues --   -1.13568  -1.13566  -1.13169  -1.13156  -1.13142
 Alpha  occ. eigenvalues --   -0.15828  -0.14396  -0.13381  -0.10946
 Alpha virt. eigenvalues --   -0.07581  -0.04762  -0.04208  -0.03718  -0.03442
 Alpha virt. eigenvalues --   -0.02543  -0.02335  -0.01986  -0.01542  -0.00417
 Alpha virt. eigenvalues --   -0.00229  -0.00057   0.00074   0.00457   0.00608

  Beta  occ. eigenvalues --  -38.45546 -38.45235 -38.44550 -38.44319 -38.44074
  Beta  occ. eigenvalues --  -38.44065 -38.43637  -2.21311  -2.20975  -2.20381
  Beta  occ. eigenvalues --   -2.20072  -2.19877  -2.19847  -2.19414  -1.15008
  Beta  occ. eigenvalues --   -1.14996  -1.14929  -1.14682  -1.14667  -1.14589
  Beta  occ. eigenvalues --   -1.14067  -1.14057  -1.14025  -1.13760  -1.13751
  Beta  occ. eigenvalues --   -1.13691  -1.13561  -1.13539  -1.13538  -1.13531
  Beta  occ. eigenvalues --   -1.13529  -1.13493  -1.13109  -1.13089  -1.13073
  Beta  occ. eigenvalues --   -0.15290  -0.13705  -0.12626
  Beta virt. eigenvalues --   -0.07775  -0.07641  -0.04409  -0.03814  -0.03425
  Beta virt. eigenvalues --   -0.02956  -0.02326  -0.02162  -0.01792  -0.01379
  Beta virt. eigenvalues --   -0.00098   0.00100   0.00118   0.00268   0.00462

 Mulliken charges and spin densities:
               1          2
     1  Na   0.757503   0.210017
     2  Na   1.147516   0.095556
     3  Na  -1.253102   0.306404
     4  Na  -0.389958   0.104722
     5  Na  -0.022578   0.232431
     6  Na  -0.023714  -0.085136
     7  Na  -0.215666   0.136005
 Sum of Mulliken charges =  -0.00000   1.00000

 Dipole moment (field-independent basis, Debye):
    X=             -1.0587    Y=             -0.2577    Z=              0.0392  Tot=              1.0903
 Quadrupole moment (field-independent basis, Debye-Ang):
   XX=            -59.1085   YY=            -67.3796   ZZ=            -73.6068
   XY=              0.6355   XZ=             -0.5418   YZ=             -0.0373

 Normal termination of Gaussian 16 at Sun Dec  3 23:07:51 2023.
