 Gaussian 16, Revision B.01,
 Gaussian 16:  ES64L-G16RevB.01 20-Dec-2017

 -------------------------
 #P B3LYP/6-311+g(d) force
 -------------------------

 -----
 DPGEN
 -----
 Symbolic Z-matrix:
 Charge =  0 Multiplicity = 2

                         Standard orientation:
 ---------------------------------------------------------------------
 Center     Atomic      Atomic             Coordinates (Angstroms)
 Number     Number       Type             X           Y           Z
 ---------------------------------------------------------------------
      1         11           0       -1.821175   -1.879682    0.157423
      2         11           0       -0.004947    0.506158    2.191206
      3         11           0        0.036179    0.208063   -1.488559
      4         11           0       -3.627810    0.701217   -0.331942
      5         11           0        3.210081    0.082667   -0.138188
      6         11           0        0.803781    2.808539   -0.230286
      7         11           0        1.403890   -2.426962   -0.159655
 ---------------------------------------------------------------------

 SCF Done:  E(UB3LYP) =  -1136.12713468     A.U. after   20 cycles

 The electronic state is 2-A.
 Alpha  occ. eigenvalues --  -38.44953 -38.44744 -38.43719 -38.43455 -38.43286
 Alpha  occ. eigenvalues --  -38.43166 -38.42787  -2.20737  -2.20598  -2.19587
 Alpha  occ. eigenvalues --   -2.19471  -2.19203  -2.19039  -2.18701  -1.14415
 Alpha  occ. eigenvalues --   -1.14396  -1.14367  -1.14291  -1.14263  -1.14220
 Alpha  occ. eigenvalues --   -1.13252  -1.13214  -1.13207  -1.13203  -1.13166
 Alpha  occ. eigenvalues --   -1.13077  -1.12891  -1.12857  -1.12841  -1.12724
 Alpha  occ. eigenvalues --   -1.12684  -1.12650  -1.12381  -1.12365  -1.12333
 Alpha  occ. eigenvalues --   -0.18750  -0.13408  -0.12120  -0.10809
 Alpha virt. eigenvalues --   -0.06646  -0.04676  -0.04234  -0.03279  -0.02837
 Alpha virt. eigenvalues --   -0.02513  -0.02305  -0.00956  -0.00413  -0.00096
 Alpha virt. eigenvalues --   -0.00023   0.00269   0.00755   0.00807   0.00858

  Beta  occ. eigenvalues --  -38.44948 -38.44738 -38.43611 -38.43406 -38.43278
  Beta  occ. eigenvalues --  -38.43161 -38.42783  -2.20729  -2.20590  -2.19389
  Beta  occ. eigenvalues --   -2.19382  -2.19192  -2.19033  -2.18696  -1.14412
  Beta  occ. eigenvalues --   -1.14380  -1.14362  -1.14288  -1.14236  -1.14218
  Beta  occ. eigenvalues --   -1.13153  -1.13129  -1.13088  -1.13070  -1.13065
  Beta  occ. eigenvalues --   -1.13012  -1.12882  -1.12841  -1.12815  -1.12712
  Beta  occ. eigenvalues --   -1.12656  -1.12649  -1.12379  -1.12365  -1.12306
  Beta  occ. eigenvalues --   -0.18035  -0.13188  -0.11883
  Beta virt. eigenvalues --   -0.06888  -0.06538  -0.04636  -0.04216  -0.02570
  Beta virt. eigenvalues --   -0.02201  -0.01989  -0.01504  -0.00907  -0.00436
  Beta virt. eigenvalues --   -0.00032   0.00086   0.00308   0.00808   0.00875

 Mulliken charges and spin densities:
               1          2
     1  Na   0.293268   0.190032
     2  Na  -0.588957   0.563224
     3  Na  -0.486725   0.110115
     4  Na   0.191528   0.008148
     5  Na   0.321681   0.058599
     6  Na   0.213300  -0.005215
     7  Na   0.055906   0.075097
 Sum of Mulliken charges =  -0.00000   1.00000

 Dipole moment (field-independent basis, Debye):
    X=             -0.2311    Y=              0.4935    Z=              0.2154  Tot=              0.5859
 Quadrupole moment (field-independent basis, Debye-Ang):
   XX=            -51.1799   YY=            -67.8251   ZZ=            -74.1401
   XY=             -1.3653   XZ=              0.5526   YZ=             -0.7381

 Normal termination of Gaussian 16 at Thu Dec  7 22:24:23 2023.
