 Gaussian 16, Revision B.01,
 Gaussian 16:  ES64L-G16RevB.01 20-Dec-2017

 -------------------------
 #P B3LYP/6-311+g(d) force
 -------------------------

 -----
 DPGEN
 -----
 Symbolic Z-matrix:
 Charge =  0 Multiplicity = 2

                         Standard orientation:
 ---------------------------------------------------------------------
 Center     Atomic      Atomic             Coordinates (Angstroms)
 Number     Number       Type             X           Y           Z
 ---------------------------------------------------------------------
      1         11           0        3.823077   -0.410779    0.610746
      2         11           0       -0.337817    0.031537    2.122099
      3         11           0        1.488233    1.865812   -0.663194
      4         11           0       -1.942823    2.380868    0.040839
      5         11           0        1.308684   -1.977459   -0.794382
      6         11           0       -0.935680   -0.168184   -1.617396
      7         11           0       -3.403674   -1.721797    0.301289
 ---------------------------------------------------------------------

 SCF Done:  E(UB3LYP) =  -1136.12346520     A.U. after   21 cycles

 The electronic state is 2-A.
 Alpha  occ. eigenvalues --  -38.44764 -38.44717 -38.44355 -38.43799 -38.43462
 Alpha  occ. eigenvalues --  -38.43264 -38.43186  -2.20588  -2.20522  -2.20110
 Alpha  occ. eigenvalues --   -2.19680  -2.19314  -2.19192  -2.19138  -1.14260
 Alpha  occ. eigenvalues --   -1.14225  -1.14198  -1.14191  -1.14179  -1.14162
 Alpha  occ. eigenvalues --   -1.13791  -1.13770  -1.13748  -1.13448  -1.13329
 Alpha  occ. eigenvalues --   -1.13274  -1.13032  -1.12978  -1.12938  -1.12908
 Alpha  occ. eigenvalues --   -1.12847  -1.12813  -1.12804  -1.12755  -1.12732
 Alpha  occ. eigenvalues --   -0.18430  -0.13454  -0.11444  -0.11137
 Alpha virt. eigenvalues --   -0.06748  -0.05353  -0.03955  -0.03219  -0.02976
 Alpha virt. eigenvalues --   -0.02622  -0.02197  -0.01304  -0.00645  -0.00077
 Alpha virt. eigenvalues --    0.00130   0.00172   0.00422   0.00639   0.00742

  Beta  occ. eigenvalues --  -38.44708 -38.44685 -38.44362 -38.43770 -38.43459
  Beta  occ. eigenvalues --  -38.43249 -38.43116  -2.20506  -2.20440  -2.20124
  Beta  occ. eigenvalues --   -2.19631  -2.19311  -2.19114  -2.19066  -1.14180
  Beta  occ. eigenvalues --   -1.14166  -1.14160  -1.14148  -1.14121  -1.14090
  Beta  occ. eigenvalues --   -1.13798  -1.13774  -1.13758  -1.13395  -1.13280
  Beta  occ. eigenvalues --   -1.13246  -1.13020  -1.12965  -1.12931  -1.12851
  Beta  occ. eigenvalues --   -1.12790  -1.12774  -1.12727  -1.12717  -1.12664
  Beta  occ. eigenvalues --   -0.17650  -0.13307  -0.11211
  Beta virt. eigenvalues --   -0.07268  -0.06449  -0.05333  -0.03642  -0.02920
  Beta virt. eigenvalues --   -0.02246  -0.01935  -0.01748  -0.01206  -0.00428
  Beta virt. eigenvalues --   -0.00038   0.00146   0.00191   0.00602   0.00711

 Mulliken charges and spin densities:
               1          2
     1  Na   0.173092   0.085953
     2  Na  -0.534698   0.721241
     3  Na  -0.058792   0.118205
     4  Na   0.292023  -0.005744
     5  Na   0.002402   0.100976
     6  Na   0.127869  -0.007319
     7  Na  -0.001896  -0.013312
 Sum of Mulliken charges =  -0.00000   1.00000

 Dipole moment (field-independent basis, Debye):
    X=              0.2708    Y=              0.1162    Z=              0.6589  Tot=              0.7218
 Quadrupole moment (field-independent basis, Debye-Ang):
   XX=            -49.9898   YY=            -71.9581   ZZ=            -71.4869
   XY=             -0.7837   XZ=              0.8380   YZ=             -0.8040

 Normal termination of Gaussian 16 at Thu Dec  7 15:10:11 2023.
