 Gaussian 16, Revision B.01,
 Gaussian 16:  ES64L-G16RevB.01 20-Dec-2017

 -------------------------
 #P B3LYP/6-311+g(d) force
 -------------------------

 -----
 DPGEN
 -----
 Symbolic Z-matrix:
 Charge =  0 Multiplicity = 2

                         Standard orientation:
 ---------------------------------------------------------------------
 Center     Atomic      Atomic             Coordinates (Angstroms)
 Number     Number       Type             X           Y           Z
 ---------------------------------------------------------------------
      1         11           0        0.192100   -0.375948   -1.500478
      2         11           0        3.074127   -1.606679   -0.748709
      3         11           0       -2.682707   -1.997279    0.245814
      4         11           0        0.301940   -0.702008    2.276675
      5         11           0       -3.405194    0.887064   -0.700443
      6         11           0       -0.344527    2.488046    0.326196
      7         11           0        2.864262    1.306805    0.100945
 ---------------------------------------------------------------------

 SCF Done:  E(UB3LYP) =  -1136.12343274     A.U. after   22 cycles

 The electronic state is 2-A.
 Alpha  occ. eigenvalues --  -38.44720 -38.44496 -38.44490 -38.44462 -38.43911
 Alpha  occ. eigenvalues --  -38.43775 -38.42106  -2.20550  -2.20384  -2.20379
 Alpha  occ. eigenvalues --   -2.20289  -2.19733  -2.19647  -2.17961  -1.14230
 Alpha  occ. eigenvalues --   -1.14207  -1.14178  -1.14098  -1.14070  -1.14051
 Alpha  occ. eigenvalues --   -1.14039  -1.14023  -1.14000  -1.13938  -1.13917
 Alpha  occ. eigenvalues --   -1.13896  -1.13406  -1.13387  -1.13380  -1.13315
 Alpha  occ. eigenvalues --   -1.13306  -1.13268  -1.11655  -1.11627  -1.11599
 Alpha  occ. eigenvalues --   -0.18281  -0.14133  -0.11293  -0.11189
 Alpha virt. eigenvalues --   -0.06664  -0.05637  -0.04131  -0.03203  -0.03037
 Alpha virt. eigenvalues --   -0.02573  -0.02389  -0.01233  -0.00508  -0.00295
 Alpha virt. eigenvalues --    0.00024   0.00210   0.00486   0.00631   0.00758

  Beta  occ. eigenvalues --  -38.44699 -38.44492 -38.44462 -38.44343 -38.43908
  Beta  occ. eigenvalues --  -38.43762 -38.42106  -2.20511  -2.20373  -2.20334
  Beta  occ. eigenvalues --   -2.20069  -2.19731  -2.19626  -2.17963  -1.14206
  Beta  occ. eigenvalues --   -1.14176  -1.14153  -1.14079  -1.14051  -1.14033
  Beta  occ. eigenvalues --   -1.14006  -1.13999  -1.13968  -1.13791  -1.13770
  Beta  occ. eigenvalues --   -1.13735  -1.13408  -1.13385  -1.13359  -1.13304
  Beta  occ. eigenvalues --   -1.13286  -1.13245  -1.11659  -1.11622  -1.11587
  Beta  occ. eigenvalues --   -0.17624  -0.13875  -0.11057
  Beta virt. eigenvalues --   -0.07312  -0.06511  -0.05488  -0.03696  -0.02971
  Beta virt. eigenvalues --   -0.02363  -0.02052  -0.01769  -0.01121  -0.00474
  Beta virt. eigenvalues --   -0.00079   0.00048   0.00259   0.00633   0.00736

 Mulliken charges and spin densities:
               1          2
     1  Na  -0.614819   0.174815
     2  Na   0.646475   0.105547
     3  Na   0.110065   0.067276
     4  Na  -0.400176   0.584962
     5  Na   0.365372   0.043184
     6  Na  -0.259365  -0.014202
     7  Na   0.152448   0.038418
 Sum of Mulliken charges =  -0.00000   1.00000

 Dipole moment (field-independent basis, Debye):
    X=              0.0340    Y=             -0.1376    Z=              0.0985  Tot=              0.1726
 Quadrupole moment (field-independent basis, Debye-Ang):
   XX=            -52.0622   YY=            -72.8404   ZZ=            -71.5948
   XY=             -0.2210   XZ=              1.9177   YZ=             -0.8984

 Normal termination of Gaussian 16 at Thu Dec  7 18:52:24 2023.
