 Gaussian 16, Revision B.01,
 Gaussian 16:  ES64L-G16RevB.01 20-Dec-2017

 -------------------------
 #P B3LYP/6-311+g(d) force
 -------------------------

 -----
 DPGEN
 -----
 Symbolic Z-matrix:
 Charge =  0 Multiplicity = 2

                         Standard orientation:
 ---------------------------------------------------------------------
 Center     Atomic      Atomic             Coordinates (Angstroms)
 Number     Number       Type             X           Y           Z
 ---------------------------------------------------------------------
      1         11           0       -0.734077   -0.204783    2.327231
      2         11           0        2.810755   -1.883705   -0.010168
      3         11           0        0.334073    0.195885   -1.263842
      4         11           0       -0.716040   -2.869740   -0.283555
      5         11           0        2.629674    2.293167   -0.032109
      6         11           0       -1.391531    2.747946   -0.079530
      7         11           0       -2.932854   -0.278769   -0.658026
 ---------------------------------------------------------------------

 SCF Done:  E(UB3LYP) =  -1136.13349596     A.U. after   20 cycles

 The electronic state is 2-A.
 Alpha  occ. eigenvalues --  -38.44339 -38.44305 -38.43932 -38.43719 -38.43575
 Alpha  occ. eigenvalues --  -38.43538 -38.42883  -2.20110  -2.20070  -2.19757
 Alpha  occ. eigenvalues --   -2.19560  -2.19449  -2.19385  -2.18875  -1.13790
 Alpha  occ. eigenvalues --   -1.13772  -1.13753  -1.13744  -1.13731  -1.13702
 Alpha  occ. eigenvalues --   -1.13451  -1.13419  -1.13388  -1.13207  -1.13188
 Alpha  occ. eigenvalues --   -1.13177  -1.13140  -1.13104  -1.13090  -1.13063
 Alpha  occ. eigenvalues --   -1.13044  -1.13006  -1.12573  -1.12517  -1.12514
 Alpha  occ. eigenvalues --   -0.18164  -0.12693  -0.12512  -0.10553
 Alpha virt. eigenvalues --   -0.06013  -0.05228  -0.04942  -0.02875  -0.02812
 Alpha virt. eigenvalues --   -0.02529  -0.01528  -0.01443  -0.00759  -0.00607
 Alpha virt. eigenvalues --   -0.00038   0.00308   0.00751   0.00778   0.00824

  Beta  occ. eigenvalues --  -38.44340 -38.44308 -38.43927 -38.43604 -38.43556
  Beta  occ. eigenvalues --  -38.43530 -38.42847  -2.20115  -2.20077  -2.19751
  Beta  occ. eigenvalues --   -2.19418  -2.19374  -2.19347  -2.18813  -1.13786
  Beta  occ. eigenvalues --   -1.13774  -1.13753  -1.13749  -1.13734  -1.13708
  Beta  occ. eigenvalues --   -1.13445  -1.13395  -1.13387  -1.13122  -1.13082
  Beta  occ. eigenvalues --   -1.13067  -1.13058  -1.13051  -1.13034  -1.13026
  Beta  occ. eigenvalues --   -1.13010  -1.12998  -1.12525  -1.12474  -1.12460
  Beta  occ. eigenvalues --   -0.17475  -0.12525  -0.12338
  Beta virt. eigenvalues --   -0.06497  -0.06008  -0.05151  -0.04885  -0.02235
  Beta virt. eigenvalues --   -0.02097  -0.01523  -0.01402  -0.01324  -0.00756
  Beta virt. eigenvalues --   -0.00646   0.00175   0.00377   0.00757   0.00855

 Mulliken charges and spin densities:
               1          2
     1  Na  -0.731886   0.747727
     2  Na  -0.053799  -0.035301
     3  Na   0.061613   0.122861
     4  Na   0.254240   0.051010
     5  Na  -0.055007  -0.037785
     6  Na   0.133029   0.031828
     7  Na   0.391811   0.119661
 Sum of Mulliken charges =  -0.00000   1.00000

 Dipole moment (field-independent basis, Debye):
    X=              0.4001    Y=              0.1502    Z=              0.1656  Tot=              0.4584
 Quadrupole moment (field-independent basis, Debye-Ang):
   XX=            -57.2175   YY=            -59.1654   ZZ=            -76.1328
   XY=             -0.4809   XZ=              2.4425   YZ=              0.8453

 Normal termination of Gaussian 16 at Fri Dec  8 00:35:56 2023.
