 Gaussian 16, Revision B.01,
 Gaussian 16:  ES64L-G16RevB.01 20-Dec-2017

 -------------------------
 #P B3LYP/6-311+g(d) force
 -------------------------

 -----
 DPGEN
 -----
 Symbolic Z-matrix:
 Charge =  0 Multiplicity = 2

                         Standard orientation:
 ---------------------------------------------------------------------
 Center     Atomic      Atomic             Coordinates (Angstroms)
 Number     Number       Type             X           Y           Z
 ---------------------------------------------------------------------
      1         11           0        0.333448   -0.151233    1.602942
      2         11           0        4.220861    0.508058    0.766062
      3         11           0        0.699251    1.414093   -0.923960
      4         11           0       -1.303194   -1.035270   -1.061695
      5         11           0        2.258786   -1.695477   -0.944315
      6         11           0       -2.460801    2.326530   -0.209506
      7         11           0       -3.748352   -1.366699    0.770472
 ---------------------------------------------------------------------

 SCF Done:  E(UB3LYP) =  -1136.11407078     A.U. after   29 cycles

 The electronic state is 2-A.
 Alpha  occ. eigenvalues --  -38.46317 -38.44711 -38.44133 -38.43769 -38.43350
 Alpha  occ. eigenvalues --  -38.43097 -38.42844  -2.22180  -2.20522  -2.20011
 Alpha  occ. eigenvalues --   -2.19569  -2.19187  -2.19095  -2.18830  -1.15937
 Alpha  occ. eigenvalues --   -1.15828  -1.15770  -1.14182  -1.14170  -1.14132
 Alpha  occ. eigenvalues --   -1.13682  -1.13672  -1.13636  -1.13259  -1.13224
 Alpha  occ. eigenvalues --   -1.13215  -1.12934  -1.12829  -1.12817  -1.12812
 Alpha  occ. eigenvalues --   -1.12720  -1.12687  -1.12565  -1.12492  -1.12390
 Alpha  occ. eigenvalues --   -0.18748  -0.14291  -0.11138  -0.10787
 Alpha virt. eigenvalues --   -0.07305  -0.05377  -0.04483  -0.03147  -0.02894
 Alpha virt. eigenvalues --   -0.02149  -0.01801  -0.01631  -0.01129  -0.00263
 Alpha virt. eigenvalues --   -0.00180   0.00156   0.00347   0.00504   0.00645

  Beta  occ. eigenvalues --  -38.46315 -38.44641 -38.44092 -38.43785 -38.43300
  Beta  occ. eigenvalues --  -38.43062 -38.42818  -2.22179  -2.20390  -2.19939
  Beta  occ. eigenvalues --   -2.19601  -2.19094  -2.19037  -2.18790  -1.15920
  Beta  occ. eigenvalues --   -1.15823  -1.15777  -1.14089  -1.14078  -1.14047
  Beta  occ. eigenvalues --   -1.13640  -1.13622  -1.13549  -1.13282  -1.13244
  Beta  occ. eigenvalues --   -1.13228  -1.12865  -1.12785  -1.12756  -1.12746
  Beta  occ. eigenvalues --   -1.12696  -1.12608  -1.12537  -1.12428  -1.12371
  Beta  occ. eigenvalues --   -0.18098  -0.13737  -0.10805
  Beta virt. eigenvalues --   -0.07292  -0.07045  -0.05186  -0.03874  -0.02892
  Beta virt. eigenvalues --   -0.02711  -0.01710  -0.01500  -0.01334  -0.00774
  Beta virt. eigenvalues --   -0.00035  -0.00011   0.00262   0.00459   0.00607

 Mulliken charges and spin densities:
               1          2
     1  Na  -0.504935   0.065212
     2  Na   0.477922   0.458812
     3  Na  -0.271811  -0.132280
     4  Na  -0.183271  -0.008839
     5  Na   0.209680   0.163156
     6  Na   0.005632   0.007109
     7  Na   0.266784   0.446830
 Sum of Mulliken charges =  -0.00000   1.00000

 Dipole moment (field-independent basis, Debye):
    X=              0.9916    Y=              0.3510    Z=              0.3482  Tot=              1.1080
 Quadrupole moment (field-independent basis, Debye-Ang):
   XX=            -57.6231   YY=            -76.1224   ZZ=            -65.6536
   XY=             -4.6638   XZ=             -1.8511   YZ=              1.4068

 Normal termination of Gaussian 16 at Thu Dec  7 05:46:12 2023.
