 Gaussian 16, Revision B.01,
 Gaussian 16:  ES64L-G16RevB.01 20-Dec-2017

 -------------------------
 #P B3LYP/6-311+g(d) force
 -------------------------

 -----
 DPGEN
 -----
 Symbolic Z-matrix:
 Charge =  0 Multiplicity = 2

                         Standard orientation:
 ---------------------------------------------------------------------
 Center     Atomic      Atomic             Coordinates (Angstroms)
 Number     Number       Type             X           Y           Z
 ---------------------------------------------------------------------
      1         11           0        1.455185   -2.339618   -0.244910
      2         11           0        4.098640   -0.594824   -0.423821
      3         11           0       -2.323858   -2.678744    0.074193
      4         11           0        1.907660    2.194779   -0.559467
      5         11           0       -1.188953    2.941627    0.167765
      6         11           0       -3.652428    0.277299   -1.139629
      7         11           0       -0.296245    0.199482    2.125870
 ---------------------------------------------------------------------

 SCF Done:  E(UB3LYP) =  -1136.12266587     A.U. after   19 cycles

 The electronic state is 2-A.
 Alpha  occ. eigenvalues --  -38.44736 -38.44589 -38.44274 -38.44243 -38.44165
 Alpha  occ. eigenvalues --  -38.43843 -38.43731  -2.20543  -2.20384  -2.20068
 Alpha  occ. eigenvalues --   -2.20041  -2.19933  -2.19670  -2.19553  -1.14203
 Alpha  occ. eigenvalues --   -1.14193  -1.14147  -1.14077  -1.14052  -1.14018
 Alpha  occ. eigenvalues --   -1.13727  -1.13725  -1.13717  -1.13708  -1.13698
 Alpha  occ. eigenvalues --   -1.13693  -1.13616  -1.13589  -1.13576  -1.13322
 Alpha  occ. eigenvalues --   -1.13317  -1.13304  -1.13231  -1.13214  -1.13195
 Alpha  occ. eigenvalues --   -0.16942  -0.13584  -0.12610  -0.10680
 Alpha virt. eigenvalues --   -0.06530  -0.06074  -0.04444  -0.03471  -0.03131
 Alpha virt. eigenvalues --   -0.02261  -0.01895  -0.01607  -0.01216  -0.00847
 Alpha virt. eigenvalues --   -0.00270   0.00305   0.00425   0.00612   0.00709

  Beta  occ. eigenvalues --  -38.44651 -38.44584 -38.44241 -38.44194 -38.44171
  Beta  occ. eigenvalues --  -38.43817 -38.43731  -2.20385  -2.20376  -2.20039
  Beta  occ. eigenvalues --   -2.19947  -2.19919  -2.19622  -2.19554  -1.14098
  Beta  occ. eigenvalues --   -1.14089  -1.14074  -1.14044  -1.14029  -1.14005
  Beta  occ. eigenvalues --   -1.13729  -1.13718  -1.13673  -1.13635  -1.13630
  Beta  occ. eigenvalues --   -1.13621  -1.13596  -1.13584  -1.13551  -1.13292
  Beta  occ. eigenvalues --   -1.13284  -1.13272  -1.13234  -1.13212  -1.13180
  Beta  occ. eigenvalues --   -0.16382  -0.12978  -0.12523
  Beta virt. eigenvalues --   -0.07213  -0.06334  -0.05709  -0.04231  -0.02982
  Beta virt. eigenvalues --   -0.02489  -0.01933  -0.01632  -0.01443  -0.01096
  Beta virt. eigenvalues --   -0.00766   0.00048   0.00413   0.00503   0.00753

 Mulliken charges and spin densities:
               1          2
     1  Na  -0.359441  -0.043937
     2  Na   0.535786   0.193726
     3  Na   0.139104   0.089119
     4  Na  -0.121564  -0.028436
     5  Na   0.104305   0.271949
     6  Na  -0.104745   0.335028
     7  Na  -0.193446   0.182550
 Sum of Mulliken charges =  -0.00000   1.00000

 Dipole moment (field-independent basis, Debye):
    X=              0.3880    Y=              0.1177    Z=              0.3141  Tot=              0.5129
 Quadrupole moment (field-independent basis, Debye-Ang):
   XX=            -65.2480   YY=            -64.5300   ZZ=            -71.1852
   XY=              0.1417   XZ=             -0.7747   YZ=             -0.6952

 Normal termination of Gaussian 16 at Sun Dec  3 23:15:45 2023.
