 Gaussian 16, Revision B.01,
 Gaussian 16:  ES64L-G16RevB.01 20-Dec-2017

 -------------------------
 #P B3LYP/6-311+g(d) force
 -------------------------

 -----
 DPGEN
 -----
 Symbolic Z-matrix:
 Charge =  0 Multiplicity = 2

                         Standard orientation:
 ---------------------------------------------------------------------
 Center     Atomic      Atomic             Coordinates (Angstroms)
 Number     Number       Type             X           Y           Z
 ---------------------------------------------------------------------
      1         11           0       -2.748415    1.491177    0.015964
      2         11           0        0.935341    3.019390   -0.145796
      3         11           0        3.120326   -0.021995    0.457655
      4         11           0        0.552942    0.151551   -1.515626
      5         11           0        1.269999   -2.771136   -0.241801
      6         11           0       -0.341875   -0.176970    1.587423
      7         11           0       -2.788318   -1.692018   -0.157819
 ---------------------------------------------------------------------

 SCF Done:  E(UB3LYP) =  -1136.13311026     A.U. after   20 cycles

 The electronic state is 2-A.
 Alpha  occ. eigenvalues --  -38.44337 -38.44218 -38.44182 -38.43475 -38.43385
 Alpha  occ. eigenvalues --  -38.43053 -38.42764  -2.20196  -2.20065  -2.20016
 Alpha  occ. eigenvalues --   -2.19331  -2.19210  -2.19021  -2.18773  -1.13881
 Alpha  occ. eigenvalues --   -1.13856  -1.13823  -1.13790  -1.13744  -1.13704
 Alpha  occ. eigenvalues --   -1.13685  -1.13657  -1.13623  -1.13022  -1.12989
 Alpha  occ. eigenvalues --   -1.12966  -1.12912  -1.12863  -1.12846  -1.12747
 Alpha  occ. eigenvalues --   -1.12645  -1.12633  -1.12461  -1.12398  -1.12382
 Alpha  occ. eigenvalues --   -0.18667  -0.13555  -0.12294  -0.09939
 Alpha virt. eigenvalues --   -0.05938  -0.05458  -0.04853  -0.03206  -0.02453
 Alpha virt. eigenvalues --   -0.01832  -0.01745  -0.01309  -0.00642  -0.00584
 Alpha virt. eigenvalues --    0.00042   0.00341   0.00775   0.00814   0.00824

  Beta  occ. eigenvalues --  -38.44322 -38.44214 -38.44180 -38.43466 -38.43380
  Beta  occ. eigenvalues --  -38.42987 -38.42699  -2.20171  -2.20061  -2.20014
  Beta  occ. eigenvalues --   -2.19318  -2.19205  -2.18901  -2.18655  -1.13863
  Beta  occ. eigenvalues --   -1.13815  -1.13811  -1.13791  -1.13730  -1.13693
  Beta  occ. eigenvalues --   -1.13675  -1.13647  -1.13622  -1.13011  -1.12966
  Beta  occ. eigenvalues --   -1.12949  -1.12901  -1.12849  -1.12842  -1.12660
  Beta  occ. eigenvalues --   -1.12562  -1.12541  -1.12374  -1.12316  -1.12293
  Beta  occ. eigenvalues --   -0.17989  -0.13324  -0.12043
  Beta virt. eigenvalues --   -0.06143  -0.05841  -0.05457  -0.04823  -0.02432
  Beta virt. eigenvalues --   -0.01779  -0.01695  -0.01234  -0.00888  -0.00681
  Beta virt. eigenvalues --   -0.00561   0.00190   0.00387   0.00812   0.00827

 Mulliken charges and spin densities:
               1          2
     1  Na   0.106775  -0.071826
     2  Na   0.050822  -0.087951
     3  Na   0.188148   0.081061
     4  Na  -0.347795   0.642798
     5  Na   0.114728  -0.030966
     6  Na  -0.173951   0.505579
     7  Na   0.061273  -0.038694
 Sum of Mulliken charges =  -0.00000   1.00000

 Dipole moment (field-independent basis, Debye):
    X=             -0.1918    Y=             -0.0629    Z=              0.0886  Tot=              0.2204
 Quadrupole moment (field-independent basis, Debye-Ang):
   XX=            -52.7921   YY=            -59.6809   ZZ=            -78.3313
   XY=              0.1593   XZ=              2.0532   YZ=              0.9064

 Normal termination of Gaussian 16 at Wed Nov 29 00:24:27 2023.
