 Gaussian 16, Revision B.01,
 Gaussian 16:  ES64L-G16RevB.01 20-Dec-2017

 -------------------------
 #P B3LYP/6-311+g(d) force
 -------------------------

 -----
 DPGEN
 -----
 Symbolic Z-matrix:
 Charge =  0 Multiplicity = 2

                         Standard orientation:
 ---------------------------------------------------------------------
 Center     Atomic      Atomic             Coordinates (Angstroms)
 Number     Number       Type             X           Y           Z
 ---------------------------------------------------------------------
      1         11           0        0.645681   -1.768726    1.577167
      2         11           0        2.270980    1.800196    0.896383
      3         11           0       -2.993398    0.627174    0.916420
      4         11           0        3.932121   -1.168557   -0.638481
      5         11           0        0.047639   -0.805764   -1.459906
      6         11           0       -0.673577    3.057042   -0.744081
      7         11           0       -3.229447   -1.741366   -0.547503
 ---------------------------------------------------------------------

 SCF Done:  E(UB3LYP) =  -1136.11159644     A.U. after   29 cycles

 The electronic state is 2-A.
 Alpha  occ. eigenvalues --  -38.45475 -38.45119 -38.44682 -38.44449 -38.44235
 Alpha  occ. eigenvalues --  -38.44223 -38.42829  -2.21220  -2.20966  -2.20541
 Alpha  occ. eigenvalues --   -2.20221  -2.20070  -2.20049  -2.18609  -1.14895
 Alpha  occ. eigenvalues --   -1.14888  -1.14841  -1.14808  -1.14602  -1.14585
 Alpha  occ. eigenvalues --   -1.14189  -1.14167  -1.14147  -1.13904  -1.13890
 Alpha  occ. eigenvalues --   -1.13844  -1.13837  -1.13720  -1.13712  -1.13691
 Alpha  occ. eigenvalues --   -1.13669  -1.13632  -1.12282  -1.12271  -1.12257
 Alpha  occ. eigenvalues --   -0.17523  -0.13858  -0.11627  -0.09898
 Alpha virt. eigenvalues --   -0.07433  -0.06000  -0.04232  -0.03674  -0.02903
 Alpha virt. eigenvalues --   -0.02540  -0.02033  -0.01536  -0.00848  -0.00421
 Alpha virt. eigenvalues --   -0.00247   0.00101   0.00231   0.00471   0.00575

  Beta  occ. eigenvalues --  -38.45467 -38.45112 -38.44680 -38.44436 -38.44170
  Beta  occ. eigenvalues --  -38.44169 -38.42827  -2.21207  -2.20954  -2.20539
  Beta  occ. eigenvalues --   -2.20199  -2.19972  -2.19929  -2.18607  -1.14887
  Beta  occ. eigenvalues --   -1.14866  -1.14833  -1.14805  -1.14587  -1.14568
  Beta  occ. eigenvalues --   -1.14186  -1.14155  -1.14140  -1.13879  -1.13871
  Beta  occ. eigenvalues --   -1.13830  -1.13754  -1.13649  -1.13631  -1.13603
  Beta  occ. eigenvalues --   -1.13593  -1.13549  -1.12274  -1.12269  -1.12255
  Beta  occ. eigenvalues --   -0.16907  -0.13709  -0.11482
  Beta virt. eigenvalues --   -0.07202  -0.06332  -0.05832  -0.04050  -0.03106
  Beta virt. eigenvalues --   -0.02734  -0.02098  -0.01487  -0.01116  -0.00826
  Beta virt. eigenvalues --   -0.00204  -0.00092   0.00170   0.00388   0.00590

 Mulliken charges and spin densities:
               1          2
     1  Na  -0.384111   0.455204
     2  Na  -0.128928   0.073096
     3  Na  -0.134534   0.157109
     4  Na   0.362265   0.015365
     5  Na  -0.261959   0.527465
     6  Na   0.120624  -0.116318
     7  Na   0.426644  -0.111922
 Sum of Mulliken charges =  -0.00000   1.00000

 Dipole moment (field-independent basis, Debye):
    X=              0.5440    Y=             -0.7332    Z=              0.1243  Tot=              0.9214
 Quadrupole moment (field-independent basis, Debye-Ang):
   XX=            -46.0588   YY=            -71.6454   ZZ=            -75.8684
   XY=              0.4064   XZ=             -0.6256   YZ=              1.4835

 Normal termination of Gaussian 16 at Mon Dec  4 05:35:27 2023.
