 Gaussian 16, Revision B.01,
 Gaussian 16:  ES64L-G16RevB.01 20-Dec-2017

 -------------------------
 #P B3LYP/6-311+g(d) force
 -------------------------

 -----
 DPGEN
 -----
 Symbolic Z-matrix:
 Charge =  0 Multiplicity = 2

                         Standard orientation:
 ---------------------------------------------------------------------
 Center     Atomic      Atomic             Coordinates (Angstroms)
 Number     Number       Type             X           Y           Z
 ---------------------------------------------------------------------
      1         11           0       -3.433616   -2.146876   -0.201156
      2         11           0        3.444368   -1.613105   -0.245095
      3         11           0        1.697477    1.109656    1.801624
      4         11           0        0.229134   -1.887731    0.095797
      5         11           0       -1.973774    0.547724    0.986655
      6         11           0       -0.774918    3.418684   -0.629567
      7         11           0        0.811329    0.571648   -1.808257
 ---------------------------------------------------------------------

 SCF Done:  E(UB3LYP) =  -1136.13110530     A.U. after   19 cycles

 The electronic state is 2-A.
 Alpha  occ. eigenvalues --  -38.44348 -38.44110 -38.43897 -38.43759 -38.43555
 Alpha  occ. eigenvalues --  -38.43523 -38.43423  -2.20160  -2.19938  -2.19783
 Alpha  occ. eigenvalues --   -2.19553  -2.19445  -2.19358  -2.19305  -1.13847
 Alpha  occ. eigenvalues --   -1.13812  -1.13796  -1.13614  -1.13585  -1.13534
 Alpha  occ. eigenvalues --   -1.13513  -1.13429  -1.13371  -1.13236  -1.13214
 Alpha  occ. eigenvalues --   -1.13193  -1.13174  -1.13136  -1.13038  -1.13028
 Alpha  occ. eigenvalues --   -1.13020  -1.12996  -1.12994  -1.12972  -1.12885
 Alpha  occ. eigenvalues --   -0.18103  -0.13065  -0.12291  -0.10716
 Alpha virt. eigenvalues --   -0.06105  -0.05440  -0.04480  -0.03159  -0.02743
 Alpha virt. eigenvalues --   -0.02486  -0.01989  -0.01564  -0.00561  -0.00307
 Alpha virt. eigenvalues --    0.00106   0.00253   0.00547   0.00673   0.00755

  Beta  occ. eigenvalues --  -38.44349 -38.44025 -38.43829 -38.43766 -38.43548
  Beta  occ. eigenvalues --  -38.43510 -38.43408  -2.20163  -2.19782  -2.19659
  Beta  occ. eigenvalues --   -2.19565  -2.19424  -2.19346  -2.19278  -1.13852
  Beta  occ. eigenvalues --   -1.13800  -1.13795  -1.13503  -1.13477  -1.13430
  Beta  occ. eigenvalues --   -1.13426  -1.13342  -1.13280  -1.13244  -1.13220
  Beta  occ. eigenvalues --   -1.13199  -1.13161  -1.13083  -1.13031  -1.13016
  Beta  occ. eigenvalues --   -1.12996  -1.12985  -1.12979  -1.12940  -1.12873
  Beta  occ. eigenvalues --   -0.17389  -0.12932  -0.12093
  Beta virt. eigenvalues --   -0.06790  -0.05972  -0.05223  -0.04378  -0.02532
  Beta virt. eigenvalues --   -0.02288  -0.01990  -0.01621  -0.01323  -0.00418
  Beta virt. eigenvalues --   -0.00128   0.00200   0.00362   0.00690   0.00728

 Mulliken charges and spin densities:
               1          2
     1  Na   0.426942  -0.136069
     2  Na   1.110101   0.061211
     3  Na  -0.349675   0.360573
     4  Na  -0.923139   0.187896
     5  Na  -0.021517   0.297712
     6  Na   0.040969  -0.104454
     7  Na  -0.283680   0.333131
 Sum of Mulliken charges =  -0.00000   1.00000

 Dipole moment (field-independent basis, Debye):
    X=              0.5520    Y=             -0.0970    Z=             -0.2127  Tot=              0.5995
 Quadrupole moment (field-independent basis, Debye-Ang):
   XX=            -54.5917   YY=            -63.2358   ZZ=            -73.7403
   XY=             -1.8121   XZ=              1.0490   YZ=              1.4377

 Normal termination of Gaussian 16 at Thu Dec  7 03:44:40 2023.
