 Gaussian 16, Revision B.01,
 Gaussian 16:  ES64L-G16RevB.01 20-Dec-2017

 -------------------------
 #P B3LYP/6-311+g(d) force
 -------------------------

 -----
 DPGEN
 -----
 Symbolic Z-matrix:
 Charge =  0 Multiplicity = 2

                         Standard orientation:
 ---------------------------------------------------------------------
 Center     Atomic      Atomic             Coordinates (Angstroms)
 Number     Number       Type             X           Y           Z
 ---------------------------------------------------------------------
      1         11           0        1.011607   -0.789124    1.067433
      2         11           0       -4.522580   -1.485739   -0.628810
      3         11           0        3.565268    1.573824   -0.884968
      4         11           0       -0.165701    2.722543   -0.102524
      5         11           0       -3.120516    2.389972    0.562962
      6         11           0       -1.310418   -2.804712   -0.176880
      7         11           0        4.542339   -1.606764    0.162788
 ---------------------------------------------------------------------

 SCF Done:  E(UB3LYP) =  -1136.11057288     A.U. after   24 cycles

 The electronic state is 2-A.
 Alpha  occ. eigenvalues --  -38.45625 -38.45401 -38.44825 -38.44135 -38.44025
 Alpha  occ. eigenvalues --  -38.43399 -38.43295  -2.21389  -2.21175  -2.20602
 Alpha  occ. eigenvalues --   -2.19969  -2.19798  -2.19190  -2.19115  -1.15072
 Alpha  occ. eigenvalues --   -1.15040  -1.15021  -1.14842  -1.14826  -1.14796
 Alpha  occ. eigenvalues --   -1.14296  -1.14269  -1.14232  -1.13650  -1.13613
 Alpha  occ. eigenvalues --   -1.13586  -1.13459  -1.13436  -1.13428  -1.12869
 Alpha  occ. eigenvalues --   -1.12865  -1.12827  -1.12788  -1.12776  -1.12758
 Alpha  occ. eigenvalues --   -0.16358  -0.13759  -0.12230  -0.10663
 Alpha virt. eigenvalues --   -0.07647  -0.05157  -0.04462  -0.03785  -0.03246
 Alpha virt. eigenvalues --   -0.02381  -0.02224  -0.01333  -0.01159  -0.00525
 Alpha virt. eigenvalues --   -0.00495  -0.00229   0.00133   0.00366   0.00463

  Beta  occ. eigenvalues --  -38.45603 -38.45368 -38.44827 -38.44067 -38.43964
  Beta  occ. eigenvalues --  -38.43392 -38.43286  -2.21352  -2.21116  -2.20605
  Beta  occ. eigenvalues --   -2.19845  -2.19682  -2.19183  -2.19099  -1.15049
  Beta  occ. eigenvalues --   -1.15014  -1.14980  -1.14802  -1.14776  -1.14755
  Beta  occ. eigenvalues --   -1.14297  -1.14271  -1.14229  -1.13566  -1.13525
  Beta  occ. eigenvalues --   -1.13496  -1.13379  -1.13359  -1.13352  -1.12865
  Beta  occ. eigenvalues --   -1.12857  -1.12798  -1.12783  -1.12764  -1.12742
  Beta  occ. eigenvalues --   -0.15768  -0.13214  -0.12035
  Beta virt. eigenvalues --   -0.07525  -0.07271  -0.04682  -0.03962  -0.03587
  Beta virt. eigenvalues --   -0.02826  -0.02189  -0.02040  -0.01081  -0.00895
  Beta virt. eigenvalues --   -0.00474  -0.00237  -0.00138   0.00360   0.00535

 Mulliken charges and spin densities:
               1          2
     1  Na  -1.057658   0.324238
     2  Na  -0.158584   0.404613
     3  Na   0.189686   0.106514
     4  Na  -0.053088  -0.085509
     5  Na   0.236118   0.139403
     6  Na   0.451442  -0.097027
     7  Na   0.392083   0.207768
 Sum of Mulliken charges =  -0.00000   1.00000

 Dipole moment (field-independent basis, Debye):
    X=              2.0529    Y=              0.1469    Z=             -0.1146  Tot=              2.0613
 Quadrupole moment (field-independent basis, Debye-Ang):
   XX=            -59.3062   YY=            -67.2515   ZZ=            -71.0018
   XY=             -4.7518   XZ=             -1.4345   YZ=             -1.0693

 Normal termination of Gaussian 16 at Sun Dec  3 18:15:49 2023.
