 Gaussian 16, Revision B.01,
 Gaussian 16:  ES64L-G16RevB.01 20-Dec-2017

 -------------------------
 #P B3LYP/6-311+g(d) force
 -------------------------

 -----
 DPGEN
 -----
 Symbolic Z-matrix:
 Charge =  0 Multiplicity = 2

                         Standard orientation:
 ---------------------------------------------------------------------
 Center     Atomic      Atomic             Coordinates (Angstroms)
 Number     Number       Type             X           Y           Z
 ---------------------------------------------------------------------
      1         11           0        0.434401   -2.973172   -0.626400
      2         11           0       -3.344218    1.409714    0.492075
      3         11           0        2.579915    1.764243   -0.392350
      4         11           0       -0.086024    3.044078   -0.531186
      5         11           0       -2.933950   -2.007437   -0.264400
      6         11           0        3.336092   -1.251074    0.629166
      7         11           0        0.013784    0.013648    0.693095
 ---------------------------------------------------------------------

 SCF Done:  E(UB3LYP) =  -1136.12666707     A.U. after   23 cycles

 The electronic state is 2-A.
 Alpha  occ. eigenvalues --  -38.44515 -38.44167 -38.44100 -38.43746 -38.43504
 Alpha  occ. eigenvalues --  -38.43355 -38.43291  -2.20318  -2.20095  -2.20046
 Alpha  occ. eigenvalues --   -2.19591  -2.19407  -2.19189  -2.19163  -1.14003
 Alpha  occ. eigenvalues --   -1.13978  -1.13958  -1.13839  -1.13782  -1.13763
 Alpha  occ. eigenvalues --   -1.13740  -1.13709  -1.13651  -1.13270  -1.13256
 Alpha  occ. eigenvalues --   -1.13203  -1.13078  -1.13045  -1.13032  -1.12847
 Alpha  occ. eigenvalues --   -1.12826  -1.12821  -1.12817  -1.12813  -1.12779
 Alpha  occ. eigenvalues --   -0.17793  -0.13949  -0.13375  -0.09746
 Alpha virt. eigenvalues --   -0.06467  -0.05713  -0.04368  -0.03226  -0.02822
 Alpha virt. eigenvalues --   -0.02393  -0.01827  -0.01292  -0.00936  -0.00447
 Alpha virt. eigenvalues --   -0.00041   0.00223   0.00617   0.00677   0.00724

  Beta  occ. eigenvalues --  -38.44503 -38.44144 -38.44111 -38.43716 -38.43472
  Beta  occ. eigenvalues --  -38.43291 -38.43234  -2.20303  -2.20065  -2.20062
  Beta  occ. eigenvalues --   -2.19538  -2.19354  -2.19070  -2.19055  -1.13999
  Beta  occ. eigenvalues --   -1.13974  -1.13902  -1.13821  -1.13771  -1.13728
  Beta  occ. eigenvalues --   -1.13727  -1.13709  -1.13661  -1.13239  -1.13223
  Beta  occ. eigenvalues --   -1.13144  -1.13041  -1.13013  -1.12975  -1.12764
  Beta  occ. eigenvalues --   -1.12748  -1.12747  -1.12738  -1.12738  -1.12711
  Beta  occ. eigenvalues --   -0.17512  -0.13227  -0.12750
  Beta virt. eigenvalues --   -0.06501  -0.06444  -0.05504  -0.04164  -0.02637
  Beta virt. eigenvalues --   -0.02347  -0.02124  -0.01614  -0.01068  -0.00768
  Beta virt. eigenvalues --   -0.00258   0.00253   0.00424   0.00630   0.00789

 Mulliken charges and spin densities:
               1          2
     1  Na   0.273043   0.120298
     2  Na   0.828894   0.390181
     3  Na   0.190810   0.095452
     4  Na   0.314261   0.091111
     5  Na   0.143994   0.059754
     6  Na   1.176776   0.365848
     7  Na  -2.927779  -0.122645
 Sum of Mulliken charges =  -0.00000   1.00000

 Dipole moment (field-independent basis, Debye):
    X=              0.0141    Y=             -0.2114    Z=             -0.5567  Tot=              0.5956
 Quadrupole moment (field-independent basis, Debye-Ang):
   XX=            -62.4038   YY=            -64.9433   ZZ=            -71.3216
   XY=              1.8728   XZ=              0.0249   YZ=              0.0766

 Normal termination of Gaussian 16 at Wed Nov 29 16:51:33 2023.
