 Gaussian 16, Revision B.01,
 Gaussian 16:  ES64L-G16RevB.01 20-Dec-2017

 -------------------------
 #P B3LYP/6-311+g(d) force
 -------------------------

 -----
 DPGEN
 -----
 Symbolic Z-matrix:
 Charge =  0 Multiplicity = 2

                         Standard orientation:
 ---------------------------------------------------------------------
 Center     Atomic      Atomic             Coordinates (Angstroms)
 Number     Number       Type             X           Y           Z
 ---------------------------------------------------------------------
      1         11           0       -0.056787    0.051094    1.844944
      2         11           0        0.097199   -2.192299    0.014131
      3         11           0        2.578132   -0.721683   -0.060640
      4         11           0        1.435672    1.799536   -0.020439
      5         11           0       -0.153374    0.166545   -1.810805
      6         11           0       -1.480888    1.798402    0.096627
      7         11           0       -2.419952   -0.901595   -0.063819
 ---------------------------------------------------------------------

 SCF Done:  E(UB3LYP) =  -1136.09056855     A.U. after   19 cycles

 The electronic state is 2-A.
 Alpha  occ. eigenvalues --  -38.44141 -38.44101 -38.43872 -38.43720 -38.43432
 Alpha  occ. eigenvalues --  -38.43425 -38.43168  -2.20335  -2.20309  -2.19912
 Alpha  occ. eigenvalues --   -2.19809  -2.19593  -2.19558  -2.19299  -1.14158
 Alpha  occ. eigenvalues --   -1.14054  -1.14030  -1.13998  -1.13969  -1.13951
 Alpha  occ. eigenvalues --   -1.13747  -1.13643  -1.13573  -1.13546  -1.13510
 Alpha  occ. eigenvalues --   -1.13414  -1.13352  -1.13202  -1.13176  -1.13171
 Alpha  occ. eigenvalues --   -1.13139  -1.13031  -1.12953  -1.12922  -1.12868
 Alpha  occ. eigenvalues --   -0.21516  -0.13855  -0.12911  -0.12286
 Alpha virt. eigenvalues --   -0.05184  -0.04324  -0.04061  -0.03723  -0.03231
 Alpha virt. eigenvalues --   -0.02955  -0.01052  -0.00483  -0.00105   0.00355
 Alpha virt. eigenvalues --    0.00756   0.00777   0.01048   0.01147   0.01194

  Beta  occ. eigenvalues --  -38.44043 -38.44007 -38.43866 -38.43709 -38.43416
  Beta  occ. eigenvalues --  -38.43411 -38.43154  -2.20158  -2.20138  -2.19905
  Beta  occ. eigenvalues --   -2.19795  -2.19572  -2.19539  -2.19280  -1.14067
  Beta  occ. eigenvalues --   -1.13939  -1.13911  -1.13890  -1.13850  -1.13825
  Beta  occ. eigenvalues --   -1.13739  -1.13638  -1.13565  -1.13530  -1.13466
  Beta  occ. eigenvalues --   -1.13354  -1.13335  -1.13164  -1.13133  -1.13122
  Beta  occ. eigenvalues --   -1.13099  -1.13025  -1.12944  -1.12864  -1.12850
  Beta  occ. eigenvalues --   -0.20675  -0.13487  -0.12541
  Beta virt. eigenvalues --   -0.08102  -0.05210  -0.04317  -0.04036  -0.02752
  Beta virt. eigenvalues --   -0.02293  -0.01868  -0.00981  -0.00445   0.00044
  Beta virt. eigenvalues --    0.00376   0.00731   0.00748   0.01076   0.01153

 Mulliken charges and spin densities:
               1          2
     1  Na  -0.283704   0.463067
     2  Na   0.193178   0.080385
     3  Na  -0.179853  -0.060694
     4  Na   0.166599   0.040485
     5  Na  -0.266768   0.463229
     6  Na   0.244498   0.028248
     7  Na   0.126049  -0.014720
 Sum of Mulliken charges =  -0.00000   1.00000

 Dipole moment (field-independent basis, Debye):
    X=              0.0730    Y=             -0.1143    Z=              0.0125  Tot=              0.1363
 Quadrupole moment (field-independent basis, Debye-Ang):
   XX=            -60.2652   YY=            -69.6087   ZZ=            -68.1480
   XY=             -0.0960   XZ=             -0.1584   YZ=              0.2518

 Normal termination of Gaussian 16 at Thu Dec  7 13:42:58 2023.
