 Gaussian 16, Revision B.01,
 Gaussian 16:  ES64L-G16RevB.01 20-Dec-2017

 -------------------------
 #P B3LYP/6-311+g(d) force
 -------------------------

 -----
 DPGEN
 -----
 Symbolic Z-matrix:
 Charge =  0 Multiplicity = 2

                         Standard orientation:
 ---------------------------------------------------------------------
 Center     Atomic      Atomic             Coordinates (Angstroms)
 Number     Number       Type             X           Y           Z
 ---------------------------------------------------------------------
      1         11           0        5.320196   -0.741057    0.306699
      2         11           0       -1.003760   -1.248742    0.379764
      3         11           0        0.086480    2.000794   -0.045764
      4         11           0       -4.111061    0.869551    0.750263
      5         11           0        2.314727   -2.367297   -0.294276
      6         11           0       -6.631014   -0.524352   -0.650610
      7         11           0        4.024431    2.011102   -0.446077
 ---------------------------------------------------------------------

 SCF Done:  E(UB3LYP) =  -1136.11328166     A.U. after   21 cycles

 The electronic state is 2-A.
 Alpha  occ. eigenvalues --  -38.45246 -38.44960 -38.44849 -38.44146 -38.44044
 Alpha  occ. eigenvalues --  -38.43684 -38.43623  -2.21049  -2.20767  -2.20629
 Alpha  occ. eigenvalues --   -2.19945  -2.19866  -2.19485  -2.19393  -1.14717
 Alpha  occ. eigenvalues --   -1.14683  -1.14662  -1.14432  -1.14415  -1.14405
 Alpha  occ. eigenvalues --   -1.14303  -1.14280  -1.14244  -1.13627  -1.13597
 Alpha  occ. eigenvalues --   -1.13591  -1.13532  -1.13523  -1.13518  -1.13176
 Alpha  occ. eigenvalues --   -1.13168  -1.13132  -1.13056  -1.13055  -1.13001
 Alpha  occ. eigenvalues --   -0.16378  -0.13942  -0.12184  -0.11526
 Alpha virt. eigenvalues --   -0.06656  -0.05973  -0.04169  -0.03905  -0.03227
 Alpha virt. eigenvalues --   -0.02519  -0.02093  -0.01470  -0.01292  -0.00689
 Alpha virt. eigenvalues --   -0.00460  -0.00218  -0.00084   0.00113   0.00629

  Beta  occ. eigenvalues --  -38.45159 -38.44909 -38.44794 -38.44141 -38.44041
  Beta  occ. eigenvalues --  -38.43681 -38.43634  -2.20888  -2.20672  -2.20525
  Beta  occ. eigenvalues --   -2.19938  -2.19863  -2.19477  -2.19414  -1.14608
  Beta  occ. eigenvalues --   -1.14578  -1.14542  -1.14369  -1.14354  -1.14328
  Beta  occ. eigenvalues --   -1.14233  -1.14212  -1.14166  -1.13625  -1.13597
  Beta  occ. eigenvalues --   -1.13566  -1.13526  -1.13522  -1.13504  -1.13174
  Beta  occ. eigenvalues --   -1.13162  -1.13133  -1.13070  -1.13069  -1.13009
  Beta  occ. eigenvalues --   -0.15593  -0.13856  -0.11484
  Beta virt. eigenvalues --   -0.08321  -0.06187  -0.05217  -0.03917  -0.03632
  Beta virt. eigenvalues --   -0.02800  -0.02317  -0.01960  -0.01297  -0.00888
  Beta virt. eigenvalues --   -0.00554  -0.00220   0.00014   0.00072   0.00201

 Mulliken charges and spin densities:
               1          2
     1  Na   0.151699  -0.022864
     2  Na  -0.140336   0.059724
     3  Na  -0.277548   0.435823
     4  Na   0.037998   0.106950
     5  Na  -0.217517   0.371698
     6  Na   0.331490  -0.076758
     7  Na   0.114214   0.125426
 Sum of Mulliken charges =  -0.00000   1.00000

 Dipole moment (field-independent basis, Debye):
    X=              1.5633    Y=             -0.1536    Z=             -0.1987  Tot=              1.5834
 Quadrupole moment (field-independent basis, Debye-Ang):
   XX=            -69.3365   YY=            -62.8335   ZZ=            -71.7998
   XY=              1.9419   XZ=              2.9885   YZ=              0.7739

 Normal termination of Gaussian 16 at Mon Dec  4 04:48:57 2023.
