 Gaussian 16, Revision B.01,
 Gaussian 16:  ES64L-G16RevB.01 20-Dec-2017

 -------------------------
 #P B3LYP/6-311+g(d) force
 -------------------------

 -----
 DPGEN
 -----
 Symbolic Z-matrix:
 Charge =  0 Multiplicity = 2

                         Standard orientation:
 ---------------------------------------------------------------------
 Center     Atomic      Atomic             Coordinates (Angstroms)
 Number     Number       Type             X           Y           Z
 ---------------------------------------------------------------------
      1         11           0        0.483740   -0.098840   -1.488183
      2         11           0        1.698749    2.439558   -0.175807
      3         11           0        2.811066   -1.252581   -0.129300
      4         11           0       -0.547668   -2.754853   -0.134056
      5         11           0        0.128587   -0.017304    2.334872
      6         11           0       -2.996659   -0.405440   -0.257506
      7         11           0       -1.577815    2.089461   -0.150021
 ---------------------------------------------------------------------

 SCF Done:  E(UB3LYP) =  -1136.13045498     A.U. after   19 cycles

 The electronic state is 2-A.
 Alpha  occ. eigenvalues --  -38.44115 -38.44101 -38.43723 -38.43528 -38.43482
 Alpha  occ. eigenvalues --  -38.43281 -38.43141  -2.19977  -2.19955  -2.19614
 Alpha  occ. eigenvalues --   -2.19402  -2.19350  -2.19228  -2.19221  -1.13740
 Alpha  occ. eigenvalues --   -1.13625  -1.13602  -1.13583  -1.13576  -1.13575
 Alpha  occ. eigenvalues --   -1.13418  -1.13253  -1.13245  -1.13150  -1.13079
 Alpha  occ. eigenvalues --   -1.13055  -1.13037  -1.13008  -1.12966  -1.12925
 Alpha  occ. eigenvalues --   -1.12871  -1.12857  -1.12843  -1.12826  -1.12810
 Alpha  occ. eigenvalues --   -0.19046  -0.13080  -0.12619  -0.11167
 Alpha virt. eigenvalues --   -0.05589  -0.04961  -0.04484  -0.03213  -0.03023
 Alpha virt. eigenvalues --   -0.02968  -0.01361  -0.01084  -0.00146  -0.00052
 Alpha virt. eigenvalues --   -0.00000   0.00345   0.00845   0.00929   0.00969

  Beta  occ. eigenvalues --  -38.44110 -38.43986 -38.43720 -38.43524 -38.43477
  Beta  occ. eigenvalues --  -38.43274 -38.43089  -2.19971  -2.19743  -2.19610
  Beta  occ. eigenvalues --   -2.19397  -2.19344  -2.19219  -2.19128  -1.13728
  Beta  occ. eigenvalues --   -1.13601  -1.13582  -1.13463  -1.13429  -1.13425
  Beta  occ. eigenvalues --   -1.13417  -1.13250  -1.13225  -1.13136  -1.13067
  Beta  occ. eigenvalues --   -1.13044  -1.13025  -1.12984  -1.12965  -1.12904
  Beta  occ. eigenvalues --   -1.12841  -1.12826  -1.12806  -1.12771  -1.12751
  Beta  occ. eigenvalues --   -0.18316  -0.12854  -0.12392
  Beta virt. eigenvalues --   -0.07118  -0.05578  -0.04922  -0.04473  -0.02415
  Beta virt. eigenvalues --   -0.02171  -0.01832  -0.01296  -0.01031  -0.00197
  Beta virt. eigenvalues --   -0.00048   0.00125   0.00379   0.00877   0.00948

 Mulliken charges and spin densities:
               1          2
     1  Na  -0.701256  -0.015394
     2  Na   0.433419   0.058279
     3  Na   0.387041   0.030496
     4  Na   0.342897   0.079296
     5  Na  -0.825015   0.713614
     6  Na  -0.021733   0.009037
     7  Na   0.384647   0.124671
 Sum of Mulliken charges =  -0.00000   1.00000

 Dipole moment (field-independent basis, Debye):
    X=              0.4214    Y=             -0.2229    Z=              0.3891  Tot=              0.6154
 Quadrupole moment (field-independent basis, Debye-Ang):
   XX=            -58.6852   YY=            -63.6428   ZZ=            -72.6664
   XY=              0.6970   XZ=              0.7669   YZ=             -0.1460

 Normal termination of Gaussian 16 at Sat Dec  9 06:28:04 2023.
