 Gaussian 16, Revision B.01,
 Gaussian 16:  ES64L-G16RevB.01 20-Dec-2017

 -------------------------
 #P B3LYP/6-311+g(d) force
 -------------------------

 -----
 DPGEN
 -----
 Symbolic Z-matrix:
 Charge =  0 Multiplicity = 2

                         Standard orientation:
 ---------------------------------------------------------------------
 Center     Atomic      Atomic             Coordinates (Angstroms)
 Number     Number       Type             X           Y           Z
 ---------------------------------------------------------------------
      1         11           0       -1.216850    0.142879    1.253025
      2         11           0        2.393213    0.461756    0.984547
      3         11           0        0.758093   -2.292612    0.102383
      4         11           0       -4.053237    1.192359   -0.725892
      5         11           0       -2.763879   -2.122659   -0.403044
      6         11           0        4.798564   -0.094867   -1.031598
      7         11           0        0.084096    2.713143   -0.179421
 ---------------------------------------------------------------------

 SCF Done:  E(UB3LYP) =  -1136.12348216     A.U. after   21 cycles

 The electronic state is 2-A.
 Alpha  occ. eigenvalues --  -38.44826 -38.44581 -38.43753 -38.43601 -38.43491
 Alpha  occ. eigenvalues --  -38.43490 -38.43466  -2.20644  -2.20375  -2.19591
 Alpha  occ. eigenvalues --   -2.19566  -2.19390  -2.19333  -2.19284  -1.14292
 Alpha  occ. eigenvalues --   -1.14270  -1.14256  -1.14041  -1.14011  -1.13996
 Alpha  occ. eigenvalues --   -1.13335  -1.13285  -1.13264  -1.13223  -1.13203
 Alpha  occ. eigenvalues --   -1.13180  -1.13098  -1.13078  -1.13041  -1.13005
 Alpha  occ. eigenvalues --   -1.13001  -1.12951  -1.12941  -1.12925  -1.12899
 Alpha  occ. eigenvalues --   -0.17546  -0.14268  -0.11626  -0.11368
 Alpha virt. eigenvalues --   -0.05703  -0.05377  -0.04963  -0.03572  -0.02415
 Alpha virt. eigenvalues --   -0.02281  -0.02162  -0.01308  -0.00659  -0.00490
 Alpha virt. eigenvalues --   -0.00266   0.00137   0.00348   0.00471   0.00593

  Beta  occ. eigenvalues --  -38.44719 -38.44522 -38.43748 -38.43577 -38.43483
  Beta  occ. eigenvalues --  -38.43475 -38.43458  -2.20446  -2.20265  -2.19585
  Beta  occ. eigenvalues --   -2.19526  -2.19385  -2.19309  -2.19271  -1.14158
  Beta  occ. eigenvalues --   -1.14135  -1.14124  -1.13966  -1.13937  -1.13919
  Beta  occ. eigenvalues --   -1.13328  -1.13271  -1.13247  -1.13187  -1.13166
  Beta  occ. eigenvalues --   -1.13154  -1.13091  -1.13074  -1.12992  -1.12990
  Beta  occ. eigenvalues --   -1.12973  -1.12942  -1.12926  -1.12915  -1.12891
  Beta  occ. eigenvalues --   -0.16992  -0.13344  -0.11476
  Beta virt. eigenvalues --   -0.07835  -0.05479  -0.05204  -0.04381  -0.03456
  Beta virt. eigenvalues --   -0.02099  -0.01834  -0.01537  -0.01138  -0.00501
  Beta virt. eigenvalues --   -0.00232  -0.00179   0.00282   0.00443   0.00590

 Mulliken charges and spin densities:
               1          2
     1  Na   0.362564  -0.157522
     2  Na   0.034102   0.011364
     3  Na  -0.343671   0.026176
     4  Na   0.026446   0.389661
     5  Na   0.038136   0.176668
     6  Na   0.111185   0.496368
     7  Na  -0.228762   0.057283
 Sum of Mulliken charges =  -0.00000   1.00000

 Dipole moment (field-independent basis, Debye):
    X=             -0.2913    Y=              0.0572    Z=             -0.8744  Tot=              0.9235
 Quadrupole moment (field-independent basis, Debye-Ang):
   XX=            -59.1547   YY=            -70.4788   ZZ=            -66.6229
   XY=             -0.5273   XZ=             -0.3529   YZ=             -0.6530

 Normal termination of Gaussian 16 at Tue Nov 28 21:24:42 2023.
