 Gaussian 16, Revision B.01,
 Gaussian 16:  ES64L-G16RevB.01 20-Dec-2017

 -------------------------
 #P B3LYP/6-311+g(d) force
 -------------------------

 -----
 DPGEN
 -----
 Symbolic Z-matrix:
 Charge =  0 Multiplicity = 2

                         Standard orientation:
 ---------------------------------------------------------------------
 Center     Atomic      Atomic             Coordinates (Angstroms)
 Number     Number       Type             X           Y           Z
 ---------------------------------------------------------------------
      1         11           0       -3.261833   -0.181981   -0.136561
      2         11           0        0.297022    0.184430    1.984449
      3         11           0       -0.859478   -2.852112   -0.152032
      4         11           0       -1.023920    2.966564    0.273717
      5         11           0        2.442804   -1.616387    0.261692
      6         11           0       -0.418223    0.107237   -1.473151
      7         11           0        2.823629    1.392248   -0.758115
 ---------------------------------------------------------------------

 SCF Done:  E(UB3LYP) =  -1136.13543958     A.U. after   19 cycles

 The electronic state is 2-A.
 Alpha  occ. eigenvalues --  -38.44426 -38.43927 -38.43629 -38.43521 -38.43487
 Alpha  occ. eigenvalues --  -38.43304 -38.43152  -2.20249  -2.19762  -2.19440
 Alpha  occ. eigenvalues --   -2.19405  -2.19390  -2.19149  -2.19142  -1.13953
 Alpha  occ. eigenvalues --   -1.13908  -1.13864  -1.13444  -1.13422  -1.13389
 Alpha  occ. eigenvalues --   -1.13128  -1.13121  -1.13115  -1.13072  -1.13064
 Alpha  occ. eigenvalues --   -1.13047  -1.13041  -1.13005  -1.12986  -1.12884
 Alpha  occ. eigenvalues --   -1.12825  -1.12805  -1.12783  -1.12772  -1.12742
 Alpha  occ. eigenvalues --   -0.18528  -0.13203  -0.12306  -0.10619
 Alpha virt. eigenvalues --   -0.05851  -0.05055  -0.04798  -0.03209  -0.02797
 Alpha virt. eigenvalues --   -0.02346  -0.01709  -0.01192  -0.00503  -0.00319
 Alpha virt. eigenvalues --   -0.00004   0.00331   0.00788   0.00819   0.00888

  Beta  occ. eigenvalues --  -38.44422 -38.43898 -38.43623 -38.43513 -38.43395
  Beta  occ. eigenvalues --  -38.43302 -38.43105  -2.20245  -2.19711  -2.19431
  Beta  occ. eigenvalues --   -2.19395  -2.19220  -2.19149  -2.19058  -1.13943
  Beta  occ. eigenvalues --   -1.13900  -1.13861  -1.13413  -1.13375  -1.13353
  Beta  occ. eigenvalues --   -1.13112  -1.13093  -1.13088  -1.13069  -1.13047
  Beta  occ. eigenvalues --   -1.13023  -1.12946  -1.12897  -1.12869  -1.12865
  Beta  occ. eigenvalues --   -1.12805  -1.12769  -1.12758  -1.12718  -1.12692
  Beta  occ. eigenvalues --   -0.17852  -0.12922  -0.12055
  Beta virt. eigenvalues --   -0.06799  -0.05770  -0.04989  -0.04720  -0.02509
  Beta virt. eigenvalues --   -0.02085  -0.01597  -0.01356  -0.01104  -0.00503
  Beta virt. eigenvalues --   -0.00338   0.00134   0.00383   0.00806   0.00883

 Mulliken charges and spin densities:
               1          2
     1  Na   0.181610  -0.045684
     2  Na  -0.278221   0.609873
     3  Na   0.004072  -0.036043
     4  Na   0.003768  -0.024803
     5  Na   0.323508   0.094446
     6  Na  -0.265229   0.295099
     7  Na   0.030493   0.107113
 Sum of Mulliken charges =  -0.00000   1.00000

 Dipole moment (field-independent basis, Debye):
    X=             -0.3942    Y=              0.1833    Z=              0.1511  Tot=              0.4603
 Quadrupole moment (field-independent basis, Debye-Ang):
   XX=            -56.0398   YY=            -62.0510   ZZ=            -74.8314
   XY=             -0.0796   XZ=             -1.4515   YZ=             -0.5945

 Normal termination of Gaussian 16 at Tue Dec  5 11:42:26 2023.
