 Gaussian 16, Revision B.01,
 Gaussian 16:  ES64L-G16RevB.01 20-Dec-2017

 -------------------------
 #P B3LYP/6-311+g(d) force
 -------------------------

 -----
 DPGEN
 -----
 Symbolic Z-matrix:
 Charge =  0 Multiplicity = 2

                         Standard orientation:
 ---------------------------------------------------------------------
 Center     Atomic      Atomic             Coordinates (Angstroms)
 Number     Number       Type             X           Y           Z
 ---------------------------------------------------------------------
      1         11           0        0.129472    0.014072    2.142696
      2         11           0       -0.039811   -0.119462   -1.547065
      3         11           0       -2.159152   -2.042654    0.275672
      4         11           0        0.414828    2.879119    0.342308
      5         11           0        3.156330    0.479316   -0.433754
      6         11           0        1.249134   -2.613479   -0.165490
      7         11           0       -2.750801    1.403087   -0.614366
 ---------------------------------------------------------------------

 SCF Done:  E(UB3LYP) =  -1136.13910169     A.U. after   19 cycles

 The electronic state is 2-A.
 Alpha  occ. eigenvalues --  -38.43867 -38.43829 -38.43596 -38.43549 -38.43458
 Alpha  occ. eigenvalues --  -38.43449 -38.43113  -2.19713  -2.19680  -2.19433
 Alpha  occ. eigenvalues --   -2.19402  -2.19323  -2.19296  -2.19125  -1.13378
 Alpha  occ. eigenvalues --   -1.13364  -1.13343  -1.13339  -1.13328  -1.13317
 Alpha  occ. eigenvalues --   -1.13140  -1.13099  -1.13085  -1.13071  -1.13069
 Alpha  occ. eigenvalues --   -1.13048  -1.13028  -1.12981  -1.12979  -1.12962
 Alpha  occ. eigenvalues --   -1.12928  -1.12918  -1.12799  -1.12752  -1.12738
 Alpha  occ. eigenvalues --   -0.18642  -0.12741  -0.12601  -0.10996
 Alpha virt. eigenvalues --   -0.05355  -0.05021  -0.04816  -0.03149  -0.03036
 Alpha virt. eigenvalues --   -0.02708  -0.01430  -0.01129  -0.00350  -0.00193
 Alpha virt. eigenvalues --    0.00004   0.00349   0.00832   0.00888   0.00899

  Beta  occ. eigenvalues --  -38.43860 -38.43729 -38.43582 -38.43543 -38.43451
  Beta  occ. eigenvalues --  -38.43444 -38.43058  -2.19670  -2.19527  -2.19410
  Beta  occ. eigenvalues --   -2.19395  -2.19316  -2.19285  -2.19026  -1.13346
  Beta  occ. eigenvalues --   -1.13329  -1.13306  -1.13255  -1.13212  -1.13200
  Beta  occ. eigenvalues --   -1.13114  -1.13090  -1.13071  -1.13053  -1.13045
  Beta  occ. eigenvalues --   -1.13036  -1.13017  -1.12966  -1.12964  -1.12938
  Beta  occ. eigenvalues --   -1.12920  -1.12914  -1.12730  -1.12686  -1.12664
  Beta  occ. eigenvalues --   -0.17927  -0.12466  -0.12356
  Beta virt. eigenvalues --   -0.07083  -0.05323  -0.04980  -0.04741  -0.02374
  Beta virt. eigenvalues --   -0.02305  -0.01657  -0.01332  -0.01053  -0.00338
  Beta virt. eigenvalues --   -0.00239   0.00122   0.00380   0.00877   0.00894

 Mulliken charges and spin densities:
               1          2
     1  Na  -0.384726   0.640542
     2  Na  -0.237235   0.305777
     3  Na   0.183528   0.065929
     4  Na   0.113574   0.037513
     5  Na   0.050889  -0.037736
     6  Na   0.168415  -0.026706
     7  Na   0.105555   0.014681
 Sum of Mulliken charges =  -0.00000   1.00000

 Dipole moment (field-independent basis, Debye):
    X=              0.1088    Y=             -0.0159    Z=              0.2056  Tot=              0.2332
 Quadrupole moment (field-independent basis, Debye-Ang):
   XX=            -58.1734   YY=            -62.0792   ZZ=            -73.2118
   XY=              0.3637   XZ=             -0.4034   YZ=             -0.6109

 Normal termination of Gaussian 16 at Thu Dec  7 05:18:06 2023.
