 Gaussian 16, Revision B.01,
 Gaussian 16:  ES64L-G16RevB.01 20-Dec-2017

 -------------------------
 #P B3LYP/6-311+g(d) force
 -------------------------

 -----
 DPGEN
 -----
 Symbolic Z-matrix:
 Charge =  0 Multiplicity = 2

                         Standard orientation:
 ---------------------------------------------------------------------
 Center     Atomic      Atomic             Coordinates (Angstroms)
 Number     Number       Type             X           Y           Z
 ---------------------------------------------------------------------
      1         11           0       -1.142502   -3.348090    0.048439
      2         11           0       -0.340720    3.190504    0.015949
      3         11           0        2.831319    2.158399   -0.080067
      4         11           0       -3.929491   -1.566573   -0.553274
      5         11           0       -3.376533    2.196998    0.118821
      6         11           0        1.790112   -1.421398    1.413751
      7         11           0        4.167815   -1.209839   -0.963619
 ---------------------------------------------------------------------

 SCF Done:  E(UB3LYP) =  -1136.11113325     A.U. after   24 cycles

 The electronic state is 2-A.
 Alpha  occ. eigenvalues --  -38.45690 -38.45094 -38.44978 -38.44283 -38.43901
 Alpha  occ. eigenvalues --  -38.43674 -38.43401  -2.21454  -2.20898  -2.20727
 Alpha  occ. eigenvalues --   -2.20105  -2.19699  -2.19465  -2.19221  -1.15144
 Alpha  occ. eigenvalues --   -1.15131  -1.15072  -1.14579  -1.14570  -1.14506
 Alpha  occ. eigenvalues --   -1.14415  -1.14398  -1.14367  -1.13758  -1.13749
 Alpha  occ. eigenvalues --   -1.13715  -1.13374  -1.13363  -1.13328  -1.13128
 Alpha  occ. eigenvalues --   -1.13119  -1.13101  -1.12891  -1.12886  -1.12872
 Alpha  occ. eigenvalues --   -0.16117  -0.13767  -0.13109  -0.10382
 Alpha virt. eigenvalues --   -0.07587  -0.05760  -0.03755  -0.03678  -0.03107
 Alpha virt. eigenvalues --   -0.02683  -0.02109  -0.01820  -0.01112  -0.01060
 Alpha virt. eigenvalues --   -0.00255   0.00007   0.00113   0.00399   0.00488

  Beta  occ. eigenvalues --  -38.45682 -38.45047 -38.44987 -38.44209 -38.43871
  Beta  occ. eigenvalues --  -38.43640 -38.43393  -2.21442  -2.20819  -2.20745
  Beta  occ. eigenvalues --   -2.19966  -2.19641  -2.19401  -2.19211  -1.15133
  Beta  occ. eigenvalues --   -1.15122  -1.15043  -1.14530  -1.14513  -1.14430
  Beta  occ. eigenvalues --   -1.14421  -1.14412  -1.14361  -1.13661  -1.13653
  Beta  occ. eigenvalues --   -1.13627  -1.13343  -1.13322  -1.13286  -1.13084
  Beta  occ. eigenvalues --   -1.13078  -1.13061  -1.12887  -1.12882  -1.12838
  Beta  occ. eigenvalues --   -0.15562  -0.13362  -0.12617
  Beta virt. eigenvalues --   -0.07507  -0.07049  -0.05324  -0.03586  -0.03241
  Beta virt. eigenvalues --   -0.02726  -0.02356  -0.01876  -0.01644  -0.00923
  Beta virt. eigenvalues --   -0.00832  -0.00038   0.00109   0.00386   0.00462

 Mulliken charges and spin densities:
               1          2
     1  Na  -0.177729   0.137825
     2  Na   0.053909  -0.056547
     3  Na   0.231864   0.104400
     4  Na   0.085239   0.047793
     5  Na  -0.280477   0.361197
     6  Na  -0.155041   0.011356
     7  Na   0.242236   0.393976
 Sum of Mulliken charges =  -0.00000   1.00000

 Dipole moment (field-independent basis, Debye):
    X=              1.1027    Y=             -0.5695    Z=             -0.0462  Tot=              1.2419
 Quadrupole moment (field-independent basis, Debye-Ang):
   XX=            -62.2257   YY=            -71.1592   ZZ=            -68.5308
   XY=              3.3372   XZ=             -0.0407   YZ=              0.8998

 Normal termination of Gaussian 16 at Sun Dec  3 15:18:11 2023.
