 Gaussian 16, Revision B.01,
 Gaussian 16:  ES64L-G16RevB.01 20-Dec-2017

 -------------------------
 #P B3LYP/6-311+g(d) force
 -------------------------

 -----
 DPGEN
 -----
 Symbolic Z-matrix:
 Charge =  0 Multiplicity = 2

                         Standard orientation:
 ---------------------------------------------------------------------
 Center     Atomic      Atomic             Coordinates (Angstroms)
 Number     Number       Type             X           Y           Z
 ---------------------------------------------------------------------
      1         11           0       -2.650854    1.620413   -0.122052
      2         11           0       -2.781349   -1.589875    0.040139
      3         11           0       -0.205471    0.084227   -1.458121
      4         11           0        1.068965   -2.597185    0.030401
      5         11           0        2.938757   -0.166117   -0.567998
      6         11           0        0.470260   -0.121517    1.862704
      7         11           0        1.159691    2.770055    0.214926
 ---------------------------------------------------------------------

 SCF Done:  E(UB3LYP) =  -1136.13420673     A.U. after   19 cycles

 The electronic state is 2-A.
 Alpha  occ. eigenvalues --  -38.44087 -38.44071 -38.43947 -38.43178 -38.43169
 Alpha  occ. eigenvalues --  -38.43139 -38.43007  -2.19939  -2.19905  -2.19866
 Alpha  occ. eigenvalues --   -2.19135  -2.19062  -2.19045  -2.19026  -1.13667
 Alpha  occ. eigenvalues --   -1.13625  -1.13578  -1.13574  -1.13562  -1.13546
 Alpha  occ. eigenvalues --   -1.13524  -1.13505  -1.13498  -1.12881  -1.12811
 Alpha  occ. eigenvalues --   -1.12757  -1.12752  -1.12725  -1.12700  -1.12695
 Alpha  occ. eigenvalues --   -1.12688  -1.12670  -1.12666  -1.12663  -1.12635
 Alpha  occ. eigenvalues --   -0.19028  -0.13557  -0.12297  -0.10542
 Alpha virt. eigenvalues --   -0.05679  -0.05377  -0.04488  -0.03245  -0.02647
 Alpha virt. eigenvalues --   -0.02217  -0.01646  -0.01156  -0.00351  -0.00286
 Alpha virt. eigenvalues --    0.00035   0.00346   0.00790   0.00865   0.00903

  Beta  occ. eigenvalues --  -38.44084 -38.44071 -38.43925 -38.43171 -38.43129
  Beta  occ. eigenvalues --  -38.43079 -38.42952  -2.19937  -2.19906  -2.19830
  Beta  occ. eigenvalues --   -2.19050  -2.19017  -2.18968  -2.18948  -1.13666
  Beta  occ. eigenvalues --   -1.13617  -1.13569  -1.13566  -1.13541  -1.13538
  Beta  occ. eigenvalues --   -1.13507  -1.13487  -1.13459  -1.12819  -1.12736
  Beta  occ. eigenvalues --   -1.12710  -1.12688  -1.12673  -1.12669  -1.12660
  Beta  occ. eigenvalues --   -1.12633  -1.12625  -1.12600  -1.12585  -1.12581
  Beta  occ. eigenvalues --   -0.18314  -0.13306  -0.12038
  Beta virt. eigenvalues --   -0.06614  -0.05597  -0.05379  -0.04481  -0.02497
  Beta virt. eigenvalues --   -0.01892  -0.01564  -0.01163  -0.01086  -0.00366
  Beta virt. eigenvalues --   -0.00322   0.00168   0.00384   0.00851   0.00859

 Mulliken charges and spin densities:
               1          2
     1  Na   0.112426  -0.064306
     2  Na   0.045034  -0.052971
     3  Na  -0.300010   0.300101
     4  Na   0.252163   0.001079
     5  Na   0.334320   0.113335
     6  Na  -0.434906   0.757376
     7  Na  -0.009027  -0.054614
 Sum of Mulliken charges =  -0.00000   1.00000

 Dipole moment (field-independent basis, Debye):
    X=             -0.3744    Y=              0.0465    Z=              0.1063  Tot=              0.3920
 Quadrupole moment (field-independent basis, Debye-Ang):
   XX=            -54.8145   YY=            -62.2318   ZZ=            -75.5434
   XY=              0.4572   XZ=             -1.5812   YZ=              0.3381

 Normal termination of Gaussian 16 at Tue Dec  5 10:54:20 2023.
