 Gaussian 16, Revision B.01,
 Gaussian 16:  ES64L-G16RevB.01 20-Dec-2017

 -------------------------
 #P B3LYP/6-311+g(d) force
 -------------------------

 -----
 DPGEN
 -----
 Symbolic Z-matrix:
 Charge =  0 Multiplicity = 2

                         Standard orientation:
 ---------------------------------------------------------------------
 Center     Atomic      Atomic             Coordinates (Angstroms)
 Number     Number       Type             X           Y           Z
 ---------------------------------------------------------------------
      1         11           0        1.582959   -2.305823    1.495346
      2         11           0        3.672638   -2.200075   -1.162737
      3         11           0        4.441226    1.298899   -0.724564
      4         11           0       -0.443116    0.667855    0.259197
      5         11           0        2.159456    2.878823    0.689723
      6         11           0       -4.576558   -1.009539   -0.027046
      7         11           0       -6.836604    0.669860   -0.529918
 ---------------------------------------------------------------------

 SCF Done:  E(UB3LYP) =  -1136.10570432     A.U. after   22 cycles

 The electronic state is 2-A.
 Alpha  occ. eigenvalues --  -38.45377 -38.44837 -38.44770 -38.44486 -38.44280
 Alpha  occ. eigenvalues --  -38.43883 -38.43063  -2.21163  -2.20664  -2.20598
 Alpha  occ. eigenvalues --   -2.20303  -2.20051  -2.19677  -2.18889  -1.14831
 Alpha  occ. eigenvalues --   -1.14794  -1.14777  -1.14446  -1.14294  -1.14292
 Alpha  occ. eigenvalues --   -1.14260  -1.14244  -1.14221  -1.13946  -1.13939
 Alpha  occ. eigenvalues --   -1.13926  -1.13723  -1.13712  -1.13694  -1.13342
 Alpha  occ. eigenvalues --   -1.13339  -1.13304  -1.12573  -1.12545  -1.12541
 Alpha  occ. eigenvalues --   -0.16155  -0.14048  -0.12023  -0.11682
 Alpha virt. eigenvalues --   -0.06486  -0.05580  -0.04379  -0.03608  -0.03244
 Alpha virt. eigenvalues --   -0.02812  -0.02281  -0.01890  -0.01289  -0.00639
 Alpha virt. eigenvalues --   -0.00409  -0.00046   0.00148   0.00297   0.00378

  Beta  occ. eigenvalues --  -38.45293 -38.44812 -38.44698 -38.44490 -38.44271
  Beta  occ. eigenvalues --  -38.43856 -38.43066  -2.21007  -2.20618  -2.20465
  Beta  occ. eigenvalues --   -2.20314  -2.20033  -2.19629  -2.18899  -1.14722
  Beta  occ. eigenvalues --   -1.14688  -1.14669  -1.14419  -1.14263  -1.14261
  Beta  occ. eigenvalues --   -1.14171  -1.14159  -1.14120  -1.13956  -1.13948
  Beta  occ. eigenvalues --   -1.13913  -1.13713  -1.13699  -1.13673  -1.13311
  Beta  occ. eigenvalues --   -1.13299  -1.13269  -1.12573  -1.12555  -1.12533
  Beta  occ. eigenvalues --   -0.15254  -0.13699  -0.11640
  Beta virt. eigenvalues --   -0.08435  -0.05941  -0.05114  -0.03961  -0.03257
  Beta virt. eigenvalues --   -0.03041  -0.02686  -0.01971  -0.01685  -0.00925
  Beta virt. eigenvalues --   -0.00445  -0.00381   0.00066   0.00295   0.00432

 Mulliken charges and spin densities:
               1          2
     1  Na   0.044816  -0.023015
     2  Na   0.155090   0.149402
     3  Na  -0.121141   0.354911
     4  Na  -1.170194   0.476076
     5  Na   1.154145   0.011699
     6  Na  -0.314836  -0.044103
     7  Na   0.252121   0.075030
 Sum of Mulliken charges =  -0.00000   1.00000

 Dipole moment (field-independent basis, Debye):
    X=             -1.1283    Y=              0.0745    Z=             -0.1390  Tot=              1.1393
 Quadrupole moment (field-independent basis, Debye-Ang):
   XX=            -55.3092   YY=            -73.4745   ZZ=            -68.2385
   XY=             -4.4006   XZ=             -0.8109   YZ=             -0.6956

 Normal termination of Gaussian 16 at Sun Dec  3 11:47:24 2023.
