 Gaussian 16, Revision B.01,
 Gaussian 16:  ES64L-G16RevB.01 20-Dec-2017

 -------------------------
 #P B3LYP/6-311+g(d) force
 -------------------------

 -----
 DPGEN
 -----
 Symbolic Z-matrix:
 Charge =  0 Multiplicity = 2

                         Standard orientation:
 ---------------------------------------------------------------------
 Center     Atomic      Atomic             Coordinates (Angstroms)
 Number     Number       Type             X           Y           Z
 ---------------------------------------------------------------------
      1         11           0       -1.460641    1.833596    0.385000
      2         11           0        2.498454    1.919988   -0.138097
      3         11           0        0.111756   -0.471872   -1.441233
      4         11           0       -4.174211   -0.132332   -1.005113
      5         11           0        1.221206   -0.410804    1.978546
      6         11           0        3.604601   -1.304048   -0.951845
      7         11           0       -1.801165   -1.434529    1.172742
 ---------------------------------------------------------------------

 SCF Done:  E(UB3LYP) =  -1136.12039783     A.U. after   35 cycles

 The electronic state is 2-A.
 Alpha  occ. eigenvalues --  -38.44958 -38.44742 -38.44282 -38.43970 -38.43736
 Alpha  occ. eigenvalues --  -38.43714 -38.42720  -2.20835  -2.20587  -2.20164
 Alpha  occ. eigenvalues --   -2.19744  -2.19639  -2.19540  -2.18623  -1.14558
 Alpha  occ. eigenvalues --   -1.14506  -1.14427  -1.14273  -1.14245  -1.14185
 Alpha  occ. eigenvalues --   -1.13877  -1.13819  -1.13745  -1.13438  -1.13427
 Alpha  occ. eigenvalues --   -1.13388  -1.13336  -1.13288  -1.13229  -1.13208
 Alpha  occ. eigenvalues --   -1.13204  -1.13175  -1.12306  -1.12280  -1.12240
 Alpha  occ. eigenvalues --   -0.18603  -0.14115  -0.11460  -0.10718
 Alpha virt. eigenvalues --   -0.06983  -0.05487  -0.04629  -0.03133  -0.02838
 Alpha virt. eigenvalues --   -0.02441  -0.02164  -0.01448  -0.01003  -0.00263
 Alpha virt. eigenvalues --    0.00013   0.00193   0.00367   0.00542   0.00596

  Beta  occ. eigenvalues --  -38.44914 -38.44699 -38.44235 -38.44011 -38.43732
  Beta  occ. eigenvalues --  -38.43671 -38.42686  -2.20759  -2.20509  -2.20076
  Beta  occ. eigenvalues --   -2.19822  -2.19560  -2.19532  -2.18564  -1.14471
  Beta  occ. eigenvalues --   -1.14455  -1.14370  -1.14210  -1.14195  -1.14124
  Beta  occ. eigenvalues --   -1.13815  -1.13748  -1.13684  -1.13487  -1.13478
  Beta  occ. eigenvalues --   -1.13435  -1.13281  -1.13237  -1.13200  -1.13194
  Beta  occ. eigenvalues --   -1.13173  -1.13172  -1.12260  -1.12226  -1.12200
  Beta  occ. eigenvalues --   -0.17833  -0.14151  -0.10399
  Beta virt. eigenvalues --   -0.07571  -0.06795  -0.04978  -0.04447  -0.02770
  Beta virt. eigenvalues --   -0.02612  -0.01837  -0.01587  -0.01091  -0.00719
  Beta virt. eigenvalues --   -0.00223   0.00009   0.00288   0.00401   0.00628

 Mulliken charges and spin densities:
               1          2
     1  Na  -0.308448   0.293547
     2  Na   0.254177   0.047467
     3  Na  -0.712674   0.869518
     4  Na   0.619169  -0.220170
     5  Na  -0.082678   0.428413
     6  Na   0.253690  -0.289010
     7  Na  -0.023236  -0.129765
 Sum of Mulliken charges =  -0.00000   1.00000

 Dipole moment (field-independent basis, Debye):
    X=              0.0717    Y=              0.4228    Z=              0.4177  Tot=              0.5987
 Quadrupole moment (field-independent basis, Debye-Ang):
   XX=            -57.6450   YY=            -65.4526   ZZ=            -76.1332
   XY=              1.0726   XZ=              1.6287   YZ=             -0.4288

 Normal termination of Gaussian 16 at Fri Dec  8 05:35:31 2023.
