 Gaussian 16, Revision B.01,
 Gaussian 16:  ES64L-G16RevB.01 20-Dec-2017

 -------------------------
 #P B3LYP/6-311+g(d) force
 -------------------------

 -----
 DPGEN
 -----
 Symbolic Z-matrix:
 Charge =  0 Multiplicity = 2

                         Standard orientation:
 ---------------------------------------------------------------------
 Center     Atomic      Atomic             Coordinates (Angstroms)
 Number     Number       Type             X           Y           Z
 ---------------------------------------------------------------------
      1         11           0       -2.819875    1.742287    0.831035
      2         11           0        0.014361    3.190142   -1.180821
      3         11           0        2.381656   -0.810249    2.470961
      4         11           0        3.603064    0.265605   -0.862176
      5         11           0        0.444758   -0.116617    0.126711
      6         11           0       -3.122502   -1.430731    0.446147
      7         11           0       -0.501462   -2.840436   -1.831856
 ---------------------------------------------------------------------

 SCF Done:  E(UB3LYP) =  -1136.11653668     A.U. after   22 cycles

 The electronic state is 2-A.
 Alpha  occ. eigenvalues --  -38.45638 -38.44595 -38.43999 -38.43789 -38.43697
 Alpha  occ. eigenvalues --  -38.43658 -38.43127  -2.21396  -2.20427  -2.19805
 Alpha  occ. eigenvalues --   -2.19581  -2.19513  -2.19425  -2.19078  -1.15078
 Alpha  occ. eigenvalues --   -1.15055  -1.15032  -1.14117  -1.14052  -1.14016
 Alpha  occ. eigenvalues --   -1.13502  -1.13479  -1.13435  -1.13244  -1.13229
 Alpha  occ. eigenvalues --   -1.13191  -1.13184  -1.13173  -1.13133  -1.13101
 Alpha  occ. eigenvalues --   -1.13089  -1.13045  -1.12832  -1.12718  -1.12704
 Alpha  occ. eigenvalues --   -0.16993  -0.13500  -0.11701  -0.10834
 Alpha virt. eigenvalues --   -0.06829  -0.05020  -0.04772  -0.03086  -0.02949
 Alpha virt. eigenvalues --   -0.02460  -0.02243  -0.00923  -0.00727  -0.00618
 Alpha virt. eigenvalues --   -0.00331   0.00199   0.00256   0.00492   0.00695

  Beta  occ. eigenvalues --  -38.45647 -38.44508 -38.43996 -38.43727 -38.43678
  Beta  occ. eigenvalues --  -38.43642 -38.43112  -2.21413  -2.20265  -2.19802
  Beta  occ. eigenvalues --   -2.19479  -2.19466  -2.19394  -2.19056  -1.15086
  Beta  occ. eigenvalues --   -1.15067  -1.15031  -1.14005  -1.13941  -1.13910
  Beta  occ. eigenvalues --   -1.13494  -1.13477  -1.13422  -1.13162  -1.13161
  Beta  occ. eigenvalues --   -1.13151  -1.13150  -1.13117  -1.13108  -1.13078
  Beta  occ. eigenvalues --   -1.13067  -1.13025  -1.12758  -1.12714  -1.12698
  Beta  occ. eigenvalues --   -0.16450  -0.13141  -0.11366
  Beta virt. eigenvalues --   -0.07465  -0.06410  -0.04571  -0.04499  -0.02774
  Beta virt. eigenvalues --   -0.02658  -0.02176  -0.01894  -0.00877  -0.00408
  Beta virt. eigenvalues --   -0.00287  -0.00153   0.00265   0.00338   0.00713

 Mulliken charges and spin densities:
               1          2
     1  Na   0.440594   0.038496
     2  Na   0.448740  -0.013341
     3  Na   0.418988   0.328186
     4  Na   0.838659   0.020080
     5  Na  -2.999541   0.378597
     6  Na   0.426575   0.040060
     7  Na   0.425984   0.207922
 Sum of Mulliken charges =  -0.00000   1.00000

 Dipole moment (field-independent basis, Debye):
    X=              1.3079    Y=             -0.1655    Z=             -0.0754  Tot=              1.3205
 Quadrupole moment (field-independent basis, Debye-Ang):
   XX=            -54.0721   YY=            -71.0012   ZZ=            -67.0100
   XY=              0.6178   XZ=             -5.1136   YZ=             -0.7531

 Normal termination of Gaussian 16 at Fri Dec  8 17:07:12 2023.
