 Gaussian 16, Revision B.01,
 Gaussian 16:  ES64L-G16RevB.01 20-Dec-2017

 -------------------------
 #P B3LYP/6-311+g(d) force
 -------------------------

 -----
 DPGEN
 -----
 Symbolic Z-matrix:
 Charge =  0 Multiplicity = 2

                         Standard orientation:
 ---------------------------------------------------------------------
 Center     Atomic      Atomic             Coordinates (Angstroms)
 Number     Number       Type             X           Y           Z
 ---------------------------------------------------------------------
      1         11           0       -2.249142   -2.085924    0.058841
      2         11           0        0.790629   -1.094737    1.840720
      3         11           0        1.283904   -1.323320   -1.539032
      4         11           0       -3.654613    0.863175    0.283989
      5         11           0        0.921552    2.135622    0.810794
      6         11           0       -1.022952    1.384217   -1.345281
      7         11           0        3.930622    0.120967   -0.110032
 ---------------------------------------------------------------------

 SCF Done:  E(UB3LYP) =  -1136.11753091     A.U. after   26 cycles

 The electronic state is 2-A.
 Alpha  occ. eigenvalues --  -38.46157 -38.45463 -38.43689 -38.43625 -38.43278
 Alpha  occ. eigenvalues --  -38.43243 -38.43188  -2.21930  -2.21274  -2.19555
 Alpha  occ. eigenvalues --   -2.19497  -2.19196  -2.19067  -2.19062  -1.15607
 Alpha  occ. eigenvalues --   -1.15587  -1.15560  -1.14958  -1.14929  -1.14915
 Alpha  occ. eigenvalues --   -1.13252  -1.13212  -1.13176  -1.13160  -1.13135
 Alpha  occ. eigenvalues --   -1.13109  -1.12980  -1.12843  -1.12827  -1.12740
 Alpha  occ. eigenvalues --   -1.12735  -1.12725  -1.12709  -1.12696  -1.12652
 Alpha  occ. eigenvalues --   -0.18230  -0.13938  -0.11217  -0.10854
 Alpha virt. eigenvalues --   -0.07630  -0.05034  -0.03921  -0.03291  -0.03142
 Alpha virt. eigenvalues --   -0.02542  -0.02372  -0.01220  -0.00559  -0.00240
 Alpha virt. eigenvalues --    0.00014   0.00132   0.00307   0.00743   0.00808

  Beta  occ. eigenvalues --  -38.46153 -38.45469 -38.43620 -38.43566 -38.43251
  Beta  occ. eigenvalues --  -38.43243 -38.43157  -2.21925  -2.21286  -2.19427
  Beta  occ. eigenvalues --   -2.19390  -2.19148  -2.19063  -2.19013  -1.15589
  Beta  occ. eigenvalues --   -1.15584  -1.15553  -1.14961  -1.14935  -1.14925
  Beta  occ. eigenvalues --   -1.13171  -1.13120  -1.13098  -1.13066  -1.13059
  Beta  occ. eigenvalues --   -1.13025  -1.12945  -1.12801  -1.12796  -1.12738
  Beta  occ. eigenvalues --   -1.12719  -1.12707  -1.12694  -1.12647  -1.12615
  Beta  occ. eigenvalues --   -0.17528  -0.13770  -0.11039
  Beta virt. eigenvalues --   -0.07454  -0.06931  -0.04999  -0.03400  -0.03111
  Beta virt. eigenvalues --   -0.02872  -0.02030  -0.01436  -0.01143  -0.00299
  Beta virt. eigenvalues --   -0.00126   0.00050   0.00145   0.00451   0.00769

 Mulliken charges and spin densities:
               1          2
     1  Na  -0.262540  -0.013907
     2  Na  -0.165398   0.521377
     3  Na  -0.208716   0.402133
     4  Na   0.218260  -0.107406
     5  Na  -0.335823   0.109154
     6  Na   0.438410   0.200262
     7  Na   0.315806  -0.111613
 Sum of Mulliken charges =  -0.00000   1.00000

 Dipole moment (field-independent basis, Debye):
    X=              0.6016    Y=              0.1720    Z=              0.3825  Tot=              0.7334
 Quadrupole moment (field-independent basis, Debye-Ang):
   XX=            -40.8926   YY=            -77.8675   ZZ=            -72.6630
   XY=             -0.0275   XZ=             -1.1077   YZ=              1.7473

 Normal termination of Gaussian 16 at Mon Dec  4 05:40:58 2023.
