 Gaussian 16, Revision B.01,
 Gaussian 16:  ES64L-G16RevB.01 20-Dec-2017

 -------------------------
 #P B3LYP/6-311+g(d) force
 -------------------------

 -----
 DPGEN
 -----
 Symbolic Z-matrix:
 Charge =  0 Multiplicity = 2

                         Standard orientation:
 ---------------------------------------------------------------------
 Center     Atomic      Atomic             Coordinates (Angstroms)
 Number     Number       Type             X           Y           Z
 ---------------------------------------------------------------------
      1         11           0       -3.795056    0.050890   -1.195068
      2         11           0        1.236401   -0.659137    1.804697
      3         11           0       -1.885892   -1.742390    1.239287
      4         11           0        0.212586   -0.356824   -1.608811
      5         11           0        1.985225    2.135773    0.336223
      6         11           0       -1.401508    1.688729    0.525254
      7         11           0        3.648244   -1.117041   -1.101581
 ---------------------------------------------------------------------

 SCF Done:  E(UB3LYP) =  -1136.12504425     A.U. after   33 cycles

 The electronic state is 2-A.
 Alpha  occ. eigenvalues --  -38.44735 -38.44587 -38.44540 -38.44227 -38.43275
 Alpha  occ. eigenvalues --  -38.43272 -38.42740  -2.20548  -2.20442  -2.20408
 Alpha  occ. eigenvalues --   -2.20137  -2.19146  -2.19062  -2.18661  -1.14217
 Alpha  occ. eigenvalues --   -1.14207  -1.14172  -1.14157  -1.14119  -1.14095
 Alpha  occ. eigenvalues --   -1.14056  -1.14035  -1.14009  -1.13832  -1.13788
 Alpha  occ. eigenvalues --   -1.13731  -1.12835  -1.12812  -1.12754  -1.12736
 Alpha  occ. eigenvalues --   -1.12726  -1.12696  -1.12377  -1.12338  -1.12253
 Alpha  occ. eigenvalues --   -0.18620  -0.13967  -0.11960  -0.10640
 Alpha virt. eigenvalues --   -0.06665  -0.05025  -0.04923  -0.03380  -0.02597
 Alpha virt. eigenvalues --   -0.02307  -0.02241  -0.01224  -0.01014  -0.00080
 Alpha virt. eigenvalues --    0.00073   0.00304   0.00319   0.00591   0.00633

  Beta  occ. eigenvalues --  -38.44711 -38.44564 -38.44467 -38.44166 -38.43272
  Beta  occ. eigenvalues --  -38.43266 -38.42724  -2.20502  -2.20402  -2.20277
  Beta  occ. eigenvalues --   -2.20028  -2.19129  -2.19063  -2.18636  -1.14183
  Beta  occ. eigenvalues --   -1.14169  -1.14145  -1.14124  -1.14082  -1.14009
  Beta  occ. eigenvalues --   -1.13996  -1.13969  -1.13903  -1.13752  -1.13693
  Beta  occ. eigenvalues --   -1.13657  -1.12818  -1.12801  -1.12743  -1.12733
  Beta  occ. eigenvalues --   -1.12725  -1.12697  -1.12361  -1.12299  -1.12236
  Beta  occ. eigenvalues --   -0.17856  -0.13777  -0.10518
  Beta virt. eigenvalues --   -0.07809  -0.06460  -0.04833  -0.04451  -0.02764
  Beta virt. eigenvalues --   -0.02416  -0.01858  -0.01749  -0.01054  -0.00606
  Beta virt. eigenvalues --    0.00039   0.00114   0.00363   0.00422   0.00678

 Mulliken charges and spin densities:
               1          2
     1  Na   1.051565   0.106850
     2  Na   0.060257   0.216010
     3  Na  -0.115543   0.152121
     4  Na  -0.866977   0.296125
     5  Na   0.103014   0.041739
     6  Na  -0.439506   0.246190
     7  Na   0.207189  -0.059035
 Sum of Mulliken charges =  -0.00000   1.00000

 Dipole moment (field-independent basis, Debye):
    X=             -0.9445    Y=              0.1385    Z=              0.1496  Tot=              0.9662
 Quadrupole moment (field-independent basis, Debye-Ang):
   XX=            -51.7453   YY=            -74.4125   ZZ=            -69.7757
   XY=              2.6168   XZ=              3.8074   YZ=             -5.8059

 Normal termination of Gaussian 16 at Thu Dec  7 03:26:59 2023.
