 Gaussian 16, Revision B.01,
 Gaussian 16:  ES64L-G16RevB.01 20-Dec-2017

 -------------------------
 #P B3LYP/6-311+g(d) force
 -------------------------

 -----
 DPGEN
 -----
 Symbolic Z-matrix:
 Charge =  0 Multiplicity = 2

                         Standard orientation:
 ---------------------------------------------------------------------
 Center     Atomic      Atomic             Coordinates (Angstroms)
 Number     Number       Type             X           Y           Z
 ---------------------------------------------------------------------
      1         11           0        0.028170    2.926859    0.090249
      2         11           0        5.338373   -0.791808   -1.105645
      3         11           0        2.697153    1.294451    0.104066
      4         11           0        3.138152   -1.953523    1.466006
      5         11           0       -0.513827    0.072202   -0.017426
      6         11           0       -4.271256   -1.451209   -1.136229
      7         11           0       -6.416765   -0.096973    0.598979
 ---------------------------------------------------------------------

 SCF Done:  E(UB3LYP) =  -1136.11027461     A.U. after   19 cycles

 The electronic state is 2-A.
 Alpha  occ. eigenvalues --  -38.44536 -38.44233 -38.44215 -38.44205 -38.44129
 Alpha  occ. eigenvalues --  -38.43855 -38.43776  -2.20326  -2.20030  -2.20006
 Alpha  occ. eigenvalues --   -2.20002  -2.19991  -2.19756  -2.19679  -1.14015
 Alpha  occ. eigenvalues --   -1.13977  -1.13974  -1.13762  -1.13713  -1.13685
 Alpha  occ. eigenvalues --   -1.13667  -1.13665  -1.13661  -1.13657  -1.13656
 Alpha  occ. eigenvalues --   -1.13648  -1.13645  -1.13636  -1.13594  -1.13457
 Alpha  occ. eigenvalues --   -1.13441  -1.13428  -1.13302  -1.13298  -1.13250
 Alpha  occ. eigenvalues --   -0.16629  -0.13747  -0.12617  -0.10034
 Alpha virt. eigenvalues --   -0.06892  -0.05293  -0.04848  -0.03542  -0.02877
 Alpha virt. eigenvalues --   -0.02458  -0.01873  -0.01694  -0.01314  -0.01045
 Alpha virt. eigenvalues --   -0.00419  -0.00070   0.00302   0.00451   0.00545

  Beta  occ. eigenvalues --  -38.44519 -38.44219 -38.44187 -38.44179 -38.44097
  Beta  occ. eigenvalues --  -38.43826 -38.43758  -2.20294  -2.20015  -2.19945
  Beta  occ. eigenvalues --   -2.19943  -2.19939  -2.19707  -2.19646  -1.13997
  Beta  occ. eigenvalues --   -1.13955  -1.13952  -1.13718  -1.13674  -1.13661
  Beta  occ. eigenvalues --   -1.13655  -1.13638  -1.13629  -1.13625  -1.13623
  Beta  occ. eigenvalues --   -1.13613  -1.13597  -1.13593  -1.13550  -1.13427
  Beta  occ. eigenvalues --   -1.13394  -1.13375  -1.13280  -1.13266  -1.13223
  Beta  occ. eigenvalues --   -0.16069  -0.13569  -0.12400
  Beta virt. eigenvalues --   -0.06820  -0.06140  -0.05106  -0.04444  -0.03301
  Beta virt. eigenvalues --   -0.02717  -0.02148  -0.01615  -0.01481  -0.01140
  Beta virt. eigenvalues --   -0.00722  -0.00110   0.00169   0.00398   0.00587

 Mulliken charges and spin densities:
               1          2
     1  Na   0.577099   0.160695
     2  Na   0.534417   0.106547
     3  Na   0.145351   0.251555
     4  Na   0.196463   0.211892
     5  Na  -1.350707   0.225502
     6  Na  -0.126147  -0.030860
     7  Na   0.023523   0.074668
 Sum of Mulliken charges =  -0.00000   1.00000

 Dipole moment (field-independent basis, Debye):
    X=             -0.3926    Y=              0.1881    Z=              0.0630  Tot=              0.4399
 Quadrupole moment (field-independent basis, Debye-Ang):
   XX=            -60.3409   YY=            -67.5479   ZZ=            -67.2768
   XY=             -8.2321   XZ=             -5.4187   YZ=              3.7205

 Normal termination of Gaussian 16 at Wed Nov 29 03:34:48 2023.
