 Gaussian 16, Revision B.01,
 Gaussian 16:  ES64L-G16RevB.01 20-Dec-2017

 -------------------------
 #P B3LYP/6-311+g(d) force
 -------------------------

 -----
 DPGEN
 -----
 Symbolic Z-matrix:
 Charge =  0 Multiplicity = 2

                         Standard orientation:
 ---------------------------------------------------------------------
 Center     Atomic      Atomic             Coordinates (Angstroms)
 Number     Number       Type             X           Y           Z
 ---------------------------------------------------------------------
      1         11           0       -2.019412    1.886769   -0.505006
      2         11           0        0.188046    0.100067    1.941352
      3         11           0        2.962915   -0.834838   -0.058369
      4         11           0        0.036498   -2.534913   -0.211100
      5         11           0        1.311838    2.386717    0.275874
      6         11           0       -2.898992   -1.099165    0.289764
      7         11           0        0.419107    0.095363   -1.732514
 ---------------------------------------------------------------------

 SCF Done:  E(UB3LYP) =  -1136.13464080     A.U. after   19 cycles

 The electronic state is 2-A.
 Alpha  occ. eigenvalues --  -38.43952 -38.43714 -38.43650 -38.43417 -38.43378
 Alpha  occ. eigenvalues --  -38.43181 -38.43014  -2.19834  -2.19619  -2.19570
 Alpha  occ. eigenvalues --   -2.19423  -2.19309  -2.19113  -2.18947  -1.13537
 Alpha  occ. eigenvalues --   -1.13497  -1.13464  -1.13323  -1.13274  -1.13258
 Alpha  occ. eigenvalues --   -1.13233  -1.13227  -1.13210  -1.13115  -1.13108
 Alpha  occ. eigenvalues --   -1.13063  -1.12960  -1.12954  -1.12936  -1.12796
 Alpha  occ. eigenvalues --   -1.12769  -1.12709  -1.12640  -1.12607  -1.12551
 Alpha  occ. eigenvalues --   -0.19391  -0.13237  -0.12543  -0.11220
 Alpha virt. eigenvalues --   -0.05566  -0.04895  -0.04259  -0.03324  -0.03046
 Alpha virt. eigenvalues --   -0.02754  -0.01511  -0.00867  -0.00120   0.00108
 Alpha virt. eigenvalues --    0.00124   0.00357   0.00873   0.00948   0.00967

  Beta  occ. eigenvalues --  -38.43946 -38.43713 -38.43560 -38.43406 -38.43302
  Beta  occ. eigenvalues --  -38.43169 -38.43005  -2.19828  -2.19570  -2.19454
  Beta  occ. eigenvalues --   -2.19291  -2.19284  -2.19097  -2.18935  -1.13524
  Beta  occ. eigenvalues --   -1.13480  -1.13453  -1.13261  -1.13234  -1.13216
  Beta  occ. eigenvalues --   -1.13209  -1.13148  -1.13101  -1.13034  -1.13021
  Beta  occ. eigenvalues --   -1.12984  -1.12934  -1.12927  -1.12895  -1.12774
  Beta  occ. eigenvalues --   -1.12728  -1.12698  -1.12627  -1.12572  -1.12543
  Beta  occ. eigenvalues --   -0.18637  -0.12992  -0.12241
  Beta virt. eigenvalues --   -0.07238  -0.05530  -0.04872  -0.04258  -0.02538
  Beta virt. eigenvalues --   -0.02197  -0.01662  -0.01441  -0.00803  -0.00048
  Beta virt. eigenvalues --    0.00076   0.00142   0.00380   0.00925   0.00937

 Mulliken charges and spin densities:
               1          2
     1  Na   0.169306   0.001349
     2  Na  -0.528433   0.693285
     3  Na   0.276145  -0.081609
     4  Na   0.177114  -0.020864
     5  Na   0.305979  -0.027532
     6  Na  -0.082424  -0.038630
     7  Na  -0.317687   0.474001
 Sum of Mulliken charges =  -0.00000   1.00000

 Dipole moment (field-independent basis, Debye):
    X=              0.1861    Y=             -0.0169    Z=              0.1631  Tot=              0.2481
 Quadrupole moment (field-independent basis, Debye-Ang):
   XX=            -56.0291   YY=            -66.2869   ZZ=            -72.0973
   XY=             -0.1945   XZ=              0.2048   YZ=             -0.4427

 Normal termination of Gaussian 16 at Fri Dec  8 01:53:09 2023.
