 Gaussian 16, Revision B.01,
 Gaussian 16:  ES64L-G16RevB.01 20-Dec-2017

 -------------------------
 #P B3LYP/6-311+g(d) force
 -------------------------

 -----
 DPGEN
 -----
 Symbolic Z-matrix:
 Charge =  0 Multiplicity = 2

                         Standard orientation:
 ---------------------------------------------------------------------
 Center     Atomic      Atomic             Coordinates (Angstroms)
 Number     Number       Type             X           Y           Z
 ---------------------------------------------------------------------
      1         11           0       -2.873566    0.817384   -0.517740
      2         11           0        0.037498    3.035845    0.037815
      3         11           0        1.613036   -2.172423   -0.469300
      4         11           0        3.298858    0.388040    0.247328
      5         11           0       -1.953022   -2.293998    0.399200
      6         11           0       -0.253350    0.131669    2.104598
      7         11           0        0.130547    0.093483   -1.801901
 ---------------------------------------------------------------------

 SCF Done:  E(UB3LYP) =  -1136.13483943     A.U. after   19 cycles

 The electronic state is 2-A.
 Alpha  occ. eigenvalues --  -38.44370 -38.44074 -38.43954 -38.43645 -38.43307
 Alpha  occ. eigenvalues --  -38.43263 -38.43233  -2.20179  -2.19923  -2.19826
 Alpha  occ. eigenvalues --   -2.19601  -2.19214  -2.19082  -2.19076  -1.13866
 Alpha  occ. eigenvalues --   -1.13841  -1.13813  -1.13620  -1.13582  -1.13547
 Alpha  occ. eigenvalues --   -1.13490  -1.13455  -1.13450  -1.13326  -1.13250
 Alpha  occ. eigenvalues --   -1.13210  -1.12901  -1.12860  -1.12825  -1.12757
 Alpha  occ. eigenvalues --   -1.12754  -1.12745  -1.12739  -1.12722  -1.12709
 Alpha  occ. eigenvalues --   -0.18549  -0.13108  -0.12148  -0.11144
 Alpha virt. eigenvalues --   -0.05862  -0.04765  -0.04553  -0.03443  -0.03000
 Alpha virt. eigenvalues --   -0.02902  -0.01616  -0.00989  -0.00274  -0.00204
 Alpha virt. eigenvalues --    0.00026   0.00370   0.00810   0.00841   0.00873

  Beta  occ. eigenvalues --  -38.44369 -38.44061 -38.43863 -38.43573 -38.43296
  Beta  occ. eigenvalues --  -38.43262 -38.43226  -2.20180  -2.19902  -2.19658
  Beta  occ. eigenvalues --   -2.19470  -2.19197  -2.19078  -2.19072  -1.13869
  Beta  occ. eigenvalues --   -1.13829  -1.13813  -1.13596  -1.13554  -1.13538
  Beta  occ. eigenvalues --   -1.13380  -1.13338  -1.13325  -1.13238  -1.13159
  Beta  occ. eigenvalues --   -1.13118  -1.12874  -1.12838  -1.12811  -1.12749
  Beta  occ. eigenvalues --   -1.12743  -1.12738  -1.12728  -1.12707  -1.12706
  Beta  occ. eigenvalues --   -0.17800  -0.12891  -0.11908
  Beta virt. eigenvalues --   -0.07224  -0.05790  -0.04732  -0.04504  -0.02686
  Beta virt. eigenvalues --   -0.02233  -0.01862  -0.01512  -0.00905  -0.00315
  Beta virt. eigenvalues --   -0.00168   0.00108   0.00395   0.00858   0.00880

 Mulliken charges and spin densities:
               1          2
     1  Na   0.218372  -0.027993
     2  Na  -0.089812  -0.102307
     3  Na   0.297317   0.011043
     4  Na  -0.068968  -0.055601
     5  Na   0.082395   0.016189
     6  Na  -0.441409   0.743146
     7  Na   0.002106   0.415523
 Sum of Mulliken charges =  -0.00000   1.00000

 Dipole moment (field-independent basis, Debye):
    X=              0.1375    Y=              0.2492    Z=              0.1832  Tot=              0.3384
 Quadrupole moment (field-independent basis, Debye-Ang):
   XX=            -56.8510   YY=            -65.4862   ZZ=            -72.2414
   XY=              1.0676   XZ=              1.5549   YZ=             -0.0467

 Normal termination of Gaussian 16 at Tue Dec  5 10:23:23 2023.
