 Gaussian 16, Revision B.01,
 Gaussian 16:  ES64L-G16RevB.01 20-Dec-2017

 -------------------------
 #P B3LYP/6-311+g(d) force
 -------------------------

 -----
 DPGEN
 -----
 Symbolic Z-matrix:
 Charge =  0 Multiplicity = 2

                         Standard orientation:
 ---------------------------------------------------------------------
 Center     Atomic      Atomic             Coordinates (Angstroms)
 Number     Number       Type             X           Y           Z
 ---------------------------------------------------------------------
      1         11           0       -1.082831    2.700757   -0.433469
      2         11           0       -0.544921   -0.027181    2.128721
      3         11           0       -2.970725   -0.408968   -0.143414
      4         11           0       -0.361295   -2.862547    0.003788
      5         11           0        2.356815    1.878287    0.427887
      6         11           0       -0.169187    0.073765   -1.616979
      7         11           0        2.772143   -1.354114   -0.366534
 ---------------------------------------------------------------------

 SCF Done:  E(UB3LYP) =  -1136.13773321     A.U. after   19 cycles

 The electronic state is 2-A.
 Alpha  occ. eigenvalues --  -38.43869 -38.43833 -38.43660 -38.43583 -38.43497
 Alpha  occ. eigenvalues --  -38.43362 -38.43206  -2.19749  -2.19718  -2.19483
 Alpha  occ. eigenvalues --   -2.19416  -2.19369  -2.19224  -2.19221  -1.13458
 Alpha  occ. eigenvalues --   -1.13443  -1.13371  -1.13366  -1.13341  -1.13326
 Alpha  occ. eigenvalues --   -1.13171  -1.13156  -1.13151  -1.13128  -1.13092
 Alpha  occ. eigenvalues --   -1.13072  -1.13047  -1.13013  -1.12979  -1.12932
 Alpha  occ. eigenvalues --   -1.12893  -1.12871  -1.12845  -1.12836  -1.12819
 Alpha  occ. eigenvalues --   -0.18760  -0.12947  -0.12560  -0.11001
 Alpha virt. eigenvalues --   -0.05449  -0.05031  -0.04762  -0.03223  -0.03004
 Alpha virt. eigenvalues --   -0.02766  -0.01330  -0.01072  -0.00334  -0.00186
 Alpha virt. eigenvalues --   -0.00007   0.00362   0.00867   0.00893   0.00918

  Beta  occ. eigenvalues --  -38.43861 -38.43736 -38.43654 -38.43581 -38.43486
  Beta  occ. eigenvalues --  -38.43357 -38.43141  -2.19740  -2.19539  -2.19474
  Beta  occ. eigenvalues --   -2.19414  -2.19353  -2.19217  -2.19108  -1.13446
  Beta  occ. eigenvalues --   -1.13398  -1.13360  -1.13254  -1.13223  -1.13201
  Beta  occ. eigenvalues --   -1.13168  -1.13136  -1.13128  -1.13113  -1.13080
  Beta  occ. eigenvalues --   -1.13068  -1.13045  -1.12989  -1.12967  -1.12913
  Beta  occ. eigenvalues --   -1.12872  -1.12838  -1.12805  -1.12757  -1.12742
  Beta  occ. eigenvalues --   -0.18031  -0.12720  -0.12303
  Beta virt. eigenvalues --   -0.07061  -0.05418  -0.04993  -0.04694  -0.02468
  Beta virt. eigenvalues --   -0.02237  -0.01679  -0.01259  -0.01000  -0.00335
  Beta virt. eigenvalues --   -0.00239   0.00129   0.00397   0.00879   0.00907

 Mulliken charges and spin densities:
               1          2
     1  Na   0.217036  -0.006709
     2  Na  -0.519228   0.735047
     3  Na   0.369548  -0.043033
     4  Na   0.095725  -0.038666
     5  Na  -0.036118   0.045590
     6  Na  -0.130625   0.344081
     7  Na   0.003662  -0.036311
 Sum of Mulliken charges =  -0.00000   1.00000

 Dipole moment (field-independent basis, Debye):
    X=             -0.1848    Y=              0.0130    Z=              0.2330  Tot=              0.2977
 Quadrupole moment (field-independent basis, Debye-Ang):
   XX=            -58.7626   YY=            -62.4488   ZZ=            -73.0714
   XY=              0.1788   XZ=              0.7306   YZ=              0.5053

 Normal termination of Gaussian 16 at Thu Dec  7 18:13:21 2023.
