 Gaussian 16, Revision B.01,
 Gaussian 16:  ES64L-G16RevB.01 20-Dec-2017

 -------------------------
 #P B3LYP/6-311+g(d) force
 -------------------------

 -----
 DPGEN
 -----
 Symbolic Z-matrix:
 Charge =  0 Multiplicity = 2

                         Standard orientation:
 ---------------------------------------------------------------------
 Center     Atomic      Atomic             Coordinates (Angstroms)
 Number     Number       Type             X           Y           Z
 ---------------------------------------------------------------------
      1         11           0        0.233995   -0.355884   -1.682348
      2         11           0       -3.042343    0.256872   -0.512583
      3         11           0        3.452152   -1.145326   -0.155617
      4         11           0       -0.110863   -0.474497    2.035239
      5         11           0       -1.108218    2.848313    0.222021
      6         11           0        1.997077    1.847583   -0.007095
      7         11           0       -1.421800   -2.977061    0.100384
 ---------------------------------------------------------------------

 SCF Done:  E(UB3LYP) =  -1136.13382355     A.U. after   20 cycles

 The electronic state is 2-A.
 Alpha  occ. eigenvalues --  -38.44500 -38.44264 -38.43685 -38.43681 -38.43671
 Alpha  occ. eigenvalues --  -38.43548 -38.42991  -2.20288  -2.20097  -2.19577
 Alpha  occ. eigenvalues --   -2.19547  -2.19493  -2.19441  -2.18842  -1.13958
 Alpha  occ. eigenvalues --   -1.13947  -1.13929  -1.13775  -1.13764  -1.13721
 Alpha  occ. eigenvalues --   -1.13290  -1.13243  -1.13213  -1.13196  -1.13193
 Alpha  occ. eigenvalues --   -1.13175  -1.13153  -1.13136  -1.13127  -1.13116
 Alpha  occ. eigenvalues --   -1.13102  -1.13067  -1.12515  -1.12498  -1.12491
 Alpha  occ. eigenvalues --   -0.18284  -0.13187  -0.12223  -0.10654
 Alpha virt. eigenvalues --   -0.06188  -0.05190  -0.04546  -0.03263  -0.02823
 Alpha virt. eigenvalues --   -0.02533  -0.01943  -0.01205  -0.00612  -0.00221
 Alpha virt. eigenvalues --   -0.00031   0.00307   0.00760   0.00778   0.00831

  Beta  occ. eigenvalues --  -38.44500 -38.44247 -38.43679 -38.43614 -38.43591
  Beta  occ. eigenvalues --  -38.43541 -38.42989  -2.20290  -2.20068  -2.19492
  Beta  occ. eigenvalues --   -2.19471  -2.19432  -2.19373  -2.18840  -1.13960
  Beta  occ. eigenvalues --   -1.13936  -1.13932  -1.13752  -1.13731  -1.13706
  Beta  occ. eigenvalues --   -1.13225  -1.13187  -1.13154  -1.13146  -1.13126
  Beta  occ. eigenvalues --   -1.13120  -1.13097  -1.13090  -1.13079  -1.13054
  Beta  occ. eigenvalues --   -1.13050  -1.13027  -1.12517  -1.12499  -1.12469
  Beta  occ. eigenvalues --   -0.17575  -0.12961  -0.12009
  Beta virt. eigenvalues --   -0.06809  -0.06113  -0.05084  -0.04515  -0.02536
  Beta virt. eigenvalues --   -0.02115  -0.01844  -0.01529  -0.01108  -0.00639
  Beta virt. eigenvalues --   -0.00223   0.00115   0.00350   0.00763   0.00844

 Mulliken charges and spin densities:
               1          2
     1  Na   0.005153   0.267426
     2  Na   0.191436   0.120473
     3  Na   0.196764  -0.041054
     4  Na  -0.276040   0.593117
     5  Na  -0.142710   0.010801
     6  Na   0.036335   0.100863
     7  Na  -0.010938  -0.051625
 Sum of Mulliken charges =  -0.00000   1.00000

 Dipole moment (field-independent basis, Debye):
    X=              0.2667    Y=             -0.6152    Z=              0.0049  Tot=              0.6705
 Quadrupole moment (field-independent basis, Debye-Ang):
   XX=            -55.5724   YY=            -63.3191   ZZ=            -74.7330
   XY=             -1.3633   XZ=              0.9967   YZ=              0.5471

 Normal termination of Gaussian 16 at Thu Dec  7 23:23:36 2023.
