 Gaussian 16, Revision B.01,
 Gaussian 16:  ES64L-G16RevB.01 20-Dec-2017

 -------------------------
 #P B3LYP/6-311+g(d) force
 -------------------------

 -----
 DPGEN
 -----
 Symbolic Z-matrix:
 Charge =  0 Multiplicity = 2

                         Standard orientation:
 ---------------------------------------------------------------------
 Center     Atomic      Atomic             Coordinates (Angstroms)
 Number     Number       Type             X           Y           Z
 ---------------------------------------------------------------------
      1         11           0       -2.320298    1.585653    0.367732
      2         11           0       -0.063909   -0.225980   -1.786841
      3         11           0       -2.700272   -1.402182   -0.431082
      4         11           0        3.427466   -0.119330   -0.352454
      5         11           0        0.619654   -2.385374    0.498049
      6         11           0        0.705216    2.464778   -0.245928
      7         11           0        0.332143    0.082435    1.950525
 ---------------------------------------------------------------------

 SCF Done:  E(UB3LYP) =  -1136.13009172     A.U. after   19 cycles

 The electronic state is 2-A.
 Alpha  occ. eigenvalues --  -38.44727 -38.43799 -38.43654 -38.43627 -38.43418
 Alpha  occ. eigenvalues --  -38.43131 -38.42837  -2.20511  -2.19786  -2.19620
 Alpha  occ. eigenvalues --   -2.19542  -2.19336  -2.19066  -2.18757  -1.14187
 Alpha  occ. eigenvalues --   -1.14163  -1.14146  -1.13539  -1.13431  -1.13376
 Alpha  occ. eigenvalues --   -1.13335  -1.13295  -1.13270  -1.13238  -1.13172
 Alpha  occ. eigenvalues --   -1.13151  -1.13003  -1.12990  -1.12967  -1.12774
 Alpha  occ. eigenvalues --   -1.12721  -1.12633  -1.12456  -1.12427  -1.12361
 Alpha  occ. eigenvalues --   -0.19246  -0.13248  -0.12236  -0.11324
 Alpha virt. eigenvalues --   -0.06096  -0.04536  -0.04016  -0.03461  -0.02987
 Alpha virt. eigenvalues --   -0.02827  -0.01967  -0.00760  -0.00154   0.00116
 Alpha virt. eigenvalues --    0.00174   0.00322   0.00848   0.00862   0.00942

  Beta  occ. eigenvalues --  -38.44722 -38.43705 -38.43647 -38.43556 -38.43411
  Beta  occ. eigenvalues --  -38.43111 -38.42828  -2.20504  -2.19616  -2.19531
  Beta  occ. eigenvalues --   -2.19490  -2.19326  -2.19036  -2.18747  -1.14172
  Beta  occ. eigenvalues --   -1.14154  -1.14144  -1.13423  -1.13313  -1.13282
  Beta  occ. eigenvalues --   -1.13257  -1.13233  -1.13211  -1.13177  -1.13149
  Beta  occ. eigenvalues --   -1.13094  -1.12997  -1.12976  -1.12944  -1.12741
  Beta  occ. eigenvalues --   -1.12670  -1.12619  -1.12450  -1.12395  -1.12351
  Beta  occ. eigenvalues --   -0.18493  -0.12996  -0.11942
  Beta virt. eigenvalues --   -0.07356  -0.06030  -0.04523  -0.04005  -0.02712
  Beta virt. eigenvalues --   -0.02169  -0.01848  -0.01742  -0.00713  -0.00022
  Beta virt. eigenvalues --    0.00088   0.00166   0.00346   0.00890   0.00932

 Mulliken charges and spin densities:
               1          2
     1  Na   0.165328   0.030057
     2  Na  -0.509389   0.629351
     3  Na   0.251688   0.005253
     4  Na  -0.042947  -0.082648
     5  Na   0.306978  -0.023613
     6  Na   0.136609  -0.018747
     7  Na  -0.308267   0.460345
 Sum of Mulliken charges =  -0.00000   1.00000

 Dipole moment (field-independent basis, Debye):
    X=              0.5524    Y=             -0.0705    Z=             -0.0913  Tot=              0.5643
 Quadrupole moment (field-independent basis, Debye-Ang):
   XX=            -52.8198   YY=            -69.4549   ZZ=            -71.5025
   XY=              0.3266   XZ=             -1.2384   YZ=              0.0412

 Normal termination of Gaussian 16 at Tue Dec  5 21:45:32 2023.
