 Gaussian 16, Revision B.01,
 Gaussian 16:  ES64L-G16RevB.01 20-Dec-2017

 -------------------------
 #P B3LYP/6-311+g(d) force
 -------------------------

 -----
 DPGEN
 -----
 Symbolic Z-matrix:
 Charge =  0 Multiplicity = 2

                         Standard orientation:
 ---------------------------------------------------------------------
 Center     Atomic      Atomic             Coordinates (Angstroms)
 Number     Number       Type             X           Y           Z
 ---------------------------------------------------------------------
      1         11           0       -2.069543    0.496790    2.060527
      2         11           0       -1.620980    2.452860   -0.693763
      3         11           0        5.130209   -0.488210   -0.331744
      4         11           0        2.580351    0.815872    0.627883
      5         11           0        0.546113   -0.324843   -0.631339
      6         11           0       -2.921326   -0.567690   -1.464605
      7         11           0       -1.644824   -2.384779    0.433041
 ---------------------------------------------------------------------

 SCF Done:  E(UB3LYP) =  -1136.09955672     A.U. after   29 cycles

 The electronic state is 2-A.
 Alpha  occ. eigenvalues --  -38.46116 -38.45690 -38.45061 -38.44523 -38.43849
 Alpha  occ. eigenvalues --  -38.42407 -38.42295  -2.21902  -2.21659  -2.20979
 Alpha  occ. eigenvalues --   -2.20390  -2.19795  -2.18270  -2.18245  -1.15627
 Alpha  occ. eigenvalues --   -1.15586  -1.15552  -1.15537  -1.15312  -1.15228
 Alpha  occ. eigenvalues --   -1.14644  -1.14575  -1.14529  -1.14054  -1.14036
 Alpha  occ. eigenvalues --   -1.14002  -1.13480  -1.13447  -1.13412  -1.11949
 Alpha  occ. eigenvalues --   -1.11935  -1.11927  -1.11911  -1.11902  -1.11870
 Alpha  occ. eigenvalues --   -0.18440  -0.14662  -0.11128  -0.10784
 Alpha virt. eigenvalues --   -0.07999  -0.04750  -0.03605  -0.03500  -0.03293
 Alpha virt. eigenvalues --   -0.02579  -0.02237  -0.01615  -0.01053  -0.00259
 Alpha virt. eigenvalues --   -0.00073   0.00051   0.00274   0.00614   0.00769

  Beta  occ. eigenvalues --  -38.46113 -38.45680 -38.45056 -38.44448 -38.43783
  Beta  occ. eigenvalues --  -38.42390 -38.42283  -2.21896  -2.21646  -2.20971
  Beta  occ. eigenvalues --   -2.20252  -2.19674  -2.18242  -2.18228  -1.15610
  Beta  occ. eigenvalues --   -1.15578  -1.15548  -1.15532  -1.15283  -1.15225
  Beta  occ. eigenvalues --   -1.14635  -1.14564  -1.14520  -1.13955  -1.13941
  Beta  occ. eigenvalues --   -1.13901  -1.13401  -1.13357  -1.13321  -1.11933
  Beta  occ. eigenvalues --   -1.11922  -1.11912  -1.11902  -1.11862  -1.11821
  Beta  occ. eigenvalues --   -0.17749  -0.14473  -0.10871
  Beta virt. eigenvalues --   -0.07779  -0.06839  -0.04571  -0.03376  -0.03351
  Beta virt. eigenvalues --   -0.03244  -0.01862  -0.01439  -0.01332  -0.00656
  Beta virt. eigenvalues --   -0.00152  -0.00027   0.00079   0.00434   0.00675

 Mulliken charges and spin densities:
               1          2
     1  Na  -0.203865   0.373490
     2  Na   0.105744  -0.004646
     3  Na   0.435804   0.042201
     4  Na   0.218742  -0.156205
     5  Na  -1.410668   0.561917
     6  Na   0.387586   0.124063
     7  Na   0.466657   0.059181
 Sum of Mulliken charges =  -0.00000   1.00000

 Dipole moment (field-independent basis, Debye):
    X=              2.4855    Y=             -0.0102    Z=              0.2634  Tot=              2.4995
 Quadrupole moment (field-independent basis, Debye-Ang):
   XX=            -42.8868   YY=            -76.7904   ZZ=            -70.7910
   XY=             -4.4599   XZ=             -3.2705   YZ=              0.8939

 Normal termination of Gaussian 16 at Sat Dec  9 06:04:29 2023.
