 Gaussian 16, Revision B.01,
 Gaussian 16:  ES64L-G16RevB.01 20-Dec-2017

 -------------------------
 #P B3LYP/6-311+g(d) force
 -------------------------

 -----
 DPGEN
 -----
 Symbolic Z-matrix:
 Charge =  0 Multiplicity = 2

                         Standard orientation:
 ---------------------------------------------------------------------
 Center     Atomic      Atomic             Coordinates (Angstroms)
 Number     Number       Type             X           Y           Z
 ---------------------------------------------------------------------
      1         11           0        6.544492    0.279382   -0.133304
      2         11           0        0.362568    2.099622   -0.115341
      3         11           0        3.982350   -0.920372    0.356931
      4         11           0        0.198851   -1.808868   -0.014591
      5         11           0       -3.482856   -2.724964   -0.363654
      6         11           0       -2.521172    2.957264   -0.155406
      7         11           0       -5.084233    0.117936    0.425366
 ---------------------------------------------------------------------

 SCF Done:  E(UB3LYP) =  -1136.10739484     A.U. after   21 cycles

 The electronic state is 2-A.
 Alpha  occ. eigenvalues --  -38.45546 -38.45090 -38.44955 -38.44222 -38.43927
 Alpha  occ. eigenvalues --  -38.43901 -38.43797  -2.21322  -2.20867  -2.20798
 Alpha  occ. eigenvalues --   -2.20047  -2.19731  -2.19669  -2.19613  -1.14988
 Alpha  occ. eigenvalues --   -1.14963  -1.14920  -1.14533  -1.14532  -1.14511
 Alpha  occ. eigenvalues --   -1.14495  -1.14415  -1.14414  -1.13723  -1.13702
 Alpha  occ. eigenvalues --   -1.13686  -1.13486  -1.13399  -1.13385  -1.13344
 Alpha  occ. eigenvalues --   -1.13333  -1.13323  -1.13266  -1.13249  -1.13207
 Alpha  occ. eigenvalues --   -0.15954  -0.14254  -0.12177  -0.12044
 Alpha virt. eigenvalues --   -0.06772  -0.05632  -0.04280  -0.03770  -0.02995
 Alpha virt. eigenvalues --   -0.02687  -0.02355  -0.01417  -0.01374  -0.00823
 Alpha virt. eigenvalues --   -0.00636  -0.00507  -0.00127   0.00296   0.00718

  Beta  occ. eigenvalues --  -38.45449 -38.45040 -38.44891 -38.44225 -38.43930
  Beta  occ. eigenvalues --  -38.43910 -38.43780  -2.21142  -2.20773  -2.20680
  Beta  occ. eigenvalues --   -2.20060  -2.19738  -2.19689  -2.19581  -1.14867
  Beta  occ. eigenvalues --   -1.14843  -1.14795  -1.14468  -1.14456  -1.14449
  Beta  occ. eigenvalues --   -1.14429  -1.14334  -1.14333  -1.13719  -1.13716
  Beta  occ. eigenvalues --   -1.13662  -1.13488  -1.13404  -1.13380  -1.13360
  Beta  occ. eigenvalues --   -1.13348  -1.13321  -1.13244  -1.13227  -1.13192
  Beta  occ. eigenvalues --   -0.15162  -0.13557  -0.12059
  Beta virt. eigenvalues --   -0.08830  -0.06094  -0.05056  -0.04005  -0.03551
  Beta virt. eigenvalues --   -0.02739  -0.02474  -0.02070  -0.01363  -0.00928
  Beta virt. eigenvalues --   -0.00701  -0.00294  -0.00239   0.00026   0.00367

 Mulliken charges and spin densities:
               1          2
     1  Na   0.917286   0.261622
     2  Na  -0.386815  -0.170582
     3  Na  -0.847702  -0.082428
     4  Na  -1.268325   0.577595
     5  Na   1.335129  -0.094874
     6  Na   0.474894   0.246242
     7  Na  -0.224467   0.262424
 Sum of Mulliken charges =  -0.00000   1.00000

 Dipole moment (field-independent basis, Debye):
    X=              0.4952    Y=              0.0836    Z=             -0.0362  Tot=              0.5035
 Quadrupole moment (field-independent basis, Debye-Ang):
   XX=            -50.6205   YY=            -70.0574   ZZ=            -74.0169
   XY=              0.3881   XZ=             -2.4002   YZ=              0.4783

 Normal termination of Gaussian 16 at Sun Dec  3 13:04:33 2023.
