 Gaussian 16, Revision B.01,
 Gaussian 16:  ES64L-G16RevB.01 20-Dec-2017

 -------------------------
 #P B3LYP/6-311+g(d) force
 -------------------------

 -----
 DPGEN
 -----
 Symbolic Z-matrix:
 Charge =  0 Multiplicity = 2

                         Standard orientation:
 ---------------------------------------------------------------------
 Center     Atomic      Atomic             Coordinates (Angstroms)
 Number     Number       Type             X           Y           Z
 ---------------------------------------------------------------------
      1         11           0        3.027028   -0.992976   -0.087681
      2         11           0       -3.182067   -0.580373   -0.491627
      3         11           0       -0.179268    0.121703    1.981722
      4         11           0        0.219282   -0.330254   -1.742724
      5         11           0       -1.676962    2.328347    0.106867
      6         11           0        1.998486    2.287963   -0.151544
      7         11           0       -0.206499   -2.834410    0.384987
 ---------------------------------------------------------------------

 SCF Done:  E(UB3LYP) =  -1136.13882779     A.U. after   20 cycles

 The electronic state is 2-A.
 Alpha  occ. eigenvalues --  -38.44137 -38.44136 -38.43515 -38.43474 -38.43465
 Alpha  occ. eigenvalues --  -38.43307 -38.43213  -2.19968  -2.19956  -2.19431
 Alpha  occ. eigenvalues --   -2.19403  -2.19306  -2.19172  -2.19068  -1.13655
 Alpha  occ. eigenvalues --   -1.13630  -1.13627  -1.13616  -1.13600  -1.13592
 Alpha  occ. eigenvalues --   -1.13117  -1.13088  -1.13076  -1.13054  -1.13047
 Alpha  occ. eigenvalues --   -1.13026  -1.12978  -1.12965  -1.12942  -1.12849
 Alpha  occ. eigenvalues --   -1.12832  -1.12798  -1.12747  -1.12735  -1.12684
 Alpha  occ. eigenvalues --   -0.18593  -0.13117  -0.12295  -0.10835
 Alpha virt. eigenvalues --   -0.05776  -0.05125  -0.04525  -0.03263  -0.02932
 Alpha virt. eigenvalues --   -0.02581  -0.01681  -0.01045  -0.00379  -0.00251
 Alpha virt. eigenvalues --   -0.00018   0.00354   0.00789   0.00874   0.00903

  Beta  occ. eigenvalues --  -38.44134 -38.44123 -38.43472 -38.43422 -38.43404
  Beta  occ. eigenvalues --  -38.43301 -38.43201  -2.19966  -2.19934  -2.19305
  Beta  occ. eigenvalues --   -2.19291  -2.19260  -2.19166  -2.19050  -1.13644
  Beta  occ. eigenvalues --   -1.13624  -1.13609  -1.13595  -1.13590  -1.13579
  Beta  occ. eigenvalues --   -1.13030  -1.12996  -1.12989  -1.12971  -1.12960
  Beta  occ. eigenvalues --   -1.12958  -1.12941  -1.12928  -1.12921  -1.12832
  Beta  occ. eigenvalues --   -1.12810  -1.12791  -1.12732  -1.12696  -1.12675
  Beta  occ. eigenvalues --   -0.17871  -0.12864  -0.12049
  Beta virt. eigenvalues --   -0.06957  -0.05697  -0.05129  -0.04466  -0.02520
  Beta virt. eigenvalues --   -0.02155  -0.01590  -0.01520  -0.00989  -0.00411
  Beta virt. eigenvalues --   -0.00286   0.00110   0.00384   0.00847   0.00879

 Mulliken charges and spin densities:
               1          2
     1  Na   0.198762  -0.076984
     2  Na   0.070870   0.017130
     3  Na  -0.244543   0.670012
     4  Na  -0.233429   0.579787
     5  Na   0.131595  -0.045439
     6  Na  -0.013233  -0.104742
     7  Na   0.089978  -0.039763
 Sum of Mulliken charges =  -0.00000   1.00000

 Dipole moment (field-independent basis, Debye):
    X=              0.1000    Y=             -0.1497    Z=             -0.0244  Tot=              0.1817
 Quadrupole moment (field-independent basis, Debye-Ang):
   XX=            -55.4745   YY=            -64.4489   ZZ=            -73.6846
   XY=              0.1923   XZ=              1.1274   YZ=             -0.7827

 Normal termination of Gaussian 16 at Thu Dec  7 08:23:14 2023.
