 Gaussian 16, Revision B.01,
 Gaussian 16:  ES64L-G16RevB.01 20-Dec-2017

 -------------------------
 #P B3LYP/6-311+g(d) force
 -------------------------

 -----
 DPGEN
 -----
 Symbolic Z-matrix:
 Charge =  0 Multiplicity = 2

                         Standard orientation:
 ---------------------------------------------------------------------
 Center     Atomic      Atomic             Coordinates (Angstroms)
 Number     Number       Type             X           Y           Z
 ---------------------------------------------------------------------
      1         11           0       -2.639844    1.006188   -0.622615
      2         11           0        0.273484    2.922258   -0.037756
      3         11           0       -2.392316   -2.182551    0.039134
      4         11           0        3.136946    0.281167   -0.349085
      5         11           0        1.676998   -2.287543    0.498516
      6         11           0       -0.385044    0.693970    2.009176
      7         11           0        0.329776   -0.433489   -1.537371
 ---------------------------------------------------------------------

 SCF Done:  E(UB3LYP) =  -1136.13305780     A.U. after   20 cycles

 The electronic state is 2-A.
 Alpha  occ. eigenvalues --  -38.44146 -38.43816 -38.43763 -38.43661 -38.43500
 Alpha  occ. eigenvalues --  -38.43278 -38.43143  -2.20026  -2.19703  -2.19656
 Alpha  occ. eigenvalues --   -2.19478  -2.19407  -2.19279  -2.19009  -1.13748
 Alpha  occ. eigenvalues --   -1.13704  -1.13642  -1.13393  -1.13379  -1.13375
 Alpha  occ. eigenvalues --   -1.13334  -1.13299  -1.13268  -1.13142  -1.13133
 Alpha  occ. eigenvalues --   -1.13124  -1.13095  -1.13039  -1.13028  -1.12957
 Alpha  occ. eigenvalues --   -1.12913  -1.12897  -1.12686  -1.12661  -1.12637
 Alpha  occ. eigenvalues --   -0.18734  -0.13439  -0.12325  -0.10715
 Alpha virt. eigenvalues --   -0.05563  -0.05221  -0.04638  -0.03464  -0.02878
 Alpha virt. eigenvalues --   -0.02427  -0.01537  -0.01073  -0.00332  -0.00212
 Alpha virt. eigenvalues --    0.00003   0.00357   0.00796   0.00885   0.00893

  Beta  occ. eigenvalues --  -38.44138 -38.43799 -38.43751 -38.43661 -38.43415
  Beta  occ. eigenvalues --  -38.43226 -38.43138  -2.20014  -2.19674  -2.19635
  Beta  occ. eigenvalues --   -2.19482  -2.19249  -2.19184  -2.19004  -1.13742
  Beta  occ. eigenvalues --   -1.13678  -1.13633  -1.13375  -1.13362  -1.13340
  Beta  occ. eigenvalues --   -1.13312  -1.13277  -1.13245  -1.13139  -1.13133
  Beta  occ. eigenvalues --   -1.13116  -1.12996  -1.12929  -1.12919  -1.12888
  Beta  occ. eigenvalues --   -1.12846  -1.12825  -1.12670  -1.12643  -1.12630
  Beta  occ. eigenvalues --   -0.18024  -0.13211  -0.12102
  Beta virt. eigenvalues --   -0.06839  -0.05497  -0.05180  -0.04535  -0.02717
  Beta virt. eigenvalues --   -0.02169  -0.01467  -0.01415  -0.00998  -0.00330
  Beta virt. eigenvalues --   -0.00197   0.00144   0.00395   0.00860   0.00889

 Mulliken charges and spin densities:
               1          2
     1  Na   0.236899   0.016394
     2  Na   0.263174  -0.046856
     3  Na  -0.028888  -0.005687
     4  Na   0.309718  -0.026070
     5  Na  -0.016540   0.117557
     6  Na  -0.573001   0.666622
     7  Na  -0.191362   0.278039
 Sum of Mulliken charges =  -0.00000   1.00000

 Dipole moment (field-independent basis, Debye):
    X=              0.1745    Y=             -0.0765    Z=              0.1069  Tot=              0.2185
 Quadrupole moment (field-independent basis, Debye-Ang):
   XX=            -57.0882   YY=            -63.3115   ZZ=            -73.8164
   XY=              1.0608   XZ=              0.7260   YZ=             -2.9018

 Normal termination of Gaussian 16 at Tue Dec  5 20:09:30 2023.
