 Gaussian 16, Revision B.01,
 Gaussian 16:  ES64L-G16RevB.01 20-Dec-2017

 -------------------------
 #P B3LYP/6-311+g(d) force
 -------------------------

 -----
 DPGEN
 -----
 Symbolic Z-matrix:
 Charge =  0 Multiplicity = 2

                         Standard orientation:
 ---------------------------------------------------------------------
 Center     Atomic      Atomic             Coordinates (Angstroms)
 Number     Number       Type             X           Y           Z
 ---------------------------------------------------------------------
      1         11           0       -0.145900   -0.013798   -1.453604
      2         11           0        0.046542    0.088635    2.187633
      3         11           0       -1.795833   -2.094793    0.043460
      4         11           0        0.747199    2.949146   -0.449830
      5         11           0       -3.033836    1.150515   -0.072043
      6         11           0        1.473943   -2.553154   -0.465077
      7         11           0        2.707885    0.473448    0.209461
 ---------------------------------------------------------------------

 SCF Done:  E(UB3LYP) =  -1136.13529769     A.U. after   19 cycles

 The electronic state is 2-A.
 Alpha  occ. eigenvalues --  -38.43911 -38.43867 -38.43642 -38.43532 -38.43402
 Alpha  occ. eigenvalues --  -38.43208 -38.42954  -2.19754  -2.19719  -2.19492
 Alpha  occ. eigenvalues --   -2.19443  -2.19325  -2.19102  -2.19027  -1.13422
 Alpha  occ. eigenvalues --   -1.13399  -1.13389  -1.13376  -1.13365  -1.13362
 Alpha  occ. eigenvalues --   -1.13206  -1.13186  -1.13153  -1.13127  -1.13102
 Alpha  occ. eigenvalues --   -1.13051  -1.13013  -1.12988  -1.12948  -1.12824
 Alpha  occ. eigenvalues --   -1.12741  -1.12737  -1.12694  -1.12659  -1.12620
 Alpha  occ. eigenvalues --   -0.19001  -0.13025  -0.12556  -0.11015
 Alpha virt. eigenvalues --   -0.05459  -0.04938  -0.04669  -0.03235  -0.02879
 Alpha virt. eigenvalues --   -0.02715  -0.01364  -0.01158  -0.00209  -0.00126
 Alpha virt. eigenvalues --    0.00037   0.00357   0.00856   0.00908   0.00926

  Beta  occ. eigenvalues --  -38.43912 -38.43761 -38.43633 -38.43525 -38.43393
  Beta  occ. eigenvalues --  -38.43199 -38.42899  -2.19723  -2.19557  -2.19478
  Beta  occ. eigenvalues --   -2.19434  -2.19312  -2.19088  -2.18929  -1.13395
  Beta  occ. eigenvalues --   -1.13373  -1.13367  -1.13293  -1.13245  -1.13230
  Beta  occ. eigenvalues --   -1.13191  -1.13175  -1.13134  -1.13114  -1.13073
  Beta  occ. eigenvalues --   -1.13046  -1.13007  -1.12949  -1.12938  -1.12799
  Beta  occ. eigenvalues --   -1.12733  -1.12713  -1.12626  -1.12591  -1.12552
  Beta  occ. eigenvalues --   -0.18263  -0.12789  -0.12307
  Beta virt. eigenvalues --   -0.07020  -0.05448  -0.04880  -0.04642  -0.02399
  Beta virt. eigenvalues --   -0.02152  -0.01626  -0.01292  -0.01080  -0.00233
  Beta virt. eigenvalues --   -0.00124   0.00145   0.00383   0.00867   0.00922

 Mulliken charges and spin densities:
               1          2
     1  Na  -0.586894   0.115380
     2  Na  -0.556995   0.623946
     3  Na   0.336057   0.097390
     4  Na   0.084674  -0.022333
     5  Na   0.028861  -0.042900
     6  Na   0.256094   0.061160
     7  Na   0.438202   0.167356
 Sum of Mulliken charges =  -0.00000   1.00000

 Dipole moment (field-independent basis, Debye):
    X=             -0.2914    Y=              0.2388    Z=              0.2971  Tot=              0.4798
 Quadrupole moment (field-independent basis, Debye-Ang):
   XX=            -59.5675   YY=            -60.7345   ZZ=            -73.3207
   XY=             -1.1678   XZ=             -0.5128   YZ=             -0.2881

 Normal termination of Gaussian 16 at Thu Dec  7 01:45:53 2023.
