 Gaussian 16, Revision B.01,
 Gaussian 16:  ES64L-G16RevB.01 20-Dec-2017

 -------------------------
 #P B3LYP/6-311+g(d) force
 -------------------------

 -----
 DPGEN
 -----
 Symbolic Z-matrix:
 Charge =  0 Multiplicity = 2

                         Standard orientation:
 ---------------------------------------------------------------------
 Center     Atomic      Atomic             Coordinates (Angstroms)
 Number     Number       Type             X           Y           Z
 ---------------------------------------------------------------------
      1         11           0        3.091186   -1.094004    0.031818
      2         11           0        1.698642    2.334485   -0.314182
      3         11           0        0.006124   -2.504993   -0.347784
      4         11           0       -3.159017   -1.083512    0.081062
      5         11           0        0.257851    0.021167    2.188131
      6         11           0       -1.778772    2.241268    0.036585
      7         11           0       -0.116014    0.085589   -1.675630
 ---------------------------------------------------------------------

 SCF Done:  E(UB3LYP) =  -1136.13528883     A.U. after   19 cycles

 The electronic state is 2-A.
 Alpha  occ. eigenvalues --  -38.44059 -38.44039 -38.43969 -38.43438 -38.43405
 Alpha  occ. eigenvalues --  -38.43381 -38.43099  -2.19873  -2.19844  -2.19832
 Alpha  occ. eigenvalues --   -2.19426  -2.19300  -2.19242  -2.19020  -1.13542
 Alpha  occ. eigenvalues --   -1.13534  -1.13524  -1.13512  -1.13501  -1.13497
 Alpha  occ. eigenvalues --   -1.13488  -1.13462  -1.13444  -1.13202  -1.13126
 Alpha  occ. eigenvalues --   -1.13055  -1.12966  -1.12956  -1.12927  -1.12911
 Alpha  occ. eigenvalues --   -1.12892  -1.12853  -1.12709  -1.12669  -1.12604
 Alpha  occ. eigenvalues --   -0.18748  -0.12912  -0.12397  -0.11019
 Alpha virt. eigenvalues --   -0.05744  -0.05182  -0.04224  -0.03214  -0.02958
 Alpha virt. eigenvalues --   -0.02843  -0.01708  -0.01095  -0.00187  -0.00087
 Alpha virt. eigenvalues --   -0.00018   0.00335   0.00756   0.00885   0.00927

  Beta  occ. eigenvalues --  -38.44059 -38.44040 -38.43869 -38.43433 -38.43372
  Beta  occ. eigenvalues --  -38.43336 -38.43086  -2.19875  -2.19847  -2.19648
  Beta  occ. eigenvalues --   -2.19302  -2.19294  -2.19230  -2.19001  -1.13538
  Beta  occ. eigenvalues --   -1.13527  -1.13520  -1.13510  -1.13497  -1.13496
  Beta  occ. eigenvalues --   -1.13372  -1.13333  -1.13313  -1.13121  -1.13064
  Beta  occ. eigenvalues --   -1.12997  -1.12945  -1.12923  -1.12911  -1.12878
  Beta  occ. eigenvalues --   -1.12867  -1.12849  -1.12682  -1.12627  -1.12596
  Beta  occ. eigenvalues --   -0.17998  -0.12723  -0.12136
  Beta virt. eigenvalues --   -0.07048  -0.05667  -0.05201  -0.04207  -0.02460
  Beta virt. eigenvalues --   -0.02138  -0.01742  -0.01610  -0.01044  -0.00243
  Beta virt. eigenvalues --   -0.00086   0.00099   0.00354   0.00820   0.00872

 Mulliken charges and spin densities:
               1          2
     1  Na   0.149643  -0.038987
     2  Na   0.237565  -0.048544
     3  Na   0.369820  -0.009334
     4  Na   0.027065  -0.038980
     5  Na  -0.702202   0.796334
     6  Na   0.173094  -0.023622
     7  Na  -0.254985   0.363132
 Sum of Mulliken charges =  -0.00000   1.00000

 Dipole moment (field-independent basis, Debye):
    X=              0.0370    Y=              0.0378    Z=              0.3304  Tot=              0.3346
 Quadrupole moment (field-independent basis, Debye-Ang):
   XX=            -53.9478   YY=            -66.4977   ZZ=            -73.0130
   XY=              0.0916   XZ=             -0.8711   YZ=             -0.0701

 Normal termination of Gaussian 16 at Fri Dec  8 01:02:17 2023.
