 Gaussian 16, Revision B.01,
 Gaussian 16:  ES64L-G16RevB.01 20-Dec-2017

 -------------------------
 #P B3LYP/6-311+g(d) force
 -------------------------

 -----
 DPGEN
 -----
 Symbolic Z-matrix:
 Charge =  0 Multiplicity = 2

                         Standard orientation:
 ---------------------------------------------------------------------
 Center     Atomic      Atomic             Coordinates (Angstroms)
 Number     Number       Type             X           Y           Z
 ---------------------------------------------------------------------
      1         11           0       -2.825359   -1.008366   -0.310708
      2         11           0        1.795589    2.500325    0.225170
      3         11           0        0.159391    0.069192   -1.811214
      4         11           0        0.456606   -2.698855    0.060430
      5         11           0       -0.592900   -0.255231    1.879100
      6         11           0       -1.752060    2.241585   -0.046789
      7         11           0        2.758734   -0.848650    0.004011
 ---------------------------------------------------------------------

 SCF Done:  E(UB3LYP) =  -1136.13720598     A.U. after   19 cycles

 The electronic state is 2-A.
 Alpha  occ. eigenvalues --  -38.43730 -38.43636 -38.43607 -38.43533 -38.43431
 Alpha  occ. eigenvalues --  -38.43295 -38.43286  -2.19606  -2.19544  -2.19482
 Alpha  occ. eigenvalues --   -2.19388  -2.19354  -2.19269  -2.19227  -1.13310
 Alpha  occ. eigenvalues --   -1.13309  -1.13275  -1.13247  -1.13208  -1.13186
 Alpha  occ. eigenvalues --   -1.13177  -1.13164  -1.13100  -1.13071  -1.13024
 Alpha  occ. eigenvalues --   -1.13019  -1.13013  -1.12997  -1.12994  -1.12954
 Alpha  occ. eigenvalues --   -1.12909  -1.12886  -1.12872  -1.12848  -1.12834
 Alpha  occ. eigenvalues --   -0.19115  -0.13181  -0.12630  -0.10915
 Alpha virt. eigenvalues --   -0.05318  -0.05146  -0.04713  -0.03313  -0.03002
 Alpha virt. eigenvalues --   -0.02532  -0.01297  -0.01042  -0.00191  -0.00106
 Alpha virt. eigenvalues --   -0.00007   0.00375   0.00872   0.00913   0.00944

  Beta  occ. eigenvalues --  -38.43721 -38.43632 -38.43600 -38.43530 -38.43351
  Beta  occ. eigenvalues --  -38.43277 -38.43216  -2.19594  -2.19541  -2.19474
  Beta  occ. eigenvalues --   -2.19353  -2.19241  -2.19215  -2.19126  -1.13308
  Beta  occ. eigenvalues --   -1.13298  -1.13242  -1.13236  -1.13200  -1.13169
  Beta  occ. eigenvalues --   -1.13163  -1.13127  -1.13099  -1.13014  -1.13006
  Beta  occ. eigenvalues --   -1.12995  -1.12989  -1.12923  -1.12895  -1.12885
  Beta  occ. eigenvalues --   -1.12845  -1.12829  -1.12816  -1.12786  -1.12769
  Beta  occ. eigenvalues --   -0.18360  -0.12924  -0.12394
  Beta virt. eigenvalues --   -0.06979  -0.05309  -0.05100  -0.04677  -0.02482
  Beta virt. eigenvalues --   -0.02222  -0.01490  -0.01214  -0.00973  -0.00236
  Beta virt. eigenvalues --   -0.00159   0.00129   0.00399   0.00908   0.00927

 Mulliken charges and spin densities:
               1          2
     1  Na   0.319359  -0.069424
     2  Na  -0.057423  -0.076855
     3  Na  -0.340356   0.604444
     4  Na   0.374864  -0.022894
     5  Na  -0.435374   0.692351
     6  Na   0.091149  -0.078327
     7  Na   0.047780  -0.049295
 Sum of Mulliken charges =  -0.00000   1.00000

 Dipole moment (field-independent basis, Debye):
    X=             -0.2016    Y=              0.1439    Z=              0.0240  Tot=              0.2488
 Quadrupole moment (field-independent basis, Debye-Ang):
   XX=            -58.7142   YY=            -62.5702   ZZ=            -73.1925
   XY=              0.6234   XZ=              1.6139   YZ=              0.8481

 Normal termination of Gaussian 16 at Thu Dec  7 21:54:02 2023.
