 Gaussian 16, Revision B.01,
 Gaussian 16:  ES64L-G16RevB.01 20-Dec-2017

 -------------------------
 #P B3LYP/6-311+g(d) force
 -------------------------

 -----
 DPGEN
 -----
 Symbolic Z-matrix:
 Charge =  0 Multiplicity = 2

                         Standard orientation:
 ---------------------------------------------------------------------
 Center     Atomic      Atomic             Coordinates (Angstroms)
 Number     Number       Type             X           Y           Z
 ---------------------------------------------------------------------
      1         11           0       -3.346864   -0.143667   -0.209658
      2         11           0        2.592207    1.619280   -0.129135
      3         11           0       -0.287039    0.099713   -1.638073
      4         11           0       -0.549769   -2.705325    0.126906
      5         11           0       -0.306065    0.001790    1.693746
      6         11           0       -0.602853    2.886482    0.206100
      7         11           0        2.500383   -1.758272   -0.049884
 ---------------------------------------------------------------------

 SCF Done:  E(UB3LYP) =  -1136.13679511     A.U. after   19 cycles

 The electronic state is 2-A.
 Alpha  occ. eigenvalues --  -38.44335 -38.43746 -38.43622 -38.43548 -38.43411
 Alpha  occ. eigenvalues --  -38.43017 -38.42966  -2.20144  -2.19589  -2.19487
 Alpha  occ. eigenvalues --   -2.19411  -2.19327  -2.19005  -2.18960  -1.13821
 Alpha  occ. eigenvalues --   -1.13794  -1.13785  -1.13266  -1.13258  -1.13246
 Alpha  occ. eigenvalues --   -1.13180  -1.13159  -1.13125  -1.13098  -1.13070
 Alpha  occ. eigenvalues --   -1.13061  -1.13035  -1.12993  -1.12917  -1.12726
 Alpha  occ. eigenvalues --   -1.12638  -1.12621  -1.12609  -1.12589  -1.12556
 Alpha  occ. eigenvalues --   -0.18934  -0.12965  -0.12817  -0.10369
 Alpha virt. eigenvalues --   -0.05859  -0.05042  -0.04837  -0.02912  -0.02858
 Alpha virt. eigenvalues --   -0.02098  -0.01778  -0.01165  -0.00412  -0.00273
 Alpha virt. eigenvalues --    0.00027   0.00335   0.00815   0.00853   0.00905

  Beta  occ. eigenvalues --  -38.44327 -38.43743 -38.43613 -38.43546 -38.43401
  Beta  occ. eigenvalues --  -38.42948 -38.42886  -2.20134  -2.19585  -2.19474
  Beta  occ. eigenvalues --   -2.19410  -2.19312  -2.18879  -2.18814  -1.13797
  Beta  occ. eigenvalues --   -1.13783  -1.13781  -1.13266  -1.13251  -1.13229
  Beta  occ. eigenvalues --   -1.13170  -1.13125  -1.13122  -1.13094  -1.13066
  Beta  occ. eigenvalues --   -1.13042  -1.13022  -1.12951  -1.12912  -1.12638
  Beta  occ. eigenvalues --   -1.12550  -1.12523  -1.12514  -1.12481  -1.12455
  Beta  occ. eigenvalues --   -0.18228  -0.12715  -0.12545
  Beta virt. eigenvalues --   -0.06496  -0.05812  -0.05024  -0.04823  -0.02190
  Beta virt. eigenvalues --   -0.02053  -0.01678  -0.01092  -0.01084  -0.00462
  Beta virt. eigenvalues --   -0.00319   0.00161   0.00368   0.00836   0.00861

 Mulliken charges and spin densities:
               1          2
     1  Na   0.188585  -0.108990
     2  Na   0.092933  -0.032122
     3  Na  -0.472584   0.724892
     4  Na   0.376928  -0.018596
     5  Na  -0.310981   0.599106
     6  Na   0.159326  -0.114571
     7  Na  -0.034207  -0.049718
 Sum of Mulliken charges =  -0.00000   1.00000

 Dipole moment (field-independent basis, Debye):
    X=             -0.3563    Y=              0.1714    Z=             -0.0072  Tot=              0.3954
 Quadrupole moment (field-independent basis, Debye-Ang):
   XX=            -54.0806   YY=            -61.1474   ZZ=            -76.5137
   XY=             -0.0718   XZ=             -0.0292   YZ=              0.1916

 Normal termination of Gaussian 16 at Thu Dec  7 01:40:32 2023.
