 Gaussian 16, Revision B.01,
 Gaussian 16:  ES64L-G16RevB.01 20-Dec-2017

 -------------------------
 #P B3LYP/6-311+g(d) force
 -------------------------

 -----
 DPGEN
 -----
 Symbolic Z-matrix:
 Charge =  0 Multiplicity = 2

                         Standard orientation:
 ---------------------------------------------------------------------
 Center     Atomic      Atomic             Coordinates (Angstroms)
 Number     Number       Type             X           Y           Z
 ---------------------------------------------------------------------
      1         11           0       -1.990187    0.939530   -1.176725
      2         11           0        0.066622    3.314501    0.244905
      3         11           0       -0.314987   -2.417919   -1.341775
      4         11           0        3.065722   -2.180879    0.415936
      5         11           0       -4.204784   -0.748635    0.512988
      6         11           0        0.190267   -0.313799    2.063655
      7         11           0        3.187347    1.407200   -0.718984
 ---------------------------------------------------------------------

 SCF Done:  E(UB3LYP) =  -1136.11339066     A.U. after   25 cycles

 The electronic state is 2-A.
 Alpha  occ. eigenvalues --  -38.45826 -38.45092 -38.44884 -38.44206 -38.43946
 Alpha  occ. eigenvalues --  -38.43763 -38.43326  -2.21564  -2.20834  -2.20638
 Alpha  occ. eigenvalues --   -2.19968  -2.19783  -2.19569  -2.19103  -1.15249
 Alpha  occ. eigenvalues --   -1.15226  -1.15205  -1.14514  -1.14482  -1.14458
 Alpha  occ. eigenvalues --   -1.14327  -1.14304  -1.14238  -1.13638  -1.13636
 Alpha  occ. eigenvalues --   -1.13615  -1.13470  -1.13455  -1.13405  -1.13229
 Alpha  occ. eigenvalues --   -1.13202  -1.13179  -1.12785  -1.12767  -1.12746
 Alpha  occ. eigenvalues --   -0.16834  -0.13174  -0.11950  -0.10063
 Alpha virt. eigenvalues --   -0.07482  -0.05694  -0.04759  -0.03419  -0.02756
 Alpha virt. eigenvalues --   -0.02657  -0.02260  -0.01491  -0.00951  -0.00656
 Alpha virt. eigenvalues --   -0.00383   0.00070   0.00247   0.00483   0.00612

  Beta  occ. eigenvalues --  -38.45844 -38.45060 -38.44844 -38.44210 -38.43930
  Beta  occ. eigenvalues --  -38.43658 -38.43334  -2.21600  -2.20774  -2.20565
  Beta  occ. eigenvalues --   -2.19977  -2.19754  -2.19373  -2.19120  -1.15274
  Beta  occ. eigenvalues --   -1.15243  -1.15229  -1.14468  -1.14442  -1.14419
  Beta  occ. eigenvalues --   -1.14277  -1.14246  -1.14187  -1.13643  -1.13628
  Beta  occ. eigenvalues --   -1.13621  -1.13450  -1.13424  -1.13389  -1.13094
  Beta  occ. eigenvalues --   -1.13068  -1.13040  -1.12798  -1.12770  -1.12755
  Beta  occ. eigenvalues --   -0.16215  -0.13082  -0.11790
  Beta virt. eigenvalues --   -0.07281  -0.06370  -0.05508  -0.04641  -0.02916
  Beta virt. eigenvalues --   -0.02424  -0.02177  -0.01626  -0.01325  -0.00933
  Beta virt. eigenvalues --   -0.00521  -0.00200   0.00143   0.00388   0.00582

 Mulliken charges and spin densities:
               1          2
     1  Na  -0.146012   0.336707
     2  Na   0.241784  -0.137040
     3  Na  -0.050562   0.138021
     4  Na   0.211684   0.016356
     5  Na   0.207091  -0.220470
     6  Na  -0.342185   0.721839
     7  Na  -0.121800   0.144587
 Sum of Mulliken charges =  -0.00000   1.00000

 Dipole moment (field-independent basis, Debye):
    X=             -0.7932    Y=             -0.6633    Z=              0.0577  Tot=              1.0356
 Quadrupole moment (field-independent basis, Debye-Ang):
   XX=            -49.0640   YY=            -68.6297   ZZ=            -76.1222
   XY=              0.7709   XZ=             -3.0149   YZ=              0.0134

 Normal termination of Gaussian 16 at Sun Dec  3 18:45:59 2023.
