 Gaussian 16, Revision B.01,
 Gaussian 16:  ES64L-G16RevB.01 20-Dec-2017

 -------------------------
 #P B3LYP/6-311+g(d) force
 -------------------------

 -----
 DPGEN
 -----
 Symbolic Z-matrix:
 Charge =  0 Multiplicity = 2

                         Standard orientation:
 ---------------------------------------------------------------------
 Center     Atomic      Atomic             Coordinates (Angstroms)
 Number     Number       Type             X           Y           Z
 ---------------------------------------------------------------------
      1         11           0       -0.077805   -1.868954   -0.483839
      2         11           0        3.207341   -2.951476   -0.050748
      3         11           0        3.033522    0.175563    0.313753
      4         11           0        2.806793    3.338291   -0.538095
      5         11           0       -0.304792    1.579350    0.673200
      6         11           0       -2.843538   -0.566853    0.466064
      7         11           0       -5.821521    0.294079   -0.380334
 ---------------------------------------------------------------------

 SCF Done:  E(UB3LYP) =  -1136.12504557     A.U. after   19 cycles

 The electronic state is 2-A.
 Alpha  occ. eigenvalues --  -38.44837 -38.44542 -38.44167 -38.43817 -38.43627
 Alpha  occ. eigenvalues --  -38.43353 -38.43292  -2.20661  -2.20372  -2.20027
 Alpha  occ. eigenvalues --   -2.19616  -2.19518  -2.19194  -2.19189  -1.14295
 Alpha  occ. eigenvalues --   -1.14281  -1.14279  -1.14068  -1.14060  -1.13964
 Alpha  occ. eigenvalues --   -1.13715  -1.13700  -1.13649  -1.13310  -1.13278
 Alpha  occ. eigenvalues --   -1.13244  -1.13214  -1.13198  -1.13133  -1.12874
 Alpha  occ. eigenvalues --   -1.12860  -1.12853  -1.12845  -1.12841  -1.12813
 Alpha  occ. eigenvalues --   -0.17166  -0.14304  -0.12297  -0.11467
 Alpha virt. eigenvalues --   -0.06022  -0.04863  -0.04837  -0.03949  -0.02678
 Alpha virt. eigenvalues --   -0.02343  -0.01827  -0.01559  -0.01050  -0.00725
 Alpha virt. eigenvalues --   -0.00576   0.00005   0.00266   0.00565   0.00713

  Beta  occ. eigenvalues --  -38.44713 -38.44514 -38.44141 -38.43808 -38.43609
  Beta  occ. eigenvalues --  -38.43333 -38.43280  -2.20430  -2.20324  -2.19982
  Beta  occ. eigenvalues --   -2.19599  -2.19486  -2.19181  -2.19157  -1.14142
  Beta  occ. eigenvalues --   -1.14124  -1.14123  -1.14037  -1.14026  -1.13922
  Beta  occ. eigenvalues --   -1.13688  -1.13668  -1.13605  -1.13293  -1.13267
  Beta  occ. eigenvalues --   -1.13233  -1.13189  -1.13176  -1.13107  -1.12875
  Beta  occ. eigenvalues --   -1.12851  -1.12822  -1.12816  -1.12795  -1.12770
  Beta  occ. eigenvalues --   -0.16608  -0.13362  -0.12204
  Beta virt. eigenvalues --   -0.07816  -0.05799  -0.04743  -0.04355  -0.03651
  Beta virt. eigenvalues --   -0.02423  -0.01959  -0.01647  -0.01057  -0.00853
  Beta virt. eigenvalues --   -0.00462  -0.00174   0.00177   0.00393   0.00683

 Mulliken charges and spin densities:
               1          2
     1  Na  -0.705017  -0.062439
     2  Na   1.093514   0.111125
     3  Na  -0.888986   0.255718
     4  Na   0.500812   0.015833
     5  Na  -0.191205   0.000357
     6  Na  -0.106038   0.133716
     7  Na   0.296918   0.545691
 Sum of Mulliken charges =  -0.00000   1.00000

 Dipole moment (field-independent basis, Debye):
    X=             -0.0502    Y=              0.3898    Z=             -0.3176  Tot=              0.5053
 Quadrupole moment (field-independent basis, Debye-Ang):
   XX=            -63.5634   YY=            -63.0126   ZZ=            -70.4918
   XY=             -0.6618   XZ=              0.3774   YZ=             -0.8805

 Normal termination of Gaussian 16 at Wed Nov 29 00:36:12 2023.
