 Gaussian 16, Revision B.01,
 Gaussian 16:  ES64L-G16RevB.01 20-Dec-2017

 -------------------------
 #P B3LYP/6-311+g(d) force
 -------------------------

 -----
 DPGEN
 -----
 Symbolic Z-matrix:
 Charge =  0 Multiplicity = 2

                         Standard orientation:
 ---------------------------------------------------------------------
 Center     Atomic      Atomic             Coordinates (Angstroms)
 Number     Number       Type             X           Y           Z
 ---------------------------------------------------------------------
      1         11           0       -3.441622    0.160339   -0.105171
      2         11           0        0.394073    0.090780   -1.818867
      3         11           0        0.096471    0.111297    1.954806
      4         11           0       -1.422744   -2.219410   -0.154111
      5         11           0       -0.901264    2.611372    0.061410
      6         11           0        2.123192   -2.020917    0.187508
      7         11           0        3.151894    1.266539   -0.125576
 ---------------------------------------------------------------------

 SCF Done:  E(UB3LYP) =  -1136.13339906     A.U. after   20 cycles

 The electronic state is 2-A.
 Alpha  occ. eigenvalues --  -38.44748 -38.44671 -38.43591 -38.43549 -38.43479
 Alpha  occ. eigenvalues --  -38.43092 -38.42845  -2.20566  -2.20473  -2.19527
 Alpha  occ. eigenvalues --   -2.19468  -2.19353  -2.18941  -2.18745  -1.14257
 Alpha  occ. eigenvalues --   -1.14225  -1.14197  -1.14148  -1.14131  -1.14110
 Alpha  occ. eigenvalues --   -1.13218  -1.13172  -1.13151  -1.13143  -1.13115
 Alpha  occ. eigenvalues --   -1.13085  -1.13015  -1.13012  -1.12982  -1.12630
 Alpha  occ. eigenvalues --   -1.12617  -1.12555  -1.12429  -1.12407  -1.12383
 Alpha  occ. eigenvalues --   -0.18715  -0.13467  -0.11917  -0.10825
 Alpha virt. eigenvalues --   -0.06480  -0.05140  -0.03915  -0.03422  -0.02676
 Alpha virt. eigenvalues --   -0.02639  -0.02123  -0.01122  -0.00347  -0.00090
 Alpha virt. eigenvalues --   -0.00029   0.00302   0.00740   0.00750   0.00856

  Beta  occ. eigenvalues --  -38.44749 -38.44667 -38.43519 -38.43471 -38.43457
  Beta  occ. eigenvalues --  -38.43086 -38.42838  -2.20570  -2.20469  -2.19394
  Beta  occ. eigenvalues --   -2.19342  -2.19299  -2.18934  -2.18735  -1.14263
  Beta  occ. eigenvalues --   -1.14213  -1.14200  -1.14134  -1.14123  -1.14109
  Beta  occ. eigenvalues --   -1.13132  -1.13084  -1.13054  -1.13040  -1.13017
  Beta  occ. eigenvalues --   -1.12986  -1.12981  -1.12968  -1.12949  -1.12625
  Beta  occ. eigenvalues --   -1.12584  -1.12554  -1.12425  -1.12389  -1.12362
  Beta  occ. eigenvalues --   -0.17969  -0.13261  -0.11650
  Beta virt. eigenvalues --   -0.06914  -0.06403  -0.05144  -0.03917  -0.02652
  Beta virt. eigenvalues --   -0.02042  -0.01884  -0.01548  -0.01077  -0.00387
  Beta virt. eigenvalues --   -0.00080   0.00076   0.00322   0.00796   0.00863

 Mulliken charges and spin densities:
               1          2
     1  Na  -0.047499  -0.057351
     2  Na  -0.373396   0.658097
     3  Na  -0.419754   0.683421
     4  Na   0.211813  -0.021939
     5  Na   0.157585  -0.150591
     6  Na   0.271281   0.007044
     7  Na   0.199970  -0.118682
 Sum of Mulliken charges =  -0.00000   1.00000

 Dipole moment (field-independent basis, Debye):
    X=              0.2351    Y=              0.2897    Z=              0.0324  Tot=              0.3745
 Quadrupole moment (field-independent basis, Debye-Ang):
   XX=            -49.9852   YY=            -68.9670   ZZ=            -73.9516
   XY=              0.1597   XZ=              0.6712   YZ=             -0.2830

 Normal termination of Gaussian 16 at Tue Dec  5 16:20:08 2023.
