 Gaussian 16, Revision B.01,
 Gaussian 16:  ES64L-G16RevB.01 20-Dec-2017

 -------------------------
 #P B3LYP/6-311+g(d) force
 -------------------------

 -----
 DPGEN
 -----
 Symbolic Z-matrix:
 Charge =  0 Multiplicity = 2

                         Standard orientation:
 ---------------------------------------------------------------------
 Center     Atomic      Atomic             Coordinates (Angstroms)
 Number     Number       Type             X           Y           Z
 ---------------------------------------------------------------------
      1         11           0        0.387204    0.025044    2.134533
      2         11           0       -2.847375   -1.286736    0.218678
      3         11           0        3.123781   -0.713170   -0.223471
      4         11           0        0.246641   -2.721777   -0.214562
      5         11           0       -0.046541    0.133645   -1.756939
      6         11           0       -2.155008    1.932619   -0.194329
      7         11           0        1.291298    2.630376    0.036091
 ---------------------------------------------------------------------

 SCF Done:  E(UB3LYP) =  -1136.13944505     A.U. after   19 cycles

 The electronic state is 2-A.
 Alpha  occ. eigenvalues --  -38.44078 -38.43840 -38.43654 -38.43491 -38.43400
 Alpha  occ. eigenvalues --  -38.43372 -38.43199  -2.19893  -2.19714  -2.19492
 Alpha  occ. eigenvalues --   -2.19366  -2.19347  -2.19253  -2.19074  -1.13566
 Alpha  occ. eigenvalues --   -1.13551  -1.13536  -1.13375  -1.13346  -1.13332
 Alpha  occ. eigenvalues --   -1.13179  -1.13154  -1.13149  -1.13115  -1.13032
 Alpha  occ. eigenvalues --   -1.13014  -1.13006  -1.12980  -1.12944  -1.12923
 Alpha  occ. eigenvalues --   -1.12906  -1.12873  -1.12758  -1.12738  -1.12691
 Alpha  occ. eigenvalues --   -0.18700  -0.12917  -0.12500  -0.10991
 Alpha virt. eigenvalues --   -0.05595  -0.05068  -0.04554  -0.03247  -0.03030
 Alpha virt. eigenvalues --   -0.02797  -0.01500  -0.01029  -0.00246  -0.00181
 Alpha virt. eigenvalues --   -0.00037   0.00369   0.00807   0.00901   0.00933

  Beta  occ. eigenvalues --  -38.44075 -38.43745 -38.43652 -38.43485 -38.43395
  Beta  occ. eigenvalues --  -38.43302 -38.43192  -2.19889  -2.19537  -2.19490
  Beta  occ. eigenvalues --   -2.19359  -2.19247  -2.19219  -2.19064  -1.13551
  Beta  occ. eigenvalues --   -1.13546  -1.13533  -1.13259  -1.13220  -1.13207
  Beta  occ. eigenvalues --   -1.13178  -1.13151  -1.13132  -1.13084  -1.12999
  Beta  occ. eigenvalues --   -1.12991  -1.12953  -1.12937  -1.12900  -1.12876
  Beta  occ. eigenvalues --   -1.12869  -1.12853  -1.12744  -1.12707  -1.12687
  Beta  occ. eigenvalues --   -0.17954  -0.12701  -0.12251
  Beta virt. eigenvalues --   -0.07057  -0.05565  -0.05048  -0.04509  -0.02467
  Beta virt. eigenvalues --   -0.02217  -0.01731  -0.01416  -0.00963  -0.00297
  Beta virt. eigenvalues --   -0.00232   0.00105   0.00385   0.00865   0.00885

 Mulliken charges and spin densities:
               1          2
     1  Na  -0.594604   0.773823
     2  Na   0.006495  -0.010438
     3  Na   0.174276  -0.097188
     4  Na   0.165035  -0.027322
     5  Na  -0.200749   0.473516
     6  Na   0.263461  -0.022834
     7  Na   0.186086  -0.089557
 Sum of Mulliken charges =  -0.00000   1.00000

 Dipole moment (field-independent basis, Debye):
    X=              0.2642    Y=              0.0309    Z=              0.1656  Tot=              0.3134
 Quadrupole moment (field-independent basis, Debye-Ang):
   XX=            -56.9573   YY=            -64.4000   ZZ=            -72.8477
   XY=              0.2334   XZ=             -1.0926   YZ=              0.0650

 Normal termination of Gaussian 16 at Wed Dec  6 00:19:03 2023.
