 Gaussian 16, Revision B.01,
 Gaussian 16:  ES64L-G16RevB.01 20-Dec-2017

 -------------------------
 #P B3LYP/6-311+g(d) force
 -------------------------

 -----
 DPGEN
 -----
 Symbolic Z-matrix:
 Charge =  0 Multiplicity = 2

                         Standard orientation:
 ---------------------------------------------------------------------
 Center     Atomic      Atomic             Coordinates (Angstroms)
 Number     Number       Type             X           Y           Z
 ---------------------------------------------------------------------
      1         11           0       -1.380064    0.212417    2.127340
      2         11           0       -1.347705   -2.550743   -0.518662
      3         11           0        0.972834   -1.351213    1.427093
      4         11           0        3.467013   -0.089557   -0.306183
      5         11           0        0.211607   -0.230917   -2.085762
      6         11           0       -2.448407    1.202362   -0.904525
      7         11           0        0.524723    2.807652    0.260701
 ---------------------------------------------------------------------

 SCF Done:  E(UB3LYP) =  -1136.12761358     A.U. after   21 cycles

 The electronic state is 2-A.
 Alpha  occ. eigenvalues --  -38.44624 -38.44501 -38.43663 -38.43654 -38.43513
 Alpha  occ. eigenvalues --  -38.43406 -38.43347  -2.20546  -2.20417  -2.19530
 Alpha  occ. eigenvalues --   -2.19443  -2.19364  -2.19310  -2.19214  -1.14303
 Alpha  occ. eigenvalues --   -1.14160  -1.14121  -1.14098  -1.14060  -1.14032
 Alpha  occ. eigenvalues --   -1.13230  -1.13193  -1.13142  -1.13130  -1.13105
 Alpha  occ. eigenvalues --   -1.13088  -1.13059  -1.13026  -1.13020  -1.12975
 Alpha  occ. eigenvalues --   -1.12947  -1.12922  -1.12905  -1.12843  -1.12837
 Alpha  occ. eigenvalues --   -0.18726  -0.12565  -0.12386  -0.12010
 Alpha virt. eigenvalues --   -0.05387  -0.04757  -0.04237  -0.03762  -0.03396
 Alpha virt. eigenvalues --   -0.03386  -0.01202  -0.00878  -0.00468   0.00223
 Alpha virt. eigenvalues --    0.00371   0.00425   0.00549   0.00824   0.00908

  Beta  occ. eigenvalues --  -38.44538 -38.44420 -38.43652 -38.43649 -38.43515
  Beta  occ. eigenvalues --  -38.43365 -38.43336  -2.20388  -2.20269  -2.19506
  Beta  occ. eigenvalues --   -2.19440  -2.19314  -2.19293  -2.19198  -1.14182
  Beta  occ. eigenvalues --   -1.14056  -1.14011  -1.14002  -1.13955  -1.13916
  Beta  occ. eigenvalues --   -1.13197  -1.13176  -1.13128  -1.13115  -1.13100
  Beta  occ. eigenvalues --   -1.13059  -1.13033  -1.13007  -1.12978  -1.12967
  Beta  occ. eigenvalues --   -1.12948  -1.12889  -1.12875  -1.12832  -1.12816
  Beta  occ. eigenvalues --   -0.17857  -0.12301  -0.11804
  Beta virt. eigenvalues --   -0.08337  -0.05339  -0.04488  -0.03822  -0.03126
  Beta virt. eigenvalues --   -0.02822  -0.02597  -0.01137  -0.00820  -0.00190
  Beta virt. eigenvalues --    0.00262   0.00390   0.00439   0.00692   0.00891

 Mulliken charges and spin densities:
               1          2
     1  Na   0.359617   0.382682
     2  Na  -0.080371  -0.100128
     3  Na  -0.182562   0.283463
     4  Na   0.216977  -0.119052
     5  Na  -0.016849   0.658950
     6  Na   0.132753  -0.031232
     7  Na  -0.429566  -0.074684
 Sum of Mulliken charges =  -0.00000   1.00000

 Dipole moment (field-independent basis, Debye):
    X=             -0.3129    Y=              0.1970    Z=             -0.1970  Tot=              0.4189
 Quadrupole moment (field-independent basis, Debye-Ang):
   XX=            -62.5639   YY=            -69.2766   ZZ=            -64.7788
   XY=              1.3834   XZ=             -0.1258   YZ=              1.7574

 Normal termination of Gaussian 16 at Sun Dec  3 12:00:29 2023.
