 Gaussian 16, Revision B.01,
 Gaussian 16:  ES64L-G16RevB.01 20-Dec-2017

 -------------------------
 #P B3LYP/6-311+g(d) force
 -------------------------

 -----
 DPGEN
 -----
 Symbolic Z-matrix:
 Charge =  0 Multiplicity = 2

                         Standard orientation:
 ---------------------------------------------------------------------
 Center     Atomic      Atomic             Coordinates (Angstroms)
 Number     Number       Type             X           Y           Z
 ---------------------------------------------------------------------
      1         11           0        2.587909    0.851403   -0.294930
      2         11           0        2.064525   -2.608202   -0.656293
      3         11           0       -3.533917   -1.478519   -0.806399
      4         11           0       -0.187805   -0.253333   -1.013787
      5         11           0        1.085098   -0.425923    2.230650
      6         11           0       -2.044029    0.839425    1.620313
      7         11           0        0.028219    3.075150   -1.079553
 ---------------------------------------------------------------------

 SCF Done:  E(UB3LYP) =  -1136.12552221     A.U. after   22 cycles

 The electronic state is 2-A.
 Alpha  occ. eigenvalues --  -38.44424 -38.44151 -38.44148 -38.43888 -38.43772
 Alpha  occ. eigenvalues --  -38.42952 -38.42912  -2.20322  -2.19981  -2.19920
 Alpha  occ. eigenvalues --   -2.19814  -2.19603  -2.18986  -2.18735  -1.14001
 Alpha  occ. eigenvalues --   -1.13986  -1.13909  -1.13679  -1.13630  -1.13597
 Alpha  occ. eigenvalues --   -1.13589  -1.13577  -1.13545  -1.13538  -1.13508
 Alpha  occ. eigenvalues --   -1.13381  -1.13293  -1.13256  -1.13219  -1.12700
 Alpha  occ. eigenvalues --   -1.12630  -1.12624  -1.12408  -1.12379  -1.12369
 Alpha  occ. eigenvalues --   -0.18401  -0.13030  -0.11677  -0.11580
 Alpha virt. eigenvalues --   -0.05979  -0.05039  -0.04449  -0.03374  -0.02746
 Alpha virt. eigenvalues --   -0.02668  -0.01650  -0.01229  -0.00577  -0.00006
 Alpha virt. eigenvalues --    0.00093   0.00302   0.00344   0.00701   0.00880

  Beta  occ. eigenvalues --  -38.44331 -38.44135 -38.44112 -38.43880 -38.43760
  Beta  occ. eigenvalues --  -38.42918 -38.42901  -2.20152  -2.19919  -2.19891
  Beta  occ. eigenvalues --   -2.19803  -2.19582  -2.18929  -2.18716  -1.13891
  Beta  occ. eigenvalues --   -1.13869  -1.13779  -1.13633  -1.13579  -1.13565
  Beta  occ. eigenvalues --   -1.13558  -1.13550  -1.13536  -1.13514  -1.13474
  Beta  occ. eigenvalues --   -1.13378  -1.13271  -1.13239  -1.13207  -1.12642
  Beta  occ. eigenvalues --   -1.12590  -1.12580  -1.12388  -1.12364  -1.12359
  Beta  occ. eigenvalues --   -0.17666  -0.12841  -0.11406
  Beta virt. eigenvalues --   -0.07649  -0.05701  -0.04901  -0.04065  -0.02898
  Beta virt. eigenvalues --   -0.02250  -0.01931  -0.01571  -0.01077  -0.00246
  Beta virt. eigenvalues --    0.00028   0.00227   0.00355   0.00468   0.00733

 Mulliken charges and spin densities:
               1          2
     1  Na   1.674343   0.179820
     2  Na   0.089699   0.020124
     3  Na  -0.268803   0.121698
     4  Na  -1.098883   0.161423
     5  Na  -0.579210   0.291011
     6  Na   0.455960   0.209154
     7  Na  -0.273105   0.016770
 Sum of Mulliken charges =  -0.00000   1.00000

 Dipole moment (field-independent basis, Debye):
    X=              0.0863    Y=             -0.3879    Z=              0.3205  Tot=              0.5105
 Quadrupole moment (field-independent basis, Debye-Ang):
   XX=            -58.6217   YY=            -65.6388   ZZ=            -68.5181
   XY=             -1.6163   XZ=              0.6678   YZ=              2.5576

 Normal termination of Gaussian 16 at Wed Dec  6 00:08:18 2023.
