 Gaussian 16, Revision B.01,
 Gaussian 16:  ES64L-G16RevB.01 20-Dec-2017

 -------------------------
 #P B3LYP/6-311+g(d) force
 -------------------------

 -----
 DPGEN
 -----
 Symbolic Z-matrix:
 Charge =  0 Multiplicity = 2

                         Standard orientation:
 ---------------------------------------------------------------------
 Center     Atomic      Atomic             Coordinates (Angstroms)
 Number     Number       Type             X           Y           Z
 ---------------------------------------------------------------------
      1         11           0       -1.160608   -1.243279   -1.659435
      2         11           0        2.510247   -1.278215   -1.176238
      3         11           0        3.328986    0.214353    1.472361
      4         11           0       -0.226063   -0.064867    1.701722
      5         11           0       -2.856434    1.786178   -0.207781
      6         11           0       -2.826477   -1.335713    0.966980
      7         11           0        1.230349    1.921543   -1.097610
 ---------------------------------------------------------------------

 SCF Done:  E(UB3LYP) =  -1136.11807959     A.U. after   28 cycles

 The electronic state is 2-A.
 Alpha  occ. eigenvalues --  -38.45334 -38.44569 -38.44401 -38.44135 -38.43713
 Alpha  occ. eigenvalues --  -38.43400 -38.43095  -2.21154  -2.20384  -2.20256
 Alpha  occ. eigenvalues --   -2.20076  -2.19553  -2.19292  -2.18974  -1.14818
 Alpha  occ. eigenvalues --   -1.14791  -1.14783  -1.14075  -1.14034  -1.14006
 Alpha  occ. eigenvalues --   -1.13925  -1.13919  -1.13884  -1.13799  -1.13726
 Alpha  occ. eigenvalues --   -1.13695  -1.13239  -1.13197  -1.13194  -1.12995
 Alpha  occ. eigenvalues --   -1.12965  -1.12900  -1.12668  -1.12612  -1.12605
 Alpha  occ. eigenvalues --   -0.18483  -0.14535  -0.11545  -0.10598
 Alpha virt. eigenvalues --   -0.06715  -0.05577  -0.05063  -0.03329  -0.02588
 Alpha virt. eigenvalues --   -0.02362  -0.02169  -0.01155  -0.00697  -0.00293
 Alpha virt. eigenvalues --    0.00117   0.00213   0.00308   0.00413   0.00608

  Beta  occ. eigenvalues --  -38.45278 -38.44531 -38.44384 -38.44106 -38.43718
  Beta  occ. eigenvalues --  -38.43386 -38.43057  -2.21051  -2.20314  -2.20223
  Beta  occ. eigenvalues --   -2.20024  -2.19562  -2.19271  -2.18907  -1.14737
  Beta  occ. eigenvalues --   -1.14726  -1.14708  -1.14028  -1.13981  -1.13957
  Beta  occ. eigenvalues --   -1.13900  -1.13889  -1.13865  -1.13761  -1.13685
  Beta  occ. eigenvalues --   -1.13650  -1.13241  -1.13204  -1.13199  -1.12958
  Beta  occ. eigenvalues --   -1.12941  -1.12891  -1.12619  -1.12563  -1.12548
  Beta  occ. eigenvalues --   -0.17801  -0.14367  -0.10410
  Beta virt. eigenvalues --   -0.07716  -0.06411  -0.05014  -0.04862  -0.02889
  Beta virt. eigenvalues --   -0.02253  -0.02045  -0.01635  -0.00684  -0.00579
  Beta virt. eigenvalues --   -0.00103   0.00202   0.00310   0.00375   0.00498

 Mulliken charges and spin densities:
               1          2
     1  Na  -0.505584   0.319717
     2  Na   0.088634   0.015339
     3  Na   0.373708  -0.091102
     4  Na  -1.241784   0.296467
     5  Na  -0.147913   0.263820
     6  Na   1.602692  -0.069837
     7  Na  -0.169754   0.265596
 Sum of Mulliken charges =  -0.00000   1.00000

 Dipole moment (field-independent basis, Debye):
    X=             -0.3249    Y=              0.4827    Z=             -0.3811  Tot=              0.6955
 Quadrupole moment (field-independent basis, Debye-Ang):
   XX=            -49.1192   YY=            -64.8372   ZZ=            -81.7744
   XY=             -1.4627   XZ=             -0.7847   YZ=             -0.2897

 Normal termination of Gaussian 16 at Tue Dec  5 23:55:55 2023.
