 Gaussian 16, Revision B.01,
 Gaussian 16:  ES64L-G16RevB.01 20-Dec-2017

 -------------------------
 #P B3LYP/6-311+g(d) force
 -------------------------

 -----
 DPGEN
 -----
 Symbolic Z-matrix:
 Charge =  0 Multiplicity = 2

                         Standard orientation:
 ---------------------------------------------------------------------
 Center     Atomic      Atomic             Coordinates (Angstroms)
 Number     Number       Type             X           Y           Z
 ---------------------------------------------------------------------
      1         11           0       -0.129038   -2.454442    0.120143
      2         11           0        3.485612   -2.549283   -0.451129
      3         11           0        2.039144    3.332121   -0.093920
      4         11           0       -5.991035   -0.022210   -0.673557
      5         11           0       -0.274950    1.223381   -0.655092
      6         11           0       -3.670830    0.019308    1.266329
      7         11           0        4.541096    0.451126    0.487226
 ---------------------------------------------------------------------

 SCF Done:  E(UB3LYP) =  -1136.11078622     A.U. after   20 cycles

 The electronic state is 2-A.
 Alpha  occ. eigenvalues --  -38.45226 -38.45050 -38.44700 -38.44652 -38.44317
 Alpha  occ. eigenvalues --  -38.43581 -38.43016  -2.21013  -2.20866  -2.20472
 Alpha  occ. eigenvalues --   -2.20448  -2.20122  -2.19365  -2.18815  -1.14679
 Alpha  occ. eigenvalues --   -1.14661  -1.14620  -1.14559  -1.14497  -1.14495
 Alpha  occ. eigenvalues --   -1.14145  -1.14134  -1.14113  -1.14112  -1.14088
 Alpha  occ. eigenvalues --   -1.14071  -1.13802  -1.13780  -1.13749  -1.13044
 Alpha  occ. eigenvalues --   -1.13038  -1.13004  -1.12490  -1.12478  -1.12460
 Alpha  occ. eigenvalues --   -0.15982  -0.14169  -0.11818  -0.11766
 Alpha virt. eigenvalues --   -0.06300  -0.05635  -0.04759  -0.03467  -0.03138
 Alpha virt. eigenvalues --   -0.02545  -0.01793  -0.01547  -0.01303  -0.00831
 Alpha virt. eigenvalues --   -0.00528  -0.00360   0.00165   0.00272   0.00605

  Beta  occ. eigenvalues --  -38.45149 -38.44987 -38.44659 -38.44641 -38.44281
  Beta  occ. eigenvalues --  -38.43582 -38.43020  -2.20871  -2.20749  -2.20468
  Beta  occ. eigenvalues --   -2.20363  -2.20056  -2.19369  -2.18823  -1.14583
  Beta  occ. eigenvalues --   -1.14568  -1.14516  -1.14486  -1.14418  -1.14414
  Beta  occ. eigenvalues --   -1.14131  -1.14121  -1.14071  -1.14067  -1.14056
  Beta  occ. eigenvalues --   -1.14002  -1.13758  -1.13735  -1.13698  -1.13045
  Beta  occ. eigenvalues --   -1.13040  -1.12994  -1.12493  -1.12484  -1.12460
  Beta  occ. eigenvalues --   -0.15234  -0.13402  -0.11728
  Beta virt. eigenvalues --   -0.08457  -0.05805  -0.05123  -0.04433  -0.03238
  Beta virt. eigenvalues --   -0.02951  -0.02260  -0.01583  -0.01280  -0.00975
  Beta virt. eigenvalues --   -0.00619  -0.00328  -0.00167   0.00312   0.00385

 Mulliken charges and spin densities:
               1          2
     1  Na  -0.008451   0.152286
     2  Na   0.198801   0.036256
     3  Na   0.798494   0.084790
     4  Na   0.171564   0.254780
     5  Na  -1.167369   0.019916
     6  Na   0.103888   0.019567
     7  Na  -0.096927   0.432405
 Sum of Mulliken charges =  -0.00000   1.00000

 Dipole moment (field-independent basis, Debye):
    X=             -1.1592    Y=             -0.2877    Z=             -0.0429  Tot=              1.1951
 Quadrupole moment (field-independent basis, Debye-Ang):
   XX=            -54.9358   YY=            -72.1256   ZZ=            -68.3494
   XY=              3.3791   XZ=              5.3556   YZ=              1.5017

 Normal termination of Gaussian 16 at Mon Dec  4 04:25:58 2023.
