 Gaussian 16, Revision B.01,
 Gaussian 16:  ES64L-G16RevB.01 20-Dec-2017

 -------------------------
 #P B3LYP/6-311+g(d) force
 -------------------------

 -----
 DPGEN
 -----
 Symbolic Z-matrix:
 Charge =  0 Multiplicity = 2

                         Standard orientation:
 ---------------------------------------------------------------------
 Center     Atomic      Atomic             Coordinates (Angstroms)
 Number     Number       Type             X           Y           Z
 ---------------------------------------------------------------------
      1         11           0       -3.992015   -0.921325   -0.272547
      2         11           0        1.446613   -2.574512   -0.289539
      3         11           0        0.333495   -0.673670    2.291978
      4         11           0        3.050141   -0.065131   -0.499064
      5         11           0       -0.386747   -0.175898   -1.397150
      6         11           0        1.496620    2.610910   -0.037055
      7         11           0       -1.948108    1.799626    0.203375
 ---------------------------------------------------------------------

 SCF Done:  E(UB3LYP) =  -1136.12277323     A.U. after   22 cycles

 The electronic state is 2-A.
 Alpha  occ. eigenvalues --  -38.45031 -38.44403 -38.44066 -38.43973 -38.43832
 Alpha  occ. eigenvalues --  -38.43131 -38.42696  -2.20792  -2.20323  -2.20022
 Alpha  occ. eigenvalues --   -2.19823  -2.19716  -2.19048  -2.18554  -1.14464
 Alpha  occ. eigenvalues --   -1.14455  -1.14419  -1.14014  -1.13985  -1.13966
 Alpha  occ. eigenvalues --   -1.13798  -1.13707  -1.13612  -1.13470  -1.13449
 Alpha  occ. eigenvalues --   -1.13440  -1.13412  -1.13374  -1.13296  -1.12728
 Alpha  occ. eigenvalues --   -1.12708  -1.12677  -1.12247  -1.12205  -1.12194
 Alpha  occ. eigenvalues --   -0.18521  -0.13668  -0.11859  -0.10881
 Alpha virt. eigenvalues --   -0.06783  -0.05007  -0.04053  -0.03391  -0.02942
 Alpha virt. eigenvalues --   -0.02439  -0.02372  -0.01187  -0.00371  -0.00185
 Alpha virt. eigenvalues --   -0.00078   0.00189   0.00634   0.00701   0.00818

  Beta  occ. eigenvalues --  -38.45030 -38.44383 -38.44034 -38.43857 -38.43827
  Beta  occ. eigenvalues --  -38.43123 -38.42694  -2.20789  -2.20289  -2.19964
  Beta  occ. eigenvalues --   -2.19708  -2.19608  -2.19040  -2.18553  -1.14461
  Beta  occ. eigenvalues --   -1.14450  -1.14417  -1.13994  -1.13965  -1.13921
  Beta  occ. eigenvalues --   -1.13755  -1.13666  -1.13569  -1.13400  -1.13353
  Beta  occ. eigenvalues --   -1.13326  -1.13304  -1.13292  -1.13284  -1.12723
  Beta  occ. eigenvalues --   -1.12707  -1.12636  -1.12247  -1.12202  -1.12180
  Beta  occ. eigenvalues --   -0.17826  -0.13457  -0.11651
  Beta virt. eigenvalues --   -0.06974  -0.06587  -0.04921  -0.04012  -0.02760
  Beta virt. eigenvalues --   -0.02404  -0.01900  -0.01558  -0.01140  -0.00361
  Beta virt. eigenvalues --   -0.00071   0.00049   0.00240   0.00742   0.00769

 Mulliken charges and spin densities:
               1          2
     1  Na   0.222746   0.057171
     2  Na   0.418636   0.208821
     3  Na  -0.554592   0.552359
     4  Na   0.284535   0.111276
     5  Na  -0.285773  -0.078712
     6  Na  -0.203110   0.039070
     7  Na   0.117557   0.110015
 Sum of Mulliken charges =  -0.00000   1.00000

 Dipole moment (field-independent basis, Debye):
    X=             -0.8782    Y=             -0.4304    Z=              0.2242  Tot=              1.0034
 Quadrupole moment (field-independent basis, Debye-Ang):
   XX=            -52.2385   YY=            -68.5414   ZZ=            -73.4589
   XY=              1.9749   XZ=             -0.8783   YZ=              1.3426

 Normal termination of Gaussian 16 at Thu Dec  7 20:14:56 2023.
