 Gaussian 16, Revision B.01,
 Gaussian 16:  ES64L-G16RevB.01 20-Dec-2017

 -------------------------
 #P B3LYP/6-311+g(d) force
 -------------------------

 -----
 DPGEN
 -----
 Symbolic Z-matrix:
 Charge =  0 Multiplicity = 2

                         Standard orientation:
 ---------------------------------------------------------------------
 Center     Atomic      Atomic             Coordinates (Angstroms)
 Number     Number       Type             X           Y           Z
 ---------------------------------------------------------------------
      1         11           0       -0.440479    0.382442    2.101565
      2         11           0       -3.091423   -1.318954   -0.088648
      3         11           0        1.972498    1.959962    0.307853
      4         11           0       -1.365376    2.892320   -0.533247
      5         11           0       -0.297333   -0.030008   -1.553175
      6         11           0        2.998710   -1.068977   -0.393877
      7         11           0        0.223402   -2.816785    0.159530
 ---------------------------------------------------------------------

 SCF Done:  E(UB3LYP) =  -1136.13657533     A.U. after   20 cycles

 The electronic state is 2-A.
 Alpha  occ. eigenvalues --  -38.44184 -38.43891 -38.43710 -38.43664 -38.43598
 Alpha  occ. eigenvalues --  -38.43365 -38.43132  -2.19979  -2.19715  -2.19565
 Alpha  occ. eigenvalues --   -2.19537  -2.19472  -2.19214  -2.19106  -1.13658
 Alpha  occ. eigenvalues --   -1.13633  -1.13621  -1.13406  -1.13363  -1.13351
 Alpha  occ. eigenvalues --   -1.13268  -1.13239  -1.13221  -1.13188  -1.13170
 Alpha  occ. eigenvalues --   -1.13160  -1.13153  -1.13124  -1.13100  -1.12874
 Alpha  occ. eigenvalues --   -1.12866  -1.12861  -1.12791  -1.12744  -1.12728
 Alpha  occ. eigenvalues --   -0.18477  -0.12786  -0.12641  -0.10736
 Alpha virt. eigenvalues --   -0.05795  -0.05139  -0.04706  -0.03136  -0.02937
 Alpha virt. eigenvalues --   -0.02552  -0.01539  -0.01367  -0.00370  -0.00285
 Alpha virt. eigenvalues --   -0.00001   0.00343   0.00799   0.00827   0.00908

  Beta  occ. eigenvalues --  -38.44184 -38.43876 -38.43706 -38.43589 -38.43567
  Beta  occ. eigenvalues --  -38.43363 -38.43076  -2.19981  -2.19692  -2.19559
  Beta  occ. eigenvalues --   -2.19459  -2.19359  -2.19211  -2.19003  -1.13648
  Beta  occ. eigenvalues --   -1.13633  -1.13621  -1.13380  -1.13344  -1.13331
  Beta  occ. eigenvalues --   -1.13262  -1.13216  -1.13185  -1.13166  -1.13120
  Beta  occ. eigenvalues --   -1.13098  -1.13073  -1.13038  -1.13014  -1.12871
  Beta  occ. eigenvalues --   -1.12862  -1.12851  -1.12718  -1.12668  -1.12654
  Beta  occ. eigenvalues --   -0.17771  -0.12574  -0.12409
  Beta virt. eigenvalues --   -0.06815  -0.05786  -0.05035  -0.04659  -0.02358
  Beta virt. eigenvalues --   -0.02264  -0.01554  -0.01434  -0.01268  -0.00368
  Beta virt. eigenvalues --   -0.00305   0.00139   0.00380   0.00802   0.00859

 Mulliken charges and spin densities:
               1          2
     1  Na  -0.364728   0.554865
     2  Na   0.089917  -0.061418
     3  Na   0.277429   0.157016
     4  Na   0.116618  -0.029348
     5  Na  -0.206845   0.320596
     6  Na  -0.049030  -0.029805
     7  Na   0.136638   0.088093
 Sum of Mulliken charges =  -0.00000   1.00000

 Dipole moment (field-independent basis, Debye):
    X=             -0.5538    Y=              0.0428    Z=              0.1268  Tot=              0.5698
 Quadrupole moment (field-independent basis, Debye-Ang):
   XX=            -57.9006   YY=            -60.8600   ZZ=            -74.5129
   XY=             -0.0249   XZ=              0.0335   YZ=             -0.8682

 Normal termination of Gaussian 16 at Thu Dec  7 02:13:17 2023.
