 Gaussian 16, Revision B.01,
 Gaussian 16:  ES64L-G16RevB.01 20-Dec-2017

 -------------------------
 #P B3LYP/6-311+g(d) force
 -------------------------

 -----
 DPGEN
 -----
 Symbolic Z-matrix:
 Charge =  0 Multiplicity = 2

                         Standard orientation:
 ---------------------------------------------------------------------
 Center     Atomic      Atomic             Coordinates (Angstroms)
 Number     Number       Type             X           Y           Z
 ---------------------------------------------------------------------
      1         11           0       -1.221371    0.259914    1.775723
      2         11           0        0.431407    3.149970    0.080849
      3         11           0       -3.500428   -1.682016   -0.883675
      4         11           0        3.390130   -2.190385   -0.521280
      5         11           0        3.945100    1.595239   -0.365937
      6         11           0        0.162700   -2.798076    0.586527
      7         11           0       -3.207539    1.665354   -0.672208
 ---------------------------------------------------------------------

 SCF Done:  E(UB3LYP) =  -1136.11550344     A.U. after   21 cycles

 The electronic state is 2-A.
 Alpha  occ. eigenvalues --  -38.44894 -38.44682 -38.44650 -38.44596 -38.44560
 Alpha  occ. eigenvalues --  -38.43993 -38.43585  -2.20705  -2.20482  -2.20420
 Alpha  occ. eigenvalues --   -2.20395  -2.20302  -2.19744  -2.19377  -1.14388
 Alpha  occ. eigenvalues --   -1.14377  -1.14332  -1.14148  -1.14118  -1.14104
 Alpha  occ. eigenvalues --   -1.14097  -1.14079  -1.14070  -1.14061  -1.14037
 Alpha  occ. eigenvalues --   -1.14035  -1.13979  -1.13952  -1.13929  -1.13433
 Alpha  occ. eigenvalues --   -1.13420  -1.13368  -1.13052  -1.13046  -1.13003
 Alpha  occ. eigenvalues --   -0.16626  -0.13507  -0.12343  -0.10751
 Alpha virt. eigenvalues --   -0.07110  -0.06023  -0.04049  -0.03699  -0.03290
 Alpha virt. eigenvalues --   -0.02097  -0.01908  -0.01699  -0.01522  -0.00896
 Alpha virt. eigenvalues --   -0.00210  -0.00051   0.00234   0.00452   0.00608

  Beta  occ. eigenvalues --  -38.44864 -38.44651 -38.44622 -38.44541 -38.44527
  Beta  occ. eigenvalues --  -38.43989 -38.43560  -2.20655  -2.20400  -2.20373
  Beta  occ. eigenvalues --   -2.20320  -2.20241  -2.19740  -2.19333  -1.14358
  Beta  occ. eigenvalues --   -1.14348  -1.14259  -1.14084  -1.14076  -1.14065
  Beta  occ. eigenvalues --   -1.14047  -1.14029  -1.14027  -1.14014  -1.14002
  Beta  occ. eigenvalues --   -1.13956  -1.13937  -1.13913  -1.13884  -1.13429
  Beta  occ. eigenvalues --   -1.13416  -1.13360  -1.13017  -1.13011  -1.12979
  Beta  occ. eigenvalues --   -0.15967  -0.12955  -0.12166
  Beta virt. eigenvalues --   -0.07308  -0.07041  -0.05698  -0.03566  -0.03400
  Beta virt. eigenvalues --   -0.02752  -0.01877  -0.01712  -0.01583  -0.01115
  Beta virt. eigenvalues --   -0.00862  -0.00106   0.00206   0.00470   0.00534

 Mulliken charges and spin densities:
               1          2
     1  Na   0.521744   0.164374
     2  Na  -0.093582  -0.043170
     3  Na   0.080065   0.298065
     4  Na   0.168222   0.047164
     5  Na  -0.175793   0.203196
     6  Na  -0.504719   0.092595
     7  Na   0.004063   0.237775
 Sum of Mulliken charges =  -0.00000   1.00000

 Dipole moment (field-independent basis, Debye):
    X=             -0.6710    Y=              0.0871    Z=             -0.1682  Tot=              0.6972
 Quadrupole moment (field-independent basis, Debye-Ang):
   XX=            -64.6829   YY=            -63.5785   ZZ=            -71.5211
   XY=             -1.2337   XZ=             -0.8537   YZ=              0.5256

 Normal termination of Gaussian 16 at Sun Dec  3 14:20:26 2023.
