 Gaussian 16, Revision B.01,
 Gaussian 16:  ES64L-G16RevB.01 20-Dec-2017

 -------------------------
 #P B3LYP/6-311+g(d) force
 -------------------------

 -----
 DPGEN
 -----
 Symbolic Z-matrix:
 Charge =  0 Multiplicity = 2

                         Standard orientation:
 ---------------------------------------------------------------------
 Center     Atomic      Atomic             Coordinates (Angstroms)
 Number     Number       Type             X           Y           Z
 ---------------------------------------------------------------------
      1         11           0        3.032281   -1.194662    0.469394
      2         11           0        0.128344    0.066027    2.679064
      3         11           0       -1.735031    2.766762   -0.556922
      4         11           0       -3.150066   -0.862923    0.068065
      5         11           0        1.098861   -0.550441   -2.466400
      6         11           0       -0.839053   -2.878083   -0.205824
      7         11           0        1.464665    2.653319    0.012624
 ---------------------------------------------------------------------

 SCF Done:  E(UB3LYP) =  -1136.12231354     A.U. after   18 cycles

 The electronic state is 2-A.
 Alpha  occ. eigenvalues --  -38.45421 -38.44938 -38.44170 -38.43898 -38.43803
 Alpha  occ. eigenvalues --  -38.43687 -38.43556  -2.21197  -2.20723  -2.19934
 Alpha  occ. eigenvalues --   -2.19690  -2.19616  -2.19469  -2.19358  -1.14836
 Alpha  occ. eigenvalues --   -1.14827  -1.14817  -1.14372  -1.14357  -1.14352
 Alpha  occ. eigenvalues --   -1.13605  -1.13595  -1.13589  -1.13380  -1.13363
 Alpha  occ. eigenvalues --   -1.13338  -1.13329  -1.13283  -1.13254  -1.13138
 Alpha  occ. eigenvalues --   -1.13120  -1.13109  -1.13019  -1.13011  -1.12992
 Alpha  occ. eigenvalues --   -0.17079  -0.12426  -0.12195  -0.11685
 Alpha virt. eigenvalues --   -0.05635  -0.05491  -0.05021  -0.03594  -0.03433
 Alpha virt. eigenvalues --   -0.03291  -0.01171  -0.00913  -0.00598  -0.00502
 Alpha virt. eigenvalues --   -0.00357   0.00060   0.00394   0.00600   0.00709

  Beta  occ. eigenvalues --  -38.45315 -38.44868 -38.44172 -38.43898 -38.43801
  Beta  occ. eigenvalues --  -38.43681 -38.43557  -2.21000  -2.20591  -2.19941
  Beta  occ. eigenvalues --   -2.19691  -2.19615  -2.19457  -2.19361  -1.14705
  Beta  occ. eigenvalues --   -1.14691  -1.14676  -1.14282  -1.14266  -1.14260
  Beta  occ. eigenvalues --   -1.13607  -1.13601  -1.13575  -1.13381  -1.13348
  Beta  occ. eigenvalues --   -1.13340  -1.13332  -1.13266  -1.13256  -1.13124
  Beta  occ. eigenvalues --   -1.13114  -1.13101  -1.13017  -1.13010  -1.12996
  Beta  occ. eigenvalues --   -0.16345  -0.12318  -0.12033
  Beta virt. eigenvalues --   -0.07805  -0.05603  -0.05013  -0.04747  -0.03119
  Beta virt. eigenvalues --   -0.02739  -0.02547  -0.01119  -0.00855  -0.00619
  Beta virt. eigenvalues --   -0.00390  -0.00110   0.00351   0.00513   0.00739

 Mulliken charges and spin densities:
               1          2
     1  Na   0.210412  -0.068588
     2  Na  -0.092920   0.651143
     3  Na  -0.008182  -0.019931
     4  Na  -0.038603  -0.043596
     5  Na   0.030342   0.451943
     6  Na  -0.000572   0.002538
     7  Na  -0.100478   0.026491
 Sum of Mulliken charges =  -0.00000   1.00000

 Dipole moment (field-independent basis, Debye):
    X=              0.5114    Y=             -0.1319    Z=              0.0649  Tot=              0.5321
 Quadrupole moment (field-independent basis, Debye-Ang):
   XX=            -65.0183   YY=            -69.4504   ZZ=            -65.8178
   XY=             -1.5748   XZ=              1.0086   YZ=             -0.6503

 Normal termination of Gaussian 16 at Sun Dec  3 17:27:34 2023.
