 Gaussian 16, Revision B.01,
 Gaussian 16:  ES64L-G16RevB.01 20-Dec-2017

 -------------------------
 #P B3LYP/6-311+g(d) force
 -------------------------

 -----
 DPGEN
 -----
 Symbolic Z-matrix:
 Charge =  0 Multiplicity = 2

                         Standard orientation:
 ---------------------------------------------------------------------
 Center     Atomic      Atomic             Coordinates (Angstroms)
 Number     Number       Type             X           Y           Z
 ---------------------------------------------------------------------
      1         11           0        0.231881   -0.188453    1.569162
      2         11           0        4.221989    0.319657    1.304598
      3         11           0        0.862400   -2.427619   -1.305920
      4         11           0        1.354405    1.130946   -1.564480
      5         11           0       -1.789729    2.627233   -0.215992
      6         11           0       -3.221084   -0.981049    1.704000
      7         11           0       -1.659862   -0.480717   -1.491369
 ---------------------------------------------------------------------

 SCF Done:  E(UB3LYP) =  -1136.11970921     A.U. after   48 cycles

 The electronic state is 2-A.
 Alpha  occ. eigenvalues --  -38.44923 -38.44708 -38.44540 -38.44139 -38.43893
 Alpha  occ. eigenvalues --  -38.43110 -38.42996  -2.20744  -2.20504  -2.20384
 Alpha  occ. eigenvalues --   -2.19979  -2.19621  -2.18956  -2.18942  -1.14415
 Alpha  occ. eigenvalues --   -1.14395  -1.14346  -1.14168  -1.14157  -1.14114
 Alpha  occ. eigenvalues --   -1.14091  -1.14027  -1.13996  -1.13691  -1.13662
 Alpha  occ. eigenvalues --   -1.13568  -1.13299  -1.13294  -1.13244  -1.12690
 Alpha  occ. eigenvalues --   -1.12645  -1.12617  -1.12593  -1.12588  -1.12510
 Alpha  occ. eigenvalues --   -0.18263  -0.12754  -0.12342  -0.10942
 Alpha virt. eigenvalues --   -0.06233  -0.05439  -0.04701  -0.03313  -0.02776
 Alpha virt. eigenvalues --   -0.02502  -0.02061  -0.01430  -0.01007  -0.00097
 Alpha virt. eigenvalues --   -0.00014   0.00110   0.00282   0.00574   0.00606

  Beta  occ. eigenvalues --  -38.44851 -38.44657 -38.44507 -38.44112 -38.43896
  Beta  occ. eigenvalues --  -38.43097 -38.42983  -2.20613  -2.20410  -2.20326
  Beta  occ. eigenvalues --   -2.19932  -2.19626  -2.18933  -2.18922  -1.14319
  Beta  occ. eigenvalues --   -1.14305  -1.14250  -1.14099  -1.14087  -1.14057
  Beta  occ. eigenvalues --   -1.14053  -1.13970  -1.13953  -1.13650  -1.13623
  Beta  occ. eigenvalues --   -1.13531  -1.13301  -1.13298  -1.13247  -1.12672
  Beta  occ. eigenvalues --   -1.12614  -1.12596  -1.12574  -1.12559  -1.12503
  Beta  occ. eigenvalues --   -0.17409  -0.12521  -0.10801
  Beta virt. eigenvalues --   -0.08364  -0.06038  -0.04894  -0.04412  -0.02769
  Beta virt. eigenvalues --   -0.02289  -0.02190  -0.01833  -0.01090  -0.00805
  Beta virt. eigenvalues --    0.00002   0.00146   0.00167   0.00346   0.00647

 Mulliken charges and spin densities:
               1          2
     1  Na  -0.826210   0.260254
     2  Na   0.153395  -0.030234
     3  Na  -0.010645   0.010530
     4  Na   0.001335   0.163835
     5  Na  -0.028480   0.328740
     6  Na   0.325928   0.046609
     7  Na   0.384678   0.220264
 Sum of Mulliken charges =  -0.00000   1.00000

 Dipole moment (field-independent basis, Debye):
    X=             -0.9039    Y=              0.1048    Z=             -0.1966  Tot=              0.9310
 Quadrupole moment (field-independent basis, Debye-Ang):
   XX=            -58.4994   YY=            -64.3018   ZZ=            -73.0064
   XY=             -1.5260   XZ=             -3.3733   YZ=             -6.6373

 Normal termination of Gaussian 16 at Thu Dec  7 18:48:28 2023.
