 Gaussian 16, Revision B.01,
 Gaussian 16:  ES64L-G16RevB.01 20-Dec-2017

 -------------------------
 #P B3LYP/6-311+g(d) force
 -------------------------

 -----
 DPGEN
 -----
 Symbolic Z-matrix:
 Charge =  0 Multiplicity = 2

                         Standard orientation:
 ---------------------------------------------------------------------
 Center     Atomic      Atomic             Coordinates (Angstroms)
 Number     Number       Type             X           Y           Z
 ---------------------------------------------------------------------
      1         11           0       -1.087809   -2.677075    0.751125
      2         11           0       -0.188107    0.120424    1.916396
      3         11           0       -3.536277    0.223836   -0.028096
      4         11           0       -0.631203    3.051310   -0.663495
      5         11           0       -0.377706   -0.512854   -1.903851
      6         11           0        2.831924   -1.583658   -0.990582
      7         11           0        2.989179    1.378017    0.918503
 ---------------------------------------------------------------------

 SCF Done:  E(UB3LYP) =  -1136.12630440     A.U. after   20 cycles

 The electronic state is 2-A.
 Alpha  occ. eigenvalues --  -38.45154 -38.44075 -38.44036 -38.44031 -38.44018
 Alpha  occ. eigenvalues --  -38.43589 -38.43442  -2.20910  -2.19911  -2.19879
 Alpha  occ. eigenvalues --   -2.19856  -2.19824  -2.19344  -2.19284  -1.14601
 Alpha  occ. eigenvalues --   -1.14557  -1.14542  -1.13601  -1.13565  -1.13558
 Alpha  occ. eigenvalues --   -1.13545  -1.13530  -1.13521  -1.13515  -1.13512
 Alpha  occ. eigenvalues --   -1.13490  -1.13481  -1.13455  -1.13451  -1.13032
 Alpha  occ. eigenvalues --   -1.13005  -1.12984  -1.12977  -1.12934  -1.12895
 Alpha  occ. eigenvalues --   -0.17700  -0.12879  -0.11696  -0.11237
 Alpha virt. eigenvalues --   -0.06359  -0.05063  -0.04628  -0.03337  -0.03086
 Alpha virt. eigenvalues --   -0.02789  -0.01993  -0.01061  -0.00728  -0.00205
 Alpha virt. eigenvalues --   -0.00084   0.00312   0.00420   0.00733   0.00771

  Beta  occ. eigenvalues --  -38.45154 -38.44059 -38.44015 -38.43956 -38.43949
  Beta  occ. eigenvalues --  -38.43587 -38.43425  -2.20911  -2.19829  -2.19786
  Beta  occ. eigenvalues --   -2.19774  -2.19753  -2.19342  -2.19256  -1.14593
  Beta  occ. eigenvalues --   -1.14559  -1.14539  -1.13516  -1.13509  -1.13500
  Beta  occ. eigenvalues --   -1.13483  -1.13480  -1.13461  -1.13448  -1.13441
  Beta  occ. eigenvalues --   -1.13439  -1.13427  -1.13424  -1.13384  -1.13024
  Beta  occ. eigenvalues --   -1.13005  -1.12972  -1.12954  -1.12907  -1.12874
  Beta  occ. eigenvalues --   -0.16980  -0.12654  -0.11415
  Beta virt. eigenvalues --   -0.07447  -0.06310  -0.04776  -0.04465  -0.02837
  Beta virt. eigenvalues --   -0.02426  -0.01898  -0.01889  -0.00923  -0.00661
  Beta virt. eigenvalues --   -0.00195   0.00010   0.00348   0.00546   0.00784

 Mulliken charges and spin densities:
               1          2
     1  Na   0.030083   0.061412
     2  Na   0.215555   0.402439
     3  Na   0.079931  -0.068780
     4  Na  -0.467412  -0.013182
     5  Na   0.343221   0.510568
     6  Na  -0.246749   0.051680
     7  Na   0.045371   0.055862
 Sum of Mulliken charges =  -0.00000   1.00000

 Dipole moment (field-independent basis, Debye):
    X=             -0.6336    Y=             -0.1471    Z=             -0.0152  Tot=              0.6507
 Quadrupole moment (field-independent basis, Debye-Ang):
   XX=            -54.0167   YY=            -68.1793   ZZ=            -71.9522
   XY=              0.5334   XZ=             -0.1799   YZ=             -0.0404

 Normal termination of Gaussian 16 at Sun Dec  3 15:08:49 2023.
