 Gaussian 16, Revision B.01,
 Gaussian 16:  ES64L-G16RevB.01 20-Dec-2017

 -------------------------
 #P B3LYP/6-311+g(d) force
 -------------------------

 -----
 DPGEN
 -----
 Symbolic Z-matrix:
 Charge =  0 Multiplicity = 2

                         Standard orientation:
 ---------------------------------------------------------------------
 Center     Atomic      Atomic             Coordinates (Angstroms)
 Number     Number       Type             X           Y           Z
 ---------------------------------------------------------------------
      1         11           0        2.085282   -2.000189   -0.261714
      2         11           0       -0.593513    2.784179    0.009405
      3         11           0       -2.990998    0.671617   -0.007996
      4         11           0       -0.215946   -0.219221   -1.806547
      5         11           0        2.947137    1.346397   -0.075184
      6         11           0        0.368537   -0.160936    1.923379
      7         11           0       -1.600499   -2.421846    0.218658
 ---------------------------------------------------------------------

 SCF Done:  E(UB3LYP) =  -1136.13924486     A.U. after   19 cycles

 The electronic state is 2-A.
 Alpha  occ. eigenvalues --  -38.44074 -38.43830 -38.43657 -38.43459 -38.43349
 Alpha  occ. eigenvalues --  -38.43317 -38.43210  -2.19881  -2.19701  -2.19534
 Alpha  occ. eigenvalues --   -2.19381  -2.19306  -2.19192  -2.19063  -1.13553
 Alpha  occ. eigenvalues --   -1.13541  -1.13528  -1.13384  -1.13364  -1.13353
 Alpha  occ. eigenvalues --   -1.13237  -1.13218  -1.13149  -1.13054  -1.13010
 Alpha  occ. eigenvalues --   -1.13001  -1.12989  -1.12949  -1.12931  -1.12855
 Alpha  occ. eigenvalues --   -1.12842  -1.12820  -1.12738  -1.12729  -1.12696
 Alpha  occ. eigenvalues --   -0.18812  -0.13201  -0.12380  -0.10810
 Alpha virt. eigenvalues --   -0.05615  -0.05282  -0.04505  -0.03302  -0.02864
 Alpha virt. eigenvalues --   -0.02573  -0.01510  -0.01100  -0.00271  -0.00259
 Alpha virt. eigenvalues --   -0.00017   0.00369   0.00796   0.00883   0.00921

  Beta  occ. eigenvalues --  -38.44073 -38.43827 -38.43647 -38.43375 -38.43309
  Beta  occ. eigenvalues --  -38.43273 -38.43206  -2.19882  -2.19699  -2.19520
  Beta  occ. eigenvalues --   -2.19226  -2.19182  -2.19167  -2.19060  -1.13545
  Beta  occ. eigenvalues --   -1.13533  -1.13531  -1.13383  -1.13361  -1.13334
  Beta  occ. eigenvalues --   -1.13225  -1.13173  -1.13144  -1.12959  -1.12914
  Beta  occ. eigenvalues --   -1.12902  -1.12890  -1.12864  -1.12834  -1.12823
  Beta  occ. eigenvalues --   -1.12814  -1.12792  -1.12735  -1.12707  -1.12693
  Beta  occ. eigenvalues --   -0.18067  -0.12973  -0.12137
  Beta virt. eigenvalues --   -0.06887  -0.05579  -0.05272  -0.04471  -0.02501
  Beta virt. eigenvalues --   -0.02082  -0.01519  -0.01422  -0.01035  -0.00331
  Beta virt. eigenvalues --   -0.00303   0.00121   0.00390   0.00861   0.00879

 Mulliken charges and spin densities:
               1          2
     1  Na   0.293707  -0.075866
     2  Na  -0.006639  -0.127914
     3  Na   0.110730  -0.038207
     4  Na  -0.267024   0.647198
     5  Na  -0.010845  -0.111012
     6  Na  -0.413227   0.759852
     7  Na   0.293298  -0.054053
 Sum of Mulliken charges =  -0.00000   1.00000

 Dipole moment (field-independent basis, Debye):
    X=              0.2175    Y=             -0.0246    Z=              0.0304  Tot=              0.2210
 Quadrupole moment (field-independent basis, Debye-Ang):
   XX=            -56.0659   YY=            -63.8853   ZZ=            -73.8819
   XY=              0.8656   XZ=             -1.1635   YZ=             -0.1786

 Normal termination of Gaussian 16 at Tue Dec  5 21:20:50 2023.
