 Gaussian 16, Revision B.01,
 Gaussian 16:  ES64L-G16RevB.01 20-Dec-2017

 -------------------------
 #P B3LYP/6-311+g(d) force
 -------------------------

 -----
 DPGEN
 -----
 Symbolic Z-matrix:
 Charge =  0 Multiplicity = 2

                         Standard orientation:
 ---------------------------------------------------------------------
 Center     Atomic      Atomic             Coordinates (Angstroms)
 Number     Number       Type             X           Y           Z
 ---------------------------------------------------------------------
      1         11           0       -2.402689    1.910775   -0.038113
      2         11           0        0.089233   -0.174183   -1.616088
      3         11           0        1.459888    2.546433   -0.141183
      4         11           0        0.027650    0.363810    1.677439
      5         11           0        0.383678   -2.724255    0.207287
      6         11           0       -2.819230   -1.347649   -0.069765
      7         11           0        3.261470   -0.574931   -0.019577
 ---------------------------------------------------------------------

 SCF Done:  E(UB3LYP) =  -1136.13712009     A.U. after   21 cycles

 The electronic state is 2-A.
 Alpha  occ. eigenvalues --  -38.44513 -38.43915 -38.43818 -38.43509 -38.43073
 Alpha  occ. eigenvalues --  -38.42918 -38.42868  -2.20325  -2.19771  -2.19671
 Alpha  occ. eigenvalues --   -2.19374  -2.18963  -2.18922  -2.18859  -1.13997
 Alpha  occ. eigenvalues --   -1.13975  -1.13971  -1.13463  -1.13434  -1.13423
 Alpha  occ. eigenvalues --   -1.13344  -1.13327  -1.13296  -1.13081  -1.13048
 Alpha  occ. eigenvalues --   -1.12987  -1.12732  -1.12641  -1.12617  -1.12579
 Alpha  occ. eigenvalues --   -1.12530  -1.12525  -1.12519  -1.12480  -1.12464
 Alpha  occ. eigenvalues --   -0.18947  -0.13315  -0.12443  -0.10250
 Alpha virt. eigenvalues --   -0.06002  -0.05309  -0.04487  -0.03055  -0.02652
 Alpha virt. eigenvalues --   -0.01987  -0.01885  -0.01189  -0.00435  -0.00303
 Alpha virt. eigenvalues --    0.00028   0.00340   0.00763   0.00855   0.00897

  Beta  occ. eigenvalues --  -38.44510 -38.43911 -38.43813 -38.43501 -38.43063
  Beta  occ. eigenvalues --  -38.42848 -38.42791  -2.20323  -2.19767  -2.19666
  Beta  occ. eigenvalues --   -2.19364  -2.18950  -2.18794  -2.18717  -1.13979
  Beta  occ. eigenvalues --   -1.13974  -1.13971  -1.13463  -1.13425  -1.13405
  Beta  occ. eigenvalues --   -1.13334  -1.13306  -1.13296  -1.13074  -1.13012
  Beta  occ. eigenvalues --   -1.12985  -1.12701  -1.12595  -1.12574  -1.12541
  Beta  occ. eigenvalues --   -1.12445  -1.12431  -1.12428  -1.12379  -1.12363
  Beta  occ. eigenvalues --   -0.18230  -0.13073  -0.12180
  Beta virt. eigenvalues --   -0.06360  -0.05974  -0.05313  -0.04475  -0.02281
  Beta virt. eigenvalues --   -0.01871  -0.01797  -0.01135  -0.00980  -0.00495
  Beta virt. eigenvalues --   -0.00341   0.00168   0.00372   0.00805   0.00851

 Mulliken charges and spin densities:
               1          2
     1  Na   0.232266  -0.091324
     2  Na  -0.414243   0.686493
     3  Na   0.133760  -0.148417
     4  Na  -0.367291   0.724085
     5  Na   0.124427  -0.075224
     6  Na   0.155298  -0.025424
     7  Na   0.135783  -0.070190
 Sum of Mulliken charges =  -0.00000   1.00000

 Dipole moment (field-independent basis, Debye):
    X=              0.2165    Y=              0.0761    Z=              0.0043  Tot=              0.2296
 Quadrupole moment (field-independent basis, Debye-Ang):
   XX=            -51.2262   YY=            -62.6681   ZZ=            -77.0219
   XY=             -0.2104   XZ=              0.1695   YZ=             -1.1989

 Normal termination of Gaussian 16 at Thu Dec  7 02:44:28 2023.
