 Gaussian 16, Revision B.01,
 Gaussian 16:  ES64L-G16RevB.01 20-Dec-2017

 -------------------------
 #P B3LYP/6-311+g(d) force
 -------------------------

 -----
 DPGEN
 -----
 Symbolic Z-matrix:
 Charge =  0 Multiplicity = 2

                         Standard orientation:
 ---------------------------------------------------------------------
 Center     Atomic      Atomic             Coordinates (Angstroms)
 Number     Number       Type             X           Y           Z
 ---------------------------------------------------------------------
      1         11           0       -0.276815   -2.250442   -0.415044
      2         11           0       -1.985468   -0.264937    1.704745
      3         11           0        2.178437   -1.069438   -1.505235
      4         11           0       -0.452213    1.258490   -1.106767
      5         11           0       -4.287187    0.695460   -0.479142
      6         11           0        2.135623   -0.630862    1.535106
      7         11           0        2.687622    2.261730    0.266337
 ---------------------------------------------------------------------

 SCF Done:  E(UB3LYP) =  -1136.12100883     A.U. after   24 cycles

 The electronic state is 2-A.
 Alpha  occ. eigenvalues --  -38.45324 -38.44294 -38.44230 -38.44082 -38.44069
 Alpha  occ. eigenvalues --  -38.42756 -38.42562  -2.21094  -2.20154  -2.20080
 Alpha  occ. eigenvalues --   -2.20043  -2.19992  -2.18596  -2.18501  -1.14769
 Alpha  occ. eigenvalues --   -1.14756  -1.14722  -1.13848  -1.13819  -1.13816
 Alpha  occ. eigenvalues --   -1.13781  -1.13768  -1.13757  -1.13730  -1.13676
 Alpha  occ. eigenvalues --   -1.13651  -1.13637  -1.13598  -1.13584  -1.12277
 Alpha  occ. eigenvalues --   -1.12253  -1.12237  -1.12200  -1.12160  -1.12121
 Alpha  occ. eigenvalues --   -0.18521  -0.14004  -0.11372  -0.11037
 Alpha virt. eigenvalues --   -0.07017  -0.04957  -0.04378  -0.03157  -0.02767
 Alpha virt. eigenvalues --   -0.02588  -0.02375  -0.01021  -0.00706  -0.00203
 Alpha virt. eigenvalues --    0.00130   0.00185   0.00254   0.00680   0.00819

  Beta  occ. eigenvalues --  -38.45323 -38.44256 -38.44191 -38.44044 -38.44016
  Beta  occ. eigenvalues --  -38.42754 -38.42547  -2.21091  -2.20082  -2.20010
  Beta  occ. eigenvalues --   -2.19976  -2.19896  -2.18595  -2.18481  -1.14762
  Beta  occ. eigenvalues --   -1.14754  -1.14720  -1.13801  -1.13771  -1.13769
  Beta  occ. eigenvalues --   -1.13731  -1.13699  -1.13693  -1.13668  -1.13631
  Beta  occ. eigenvalues --   -1.13594  -1.13578  -1.13536  -1.13515  -1.12266
  Beta  occ. eigenvalues --   -1.12256  -1.12230  -1.12180  -1.12138  -1.12086
  Beta  occ. eigenvalues --   -0.17795  -0.13834  -0.11162
  Beta virt. eigenvalues --   -0.07188  -0.06820  -0.04552  -0.04097  -0.03075
  Beta virt. eigenvalues --   -0.02573  -0.01942  -0.01578  -0.00780  -0.00425
  Beta virt. eigenvalues --   -0.00136   0.00161   0.00253   0.00388   0.00744

 Mulliken charges and spin densities:
               1          2
     1  Na   0.053457   0.095107
     2  Na   0.174785   0.110921
     3  Na   0.339427   0.145157
     4  Na  -0.694232   0.347871
     5  Na   0.158739  -0.016186
     6  Na  -0.087490   0.490788
     7  Na   0.055314  -0.173659
 Sum of Mulliken charges =  -0.00000   1.00000

 Dipole moment (field-independent basis, Debye):
    X=             -1.4513    Y=             -0.1005    Z=             -0.2262  Tot=              1.4723
 Quadrupole moment (field-independent basis, Debye-Ang):
   XX=            -49.9491   YY=            -74.9059   ZZ=            -68.9649
   XY=             -2.3196   XZ=              0.6902   YZ=             -0.3934

 Normal termination of Gaussian 16 at Thu Dec  7 08:14:29 2023.
