 Gaussian 16, Revision B.01,
 Gaussian 16:  ES64L-G16RevB.01 20-Dec-2017

 -------------------------
 #P B3LYP/6-311+g(d) force
 -------------------------

 -----
 DPGEN
 -----
 Symbolic Z-matrix:
 Charge =  0 Multiplicity = 2

                         Standard orientation:
 ---------------------------------------------------------------------
 Center     Atomic      Atomic             Coordinates (Angstroms)
 Number     Number       Type             X           Y           Z
 ---------------------------------------------------------------------
      1         11           0       -2.850508   -0.960224    0.057866
      2         11           0       -2.572055    2.446074   -0.030629
      3         11           0       -0.073445    0.663182   -1.262821
      4         11           0        3.159117   -0.258215   -0.091331
      5         11           0        0.425271   -2.865399   -0.926504
      6         11           0       -0.156906   -1.627267    1.790794
      7         11           0        2.068526    2.601849    0.462624
 ---------------------------------------------------------------------

 SCF Done:  E(UB3LYP) =  -1136.12912310     A.U. after   20 cycles

 The electronic state is 2-A.
 Alpha  occ. eigenvalues --  -38.44273 -38.44185 -38.44145 -38.43967 -38.43489
 Alpha  occ. eigenvalues --  -38.43400 -38.43005  -2.20112  -2.20042  -2.19948
 Alpha  occ. eigenvalues --   -2.19804  -2.19367  -2.19304  -2.18957  -1.13814
 Alpha  occ. eigenvalues --   -1.13778  -1.13753  -1.13738  -1.13714  -1.13677
 Alpha  occ. eigenvalues --   -1.13618  -1.13604  -1.13578  -1.13462  -1.13449
 Alpha  occ. eigenvalues --   -1.13438  -1.13133  -1.13021  -1.12995  -1.12955
 Alpha  occ. eigenvalues --   -1.12919  -1.12887  -1.12653  -1.12612  -1.12580
 Alpha  occ. eigenvalues --   -0.18142  -0.13396  -0.12736  -0.09953
 Alpha virt. eigenvalues --   -0.05872  -0.05652  -0.05010  -0.03158  -0.02885
 Alpha virt. eigenvalues --   -0.01799  -0.01585  -0.01415  -0.00900  -0.00635
 Alpha virt. eigenvalues --    0.00004   0.00343   0.00739   0.00750   0.00813

  Beta  occ. eigenvalues --  -38.44267 -38.44172 -38.44146 -38.43954 -38.43458
  Beta  occ. eigenvalues --  -38.43339 -38.42961  -2.20104  -2.20022  -2.19951
  Beta  occ. eigenvalues --   -2.19779  -2.19313  -2.19192  -2.18879  -1.13809
  Beta  occ. eigenvalues --   -1.13762  -1.13736  -1.13725  -1.13681  -1.13661
  Beta  occ. eigenvalues --   -1.13615  -1.13601  -1.13579  -1.13446  -1.13428
  Beta  occ. eigenvalues --   -1.13419  -1.13084  -1.12973  -1.12949  -1.12880
  Beta  occ. eigenvalues --   -1.12837  -1.12817  -1.12596  -1.12551  -1.12520
  Beta  occ. eigenvalues --   -0.17535  -0.13115  -0.12531
  Beta virt. eigenvalues --   -0.06268  -0.05767  -0.05572  -0.04805  -0.02519
  Beta virt. eigenvalues --   -0.02301  -0.01534  -0.01385  -0.00913  -0.00829
  Beta virt. eigenvalues --   -0.00627   0.00211   0.00421   0.00758   0.00816

 Mulliken charges and spin densities:
               1          2
     1  Na   0.176516   0.033935
     2  Na  -0.204629  -0.114011
     3  Na   0.633010   0.398079
     4  Na   0.202668   0.104898
     5  Na   0.108955   0.096961
     6  Na  -0.506008   0.524086
     7  Na  -0.410511  -0.043948
 Sum of Mulliken charges =  -0.00000   1.00000

 Dipole moment (field-independent basis, Debye):
    X=             -0.0572    Y=              0.3755    Z=              0.0776  Tot=              0.3877
 Quadrupole moment (field-independent basis, Debye-Ang):
   XX=            -57.6827   YY=            -60.0837   ZZ=            -76.2300
   XY=             -2.3253   XZ=              0.6571   YZ=              3.9196

 Normal termination of Gaussian 16 at Tue Nov 28 21:19:29 2023.
