 Gaussian 16, Revision B.01,
 Gaussian 16:  ES64L-G16RevB.01 20-Dec-2017

 -------------------------
 #P B3LYP/6-311+g(d) force
 -------------------------

 -----
 DPGEN
 -----
 Symbolic Z-matrix:
 Charge =  0 Multiplicity = 2

                         Standard orientation:
 ---------------------------------------------------------------------
 Center     Atomic      Atomic             Coordinates (Angstroms)
 Number     Number       Type             X           Y           Z
 ---------------------------------------------------------------------
      1         11           0        2.072001   -0.891237    1.725476
      2         11           0        1.041486   -2.523278   -0.411987
      3         11           0        3.688880    0.015572   -0.636998
      4         11           0        2.398725    2.697432   -0.431320
      5         11           0       -0.590636    0.410554    0.069033
      6         11           0       -3.884054   -0.517094   -1.431677
      7         11           0       -4.726402    0.808050    1.117472
 ---------------------------------------------------------------------

 SCF Done:  E(UB3LYP) =  -1136.10689902     A.U. after   22 cycles

 The electronic state is 2-A.
 Alpha  occ. eigenvalues --  -38.45024 -38.44805 -38.44776 -38.43465 -38.43395
 Alpha  occ. eigenvalues --  -38.43331 -38.42397  -2.20841  -2.20766  -2.20597
 Alpha  occ. eigenvalues --   -2.19410  -2.19284  -2.19233  -2.18245  -1.14581
 Alpha  occ. eigenvalues --   -1.14498  -1.14496  -1.14476  -1.14433  -1.14391
 Alpha  occ. eigenvalues --   -1.14237  -1.14236  -1.14201  -1.13100  -1.13064
 Alpha  occ. eigenvalues --   -1.13033  -1.12990  -1.12945  -1.12913  -1.12881
 Alpha  occ. eigenvalues --   -1.12876  -1.12840  -1.11932  -1.11892  -1.11880
 Alpha  occ. eigenvalues --   -0.17717  -0.14585  -0.11288  -0.10299
 Alpha virt. eigenvalues --   -0.06835  -0.05452  -0.04195  -0.03547  -0.03350
 Alpha virt. eigenvalues --   -0.01802  -0.01650  -0.01344  -0.01096  -0.00399
 Alpha virt. eigenvalues --   -0.00256  -0.00155   0.00297   0.00628   0.00636

  Beta  occ. eigenvalues --  -38.45022 -38.44786 -38.44738 -38.43419 -38.43321
  Beta  occ. eigenvalues --  -38.43313 -38.42391  -2.20841  -2.20739  -2.20527
  Beta  occ. eigenvalues --   -2.19326  -2.19219  -2.19133  -2.18236  -1.14567
  Beta  occ. eigenvalues --   -1.14499  -1.14478  -1.14461  -1.14394  -1.14350
  Beta  occ. eigenvalues --   -1.14190  -1.14179  -1.14163  -1.13045  -1.12998
  Beta  occ. eigenvalues --   -1.12974  -1.12923  -1.12894  -1.12879  -1.12834
  Beta  occ. eigenvalues --   -1.12787  -1.12763  -1.11928  -1.11886  -1.11858
  Beta  occ. eigenvalues --   -0.16961  -0.14110  -0.11115
  Beta virt. eigenvalues --   -0.06753  -0.06577  -0.05256  -0.03889  -0.03130
  Beta virt. eigenvalues --   -0.03010  -0.01751  -0.01368  -0.01040  -0.00560
  Beta virt. eigenvalues --   -0.00267  -0.00068   0.00039   0.00354   0.00654

 Mulliken charges and spin densities:
               1          2
     1  Na   0.197959   0.292246
     2  Na   0.472563   0.025490
     3  Na   0.129980   0.193759
     4  Na   0.188830  -0.010255
     5  Na  -1.611804   0.183495
     6  Na   0.379857   0.075938
     7  Na   0.242615   0.239328
 Sum of Mulliken charges =  -0.00000   1.00000

 Dipole moment (field-independent basis, Debye):
    X=             -1.8826    Y=             -0.7143    Z=              0.2156  Tot=              2.0251
 Quadrupole moment (field-independent basis, Debye-Ang):
   XX=            -72.8746   YY=            -73.2221   ZZ=            -56.9916
   XY=             -2.4601   XZ=              0.0172   YZ=              7.4146

 Normal termination of Gaussian 16 at Fri Dec  8 19:11:03 2023.
