 Gaussian 16, Revision B.01,
 Gaussian 16:  ES64L-G16RevB.01 20-Dec-2017

 -------------------------
 #P B3LYP/6-311+g(d) force
 -------------------------

 -----
 DPGEN
 -----
 Symbolic Z-matrix:
 Charge =  0 Multiplicity = 2

                         Standard orientation:
 ---------------------------------------------------------------------
 Center     Atomic      Atomic             Coordinates (Angstroms)
 Number     Number       Type             X           Y           Z
 ---------------------------------------------------------------------
      1         11           0       -2.325011   -2.049047   -0.037848
      2         11           0        1.685388   -2.524590   -0.275240
      3         11           0       -0.498830   -0.191674    2.297401
      4         11           0        3.078036    0.671679    0.180955
      5         11           0        0.573311    2.876692   -0.066519
      6         11           0        0.242917   -0.322733   -1.594242
      7         11           0       -2.755813    1.539673   -0.504505
 ---------------------------------------------------------------------

 SCF Done:  E(UB3LYP) =  -1136.13502300     A.U. after   19 cycles

 The electronic state is 2-A.
 Alpha  occ. eigenvalues --  -38.44052 -38.43965 -38.43954 -38.43937 -38.43690
 Alpha  occ. eigenvalues --  -38.43345 -38.43235  -2.19886  -2.19774  -2.19771
 Alpha  occ. eigenvalues --   -2.19767  -2.19550  -2.19322  -2.19066  -1.13539
 Alpha  occ. eigenvalues --   -1.13517  -1.13511  -1.13454  -1.13448  -1.13441
 Alpha  occ. eigenvalues --   -1.13436  -1.13434  -1.13422  -1.13419  -1.13418
 Alpha  occ. eigenvalues --   -1.13389  -1.13349  -1.13194  -1.13155  -1.12988
 Alpha  occ. eigenvalues --   -1.12944  -1.12929  -1.12742  -1.12731  -1.12705
 Alpha  occ. eigenvalues --   -0.18288  -0.12989  -0.12359  -0.10867
 Alpha virt. eigenvalues --   -0.05595  -0.05429  -0.04622  -0.03340  -0.02885
 Alpha virt. eigenvalues --   -0.02768  -0.01464  -0.01203  -0.00503  -0.00360
 Alpha virt. eigenvalues --   -0.00053   0.00344   0.00762   0.00833   0.00891

  Beta  occ. eigenvalues --  -38.43953 -38.43950 -38.43947 -38.43936 -38.43684
  Beta  occ. eigenvalues --  -38.43293 -38.43233  -2.19770  -2.19769  -2.19749
  Beta  occ. eigenvalues --   -2.19689  -2.19542  -2.19227  -2.19065  -1.13459
  Beta  occ. eigenvalues --   -1.13447  -1.13428  -1.13427  -1.13419  -1.13413
  Beta  occ. eigenvalues --   -1.13412  -1.13410  -1.13395  -1.13384  -1.13374
  Beta  occ. eigenvalues --   -1.13359  -1.13327  -1.13175  -1.13152  -1.12924
  Beta  occ. eigenvalues --   -1.12880  -1.12862  -1.12740  -1.12718  -1.12703
  Beta  occ. eigenvalues --   -0.17602  -0.12779  -0.12137
  Beta virt. eigenvalues --   -0.06946  -0.05551  -0.05359  -0.04562  -0.02567
  Beta virt. eigenvalues --   -0.02154  -0.01725  -0.01367  -0.01125  -0.00546
  Beta virt. eigenvalues --   -0.00398   0.00123   0.00389   0.00826   0.00865

 Mulliken charges and spin densities:
               1          2
     1  Na   0.239604  -0.016959
     2  Na   0.383514   0.003913
     3  Na  -0.609265   0.743831
     4  Na   0.033105   0.036618
     5  Na  -0.014263  -0.013480
     6  Na  -0.122757   0.238808
     7  Na   0.090062   0.007268
 Sum of Mulliken charges =  -0.00000   1.00000

 Dipole moment (field-independent basis, Debye):
    X=             -0.1226    Y=             -0.2112    Z=              0.1898  Tot=              0.3093
 Quadrupole moment (field-independent basis, Debye-Ang):
   XX=            -57.2318   YY=            -63.4876   ZZ=            -73.8351
   XY=             -0.0223   XZ=              1.9001   YZ=             -0.2545

 Normal termination of Gaussian 16 at Fri Dec  8 02:44:43 2023.
