 Gaussian 16, Revision B.01,
 Gaussian 16:  ES64L-G16RevB.01 20-Dec-2017

 -------------------------
 #P B3LYP/6-311+g(d) force
 -------------------------

 -----
 DPGEN
 -----
 Symbolic Z-matrix:
 Charge =  0 Multiplicity = 2

                         Standard orientation:
 ---------------------------------------------------------------------
 Center     Atomic      Atomic             Coordinates (Angstroms)
 Number     Number       Type             X           Y           Z
 ---------------------------------------------------------------------
      1         11           0        0.748113    3.423925   -0.053369
      2         11           0       -1.304827   -2.414260   -1.554490
      3         11           0       -2.181560    1.474712   -1.591566
      4         11           0       -3.725156   -1.216829    1.446320
      5         11           0       -0.324034    0.433839    2.222287
      6         11           0        2.165822   -0.397590   -1.146561
      7         11           0        4.621642   -1.303798    0.677378
 ---------------------------------------------------------------------

 SCF Done:  E(UB3LYP) =  -1136.10845810     A.U. after   21 cycles

 The electronic state is 2-A.
 Alpha  occ. eigenvalues --  -38.45516 -38.45362 -38.44709 -38.44701 -38.44200
 Alpha  occ. eigenvalues --  -38.43746 -38.43446  -2.21268  -2.21106  -2.20460
 Alpha  occ. eigenvalues --   -2.20452  -2.19968  -2.19541  -2.19198  -1.14941
 Alpha  occ. eigenvalues --   -1.14914  -1.14875  -1.14790  -1.14761  -1.14711
 Alpha  occ. eigenvalues --   -1.14134  -1.14120  -1.14114  -1.14114  -1.14086
 Alpha  occ. eigenvalues --   -1.14065  -1.13641  -1.13625  -1.13624  -1.13226
 Alpha  occ. eigenvalues --   -1.13202  -1.13166  -1.12876  -1.12863  -1.12839
 Alpha  occ. eigenvalues --   -0.16437  -0.12734  -0.11593  -0.11324
 Alpha virt. eigenvalues --   -0.07033  -0.05539  -0.04837  -0.03410  -0.02937
 Alpha virt. eigenvalues --   -0.02771  -0.02286  -0.01601  -0.01178  -0.00586
 Alpha virt. eigenvalues --   -0.00251  -0.00063   0.00145   0.00368   0.00389

  Beta  occ. eigenvalues --  -38.45446 -38.45321 -38.44678 -38.44656 -38.44204
  Beta  occ. eigenvalues --  -38.43739 -38.43454  -2.21138  -2.21031  -2.20402
  Beta  occ. eigenvalues --   -2.20370  -2.19976  -2.19529  -2.19213  -1.14853
  Beta  occ. eigenvalues --   -1.14827  -1.14774  -1.14730  -1.14713  -1.14659
  Beta  occ. eigenvalues --   -1.14097  -1.14066  -1.14062  -1.14048  -1.14046
  Beta  occ. eigenvalues --   -1.14014  -1.13646  -1.13630  -1.13628  -1.13220
  Beta  occ. eigenvalues --   -1.13184  -1.13158  -1.12884  -1.12869  -1.12849
  Beta  occ. eigenvalues --   -0.15712  -0.12607  -0.11386
  Beta virt. eigenvalues --   -0.07722  -0.06586  -0.05257  -0.04526  -0.03069
  Beta virt. eigenvalues --   -0.02522  -0.02285  -0.01968  -0.01338  -0.01051
  Beta virt. eigenvalues --   -0.00454  -0.00091   0.00055   0.00188   0.00461

 Mulliken charges and spin densities:
               1          2
     1  Na   0.130995  -0.108049
     2  Na   0.084354   0.232466
     3  Na   0.058496   0.304199
     4  Na   0.098117   0.101576
     5  Na  -0.143230   0.468908
     6  Na  -0.586529   0.023292
     7  Na   0.357796  -0.022393
 Sum of Mulliken charges =  -0.00000   1.00000

 Dipole moment (field-independent basis, Debye):
    X=             -0.7091    Y=             -0.0232    Z=              0.4145  Tot=              0.8217
 Quadrupole moment (field-independent basis, Debye-Ang):
   XX=            -58.3823   YY=            -70.7488   ZZ=            -68.2236
   XY=              0.4830   XZ=              4.5055   YZ=             -1.7168

 Normal termination of Gaussian 16 at Mon Dec  4 00:00:43 2023.
