 Gaussian 16, Revision B.01,
 Gaussian 16:  ES64L-G16RevB.01 20-Dec-2017

 -------------------------
 #P B3LYP/6-311+g(d) force
 -------------------------

 -----
 DPGEN
 -----
 Symbolic Z-matrix:
 Charge =  0 Multiplicity = 2

                         Standard orientation:
 ---------------------------------------------------------------------
 Center     Atomic      Atomic             Coordinates (Angstroms)
 Number     Number       Type             X           Y           Z
 ---------------------------------------------------------------------
      1         11           0        4.105238   -0.291513    0.647420
      2         11           0       -3.393740   -1.011960   -0.848744
      3         11           0       -0.742773    3.700660   -0.734947
      4         11           0        2.571146    3.117037   -0.137232
      5         11           0       -0.777417   -3.609539    0.131867
      6         11           0       -3.614554    1.240551    1.348681
      7         11           0        1.852099   -3.145236   -0.407045
 ---------------------------------------------------------------------

 SCF Done:  E(UB3LYP) =  -1136.10268245     A.U. after   20 cycles

 The electronic state is 2-A.
 Alpha  occ. eigenvalues --  -38.45020 -38.44892 -38.44631 -38.44522 -38.44374
 Alpha  occ. eigenvalues --  -38.44205 -38.44181  -2.20806  -2.20679  -2.20406
 Alpha  occ. eigenvalues --   -2.20372  -2.20123  -2.20051  -2.19989  -1.14509
 Alpha  occ. eigenvalues --   -1.14470  -1.14454  -1.14333  -1.14317  -1.14299
 Alpha  occ. eigenvalues --   -1.14297  -1.14067  -1.14054  -1.14027  -1.14008
 Alpha  occ. eigenvalues --   -1.13993  -1.13812  -1.13799  -1.13763  -1.13663
 Alpha  occ. eigenvalues --   -1.13651  -1.13639  -1.13628  -1.13620  -1.13606
 Alpha  occ. eigenvalues --   -0.15539  -0.13701  -0.13519  -0.10857
 Alpha virt. eigenvalues --   -0.07217  -0.05321  -0.04090  -0.03628  -0.03232
 Alpha virt. eigenvalues --   -0.02581  -0.02372  -0.01645  -0.01490  -0.00909
 Alpha virt. eigenvalues --   -0.00488  -0.00148   0.00157   0.00449   0.00610

  Beta  occ. eigenvalues --  -38.45011 -38.44869 -38.44565 -38.44518 -38.44381
  Beta  occ. eigenvalues --  -38.44142 -38.44112  -2.20792  -2.20637  -2.20371
  Beta  occ. eigenvalues --   -2.20285  -2.20142  -2.19980  -2.19815  -1.14489
  Beta  occ. eigenvalues --   -1.14462  -1.14438  -1.14305  -1.14289  -1.14266
  Beta  occ. eigenvalues --   -1.14261  -1.14012  -1.13986  -1.13986  -1.13975
  Beta  occ. eigenvalues --   -1.13938  -1.13830  -1.13816  -1.13735  -1.13615
  Beta  occ. eigenvalues --   -1.13606  -1.13577  -1.13520  -1.13507  -1.13493
  Beta  occ. eigenvalues --   -0.15105  -0.13005  -0.12734
  Beta virt. eigenvalues --   -0.07658  -0.07299  -0.05029  -0.03726  -0.03297
  Beta virt. eigenvalues --   -0.02790  -0.02315  -0.02149  -0.01507  -0.01387
  Beta virt. eigenvalues --   -0.00574  -0.00274   0.00074   0.00342   0.00423

 Mulliken charges and spin densities:
               1          2
     1  Na   0.039084   0.464428
     2  Na   0.069339   0.069750
     3  Na  -0.103876   0.299900
     4  Na   0.081783  -0.041945
     5  Na  -0.091922   0.173285
     6  Na   0.062049   0.066206
     7  Na  -0.056456  -0.031623
 Sum of Mulliken charges =  -0.00000   1.00000

 Dipole moment (field-independent basis, Debye):
    X=             -1.4273    Y=              0.1489    Z=              0.1353  Tot=              1.4414
 Quadrupole moment (field-independent basis, Debye-Ang):
   XX=            -65.1443   YY=            -70.0768   ZZ=            -67.9567
   XY=             -1.2154   XZ=             -0.0947   YZ=              2.4461

 Normal termination of Gaussian 16 at Sun Dec  3 15:37:23 2023.
