 Gaussian 16, Revision B.01,
 Gaussian 16:  ES64L-G16RevB.01 20-Dec-2017

 -------------------------
 #P B3LYP/6-311+g(d) force
 -------------------------

 -----
 DPGEN
 -----
 Symbolic Z-matrix:
 Charge =  0 Multiplicity = 2

                         Standard orientation:
 ---------------------------------------------------------------------
 Center     Atomic      Atomic             Coordinates (Angstroms)
 Number     Number       Type             X           Y           Z
 ---------------------------------------------------------------------
      1         11           0       -0.345351   -0.913075    1.987416
      2         11           0       -2.587063    1.627436   -0.499865
      3         11           0        0.126426    0.410739   -0.729878
      4         11           0        3.325504    0.436524   -0.847040
      5         11           0        1.307912   -2.638436    0.093832
      6         11           0        0.532982    2.897609    0.749647
      7         11           0       -2.360409   -1.820797   -0.754112
 ---------------------------------------------------------------------

 SCF Done:  E(UB3LYP) =  -1136.12609983     A.U. after   21 cycles

 The electronic state is 2-A.
 Alpha  occ. eigenvalues --  -38.43820 -38.43799 -38.43785 -38.43759 -38.43682
 Alpha  occ. eigenvalues --  -38.43674 -38.42549  -2.19679  -2.19657  -2.19634
 Alpha  occ. eigenvalues --   -2.19623  -2.19613  -2.19541  -2.18737  -1.13455
 Alpha  occ. eigenvalues --   -1.13438  -1.13381  -1.13336  -1.13319  -1.13305
 Alpha  occ. eigenvalues --   -1.13296  -1.13288  -1.13279  -1.13272  -1.13251
 Alpha  occ. eigenvalues --   -1.13247  -1.13234  -1.13229  -1.13221  -1.13189
 Alpha  occ. eigenvalues --   -1.13174  -1.13149  -1.12446  -1.12379  -1.12354
 Alpha  occ. eigenvalues --   -0.18718  -0.12943  -0.12774  -0.10531
 Alpha virt. eigenvalues --   -0.05333  -0.05144  -0.04936  -0.03106  -0.02911
 Alpha virt. eigenvalues --   -0.01929  -0.01455  -0.01286  -0.00489  -0.00195
 Alpha virt. eigenvalues --    0.00022   0.00326   0.00799   0.00851   0.00867

  Beta  occ. eigenvalues --  -38.43803 -38.43779 -38.43767 -38.43750 -38.43658
  Beta  occ. eigenvalues --  -38.43589 -38.42527  -2.19649  -2.19649  -2.19621
  Beta  occ. eigenvalues --   -2.19555  -2.19500  -2.19468  -2.18703  -1.13422
  Beta  occ. eigenvalues --   -1.13411  -1.13370  -1.13308  -1.13289  -1.13272
  Beta  occ. eigenvalues --   -1.13266  -1.13264  -1.13251  -1.13221  -1.13215
  Beta  occ. eigenvalues --   -1.13212  -1.13195  -1.13188  -1.13173  -1.13122
  Beta  occ. eigenvalues --   -1.13106  -1.13076  -1.12381  -1.12355  -1.12336
  Beta  occ. eigenvalues --   -0.18079  -0.12650  -0.12407
  Beta virt. eigenvalues --   -0.06890  -0.05242  -0.04873  -0.04780  -0.02487
  Beta virt. eigenvalues --   -0.02322  -0.01283  -0.01257  -0.01106  -0.00361
  Beta virt. eigenvalues --   -0.00149   0.00147   0.00396   0.00813   0.00880

 Mulliken charges and spin densities:
               1          2
     1  Na  -0.380758   0.454404
     2  Na   0.342736   0.024886
     3  Na  -0.679561  -0.002527
     4  Na   0.570904   0.152977
     5  Na   0.414903   0.106534
     6  Na  -0.046839   0.204287
     7  Na  -0.221384   0.059439
 Sum of Mulliken charges =  -0.00000   1.00000

 Dipole moment (field-independent basis, Debye):
    X=             -0.1167    Y=             -0.1073    Z=              0.3634  Tot=              0.3965
 Quadrupole moment (field-independent basis, Debye-Ang):
   XX=            -59.0479   YY=            -59.1311   ZZ=            -73.0693
   XY=             -0.2067   XZ=              0.2340   YZ=              2.6238

 Normal termination of Gaussian 16 at Thu Dec  7 06:53:24 2023.
