 Gaussian 16, Revision B.01,
 Gaussian 16:  ES64L-G16RevB.01 20-Dec-2017

 -------------------------
 #P B3LYP/6-311+g(d) force
 -------------------------

 -----
 DPGEN
 -----
 Symbolic Z-matrix:
 Charge =  0 Multiplicity = 2

                         Standard orientation:
 ---------------------------------------------------------------------
 Center     Atomic      Atomic             Coordinates (Angstroms)
 Number     Number       Type             X           Y           Z
 ---------------------------------------------------------------------
      1         11           0        0.489630    0.327063    1.883528
      2         11           0        2.833227   -1.439350   -0.417721
      3         11           0       -1.493294    2.439825   -0.755324
      4         11           0       -0.451561   -2.822825    0.084117
      5         11           0       -3.024219   -0.575791    0.609602
      6         11           0        1.898042    2.356797    0.307594
      7         11           0       -0.251825   -0.285720   -1.711795
 ---------------------------------------------------------------------

 SCF Done:  E(UB3LYP) =  -1136.13534856     A.U. after   19 cycles

 The electronic state is 2-A.
 Alpha  occ. eigenvalues --  -38.43874 -38.43714 -38.43692 -38.43680 -38.43525
 Alpha  occ. eigenvalues --  -38.43498 -38.43367  -2.19684  -2.19613  -2.19554
 Alpha  occ. eigenvalues --   -2.19542  -2.19400  -2.19361  -2.19343  -1.13459
 Alpha  occ. eigenvalues --   -1.13365  -1.13343  -1.13319  -1.13265  -1.13221
 Alpha  occ. eigenvalues --   -1.13211  -1.13206  -1.13190  -1.13188  -1.13169
 Alpha  occ. eigenvalues --   -1.13162  -1.13134  -1.13111  -1.13061  -1.13007
 Alpha  occ. eigenvalues --   -1.13004  -1.12984  -1.12975  -1.12948  -1.12923
 Alpha  occ. eigenvalues --   -0.18633  -0.12823  -0.12664  -0.10962
 Alpha virt. eigenvalues --   -0.05368  -0.05059  -0.04757  -0.03305  -0.03148
 Alpha virt. eigenvalues --   -0.02534  -0.01413  -0.01141  -0.00351  -0.00133
 Alpha virt. eigenvalues --    0.00040   0.00352   0.00844   0.00877   0.00906

  Beta  occ. eigenvalues --  -38.43866 -38.43700 -38.43684 -38.43606 -38.43519
  Beta  occ. eigenvalues --  -38.43474 -38.43300  -2.19672  -2.19549  -2.19518
  Beta  occ. eigenvalues --   -2.19471  -2.19394  -2.19320  -2.19222  -1.13402
  Beta  occ. eigenvalues --   -1.13346  -1.13336  -1.13307  -1.13201  -1.13191
  Beta  occ. eigenvalues --   -1.13184  -1.13174  -1.13163  -1.13150  -1.13137
  Beta  occ. eigenvalues --   -1.13113  -1.13071  -1.13065  -1.13044  -1.12992
  Beta  occ. eigenvalues --   -1.12965  -1.12952  -1.12915  -1.12875  -1.12842
  Beta  occ. eigenvalues --   -0.17941  -0.12535  -0.12386
  Beta virt. eigenvalues --   -0.07132  -0.05351  -0.04918  -0.04698  -0.02560
  Beta virt. eigenvalues --   -0.02430  -0.01570  -0.01303  -0.01042  -0.00301
  Beta virt. eigenvalues --   -0.00168   0.00133   0.00390   0.00866   0.00896

 Mulliken charges and spin densities:
               1          2
     1  Na  -0.207547   0.549974
     2  Na  -0.059490  -0.071668
     3  Na   0.079861   0.049198
     4  Na   0.071915  -0.013135
     5  Na  -0.060921   0.111329
     6  Na   0.143357  -0.040648
     7  Na   0.032825   0.414950
 Sum of Mulliken charges =  -0.00000   1.00000

 Dipole moment (field-independent basis, Debye):
    X=              0.1387    Y=             -0.0806    Z=              0.0866  Tot=              0.1824
 Quadrupole moment (field-independent basis, Debye-Ang):
   XX=            -58.7317   YY=            -62.1909   ZZ=            -73.0600
   XY=             -0.3739   XZ=             -2.1324   YZ=             -1.4828

 Normal termination of Gaussian 16 at Thu Dec  7 23:29:24 2023.
