 Gaussian 16, Revision B.01,
 Gaussian 16:  ES64L-G16RevB.01 20-Dec-2017

 -------------------------
 #P B3LYP/6-311+g(d) force
 -------------------------

 -----
 DPGEN
 -----
 Symbolic Z-matrix:
 Charge =  0 Multiplicity = 2

                         Standard orientation:
 ---------------------------------------------------------------------
 Center     Atomic      Atomic             Coordinates (Angstroms)
 Number     Number       Type             X           Y           Z
 ---------------------------------------------------------------------
      1         11           0        4.165921   -0.158688   -0.282911
      2         11           0       -2.192605   -1.914513   -0.971547
      3         11           0       -1.842511    0.085912    2.366966
      4         11           0        0.721802   -0.121428   -1.430313
      5         11           0        0.725357    2.147568    0.795791
      6         11           0       -2.247376    1.653358   -1.434683
      7         11           0        0.669412   -1.692209    0.956698
 ---------------------------------------------------------------------

 SCF Done:  E(UB3LYP) =  -1136.12290539     A.U. after   23 cycles

 The electronic state is 2-A.
 Alpha  occ. eigenvalues --  -38.44939 -38.44896 -38.43747 -38.43600 -38.43314
 Alpha  occ. eigenvalues --  -38.43271 -38.43216  -2.20774  -2.20641  -2.19752
 Alpha  occ. eigenvalues --   -2.19424  -2.19199  -2.19164  -2.19061  -1.14453
 Alpha  occ. eigenvalues --   -1.14390  -1.14379  -1.14325  -1.14303  -1.14259
 Alpha  occ. eigenvalues --   -1.13582  -1.13407  -1.13336  -1.13104  -1.13077
 Alpha  occ. eigenvalues --   -1.13042  -1.12914  -1.12859  -1.12843  -1.12812
 Alpha  occ. eigenvalues --   -1.12805  -1.12772  -1.12739  -1.12729  -1.12651
 Alpha  occ. eigenvalues --   -0.18497  -0.12944  -0.12140  -0.11140
 Alpha virt. eigenvalues --   -0.06481  -0.04426  -0.04163  -0.03296  -0.02982
 Alpha virt. eigenvalues --   -0.02905  -0.02317  -0.00948  -0.00708   0.00049
 Alpha virt. eigenvalues --    0.00201   0.00342   0.00443   0.00823   0.00895

  Beta  occ. eigenvalues --  -38.44900 -38.44845 -38.43712 -38.43568 -38.43292
  Beta  occ. eigenvalues --  -38.43251 -38.43201  -2.20649  -2.20603  -2.19689
  Beta  occ. eigenvalues --   -2.19368  -2.19166  -2.19127  -2.19035  -1.14329
  Beta  occ. eigenvalues --   -1.14323  -1.14309  -1.14280  -1.14265  -1.14258
  Beta  occ. eigenvalues --   -1.13542  -1.13365  -1.13279  -1.13053  -1.13042
  Beta  occ. eigenvalues --   -1.13001  -1.12894  -1.12816  -1.12799  -1.12792
  Beta  occ. eigenvalues --   -1.12768  -1.12757  -1.12720  -1.12687  -1.12638
  Beta  occ. eigenvalues --   -0.17699  -0.12720  -0.10983
  Beta virt. eigenvalues --   -0.07988  -0.06342  -0.04261  -0.03663  -0.02942
  Beta virt. eigenvalues --   -0.02394  -0.02328  -0.01966  -0.00703  -0.00509
  Beta virt. eigenvalues --    0.00121   0.00236   0.00404   0.00501   0.00885

 Mulliken charges and spin densities:
               1          2
     1  Na   0.196510  -0.042653
     2  Na   0.044660  -0.047007
     3  Na  -0.005650   0.360388
     4  Na  -0.039749   0.288132
     5  Na  -0.251691   0.156300
     6  Na  -0.027394  -0.008665
     7  Na   0.083313   0.293504
 Sum of Mulliken charges =  -0.00000   1.00000

 Dipole moment (field-independent basis, Debye):
    X=              0.3165    Y=              0.0944    Z=              0.3485  Tot=              0.4802
 Quadrupole moment (field-independent basis, Debye-Ang):
   XX=            -49.1835   YY=            -76.9845   ZZ=            -65.1157
   XY=              0.4691   XZ=              0.1278   YZ=              1.2241

 Normal termination of Gaussian 16 at Tue Dec  5 20:19:31 2023.
