 Gaussian 16, Revision B.01,
 Gaussian 16:  ES64L-G16RevB.01 20-Dec-2017

 -------------------------
 #P B3LYP/6-311+g(d) force
 -------------------------

 -----
 DPGEN
 -----
 Symbolic Z-matrix:
 Charge =  0 Multiplicity = 2

                         Standard orientation:
 ---------------------------------------------------------------------
 Center     Atomic      Atomic             Coordinates (Angstroms)
 Number     Number       Type             X           Y           Z
 ---------------------------------------------------------------------
      1         11           0       -0.761430    2.822520    0.396512
      2         11           0        2.660048    1.553081    0.318494
      3         11           0       -1.762085   -2.427954    0.374760
      4         11           0       -0.214767   -0.727911    2.301678
      5         11           0        2.811043   -1.599189   -0.790138
      6         11           0        0.221180   -0.252088   -1.528650
      7         11           0       -2.953988    0.631541   -1.072655
 ---------------------------------------------------------------------

 SCF Done:  E(UB3LYP) =  -1136.12950024     A.U. after   20 cycles

 The electronic state is 2-A.
 Alpha  occ. eigenvalues --  -38.44449 -38.44027 -38.44005 -38.43989 -38.43574
 Alpha  occ. eigenvalues --  -38.43428 -38.43040  -2.20314  -2.19852  -2.19851
 Alpha  occ. eigenvalues --   -2.19847  -2.19547  -2.19295  -2.18853  -1.14003
 Alpha  occ. eigenvalues --   -1.13931  -1.13929  -1.13609  -1.13540  -1.13535
 Alpha  occ. eigenvalues --   -1.13527  -1.13507  -1.13496  -1.13473  -1.13469
 Alpha  occ. eigenvalues --   -1.13434  -1.13218  -1.13180  -1.13168  -1.12999
 Alpha  occ. eigenvalues --   -1.12935  -1.12920  -1.12527  -1.12519  -1.12498
 Alpha  occ. eigenvalues --   -0.18253  -0.13307  -0.12047  -0.11449
 Alpha virt. eigenvalues --   -0.05462  -0.05302  -0.04457  -0.03455  -0.03231
 Alpha virt. eigenvalues --   -0.02889  -0.01596  -0.01014  -0.00442  -0.00053
 Alpha virt. eigenvalues --   -0.00018   0.00329   0.00697   0.00824   0.00863

  Beta  occ. eigenvalues --  -38.44351 -38.44023 -38.43974 -38.43968 -38.43526
  Beta  occ. eigenvalues --  -38.43422 -38.43038  -2.20134  -2.19844  -2.19811
  Beta  occ. eigenvalues --   -2.19795  -2.19461  -2.19290  -2.18851  -1.13882
  Beta  occ. eigenvalues --   -1.13809  -1.13800  -1.13574  -1.13525  -1.13519
  Beta  occ. eigenvalues --   -1.13490  -1.13489  -1.13459  -1.13442  -1.13441
  Beta  occ. eigenvalues --   -1.13417  -1.13157  -1.13120  -1.13106  -1.12978
  Beta  occ. eigenvalues --   -1.12927  -1.12908  -1.12525  -1.12519  -1.12485
  Beta  occ. eigenvalues --   -0.17577  -0.13018  -0.11740
  Beta virt. eigenvalues --   -0.07647  -0.05334  -0.05165  -0.04191  -0.02887
  Beta virt. eigenvalues --   -0.02541  -0.02038  -0.01445  -0.00938  -0.00324
  Beta virt. eigenvalues --   -0.00031   0.00095   0.00375   0.00823   0.00870

 Mulliken charges and spin densities:
               1          2
     1  Na  -0.286184   0.142398
     2  Na  -0.175485   0.117409
     3  Na  -0.013973   0.139351
     4  Na  -0.283685   0.425649
     5  Na   0.498910   0.075158
     6  Na  -0.239672   0.075094
     7  Na   0.500088   0.024941
 Sum of Mulliken charges =  -0.00000   1.00000

 Dipole moment (field-independent basis, Debye):
    X=              0.2653    Y=             -0.2487    Z=              0.2030  Tot=              0.4164
 Quadrupole moment (field-independent basis, Debye-Ang):
   XX=            -57.3798   YY=            -67.8843   ZZ=            -70.5544
   XY=              0.0158   XZ=              2.4018   YZ=              2.1377

 Normal termination of Gaussian 16 at Thu Dec  7 07:02:43 2023.
