 Gaussian 16, Revision B.01,
 Gaussian 16:  ES64L-G16RevB.01 20-Dec-2017

 -------------------------
 #P B3LYP/6-311+g(d) force
 -------------------------

 -----
 DPGEN
 -----
 Symbolic Z-matrix:
 Charge =  0 Multiplicity = 2

                         Standard orientation:
 ---------------------------------------------------------------------
 Center     Atomic      Atomic             Coordinates (Angstroms)
 Number     Number       Type             X           Y           Z
 ---------------------------------------------------------------------
      1         11           0        2.066253   -1.296060    1.382981
      2         11           0        0.949516    0.460184   -1.086914
      3         11           0       -2.351638    1.431445   -0.153296
      4         11           0       -1.067840   -2.038412    0.542926
      5         11           0       -4.216060   -1.099789   -0.635268
      6         11           0        0.086372    2.863255    0.912070
      7         11           0        4.533398   -0.320622   -0.962499
 ---------------------------------------------------------------------

 SCF Done:  E(UB3LYP) =  -1136.12484240     A.U. after   20 cycles

 The electronic state is 2-A.
 Alpha  occ. eigenvalues --  -38.44626 -38.44218 -38.44124 -38.43497 -38.43480
 Alpha  occ. eigenvalues --  -38.43424 -38.43224  -2.20532  -2.20035  -2.19996
 Alpha  occ. eigenvalues --   -2.19355  -2.19344  -2.19341  -2.19096  -1.14247
 Alpha  occ. eigenvalues --   -1.14220  -1.14137  -1.13689  -1.13680  -1.13675
 Alpha  occ. eigenvalues --   -1.13656  -1.13651  -1.13605  -1.13114  -1.13044
 Alpha  occ. eigenvalues --   -1.13041  -1.13032  -1.13016  -1.12988  -1.12983
 Alpha  occ. eigenvalues --   -1.12945  -1.12919  -1.12749  -1.12735  -1.12715
 Alpha  occ. eigenvalues --   -0.17890  -0.14136  -0.12111  -0.11005
 Alpha virt. eigenvalues --   -0.06411  -0.04809  -0.04694  -0.03642  -0.02814
 Alpha virt. eigenvalues --   -0.02406  -0.01673  -0.01394  -0.00974  -0.00362
 Alpha virt. eigenvalues --   -0.00186   0.00136   0.00401   0.00547   0.00840

  Beta  occ. eigenvalues --  -38.44621 -38.44129 -38.44094 -38.43458 -38.43440
  Beta  occ. eigenvalues --  -38.43413 -38.43226  -2.20525  -2.19949  -2.19868
  Beta  occ. eigenvalues --   -2.19336  -2.19277  -2.19268  -2.19099  -1.14239
  Beta  occ. eigenvalues --   -1.14197  -1.14133  -1.13646  -1.13625  -1.13579
  Beta  occ. eigenvalues --   -1.13562  -1.13557  -1.13516  -1.13080  -1.13026
  Beta  occ. eigenvalues --   -1.13022  -1.12995  -1.12970  -1.12936  -1.12934
  Beta  occ. eigenvalues --   -1.12911  -1.12856  -1.12752  -1.12733  -1.12712
  Beta  occ. eigenvalues --   -0.17369  -0.13479  -0.11865
  Beta virt. eigenvalues --   -0.07345  -0.06255  -0.04698  -0.04061  -0.03418
  Beta virt. eigenvalues --   -0.02570  -0.02031  -0.01247  -0.01101  -0.00607
  Beta virt. eigenvalues --   -0.00230  -0.00013   0.00269   0.00567   0.00691

 Mulliken charges and spin densities:
               1          2
     1  Na   0.301281  -0.048790
     2  Na  -0.406174  -0.102500
     3  Na   0.027772   0.117155
     4  Na  -0.507601   0.202734
     5  Na   0.433773   0.223290
     6  Na   0.019285   0.149960
     7  Na   0.131664   0.458151
 Sum of Mulliken charges =  -0.00000   1.00000

 Dipole moment (field-independent basis, Debye):
    X=              0.5886    Y=              0.0251    Z=              0.4750  Tot=              0.7568
 Quadrupole moment (field-independent basis, Debye-Ang):
   XX=            -62.8397   YY=            -72.1171   ZZ=            -65.0844
   XY=              0.9195   XZ=              2.8828   YZ=              1.7210

 Normal termination of Gaussian 16 at Wed Nov 29 03:34:11 2023.
