 Gaussian 16, Revision B.01,
 Gaussian 16:  ES64L-G16RevB.01 20-Dec-2017

 -------------------------
 #P B3LYP/6-311+g(d) force
 -------------------------

 -----
 DPGEN
 -----
 Symbolic Z-matrix:
 Charge =  0 Multiplicity = 2

                         Standard orientation:
 ---------------------------------------------------------------------
 Center     Atomic      Atomic             Coordinates (Angstroms)
 Number     Number       Type             X           Y           Z
 ---------------------------------------------------------------------
      1         11           0       -3.129826    0.521273    0.318277
      2         11           0        2.644700    1.304292   -0.321760
      3         11           0       -0.369111    2.739375    0.058172
      4         11           0        0.166225   -0.372673    2.066999
      5         11           0       -1.704524   -2.478366   -0.532396
      6         11           0       -0.226240    0.169067   -1.679960
      7         11           0        2.618775   -1.882969    0.090668
 ---------------------------------------------------------------------

 SCF Done:  E(UB3LYP) =  -1136.13568095     A.U. after   20 cycles

 The electronic state is 2-A.
 Alpha  occ. eigenvalues --  -38.44344 -38.43855 -38.43844 -38.43718 -38.43566
 Alpha  occ. eigenvalues --  -38.43325 -38.42799  -2.20176  -2.19711  -2.19678
 Alpha  occ. eigenvalues --   -2.19603  -2.19404  -2.19309  -2.18693  -1.13846
 Alpha  occ. eigenvalues --   -1.13836  -1.13819  -1.13400  -1.13378  -1.13360
 Alpha  occ. eigenvalues --   -1.13343  -1.13324  -1.13304  -1.13282  -1.13261
 Alpha  occ. eigenvalues --   -1.13214  -1.13123  -1.13053  -1.13032  -1.13001
 Alpha  occ. eigenvalues --   -1.12944  -1.12917  -1.12385  -1.12348  -1.12319
 Alpha  occ. eigenvalues --   -0.18657  -0.13347  -0.12136  -0.10905
 Alpha virt. eigenvalues --   -0.05867  -0.05212  -0.04323  -0.03406  -0.02910
 Alpha virt. eigenvalues --   -0.02602  -0.01675  -0.01039  -0.00414  -0.00148
 Alpha virt. eigenvalues --   -0.00030   0.00355   0.00764   0.00856   0.00891

  Beta  occ. eigenvalues --  -38.44339 -38.43854 -38.43755 -38.43710 -38.43552
  Beta  occ. eigenvalues --  -38.43259 -38.42794  -2.20168  -2.19681  -2.19592
  Beta  occ. eigenvalues --   -2.19547  -2.19380  -2.19190  -2.18688  -1.13835
  Beta  occ. eigenvalues --   -1.13826  -1.13807  -1.13396  -1.13338  -1.13319
  Beta  occ. eigenvalues --   -1.13274  -1.13264  -1.13243  -1.13228  -1.13207
  Beta  occ. eigenvalues --   -1.13201  -1.13090  -1.13028  -1.13016  -1.12919
  Beta  occ. eigenvalues --   -1.12866  -1.12832  -1.12379  -1.12336  -1.12301
  Beta  occ. eigenvalues --   -0.17930  -0.13126  -0.11878
  Beta virt. eigenvalues --   -0.07011  -0.05773  -0.05198  -0.04275  -0.02651
  Beta virt. eigenvalues --   -0.02134  -0.01632  -0.01530  -0.00947  -0.00445
  Beta virt. eigenvalues --   -0.00182   0.00111   0.00384   0.00838   0.00863

 Mulliken charges and spin densities:
               1          2
     1  Na   0.152329   0.049786
     2  Na   0.193078   0.002643
     3  Na   0.115693   0.030217
     4  Na  -0.540894   0.665482
     5  Na   0.088502  -0.047940
     6  Na  -0.158572   0.364818
     7  Na   0.149865  -0.065006
 Sum of Mulliken charges =  -0.00000   1.00000

 Dipole moment (field-independent basis, Debye):
    X=             -0.1851    Y=             -0.2232    Z=              0.2156  Tot=              0.3614
 Quadrupole moment (field-independent basis, Debye-Ang):
   XX=            -55.4317   YY=            -65.2131   ZZ=            -73.4672
   XY=             -0.7305   XZ=             -1.4583   YZ=              1.2548

 Normal termination of Gaussian 16 at Thu Dec  7 05:59:26 2023.
