 Gaussian 16, Revision B.01,
 Gaussian 16:  ES64L-G16RevB.01 20-Dec-2017

 -------------------------
 #P B3LYP/6-311+g(d) force
 -------------------------

 -----
 DPGEN
 -----
 Symbolic Z-matrix:
 Charge =  0 Multiplicity = 2

                         Standard orientation:
 ---------------------------------------------------------------------
 Center     Atomic      Atomic             Coordinates (Angstroms)
 Number     Number       Type             X           Y           Z
 ---------------------------------------------------------------------
      1         11           0        0.515723   -1.155593   -0.775960
      2         11           0       -2.874322    0.148084   -1.204410
      3         11           0       -1.589417   -3.271524    0.174071
      4         11           0       -0.421783   -0.173126    2.105529
      5         11           0        1.741169    2.288969   -0.295369
      6         11           0       -1.604269    2.979747    0.234069
      7         11           0        4.232900   -0.816556   -0.237931
 ---------------------------------------------------------------------

 SCF Done:  E(UB3LYP) =  -1136.12450947     A.U. after   19 cycles

 The electronic state is 2-A.
 Alpha  occ. eigenvalues --  -38.44556 -38.44343 -38.44324 -38.44096 -38.44015
 Alpha  occ. eigenvalues --  -38.43558 -38.43465  -2.20334  -2.20155  -2.20069
 Alpha  occ. eigenvalues --   -2.19953  -2.19838  -2.19473  -2.19280  -1.14036
 Alpha  occ. eigenvalues --   -1.14013  -1.13941  -1.13858  -1.13801  -1.13790
 Alpha  occ. eigenvalues --   -1.13741  -1.13735  -1.13687  -1.13658  -1.13584
 Alpha  occ. eigenvalues --   -1.13537  -1.13515  -1.13489  -1.13446  -1.13194
 Alpha  occ. eigenvalues --   -1.13157  -1.13054  -1.12953  -1.12942  -1.12927
 Alpha  occ. eigenvalues --   -0.17726  -0.12892  -0.12466  -0.10366
 Alpha virt. eigenvalues --   -0.06440  -0.05688  -0.04761  -0.03046  -0.02843
 Alpha virt. eigenvalues --   -0.02235  -0.02051  -0.01703  -0.00883  -0.00482
 Alpha virt. eigenvalues --   -0.00163   0.00167   0.00563   0.00611   0.00746

  Beta  occ. eigenvalues --  -38.44557 -38.44343 -38.44312 -38.43996 -38.43952
  Beta  occ. eigenvalues --  -38.43549 -38.43464  -2.20338  -2.20158  -2.20046
  Beta  occ. eigenvalues --   -2.19769  -2.19721  -2.19460  -2.19282  -1.14038
  Beta  occ. eigenvalues --   -1.14007  -1.13945  -1.13864  -1.13796  -1.13782
  Beta  occ. eigenvalues --   -1.13723  -1.13719  -1.13672  -1.13536  -1.13461
  Beta  occ. eigenvalues --   -1.13433  -1.13410  -1.13402  -1.13363  -1.13167
  Beta  occ. eigenvalues --   -1.13133  -1.13051  -1.12959  -1.12938  -1.12911
  Beta  occ. eigenvalues --   -0.17091  -0.12720  -0.12139
  Beta virt. eigenvalues --   -0.06775  -0.06099  -0.05575  -0.04623  -0.02383
  Beta virt. eigenvalues --   -0.02303  -0.01994  -0.01706  -0.01356  -0.00779
  Beta virt. eigenvalues --   -0.00383   0.00054   0.00259   0.00610   0.00699

 Mulliken charges and spin densities:
               1          2
     1  Na  -0.508508   0.324678
     2  Na  -0.076126   0.198880
     3  Na   0.351485  -0.043455
     4  Na  -0.046861   0.368288
     5  Na   0.035335  -0.039304
     6  Na   0.098305   0.091737
     7  Na   0.146370   0.099175
 Sum of Mulliken charges =  -0.00000   1.00000

 Dipole moment (field-independent basis, Debye):
    X=              0.0831    Y=             -0.4832    Z=              0.5436  Tot=              0.7320
 Quadrupole moment (field-independent basis, Debye-Ang):
   XX=            -60.8436   YY=            -58.6502   ZZ=            -74.3800
   XY=              2.3771   XZ=             -0.2386   YZ=             -0.7323

 Normal termination of Gaussian 16 at Sat Dec  9 06:24:39 2023.
