 Gaussian 16, Revision B.01,
 Gaussian 16:  ES64L-G16RevB.01 20-Dec-2017

 -------------------------
 #P B3LYP/6-311+g(d) force
 -------------------------

 -----
 DPGEN
 -----
 Symbolic Z-matrix:
 Charge =  0 Multiplicity = 2

                         Standard orientation:
 ---------------------------------------------------------------------
 Center     Atomic      Atomic             Coordinates (Angstroms)
 Number     Number       Type             X           Y           Z
 ---------------------------------------------------------------------
      1         11           0        1.124991    1.779410    0.239033
      2         11           0        2.542237   -0.656038    1.502808
      3         11           0       -4.386527   -0.569433   -0.653320
      4         11           0       -2.342473    1.861643    0.202030
      5         11           0       -1.192518   -1.334551    1.177536
      6         11           0        0.161658   -1.109594   -1.277864
      7         11           0        4.092632    0.028563   -1.190224
 ---------------------------------------------------------------------

 SCF Done:  E(UB3LYP) =  -1136.10809571     A.U. after   28 cycles

 The electronic state is 2-A.
 Alpha  occ. eigenvalues --  -38.45398 -38.45241 -38.44388 -38.44095 -38.43613
 Alpha  occ. eigenvalues --  -38.43032 -38.42883  -2.21288  -2.21141  -2.20204
 Alpha  occ. eigenvalues --   -2.19941  -2.19534  -2.18886  -2.18819  -1.15023
 Alpha  occ. eigenvalues --   -1.14962  -1.14888  -1.14868  -1.14796  -1.14727
 Alpha  occ. eigenvalues --   -1.13861  -1.13843  -1.13825  -1.13611  -1.13585
 Alpha  occ. eigenvalues --   -1.13548  -1.13246  -1.13200  -1.13119  -1.12576
 Alpha  occ. eigenvalues --   -1.12569  -1.12555  -1.12528  -1.12468  -1.12396
 Alpha  occ. eigenvalues --   -0.18579  -0.14662  -0.11170  -0.10592
 Alpha virt. eigenvalues --   -0.07557  -0.05229  -0.04616  -0.03455  -0.02951
 Alpha virt. eigenvalues --   -0.02083  -0.01877  -0.01599  -0.01127  -0.00353
 Alpha virt. eigenvalues --   -0.00144   0.00197   0.00264   0.00587   0.00723

  Beta  occ. eigenvalues --  -38.45394 -38.45236 -38.44322 -38.44038 -38.43558
  Beta  occ. eigenvalues --  -38.43018 -38.42880  -2.21285  -2.21134  -2.20081
  Beta  occ. eigenvalues --   -2.19833  -2.19439  -2.18867  -2.18816  -1.15008
  Beta  occ. eigenvalues --   -1.14951  -1.14880  -1.14863  -1.14785  -1.14726
  Beta  occ. eigenvalues --   -1.13776  -1.13765  -1.13740  -1.13535  -1.13510
  Beta  occ. eigenvalues --   -1.13483  -1.13186  -1.13133  -1.13029  -1.12571
  Beta  occ. eigenvalues --   -1.12565  -1.12548  -1.12470  -1.12445  -1.12393
  Beta  occ. eigenvalues --   -0.17978  -0.14110  -0.10337
  Beta virt. eigenvalues --   -0.07602  -0.07348  -0.04569  -0.04477  -0.03161
  Beta virt. eigenvalues --   -0.02678  -0.01747  -0.01442  -0.01210  -0.00915
  Beta virt. eigenvalues --   -0.00173   0.00003   0.00286   0.00328   0.00678

 Mulliken charges and spin densities:
               1          2
     1  Na  -0.657825   0.062799
     2  Na   0.618301   0.164856
     3  Na   0.524029   0.361410
     4  Na  -0.554257  -0.064436
     5  Na   0.121619   0.193257
     6  Na  -0.483613  -0.107000
     7  Na   0.431747   0.389114
 Sum of Mulliken charges =  -0.00000   1.00000

 Dipole moment (field-independent basis, Debye):
    X=              0.7581    Y=             -1.1930    Z=             -0.0106  Tot=              1.4136
 Quadrupole moment (field-independent basis, Debye-Ang):
   XX=            -63.7601   YY=            -80.8800   ZZ=            -59.0256
   XY=              1.1060   XZ=              2.1253   YZ=              1.7735

 Normal termination of Gaussian 16 at Tue Dec  5 21:30:33 2023.
