 Gaussian 16, Revision B.01,
 Gaussian 16:  ES64L-G16RevB.01 20-Dec-2017

 -------------------------
 #P B3LYP/6-311+g(d) force
 -------------------------

 -----
 DPGEN
 -----
 Symbolic Z-matrix:
 Charge =  0 Multiplicity = 2

                         Standard orientation:
 ---------------------------------------------------------------------
 Center     Atomic      Atomic             Coordinates (Angstroms)
 Number     Number       Type             X           Y           Z
 ---------------------------------------------------------------------
      1         11           0        2.425263   -0.885664   -1.017916
      2         11           0        5.037906   -1.979820    0.241411
      3         11           0        3.797735    1.182098    0.898299
      4         11           0        0.352210    2.896418   -0.125580
      5         11           0       -0.892675    0.156187   -0.922351
      6         11           0       -4.044441   -0.907756    1.233022
      7         11           0       -6.675999   -0.461463   -0.306885
 ---------------------------------------------------------------------

 SCF Done:  E(UB3LYP) =  -1136.11396934     A.U. after   19 cycles

 The electronic state is 2-A.
 Alpha  occ. eigenvalues --  -38.44387 -38.44326 -38.44257 -38.44176 -38.44151
 Alpha  occ. eigenvalues --  -38.44088 -38.43425  -2.20241  -2.20163  -2.20086
 Alpha  occ. eigenvalues --   -2.20047  -2.19957  -2.19883  -2.19280  -1.13981
 Alpha  occ. eigenvalues --   -1.13909  -1.13889  -1.13842  -1.13816  -1.13772
 Alpha  occ. eigenvalues --   -1.13755  -1.13754  -1.13744  -1.13699  -1.13696
 Alpha  occ. eigenvalues --   -1.13647  -1.13639  -1.13621  -1.13591  -1.13544
 Alpha  occ. eigenvalues --   -1.13534  -1.13497  -1.12944  -1.12935  -1.12904
 Alpha  occ. eigenvalues --   -0.16758  -0.13899  -0.12367  -0.10543
 Alpha virt. eigenvalues --   -0.06271  -0.05858  -0.04321  -0.03786  -0.02920
 Alpha virt. eigenvalues --   -0.02394  -0.01979  -0.01710  -0.01299  -0.00658
 Alpha virt. eigenvalues --   -0.00303  -0.00050   0.00290   0.00477   0.00650

  Beta  occ. eigenvalues --  -38.44322 -38.44318 -38.44244 -38.44138 -38.44131
  Beta  occ. eigenvalues --  -38.44092 -38.43390  -2.20149  -2.20120  -2.20022
  Beta  occ. eigenvalues --   -2.20018  -2.19921  -2.19890  -2.19216  -1.13910
  Beta  occ. eigenvalues --   -1.13861  -1.13829  -1.13807  -1.13794  -1.13742
  Beta  occ. eigenvalues --   -1.13713  -1.13709  -1.13682  -1.13679  -1.13672
  Beta  occ. eigenvalues --   -1.13613  -1.13601  -1.13596  -1.13557  -1.13550
  Beta  occ. eigenvalues --   -1.13538  -1.13492  -1.12895  -1.12888  -1.12865
  Beta  occ. eigenvalues --   -0.16097  -0.13773  -0.12179
  Beta virt. eigenvalues --   -0.06939  -0.05943  -0.05486  -0.03911  -0.03561
  Beta virt. eigenvalues --   -0.02587  -0.02159  -0.01658  -0.01500  -0.01105
  Beta virt. eigenvalues --   -0.00430  -0.00032   0.00163   0.00477   0.00588

 Mulliken charges and spin densities:
               1          2
     1  Na  -0.373893   0.317239
     2  Na   1.017480  -0.000039
     3  Na  -0.174015   0.331446
     4  Na   0.361452   0.138122
     5  Na  -0.991467   0.194560
     6  Na  -0.075185  -0.027932
     7  Na   0.235627   0.046605
 Sum of Mulliken charges =  -0.00000   1.00000

 Dipole moment (field-independent basis, Debye):
    X=              0.6559    Y=             -0.2331    Z=              0.1732  Tot=              0.7173
 Quadrupole moment (field-independent basis, Debye-Ang):
   XX=            -54.4142   YY=            -67.9671   ZZ=            -69.5331
   XY=             -8.5202   XZ=              6.2309   YZ=             -2.0448

 Normal termination of Gaussian 16 at Tue Nov 28 20:09:31 2023.
