 Gaussian 16, Revision B.01,
 Gaussian 16:  ES64L-G16RevB.01 20-Dec-2017

 -------------------------
 #P B3LYP/6-311+g(d) force
 -------------------------

 -----
 DPGEN
 -----
 Symbolic Z-matrix:
 Charge =  0 Multiplicity = 2

                         Standard orientation:
 ---------------------------------------------------------------------
 Center     Atomic      Atomic             Coordinates (Angstroms)
 Number     Number       Type             X           Y           Z
 ---------------------------------------------------------------------
      1         11           0        1.939690    1.897248   -0.726423
      2         11           0       -0.863498    3.252043    0.222808
      3         11           0       -3.305120   -0.003333    0.728722
      4         11           0        4.985499   -0.606674   -1.018529
      5         11           0       -5.681034   -1.662221   -1.291832
      6         11           0       -0.040820   -0.409097    1.475161
      7         11           0        2.965282   -2.467967    0.610093
 ---------------------------------------------------------------------

 SCF Done:  E(UB3LYP) =  -1136.11425896     A.U. after   20 cycles

 The electronic state is 2-A.
 Alpha  occ. eigenvalues --  -38.44681 -38.44618 -38.44590 -38.44456 -38.44445
 Alpha  occ. eigenvalues --  -38.44334 -38.43756  -2.20479  -2.20447  -2.20388
 Alpha  occ. eigenvalues --   -2.20251  -2.20247  -2.20102  -2.19534  -1.14173
 Alpha  occ. eigenvalues --   -1.14138  -1.14123  -1.14120  -1.14109  -1.14058
 Alpha  occ. eigenvalues --   -1.14055  -1.14033  -1.13998  -1.13953  -1.13937
 Alpha  occ. eigenvalues --   -1.13922  -1.13917  -1.13882  -1.13816  -1.13752
 Alpha  occ. eigenvalues --   -1.13751  -1.13716  -1.13236  -1.13220  -1.13165
 Alpha  occ. eigenvalues --   -0.16591  -0.13816  -0.12223  -0.11156
 Alpha virt. eigenvalues --   -0.06844  -0.06265  -0.04219  -0.03408  -0.03143
 Alpha virt. eigenvalues --   -0.02406  -0.02271  -0.01628  -0.01173  -0.01020
 Alpha virt. eigenvalues --   -0.00622  -0.00318   0.00130   0.00262   0.00600

  Beta  occ. eigenvalues --  -38.44655 -38.44576 -38.44542 -38.44451 -38.44425
  Beta  occ. eigenvalues --  -38.44267 -38.43775  -2.20430  -2.20363  -2.20307
  Beta  occ. eigenvalues --   -2.20241  -2.20209  -2.19977  -2.19573  -1.14146
  Beta  occ. eigenvalues --   -1.14105  -1.14083  -1.14043  -1.14030  -1.14029
  Beta  occ. eigenvalues --   -1.14010  -1.13969  -1.13945  -1.13934  -1.13919
  Beta  occ. eigenvalues --   -1.13904  -1.13892  -1.13870  -1.13795  -1.13667
  Beta  occ. eigenvalues --   -1.13666  -1.13635  -1.13259  -1.13249  -1.13167
  Beta  occ. eigenvalues --   -0.16054  -0.13655  -0.11644
  Beta virt. eigenvalues --   -0.07879  -0.06381  -0.05735  -0.03954  -0.03105
  Beta virt. eigenvalues --   -0.02853  -0.02283  -0.01958  -0.01431  -0.00960
  Beta virt. eigenvalues --   -0.00683  -0.00367  -0.00040   0.00198   0.00427

 Mulliken charges and spin densities:
               1          2
     1  Na  -0.080731   0.127620
     2  Na   0.562141   0.095238
     3  Na  -0.303373  -0.033640
     4  Na  -0.069202   0.077679
     5  Na   0.239029   0.333190
     6  Na  -0.840788   0.430639
     7  Na   0.492924  -0.030725
 Sum of Mulliken charges =  -0.00000   1.00000

 Dipole moment (field-independent basis, Debye):
    X=              1.1831    Y=              0.3245    Z=             -0.3325  Tot=              1.2711
 Quadrupole moment (field-independent basis, Debye-Ang):
   XX=            -61.7395   YY=            -65.0042   ZZ=            -70.1752
   XY=             -4.5689   XZ=              0.1772   YZ=              2.2490

 Normal termination of Gaussian 16 at Tue Nov 28 23:57:25 2023.
