 Gaussian 16, Revision B.01,
 Gaussian 16:  ES64L-G16RevB.01 20-Dec-2017

 -------------------------
 #P B3LYP/6-311+g(d) force
 -------------------------

 -----
 DPGEN
 -----
 Symbolic Z-matrix:
 Charge =  0 Multiplicity = 2

                         Standard orientation:
 ---------------------------------------------------------------------
 Center     Atomic      Atomic             Coordinates (Angstroms)
 Number     Number       Type             X           Y           Z
 ---------------------------------------------------------------------
      1         11           0        3.066639    0.743359   -0.066710
      2         11           0        1.769356   -2.871939   -0.034604
      3         11           0       -2.811662    1.536124   -0.262882
      4         11           0       -2.539368   -1.994944    0.206989
      5         11           0        0.629843    3.171154   -0.109949
      6         11           0       -0.094647   -0.616645   -1.704046
      7         11           0       -0.020160    0.032891    1.971202
 ---------------------------------------------------------------------

 SCF Done:  E(UB3LYP) =  -1136.13526944     A.U. after   19 cycles

 The electronic state is 2-A.
 Alpha  occ. eigenvalues --  -38.44250 -38.44122 -38.44082 -38.44072 -38.43615
 Alpha  occ. eigenvalues --  -38.43464 -38.43360  -2.20060  -2.19922  -2.19875
 Alpha  occ. eigenvalues --   -2.19858  -2.19409  -2.19324  -2.19255  -1.13738
 Alpha  occ. eigenvalues --   -1.13724  -1.13696  -1.13602  -1.13591  -1.13557
 Alpha  occ. eigenvalues --   -1.13551  -1.13539  -1.13535  -1.13513  -1.13511
 Alpha  occ. eigenvalues --   -1.13499  -1.13081  -1.13069  -1.13057  -1.13001
 Alpha  occ. eigenvalues --   -1.12949  -1.12943  -1.12936  -1.12896  -1.12873
 Alpha  occ. eigenvalues --   -0.17943  -0.12856  -0.12373  -0.10285
 Alpha virt. eigenvalues --   -0.05908  -0.05418  -0.05150  -0.03069  -0.02808
 Alpha virt. eigenvalues --   -0.02329  -0.01594  -0.01470  -0.00809  -0.00728
 Alpha virt. eigenvalues --   -0.00016   0.00345   0.00749   0.00763   0.00807

  Beta  occ. eigenvalues --  -38.44245 -38.44120 -38.44076 -38.44070 -38.43614
  Beta  occ. eigenvalues --  -38.43373 -38.43300  -2.20052  -2.19920  -2.19867
  Beta  occ. eigenvalues --   -2.19859  -2.19409  -2.19155  -2.19144  -1.13729
  Beta  occ. eigenvalues --   -1.13700  -1.13693  -1.13594  -1.13580  -1.13559
  Beta  occ. eigenvalues --   -1.13533  -1.13529  -1.13524  -1.13508  -1.13505
  Beta  occ. eigenvalues --   -1.13502  -1.13072  -1.13067  -1.13056  -1.12891
  Beta  occ. eigenvalues --   -1.12853  -1.12831  -1.12820  -1.12816  -1.12791
  Beta  occ. eigenvalues --   -0.17243  -0.12664  -0.12177
  Beta virt. eigenvalues --   -0.06451  -0.05902  -0.05371  -0.05046  -0.02320
  Beta virt. eigenvalues --   -0.02115  -0.01510  -0.01394  -0.01299  -0.00865
  Beta virt. eigenvalues --   -0.00763   0.00137   0.00384   0.00748   0.00811

 Mulliken charges and spin densities:
               1          2
     1  Na   0.026922  -0.078992
     2  Na   0.127322  -0.137482
     3  Na   0.002100  -0.028455
     4  Na   0.179788  -0.088092
     5  Na  -0.108309  -0.067171
     6  Na  -0.030467   0.620331
     7  Na  -0.197357   0.779862
 Sum of Mulliken charges =  -0.00000   1.00000

 Dipole moment (field-independent basis, Debye):
    X=             -0.0968    Y=             -0.3288    Z=              0.0371  Tot=              0.3447
 Quadrupole moment (field-independent basis, Debye-Ang):
   XX=            -56.7611   YY=            -59.0724   ZZ=            -76.9183
   XY=             -0.3526   XZ=             -0.0224   YZ=             -1.5464

 Normal termination of Gaussian 16 at Thu Dec  7 04:49:40 2023.
