 Gaussian 16, Revision B.01,
 Gaussian 16:  ES64L-G16RevB.01 20-Dec-2017

 -------------------------
 #P B3LYP/6-311+g(d) force
 -------------------------

 -----
 DPGEN
 -----
 Symbolic Z-matrix:
 Charge =  0 Multiplicity = 2

                         Standard orientation:
 ---------------------------------------------------------------------
 Center     Atomic      Atomic             Coordinates (Angstroms)
 Number     Number       Type             X           Y           Z
 ---------------------------------------------------------------------
      1         11           0        6.143789   -0.933707   -0.861659
      2         11           0       -2.390616    2.671008    0.254237
      3         11           0       -3.141195   -2.313399   -0.371281
      4         11           0        0.722263   -1.013031    0.917940
      5         11           0        0.718580    1.903917   -0.943437
      6         11           0        3.532966    0.269799    1.136072
      7         11           0       -5.585788   -0.584588   -0.131871
 ---------------------------------------------------------------------

 SCF Done:  E(UB3LYP) =  -1136.10618939     A.U. after   20 cycles

 The electronic state is 2-A.
 Alpha  occ. eigenvalues --  -38.44906 -38.44477 -38.44436 -38.44345 -38.44317
 Alpha  occ. eigenvalues --  -38.44249 -38.44139  -2.20754  -2.20273  -2.20216
 Alpha  occ. eigenvalues --   -2.20120  -2.20117  -2.20050  -2.19967  -1.14426
 Alpha  occ. eigenvalues --   -1.14404  -1.14364  -1.14026  -1.13928  -1.13914
 Alpha  occ. eigenvalues --   -1.13862  -1.13860  -1.13833  -1.13783  -1.13775
 Alpha  occ. eigenvalues --   -1.13766  -1.13759  -1.13752  -1.13738  -1.13723
 Alpha  occ. eigenvalues --   -1.13708  -1.13669  -1.13666  -1.13633  -1.13595
 Alpha  occ. eigenvalues --   -0.16339  -0.13906  -0.12062  -0.11095
 Alpha virt. eigenvalues --   -0.06811  -0.06156  -0.04368  -0.03499  -0.03036
 Alpha virt. eigenvalues --   -0.02684  -0.02085  -0.01843  -0.01259  -0.00745
 Alpha virt. eigenvalues --   -0.00330  -0.00256  -0.00040   0.00120   0.00356

  Beta  occ. eigenvalues --  -38.44836 -38.44482 -38.44354 -38.44305 -38.44291
  Beta  occ. eigenvalues --  -38.44258 -38.44151  -2.20622  -2.20280  -2.20096
  Beta  occ. eigenvalues --   -2.20068  -2.20062  -2.20015  -2.19995  -1.14338
  Beta  occ. eigenvalues --   -1.14316  -1.14280  -1.14027  -1.13934  -1.13916
  Beta  occ. eigenvalues --   -1.13759  -1.13757  -1.13755  -1.13755  -1.13744
  Beta  occ. eigenvalues --   -1.13738  -1.13736  -1.13713  -1.13708  -1.13700
  Beta  occ. eigenvalues --   -1.13686  -1.13677  -1.13658  -1.13643  -1.13585
  Beta  occ. eigenvalues --   -0.15890  -0.13684  -0.11433
  Beta virt. eigenvalues --   -0.07894  -0.06165  -0.05751  -0.04164  -0.03237
  Beta virt. eigenvalues --   -0.02786  -0.02438  -0.01868  -0.01559  -0.00982
  Beta virt. eigenvalues --   -0.00474  -0.00200  -0.00043   0.00073   0.00293

 Mulliken charges and spin densities:
               1          2
     1  Na   0.074702   0.427114
     2  Na   0.094271   0.262197
     3  Na  -0.138022   0.002449
     4  Na  -0.274364   0.286329
     5  Na  -0.191705   0.016161
     6  Na   0.293588   0.006210
     7  Na   0.141530  -0.000460
 Sum of Mulliken charges =  -0.00000   1.00000

 Dipole moment (field-independent basis, Debye):
    X=             -0.6363    Y=              0.0331    Z=             -0.1161  Tot=              0.6476
 Quadrupole moment (field-independent basis, Debye-Ang):
   XX=            -63.5794   YY=            -71.9788   ZZ=            -68.9722
   XY=             -3.4424   XZ=             -4.4368   YZ=              2.3178

 Normal termination of Gaussian 16 at Sun Dec  3 21:38:21 2023.
