 Gaussian 16, Revision B.01,
 Gaussian 16:  ES64L-G16RevB.01 20-Dec-2017

 -------------------------
 #P B3LYP/6-311+g(d) force
 -------------------------

 -----
 DPGEN
 -----
 Symbolic Z-matrix:
 Charge =  0 Multiplicity = 2

                         Standard orientation:
 ---------------------------------------------------------------------
 Center     Atomic      Atomic             Coordinates (Angstroms)
 Number     Number       Type             X           Y           Z
 ---------------------------------------------------------------------
      1         11           0       -2.988537    0.724043   -0.104561
      2         11           0       -0.042613    2.985717    0.110289
      3         11           0        2.774280    0.732638   -0.442168
      4         11           0       -0.190489   -0.315828   -1.654090
      5         11           0        1.879334   -2.073961    0.229319
      6         11           0        0.295129    0.272446    1.675062
      7         11           0       -1.727105   -2.325056    0.186149
 ---------------------------------------------------------------------

 SCF Done:  E(UB3LYP) =  -1136.13540935     A.U. after   20 cycles

 The electronic state is 2-A.
 Alpha  occ. eigenvalues --  -38.44046 -38.43757 -38.43465 -38.43369 -38.43343
 Alpha  occ. eigenvalues --  -38.43042 -38.42953  -2.19894  -2.19684  -2.19359
 Alpha  occ. eigenvalues --   -2.19317  -2.19195  -2.19067  -2.18980  -1.13577
 Alpha  occ. eigenvalues --   -1.13564  -1.13525  -1.13419  -1.13341  -1.13320
 Alpha  occ. eigenvalues --   -1.13083  -1.13023  -1.13011  -1.12986  -1.12971
 Alpha  occ. eigenvalues --   -1.12932  -1.12918  -1.12851  -1.12821  -1.12755
 Alpha  occ. eigenvalues --   -1.12685  -1.12678  -1.12646  -1.12593  -1.12588
 Alpha  occ. eigenvalues --   -0.19323  -0.13381  -0.12611  -0.10629
 Alpha virt. eigenvalues --   -0.05576  -0.04976  -0.04753  -0.03231  -0.02776
 Alpha virt. eigenvalues --   -0.02169  -0.01460  -0.01088  -0.00256  -0.00140
 Alpha virt. eigenvalues --    0.00054   0.00366   0.00858   0.00926   0.00938

  Beta  occ. eigenvalues --  -38.44043 -38.43742 -38.43459 -38.43358 -38.43339
  Beta  occ. eigenvalues --  -38.42972 -38.42877  -2.19891  -2.19661  -2.19350
  Beta  occ. eigenvalues --   -2.19302  -2.19190  -2.18938  -2.18841  -1.13571
  Beta  occ. eigenvalues --   -1.13550  -1.13521  -1.13408  -1.13314  -1.13284
  Beta  occ. eigenvalues --   -1.13071  -1.13004  -1.12998  -1.12972  -1.12931
  Beta  occ. eigenvalues --   -1.12916  -1.12902  -1.12831  -1.12822  -1.12671
  Beta  occ. eigenvalues --   -1.12595  -1.12583  -1.12554  -1.12496  -1.12487
  Beta  occ. eigenvalues --   -0.18592  -0.13112  -0.12346
  Beta virt. eigenvalues --   -0.06687  -0.05550  -0.04960  -0.04735  -0.02410
  Beta virt. eigenvalues --   -0.02016  -0.01381  -0.01146  -0.01012  -0.00275
  Beta virt. eigenvalues --   -0.00190   0.00170   0.00396   0.00879   0.00932

 Mulliken charges and spin densities:
               1          2
     1  Na  -0.005170  -0.106901
     2  Na   0.018509  -0.113800
     3  Na   0.195792   0.054579
     4  Na  -0.316831   0.548845
     5  Na   0.354364   0.025105
     6  Na  -0.389784   0.640891
     7  Na   0.143121  -0.048719
 Sum of Mulliken charges =  -0.00000   1.00000

 Dipole moment (field-independent basis, Debye):
    X=             -0.2699    Y=              0.1100    Z=             -0.0273  Tot=              0.2927
 Quadrupole moment (field-independent basis, Debye-Ang):
   XX=            -56.4049   YY=            -61.3322   ZZ=            -75.0704
   XY=             -0.1866   XZ=             -1.0689   YZ=             -1.5783

 Normal termination of Gaussian 16 at Wed Nov 29 01:12:02 2023.
