 Gaussian 16, Revision B.01,
 Gaussian 16:  ES64L-G16RevB.01 20-Dec-2017

 -------------------------
 #P B3LYP/6-311+g(d) force
 -------------------------

 -----
 DPGEN
 -----
 Symbolic Z-matrix:
 Charge =  0 Multiplicity = 2

                         Standard orientation:
 ---------------------------------------------------------------------
 Center     Atomic      Atomic             Coordinates (Angstroms)
 Number     Number       Type             X           Y           Z
 ---------------------------------------------------------------------
      1         11           0       -3.091391    1.526613    0.688539
      2         11           0       -0.155135   -0.132823    1.860816
      3         11           0        3.153652   -2.303998    0.468804
      4         11           0       -0.630501   -2.365805   -0.569992
      5         11           0        0.813401    2.811312   -0.273819
      6         11           0        3.731244    1.319049   -0.993927
      7         11           0       -3.821270   -0.854348   -1.180421
 ---------------------------------------------------------------------

 SCF Done:  E(UB3LYP) =  -1136.11589686     A.U. after   21 cycles

 The electronic state is 2-A.
 Alpha  occ. eigenvalues --  -38.45003 -38.44793 -38.44475 -38.44436 -38.44064
 Alpha  occ. eigenvalues --  -38.43988 -38.43794  -2.20729  -2.20607  -2.20281
 Alpha  occ. eigenvalues --   -2.20261  -2.19910  -2.19779  -2.19561  -1.14418
 Alpha  occ. eigenvalues --   -1.14390  -1.14363  -1.14303  -1.14275  -1.14247
 Alpha  occ. eigenvalues --   -1.14008  -1.13949  -1.13931  -1.13917  -1.13873
 Alpha  occ. eigenvalues --   -1.13857  -1.13564  -1.13549  -1.13526  -1.13442
 Alpha  occ. eigenvalues --   -1.13428  -1.13408  -1.13251  -1.13240  -1.13190
 Alpha  occ. eigenvalues --   -0.16993  -0.13768  -0.11990  -0.10848
 Alpha virt. eigenvalues --   -0.07156  -0.05470  -0.04467  -0.03653  -0.03269
 Alpha virt. eigenvalues --   -0.02373  -0.01912  -0.01813  -0.00782  -0.00607
 Alpha virt. eigenvalues --   -0.00346   0.00123   0.00196   0.00419   0.00532

  Beta  occ. eigenvalues --  -38.45011 -38.44783 -38.44466 -38.44353 -38.43996
  Beta  occ. eigenvalues --  -38.43934 -38.43806  -2.20744  -2.20593  -2.20248
  Beta  occ. eigenvalues --   -2.20129  -2.19784  -2.19677  -2.19586  -1.14429
  Beta  occ. eigenvalues --   -1.14399  -1.14366  -1.14282  -1.14271  -1.14212
  Beta  occ. eigenvalues --   -1.13965  -1.13941  -1.13854  -1.13838  -1.13828
  Beta  occ. eigenvalues --   -1.13753  -1.13479  -1.13463  -1.13443  -1.13375
  Beta  occ. eigenvalues --   -1.13367  -1.13339  -1.13270  -1.13255  -1.13182
  Beta  occ. eigenvalues --   -0.16336  -0.13168  -0.11803
  Beta virt. eigenvalues --   -0.07462  -0.07047  -0.05107  -0.03852  -0.03535
  Beta virt. eigenvalues --   -0.02662  -0.02284  -0.01621  -0.01399  -0.00645
  Beta virt. eigenvalues --   -0.00396  -0.00290   0.00229   0.00415   0.00581

 Mulliken charges and spin densities:
               1          2
     1  Na   0.199119   0.087587
     2  Na  -0.116168   0.181563
     3  Na   0.148410   0.029623
     4  Na  -0.319706   0.167608
     5  Na  -0.128540   0.039930
     6  Na   0.040843   0.237985
     7  Na   0.176044   0.255704
 Sum of Mulliken charges =  -0.00000   1.00000

 Dipole moment (field-independent basis, Debye):
    X=             -0.0800    Y=             -0.4689    Z=              0.3154  Tot=              0.5707
 Quadrupole moment (field-independent basis, Debye-Ang):
   XX=            -60.1436   YY=            -70.1530   ZZ=            -69.8660
   XY=             -7.5617   XZ=              0.1709   YZ=              0.7677

 Normal termination of Gaussian 16 at Sun Dec  3 13:31:35 2023.
