 Gaussian 16, Revision B.01,
 Gaussian 16:  ES64L-G16RevB.01 20-Dec-2017

 -------------------------
 #P B3LYP/6-311+g(d) force
 -------------------------

 -----
 DPGEN
 -----
 Symbolic Z-matrix:
 Charge =  0 Multiplicity = 2

                         Standard orientation:
 ---------------------------------------------------------------------
 Center     Atomic      Atomic             Coordinates (Angstroms)
 Number     Number       Type             X           Y           Z
 ---------------------------------------------------------------------
      1         11           0       -3.145112   -1.199870    0.093497
      2         11           0        3.269335   -1.058252   -0.114490
      3         11           0        0.214524   -2.651202   -0.058910
      4         11           0       -0.530594   -0.007274   -1.639076
      5         11           0       -1.760582    2.360598   -0.174081
      6         11           0       -0.036144    0.333785    2.103828
      7         11           0        1.988572    2.222215   -0.210767
 ---------------------------------------------------------------------

 SCF Done:  E(UB3LYP) =  -1136.13457254     A.U. after   20 cycles

 The electronic state is 2-A.
 Alpha  occ. eigenvalues --  -38.44436 -38.44158 -38.43739 -38.43620 -38.43610
 Alpha  occ. eigenvalues --  -38.43325 -38.43185  -2.20242  -2.19949  -2.19557
 Alpha  occ. eigenvalues --   -2.19493  -2.19479  -2.19311  -2.19050  -1.13919
 Alpha  occ. eigenvalues --   -1.13894  -1.13886  -1.13618  -1.13610  -1.13597
 Alpha  occ. eigenvalues --   -1.13255  -1.13236  -1.13229  -1.13187  -1.13166
 Alpha  occ. eigenvalues --   -1.13143  -1.13107  -1.13101  -1.13083  -1.13005
 Alpha  occ. eigenvalues --   -1.12945  -1.12910  -1.12741  -1.12716  -1.12655
 Alpha  occ. eigenvalues --   -0.18479  -0.13019  -0.12330  -0.10663
 Alpha virt. eigenvalues --   -0.05978  -0.05481  -0.04324  -0.03139  -0.02843
 Alpha virt. eigenvalues --   -0.02559  -0.01831  -0.01244  -0.00461  -0.00233
 Alpha virt. eigenvalues --   -0.00048   0.00311   0.00742   0.00827   0.00892

  Beta  occ. eigenvalues --  -38.44434 -38.44159 -38.43735 -38.43600 -38.43520
  Beta  occ. eigenvalues --  -38.43263 -38.43178  -2.20241  -2.19953  -2.19552
  Beta  occ. eigenvalues --   -2.19466  -2.19309  -2.19199  -2.19041  -1.13907
  Beta  occ. eigenvalues --   -1.13889  -1.13886  -1.13618  -1.13608  -1.13601
  Beta  occ. eigenvalues --   -1.13236  -1.13220  -1.13209  -1.13186  -1.13111
  Beta  occ. eigenvalues --   -1.13080  -1.13031  -1.12985  -1.12976  -1.12928
  Beta  occ. eigenvalues --   -1.12877  -1.12830  -1.12725  -1.12684  -1.12654
  Beta  occ. eigenvalues --   -0.17752  -0.12841  -0.12089
  Beta virt. eigenvalues --   -0.06724  -0.05915  -0.05478  -0.04291  -0.02413
  Beta virt. eigenvalues --   -0.02053  -0.01749  -0.01479  -0.01199  -0.00516
  Beta virt. eigenvalues --   -0.00263   0.00112   0.00344   0.00803   0.00824

 Mulliken charges and spin densities:
               1          2
     1  Na   0.240070  -0.047041
     2  Na  -0.093004  -0.057857
     3  Na   0.094011  -0.044991
     4  Na  -0.153687   0.504363
     5  Na   0.303775  -0.095870
     6  Na  -0.528276   0.802581
     7  Na   0.137111  -0.061185
 Sum of Mulliken charges =  -0.00000   1.00000

 Dipole moment (field-independent basis, Debye):
    X=             -0.2278    Y=              0.0384    Z=              0.1707  Tot=              0.2872
 Quadrupole moment (field-independent basis, Debye-Ang):
   XX=            -52.7094   YY=            -65.3127   ZZ=            -74.9415
   XY=              0.6664   XZ=             -1.1289   YZ=             -0.8004

 Normal termination of Gaussian 16 at Thu Dec  7 13:44:18 2023.
