 Gaussian 16, Revision B.01,
 Gaussian 16:  ES64L-G16RevB.01 20-Dec-2017

 -------------------------
 #P B3LYP/6-311+g(d) force
 -------------------------

 -----
 DPGEN
 -----
 Symbolic Z-matrix:
 Charge =  0 Multiplicity = 2

                         Standard orientation:
 ---------------------------------------------------------------------
 Center     Atomic      Atomic             Coordinates (Angstroms)
 Number     Number       Type             X           Y           Z
 ---------------------------------------------------------------------
      1         11           0        0.468490   -1.610566    1.649311
      2         11           0        3.549714   -1.228934   -0.020116
      3         11           0       -2.967655   -1.766071   -0.814898
      4         11           0       -0.537737    2.816854   -0.215222
      5         11           0       -3.210681    0.922951    0.840730
      6         11           0        0.182365   -0.932645   -1.322598
      7         11           0        2.515505    1.798411   -0.117207
 ---------------------------------------------------------------------

 SCF Done:  E(UB3LYP) =  -1136.11924298     A.U. after   24 cycles

 The electronic state is 2-A.
 Alpha  occ. eigenvalues --  -38.45067 -38.44675 -38.44354 -38.44303 -38.43948
 Alpha  occ. eigenvalues --  -38.43720 -38.43047  -2.20899  -2.20510  -2.20199
 Alpha  occ. eigenvalues --   -2.20134  -2.19803  -2.19642  -2.18866  -1.14587
 Alpha  occ. eigenvalues --   -1.14559  -1.14529  -1.14240  -1.14157  -1.14093
 Alpha  occ. eigenvalues --   -1.13922  -1.13863  -1.13834  -1.13783  -1.13778
 Alpha  occ. eigenvalues --   -1.13739  -1.13482  -1.13460  -1.13447  -1.13359
 Alpha  occ. eigenvalues --   -1.13274  -1.13243  -1.12545  -1.12531  -1.12516
 Alpha  occ. eigenvalues --   -0.18014  -0.14209  -0.12141  -0.10043
 Alpha virt. eigenvalues --   -0.07221  -0.05835  -0.04396  -0.03451  -0.02773
 Alpha virt. eigenvalues --   -0.02441  -0.02006  -0.01498  -0.00853  -0.00244
 Alpha virt. eigenvalues --   -0.00112   0.00138   0.00395   0.00565   0.00679

  Beta  occ. eigenvalues --  -38.45066 -38.44627 -38.44328 -38.44263 -38.43942
  Beta  occ. eigenvalues --  -38.43664 -38.43051  -2.20898  -2.20421  -2.20155
  Beta  occ. eigenvalues --   -2.20061  -2.19792  -2.19542  -2.18875  -1.14589
  Beta  occ. eigenvalues --   -1.14547  -1.14521  -1.14175  -1.14094  -1.14027
  Beta  occ. eigenvalues --   -1.13884  -1.13815  -1.13805  -1.13729  -1.13728
  Beta  occ. eigenvalues --   -1.13693  -1.13482  -1.13444  -1.13437  -1.13283
  Beta  occ. eigenvalues --   -1.13209  -1.13160  -1.12555  -1.12539  -1.12501
  Beta  occ. eigenvalues --   -0.17494  -0.13896  -0.11840
  Beta virt. eigenvalues --   -0.07111  -0.06525  -0.05602  -0.04040  -0.03043
  Beta virt. eigenvalues --   -0.02593  -0.01917  -0.01551  -0.01094  -0.00773
  Beta virt. eigenvalues --   -0.00059   0.00026   0.00204   0.00549   0.00683

 Mulliken charges and spin densities:
               1          2
     1  Na  -0.284225   0.321624
     2  Na   0.872502   0.103892
     3  Na   0.442538  -0.055129
     4  Na   0.016042  -0.085773
     5  Na  -0.159021   0.330997
     6  Na  -0.723302   0.378208
     7  Na  -0.164535   0.006181
 Sum of Mulliken charges =  -0.00000   1.00000

 Dipole moment (field-independent basis, Debye):
    X=              0.7239    Y=             -0.9111    Z=              0.0797  Tot=              1.1664
 Quadrupole moment (field-independent basis, Debye-Ang):
   XX=            -47.9810   YY=            -73.0729   ZZ=            -74.8824
   XY=              0.7900   XZ=             -0.8622   YZ=              0.4844

 Normal termination of Gaussian 16 at Wed Nov 29 04:06:59 2023.
