 Gaussian 16, Revision B.01,
 Gaussian 16:  ES64L-G16RevB.01 20-Dec-2017

 -------------------------
 #P B3LYP/6-311+g(d) force
 -------------------------

 -----
 DPGEN
 -----
 Symbolic Z-matrix:
 Charge =  0 Multiplicity = 2

                         Standard orientation:
 ---------------------------------------------------------------------
 Center     Atomic      Atomic             Coordinates (Angstroms)
 Number     Number       Type             X           Y           Z
 ---------------------------------------------------------------------
      1         11           0        4.665839    4.567112   -0.321111
      2         11           0       -5.516168    3.090357    0.405863
      3         11           0       -1.974292   -1.873593   -0.173090
      4         11           0       -5.389099    0.071834   -0.304212
      5         11           0        0.686701   -4.070465   -0.093235
      6         11           0        3.289945   -2.940493    0.251694
      7         11           0        4.237074    1.155248    0.234092
 ---------------------------------------------------------------------

 SCF Done:  E(UB3LYP) =  -1136.10113138     A.U. after   20 cycles

 The electronic state is 2-A.
 Alpha  occ. eigenvalues --  -38.45064 -38.44950 -38.44785 -38.44584 -38.44529
 Alpha  occ. eigenvalues --  -38.44310 -38.44249  -2.20856  -2.20749  -2.20630
 Alpha  occ. eigenvalues --   -2.20374  -2.20336  -2.20097  -2.19979  -1.14506
 Alpha  occ. eigenvalues --   -1.14503  -1.14462  -1.14436  -1.14410  -1.14390
 Alpha  occ. eigenvalues --   -1.14387  -1.14258  -1.14244  -1.14019  -1.14011
 Alpha  occ. eigenvalues --   -1.13997  -1.13996  -1.13988  -1.13956  -1.13767
 Alpha  occ. eigenvalues --   -1.13764  -1.13750  -1.13666  -1.13666  -1.13603
 Alpha  occ. eigenvalues --   -0.15495  -0.14057  -0.12739  -0.11425
 Alpha virt. eigenvalues --   -0.07186  -0.05761  -0.03963  -0.03557  -0.03049
 Alpha virt. eigenvalues --   -0.02686  -0.02641  -0.01954  -0.01855  -0.01141
 Alpha virt. eigenvalues --   -0.00734  -0.00691  -0.00162   0.00226   0.00340

  Beta  occ. eigenvalues --  -38.44962 -38.44897 -38.44724 -38.44554 -38.44536
  Beta  occ. eigenvalues --  -38.44320 -38.44262  -2.20667  -2.20651  -2.20516
  Beta  occ. eigenvalues --   -2.20394  -2.20280  -2.20121  -2.20006  -1.14384
  Beta  occ. eigenvalues --   -1.14378  -1.14371  -1.14347  -1.14337  -1.14323
  Beta  occ. eigenvalues --   -1.14320  -1.14180  -1.14167  -1.14038  -1.14019
  Beta  occ. eigenvalues --   -1.13959  -1.13958  -1.13946  -1.13920  -1.13788
  Beta  occ. eigenvalues --   -1.13781  -1.13735  -1.13687  -1.13686  -1.13606
  Beta  occ. eigenvalues --   -0.14755  -0.13525  -0.12423
  Beta virt. eigenvalues --   -0.08217  -0.06726  -0.05269  -0.03733  -0.03353
  Beta virt. eigenvalues --   -0.02737  -0.02557  -0.02361  -0.01870  -0.01697
  Beta virt. eigenvalues --   -0.00873  -0.00414  -0.00207   0.00027   0.00317

 Mulliken charges and spin densities:
               1          2
     1  Na   0.316189   0.106366
     2  Na   0.031305   0.225798
     3  Na  -1.422073   0.621092
     4  Na  -0.025855  -0.070003
     5  Na   1.383041  -0.113248
     6  Na  -0.150830   0.227018
     7  Na  -0.131777   0.002978
 Sum of Mulliken charges =  -0.00000   1.00000

 Dipole moment (field-independent basis, Debye):
    X=             -0.8763    Y=              0.6271    Z=              0.0560  Tot=              1.0790
 Quadrupole moment (field-independent basis, Debye-Ang):
   XX=            -69.7202   YY=            -51.2771   ZZ=            -75.3615
   XY=             -2.7879   XZ=             -0.3931   YZ=              0.5578

 Normal termination of Gaussian 16 at Sun Dec  3 12:47:04 2023.
