 Gaussian 16, Revision B.01,
 Gaussian 16:  ES64L-G16RevB.01 20-Dec-2017

 -------------------------
 #P B3LYP/6-311+g(d) force
 -------------------------

 -----
 DPGEN
 -----
 Symbolic Z-matrix:
 Charge =  0 Multiplicity = 2

                         Standard orientation:
 ---------------------------------------------------------------------
 Center     Atomic      Atomic             Coordinates (Angstroms)
 Number     Number       Type             X           Y           Z
 ---------------------------------------------------------------------
      1         11           0        0.907559    3.736463   -0.204113
      2         11           0       -2.175630    2.558407   -0.926174
      3         11           0       -2.364913   -2.508415    1.240787
      4         11           0       -4.377779   -0.021208    0.295318
      5         11           0        3.443680   -2.238278   -0.230367
      6         11           0        3.818031    1.629777    1.082494
      7         11           0        0.749052   -3.156746   -1.257944
 ---------------------------------------------------------------------

 SCF Done:  E(UB3LYP) =  -1136.10547740     A.U. after   20 cycles

 The electronic state is 2-A.
 Alpha  occ. eigenvalues --  -38.45253 -38.44813 -38.44774 -38.44418 -38.44365
 Alpha  occ. eigenvalues --  -38.44336 -38.44130  -2.21022  -2.20604  -2.20552
 Alpha  occ. eigenvalues --   -2.20168  -2.20149  -2.20138  -2.19926  -1.14687
 Alpha  occ. eigenvalues --   -1.14674  -1.14655  -1.14321  -1.14265  -1.14243
 Alpha  occ. eigenvalues --   -1.14224  -1.14212  -1.14200  -1.13855  -1.13854
 Alpha  occ. eigenvalues --   -1.13818  -1.13799  -1.13792  -1.13790  -1.13780
 Alpha  occ. eigenvalues --   -1.13771  -1.13754  -1.13586  -1.13576  -1.13543
 Alpha  occ. eigenvalues --   -0.15423  -0.13764  -0.13302  -0.10885
 Alpha virt. eigenvalues --   -0.07598  -0.05012  -0.04697  -0.03495  -0.03409
 Alpha virt. eigenvalues --   -0.02336  -0.01978  -0.01790  -0.01392  -0.01170
 Alpha virt. eigenvalues --   -0.00829  -0.00272  -0.00051   0.00305   0.00682

  Beta  occ. eigenvalues --  -38.45214 -38.44804 -38.44774 -38.44432 -38.44302
  Beta  occ. eigenvalues --  -38.44270 -38.44073  -2.20951  -2.20594  -2.20556
  Beta  occ. eigenvalues --   -2.20198  -2.20089  -2.19961  -2.19820  -1.14640
  Beta  occ. eigenvalues --   -1.14629  -1.14598  -1.14298  -1.14262  -1.14230
  Beta  occ. eigenvalues --   -1.14223  -1.14218  -1.14181  -1.13881  -1.13875
  Beta  occ. eigenvalues --   -1.13802  -1.13759  -1.13753  -1.13733  -1.13669
  Beta  occ. eigenvalues --   -1.13652  -1.13639  -1.13514  -1.13507  -1.13475
  Beta  occ. eigenvalues --   -0.14952  -0.13148  -0.12560
  Beta virt. eigenvalues --   -0.07776  -0.07610  -0.04544  -0.04266  -0.03253
  Beta virt. eigenvalues --   -0.03127  -0.02127  -0.01896  -0.01499  -0.01221
  Beta virt. eigenvalues --   -0.00819  -0.00644  -0.00033   0.00162   0.00322

 Mulliken charges and spin densities:
               1          2
     1  Na   0.127340  -0.120343
     2  Na  -0.228934   0.280939
     3  Na  -0.123211   0.190058
     4  Na   0.389024   0.001716
     5  Na   0.096749   0.027949
     6  Na  -0.092859   0.493000
     7  Na  -0.168110   0.126681
 Sum of Mulliken charges =  -0.00000   1.00000

 Dipole moment (field-independent basis, Debye):
    X=             -0.6950    Y=             -0.9487    Z=              0.1595  Tot=              1.1868
 Quadrupole moment (field-independent basis, Debye-Ang):
   XX=            -60.7400   YY=            -69.7716   ZZ=            -71.2028
   XY=             -1.3235   XZ=              2.0973   YZ=             -1.3764

 Normal termination of Gaussian 16 at Sun Dec  3 19:32:13 2023.
