 Gaussian 16, Revision B.01,
 Gaussian 16:  ES64L-G16RevB.01 20-Dec-2017

 -------------------------
 #P B3LYP/6-311+g(d) force
 -------------------------

 -----
 DPGEN
 -----
 Symbolic Z-matrix:
 Charge =  0 Multiplicity = 2

                         Standard orientation:
 ---------------------------------------------------------------------
 Center     Atomic      Atomic             Coordinates (Angstroms)
 Number     Number       Type             X           Y           Z
 ---------------------------------------------------------------------
      1         11           0        3.018372    0.010430    0.047174
      2         11           0        1.121764    2.814965   -0.307875
      3         11           0       -2.270553   -1.720117   -0.368954
      4         11           0       -2.846626    1.456955    0.055854
      5         11           0        1.074842   -2.719249    0.042861
      6         11           0        0.087875    0.016443   -1.547229
      7         11           0       -0.185674    0.140573    2.078169
 ---------------------------------------------------------------------

 SCF Done:  E(UB3LYP) =  -1136.13796839     A.U. after   19 cycles

 The electronic state is 2-A.
 Alpha  occ. eigenvalues --  -38.44021 -38.43942 -38.43636 -38.43551 -38.43452
 Alpha  occ. eigenvalues --  -38.43077 -38.43032  -2.19850  -2.19810  -2.19519
 Alpha  occ. eigenvalues --   -2.19448  -2.19294  -2.19060  -2.18950  -1.13528
 Alpha  occ. eigenvalues --   -1.13516  -1.13497  -1.13492  -1.13472  -1.13449
 Alpha  occ. eigenvalues --   -1.13191  -1.13165  -1.13146  -1.13135  -1.13094
 Alpha  occ. eigenvalues --   -1.13070  -1.13000  -1.12947  -1.12922  -1.12748
 Alpha  occ. eigenvalues --   -1.12699  -1.12690  -1.12605  -1.12604  -1.12591
 Alpha  occ. eigenvalues --   -0.18838  -0.13248  -0.12363  -0.10775
 Alpha virt. eigenvalues --   -0.05667  -0.05065  -0.04643  -0.03257  -0.02804
 Alpha virt. eigenvalues --   -0.02550  -0.01524  -0.01107  -0.00387  -0.00199
 Alpha virt. eigenvalues --   -0.00001   0.00360   0.00814   0.00879   0.00902

  Beta  occ. eigenvalues --  -38.44019 -38.43938 -38.43540 -38.43538 -38.43445
  Beta  occ. eigenvalues --  -38.43073 -38.42971  -2.19849  -2.19806  -2.19431
  Beta  occ. eigenvalues --   -2.19339  -2.19285  -2.18950  -2.18946  -1.13530
  Beta  occ. eigenvalues --   -1.13495  -1.13493  -1.13491  -1.13456  -1.13442
  Beta  occ. eigenvalues --   -1.13148  -1.13076  -1.13064  -1.13058  -1.13017
  Beta  occ. eigenvalues --   -1.13003  -1.12984  -1.12932  -1.12915  -1.12684
  Beta  occ. eigenvalues --   -1.12637  -1.12610  -1.12596  -1.12585  -1.12561
  Beta  occ. eigenvalues --   -0.18110  -0.13009  -0.12117
  Beta virt. eigenvalues --   -0.06837  -0.05631  -0.05045  -0.04624  -0.02453
  Beta virt. eigenvalues --   -0.02034  -0.01495  -0.01418  -0.01029  -0.00440
  Beta virt. eigenvalues --   -0.00242   0.00140   0.00386   0.00862   0.00880

 Mulliken charges and spin densities:
               1          2
     1  Na   0.202429   0.011098
     2  Na   0.144879  -0.061501
     3  Na   0.321615   0.033110
     4  Na   0.151337  -0.044485
     5  Na   0.146294   0.008655
     6  Na  -0.360845   0.297296
     7  Na  -0.605708   0.755828
 Sum of Mulliken charges =  -0.00000   1.00000

 Dipole moment (field-independent basis, Debye):
    X=             -0.0863    Y=              0.2401    Z=              0.2221  Tot=              0.3383
 Quadrupole moment (field-independent basis, Debye-Ang):
   XX=            -56.6021   YY=            -62.2950   ZZ=            -74.4726
   XY=             -0.9220   XZ=              0.7180   YZ=             -0.1953

 Normal termination of Gaussian 16 at Thu Dec  7 09:06:26 2023.
