 Gaussian 16, Revision B.01,
 Gaussian 16:  ES64L-G16RevB.01 20-Dec-2017

 -------------------------
 #P B3LYP/6-311+g(d) force
 -------------------------

 -----
 DPGEN
 -----
 Symbolic Z-matrix:
 Charge =  0 Multiplicity = 2

                         Standard orientation:
 ---------------------------------------------------------------------
 Center     Atomic      Atomic             Coordinates (Angstroms)
 Number     Number       Type             X           Y           Z
 ---------------------------------------------------------------------
      1         11           0        0.031067    0.029080    2.069687
      2         11           0       -0.136793    3.078114    0.137980
      3         11           0        2.296209   -2.186432    0.204129
      4         11           0       -2.050411   -2.502616   -0.127819
      5         11           0        0.036225   -0.114410   -1.658518
      6         11           0       -3.259631    0.775148   -0.191133
      7         11           0        3.083334    0.921118   -0.434326
 ---------------------------------------------------------------------

 SCF Done:  E(UB3LYP) =  -1136.13515861     A.U. after   19 cycles

 The electronic state is 2-A.
 Alpha  occ. eigenvalues --  -38.44605 -38.44200 -38.43820 -38.43733 -38.43616
 Alpha  occ. eigenvalues --  -38.43564 -38.43148  -2.20390  -2.20031  -2.19646
 Alpha  occ. eigenvalues --   -2.19532  -2.19474  -2.19468  -2.18948  -1.14072
 Alpha  occ. eigenvalues --   -1.14046  -1.14025  -1.13710  -1.13698  -1.13665
 Alpha  occ. eigenvalues --   -1.13312  -1.13310  -1.13290  -1.13216  -1.13198
 Alpha  occ. eigenvalues --   -1.13173  -1.13166  -1.13132  -1.13101  -1.13098
 Alpha  occ. eigenvalues --   -1.13089  -1.13088  -1.12622  -1.12614  -1.12588
 Alpha  occ. eigenvalues --   -0.18076  -0.13219  -0.11939  -0.10556
 Alpha virt. eigenvalues --   -0.06002  -0.05437  -0.04690  -0.03259  -0.02685
 Alpha virt. eigenvalues --   -0.02523  -0.01843  -0.01241  -0.00676  -0.00574
 Alpha virt. eigenvalues --   -0.00040   0.00329   0.00698   0.00805   0.00836

  Beta  occ. eigenvalues --  -38.44602 -38.44188 -38.43815 -38.43732 -38.43516
  Beta  occ. eigenvalues --  -38.43509 -38.43146  -2.20387  -2.20012  -2.19640
  Beta  occ. eigenvalues --   -2.19533  -2.19369  -2.19289  -2.18947  -1.14058
  Beta  occ. eigenvalues --   -1.14045  -1.14023  -1.13695  -1.13672  -1.13651
  Beta  occ. eigenvalues --   -1.13309  -1.13296  -1.13273  -1.13207  -1.13192
  Beta  occ. eigenvalues --   -1.13168  -1.13093  -1.13033  -1.13015  -1.13013
  Beta  occ. eigenvalues --   -1.12972  -1.12953  -1.12616  -1.12603  -1.12588
  Beta  occ. eigenvalues --   -0.17368  -0.13002  -0.11734
  Beta virt. eigenvalues --   -0.06686  -0.05936  -0.05416  -0.04627  -0.02531
  Beta virt. eigenvalues --   -0.01967  -0.01727  -0.01499  -0.01154  -0.00736
  Beta virt. eigenvalues --   -0.00593   0.00112   0.00373   0.00772   0.00815

 Mulliken charges and spin densities:
               1          2
     1  Na  -0.311584   0.796528
     2  Na  -0.065833  -0.089361
     3  Na   0.096523  -0.022345
     4  Na   0.034383  -0.077140
     5  Na  -0.002003   0.426726
     6  Na   0.053320  -0.063889
     7  Na   0.195195   0.029481
 Sum of Mulliken charges =  -0.00000   1.00000

 Dipole moment (field-independent basis, Debye):
    X=             -0.1474    Y=             -0.0873    Z=             -0.0160  Tot=              0.1720
 Quadrupole moment (field-independent basis, Debye-Ang):
   XX=            -54.2110   YY=            -63.4313   ZZ=            -75.5584
   XY=             -0.4601   XZ=             -0.1704   YZ=             -0.6936

 Normal termination of Gaussian 16 at Fri Dec  8 07:12:44 2023.
