 Gaussian 16, Revision B.01,
 Gaussian 16:  ES64L-G16RevB.01 20-Dec-2017

 -------------------------
 #P B3LYP/6-311+g(d) force
 -------------------------

 -----
 DPGEN
 -----
 Symbolic Z-matrix:
 Charge =  0 Multiplicity = 2

                         Standard orientation:
 ---------------------------------------------------------------------
 Center     Atomic      Atomic             Coordinates (Angstroms)
 Number     Number       Type             X           Y           Z
 ---------------------------------------------------------------------
      1         11           0       -2.007094    2.096436   -1.251780
      2         11           0       -0.137924    0.066495    1.229809
      3         11           0        3.649364    0.061625    0.912311
      4         11           0       -1.416577   -1.872856   -1.164124
      5         11           0        1.908052   -2.270685   -0.770430
      6         11           0        1.733451    2.348276   -0.358259
      7         11           0       -3.729272   -0.429291    1.402472
 ---------------------------------------------------------------------

 SCF Done:  E(UB3LYP) =  -1136.12710259     A.U. after   21 cycles

 The electronic state is 2-A.
 Alpha  occ. eigenvalues --  -38.44587 -38.44321 -38.44278 -38.44202 -38.43573
 Alpha  occ. eigenvalues --  -38.43544 -38.43269  -2.20471  -2.20134  -2.20128
 Alpha  occ. eigenvalues --   -2.19989  -2.19404  -2.19393  -2.19103  -1.14194
 Alpha  occ. eigenvalues --   -1.14134  -1.14092  -1.13799  -1.13790  -1.13775
 Alpha  occ. eigenvalues --   -1.13773  -1.13768  -1.13739  -1.13660  -1.13633
 Alpha  occ. eigenvalues --   -1.13615  -1.13094  -1.13090  -1.13073  -1.13054
 Alpha  occ. eigenvalues --   -1.13031  -1.13011  -1.12772  -1.12765  -1.12747
 Alpha  occ. eigenvalues --   -0.17769  -0.14024  -0.11886  -0.10571
 Alpha virt. eigenvalues --   -0.06477  -0.05552  -0.04775  -0.03453  -0.02610
 Alpha virt. eigenvalues --   -0.02592  -0.01851  -0.01326  -0.00837  -0.00358
 Alpha virt. eigenvalues --    0.00013   0.00110   0.00307   0.00383   0.00736

  Beta  occ. eigenvalues --  -38.44580 -38.44255 -38.44240 -38.44160 -38.43575
  Beta  occ. eigenvalues --  -38.43517 -38.43261  -2.20459  -2.20083  -2.19982
  Beta  occ. eigenvalues --   -2.19912  -2.19411  -2.19348  -2.19091  -1.14163
  Beta  occ. eigenvalues --   -1.14134  -1.14085  -1.13769  -1.13747  -1.13738
  Beta  occ. eigenvalues --   -1.13682  -1.13671  -1.13642  -1.13600  -1.13584
  Beta  occ. eigenvalues --   -1.13559  -1.13103  -1.13080  -1.13061  -1.13012
  Beta  occ. eigenvalues --   -1.13011  -1.12970  -1.12764  -1.12759  -1.12722
  Beta  occ. eigenvalues --   -0.17330  -0.13582  -0.11463
  Beta virt. eigenvalues --   -0.07125  -0.06261  -0.05504  -0.04128  -0.03254
  Beta virt. eigenvalues --   -0.02339  -0.02137  -0.01241  -0.01144  -0.00453
  Beta virt. eigenvalues --   -0.00270   0.00072   0.00200   0.00493   0.00539

 Mulliken charges and spin densities:
               1          2
     1  Na  -0.056302   0.188395
     2  Na  -1.570256   0.110948
     3  Na   1.055741   0.063558
     4  Na   0.137903   0.194259
     5  Na  -0.228471   0.007975
     6  Na   0.051851   0.062848
     7  Na   0.609534   0.372016
 Sum of Mulliken charges =  -0.00000   1.00000

 Dipole moment (field-independent basis, Debye):
    X=              0.0431    Y=              0.2169    Z=             -0.2588  Tot=              0.3404
 Quadrupole moment (field-independent basis, Debye-Ang):
   XX=            -52.8192   YY=            -73.9153   ZZ=            -69.8892
   XY=             -1.2437   XZ=              2.9684   YZ=             -1.0620

 Normal termination of Gaussian 16 at Fri Dec  8 06:53:50 2023.
