 Gaussian 16, Revision B.01,
 Gaussian 16:  ES64L-G16RevB.01 20-Dec-2017

 -------------------------
 #P B3LYP/6-311+g(d) force
 -------------------------

 -----
 DPGEN
 -----
 Symbolic Z-matrix:
 Charge =  0 Multiplicity = 2

                         Standard orientation:
 ---------------------------------------------------------------------
 Center     Atomic      Atomic             Coordinates (Angstroms)
 Number     Number       Type             X           Y           Z
 ---------------------------------------------------------------------
      1         11           0        0.749679    0.037928   -1.482610
      2         11           0       -0.169088   -0.116437    1.683858
      3         11           0        2.304549    2.169687    0.107129
      4         11           0       -1.405002    3.032778   -0.332968
      5         11           0       -0.994385   -2.783827   -0.678417
      6         11           0       -3.417008   -0.520474    0.323522
      7         11           0        2.931255   -1.819655    0.379486
 ---------------------------------------------------------------------

 SCF Done:  E(UB3LYP) =  -1136.13027555     A.U. after   21 cycles

 The electronic state is 2-A.
 Alpha  occ. eigenvalues --  -38.44333 -38.44298 -38.44189 -38.44188 -38.43586
 Alpha  occ. eigenvalues --  -38.43325 -38.43023  -2.20164  -2.20087  -2.19976
 Alpha  occ. eigenvalues --   -2.19946  -2.19419  -2.19226  -2.18995  -1.13887
 Alpha  occ. eigenvalues --   -1.13825  -1.13766  -1.13760  -1.13736  -1.13729
 Alpha  occ. eigenvalues --   -1.13650  -1.13630  -1.13629  -1.13624  -1.13601
 Alpha  occ. eigenvalues --   -1.13582  -1.13105  -1.13077  -1.13042  -1.12949
 Alpha  occ. eigenvalues --   -1.12855  -1.12831  -1.12685  -1.12652  -1.12589
 Alpha  occ. eigenvalues --   -0.18084  -0.12964  -0.12354  -0.09973
 Alpha virt. eigenvalues --   -0.05913  -0.05761  -0.04986  -0.02960  -0.02701
 Alpha virt. eigenvalues --   -0.01886  -0.01830  -0.01541  -0.00905  -0.00584
 Alpha virt. eigenvalues --   -0.00003   0.00302   0.00700   0.00742   0.00780

  Beta  occ. eigenvalues --  -38.44327 -38.44288 -38.44188 -38.44185 -38.43560
  Beta  occ. eigenvalues --  -38.43257 -38.42968  -2.20156  -2.20071  -2.19972
  Beta  occ. eigenvalues --   -2.19946  -2.19375  -2.19102  -2.18895  -1.13878
  Beta  occ. eigenvalues --   -1.13809  -1.13757  -1.13739  -1.13728  -1.13710
  Beta  occ. eigenvalues --   -1.13635  -1.13627  -1.13624  -1.13620  -1.13600
  Beta  occ. eigenvalues --   -1.13579  -1.13071  -1.13034  -1.13013  -1.12861
  Beta  occ. eigenvalues --   -1.12772  -1.12735  -1.12610  -1.12575  -1.12516
  Beta  occ. eigenvalues --   -0.17430  -0.12734  -0.12101
  Beta virt. eigenvalues --   -0.06274  -0.05917  -0.05620  -0.04844  -0.02299
  Beta virt. eigenvalues --   -0.02063  -0.01732  -0.01481  -0.00985  -0.00884
  Beta virt. eigenvalues --   -0.00565   0.00144   0.00360   0.00718   0.00790

 Mulliken charges and spin densities:
               1          2
     1  Na   0.188489   0.309704
     2  Na  -0.084461   0.648243
     3  Na   0.192638   0.041054
     4  Na  -0.218820  -0.066538
     5  Na  -0.087999   0.029821
     6  Na   0.001829  -0.021739
     7  Na   0.008325   0.059455
 Sum of Mulliken charges =  -0.00000   1.00000

 Dipole moment (field-independent basis, Debye):
    X=              0.1769    Y=              0.1903    Z=              0.1247  Tot=              0.2882
 Quadrupole moment (field-independent basis, Debye-Ang):
   XX=            -53.1324   YY=            -59.6315   ZZ=            -77.9078
   XY=             -1.1750   XZ=              1.7997   YZ=              0.1168

 Normal termination of Gaussian 16 at Thu Dec  7 20:59:18 2023.
