 Gaussian 16, Revision B.01,
 Gaussian 16:  ES64L-G16RevB.01 20-Dec-2017

 -------------------------
 #P B3LYP/6-311+g(d) force
 -------------------------

 -----
 DPGEN
 -----
 Symbolic Z-matrix:
 Charge =  0 Multiplicity = 2

                         Standard orientation:
 ---------------------------------------------------------------------
 Center     Atomic      Atomic             Coordinates (Angstroms)
 Number     Number       Type             X           Y           Z
 ---------------------------------------------------------------------
      1         11           0        0.806085   -0.104874    1.884196
      2         11           0       -1.793394   -2.188808    0.946456
      3         11           0        3.142958    1.083610   -0.534022
      4         11           0       -3.522762    0.761913   -0.652796
      5         11           0        1.813892   -2.405118   -0.552076
      6         11           0       -0.084602    3.002645    0.588315
      7         11           0       -0.362178   -0.149368   -1.680073
 ---------------------------------------------------------------------

 SCF Done:  E(UB3LYP) =  -1136.13359691     A.U. after   18 cycles

 The electronic state is 2-A.
 Alpha  occ. eigenvalues --  -38.44449 -38.44125 -38.43793 -38.43681 -38.43598
 Alpha  occ. eigenvalues --  -38.43538 -38.43466  -2.20239  -2.19902  -2.19613
 Alpha  occ. eigenvalues --   -2.19577  -2.19446  -2.19379  -2.19308  -1.13924
 Alpha  occ. eigenvalues --   -1.13893  -1.13867  -1.13581  -1.13547  -1.13543
 Alpha  occ. eigenvalues --   -1.13307  -1.13283  -1.13256  -1.13232  -1.13226
 Alpha  occ. eigenvalues --   -1.13197  -1.13129  -1.13099  -1.13079  -1.13046
 Alpha  occ. eigenvalues --   -1.13032  -1.12999  -1.12991  -1.12962  -1.12927
 Alpha  occ. eigenvalues --   -0.18029  -0.12873  -0.12011  -0.10945
 Alpha virt. eigenvalues --   -0.05964  -0.05154  -0.04649  -0.03288  -0.02949
 Alpha virt. eigenvalues --   -0.02568  -0.01794  -0.01169  -0.00673  -0.00180
 Alpha virt. eigenvalues --   -0.00056   0.00319   0.00646   0.00756   0.00792

  Beta  occ. eigenvalues --  -38.44441 -38.44113 -38.43767 -38.43630 -38.43589
  Beta  occ. eigenvalues --  -38.43463 -38.43455  -2.20225  -2.19881  -2.19566
  Beta  occ. eigenvalues --   -2.19482  -2.19364  -2.19309  -2.19292  -1.13910
  Beta  occ. eigenvalues --   -1.13885  -1.13849  -1.13556  -1.13536  -1.13531
  Beta  occ. eigenvalues --   -1.13266  -1.13237  -1.13200  -1.13196  -1.13164
  Beta  occ. eigenvalues --   -1.13126  -1.13064  -1.13032  -1.13025  -1.13005
  Beta  occ. eigenvalues --   -1.12993  -1.12968  -1.12952  -1.12932  -1.12902
  Beta  occ. eigenvalues --   -0.17335  -0.12612  -0.11745
  Beta virt. eigenvalues --   -0.07166  -0.05833  -0.05050  -0.04501  -0.02723
  Beta virt. eigenvalues --   -0.02296  -0.01718  -0.01580  -0.01080  -0.00591
  Beta virt. eigenvalues --   -0.00175   0.00066   0.00370   0.00743   0.00830

 Mulliken charges and spin densities:
               1          2
     1  Na   0.445379   0.479258
     2  Na  -0.235537   0.071047
     3  Na  -0.062580  -0.010845
     4  Na   0.054458   0.024859
     5  Na   0.086467   0.044674
     6  Na  -0.363957  -0.065139
     7  Na   0.075769   0.456147
 Sum of Mulliken charges =  -0.00000   1.00000

 Dipole moment (field-independent basis, Debye):
    X=              0.1641    Y=              0.0225    Z=             -0.0681  Tot=              0.1791
 Quadrupole moment (field-independent basis, Debye-Ang):
   XX=            -55.0245   YY=            -65.3588   ZZ=            -72.6961
   XY=             -0.0586   XZ=             -2.3438   YZ=             -0.8229

 Normal termination of Gaussian 16 at Tue Dec  5 15:09:51 2023.
