 Gaussian 16, Revision B.01,
 Gaussian 16:  ES64L-G16RevB.01 20-Dec-2017

 -------------------------
 #P B3LYP/6-311+g(d) force
 -------------------------

 -----
 DPGEN
 -----
 Symbolic Z-matrix:
 Charge =  0 Multiplicity = 2

                         Standard orientation:
 ---------------------------------------------------------------------
 Center     Atomic      Atomic             Coordinates (Angstroms)
 Number     Number       Type             X           Y           Z
 ---------------------------------------------------------------------
      1         11           0       -3.737874   -1.228356   -0.787471
      2         11           0       -1.613902   -0.854289    2.478810
      3         11           0        3.452547   -2.140765   -0.362744
      4         11           0        0.691055   -1.264576   -1.359007
      5         11           0        0.776327    3.475338   -0.344061
      6         11           0       -1.438135    1.259572   -0.851080
      7         11           0        1.869983    0.753076    1.225553
 ---------------------------------------------------------------------

 SCF Done:  E(UB3LYP) =  -1136.12455399     A.U. after   20 cycles

 The electronic state is 2-A.
 Alpha  occ. eigenvalues --  -38.44751 -38.44386 -38.44199 -38.44117 -38.43710
 Alpha  occ. eigenvalues --  -38.43357 -38.43131  -2.20539  -2.20160  -2.20073
 Alpha  occ. eigenvalues --   -2.19967  -2.19536  -2.19271  -2.18971  -1.14192
 Alpha  occ. eigenvalues --   -1.14182  -1.14135  -1.13841  -1.13819  -1.13792
 Alpha  occ. eigenvalues --   -1.13774  -1.13746  -1.13707  -1.13659  -1.13636
 Alpha  occ. eigenvalues --   -1.13573  -1.13204  -1.13185  -1.13166  -1.12991
 Alpha  occ. eigenvalues --   -1.12937  -1.12894  -1.12636  -1.12616  -1.12605
 Alpha  occ. eigenvalues --   -0.17644  -0.13186  -0.12120  -0.11253
 Alpha virt. eigenvalues --   -0.06237  -0.05374  -0.04520  -0.03247  -0.02974
 Alpha virt. eigenvalues --   -0.02678  -0.02014  -0.01404  -0.00608  -0.00223
 Alpha virt. eigenvalues --    0.00041   0.00114   0.00405   0.00511   0.00798

  Beta  occ. eigenvalues --  -38.44644 -38.44386 -38.44172 -38.44093 -38.43710
  Beta  occ. eigenvalues --  -38.43329 -38.43130  -2.20341  -2.20162  -2.20023
  Beta  occ. eigenvalues --   -2.19923  -2.19537  -2.19222  -2.18971  -1.14057
  Beta  occ. eigenvalues --   -1.14046  -1.13997  -1.13842  -1.13808  -1.13795
  Beta  occ. eigenvalues --   -1.13740  -1.13704  -1.13675  -1.13629  -1.13589
  Beta  occ. eigenvalues --   -1.13547  -1.13199  -1.13185  -1.13167  -1.12957
  Beta  occ. eigenvalues --   -1.12887  -1.12865  -1.12632  -1.12612  -1.12605
  Beta  occ. eigenvalues --   -0.17008  -0.13026  -0.11989
  Beta virt. eigenvalues --   -0.07277  -0.06048  -0.04922  -0.04295  -0.02920
  Beta virt. eigenvalues --   -0.02310  -0.02020  -0.01922  -0.01377  -0.00236
  Beta virt. eigenvalues --   -0.00209   0.00158   0.00253   0.00556   0.00770

 Mulliken charges and spin densities:
               1          2
     1  Na   0.666579  -0.055801
     2  Na  -0.122135   0.463372
     3  Na   0.476366  -0.012362
     4  Na  -0.519121   0.108020
     5  Na   0.605828  -0.067453
     6  Na  -0.772017   0.278403
     7  Na  -0.335499   0.285821
 Sum of Mulliken charges =  -0.00000   1.00000

 Dipole moment (field-independent basis, Debye):
    X=             -0.0704    Y=             -0.5115    Z=              0.0926  Tot=              0.5246
 Quadrupole moment (field-independent basis, Debye-Ang):
   XX=            -56.1861   YY=            -67.1334   ZZ=            -70.5866
   XY=              2.0607   XZ=              2.8337   YZ=             -0.1501

 Normal termination of Gaussian 16 at Sun Dec  3 16:41:59 2023.
