 Gaussian 16, Revision B.01,
 Gaussian 16:  ES64L-G16RevB.01 20-Dec-2017

 -------------------------
 #P B3LYP/6-311+g(d) force
 -------------------------

 -----
 DPGEN
 -----
 Symbolic Z-matrix:
 Charge =  0 Multiplicity = 2

                         Standard orientation:
 ---------------------------------------------------------------------
 Center     Atomic      Atomic             Coordinates (Angstroms)
 Number     Number       Type             X           Y           Z
 ---------------------------------------------------------------------
      1         11           0       -0.044766    0.276223    1.876471
      2         11           0       -0.515412   -0.593921   -1.676783
      3         11           0        3.187997    1.054238   -0.030379
      4         11           0       -1.582437   -2.343128    0.538670
      5         11           0        0.206426    2.865424   -0.208790
      6         11           0       -3.241968    1.041397   -0.230421
      7         11           0        1.990160   -2.300233   -0.268768
 ---------------------------------------------------------------------

 SCF Done:  E(UB3LYP) =  -1136.13503858     A.U. after   19 cycles

 The electronic state is 2-A.
 Alpha  occ. eigenvalues --  -38.44356 -38.44108 -38.43663 -38.43596 -38.43552
 Alpha  occ. eigenvalues --  -38.43361 -38.43346  -2.20146  -2.19901  -2.19560
 Alpha  occ. eigenvalues --   -2.19427  -2.19379  -2.19313  -2.19260  -1.13823
 Alpha  occ. eigenvalues --   -1.13795  -1.13790  -1.13577  -1.13555  -1.13551
 Alpha  occ. eigenvalues --   -1.13321  -1.13238  -1.13162  -1.13122  -1.13086
 Alpha  occ. eigenvalues --   -1.13084  -1.13057  -1.13055  -1.12994  -1.12977
 Alpha  occ. eigenvalues --   -1.12946  -1.12927  -1.12906  -1.12886  -1.12870
 Alpha  occ. eigenvalues --   -0.18430  -0.12943  -0.12494  -0.10534
 Alpha virt. eigenvalues --   -0.05924  -0.05349  -0.04647  -0.03116  -0.02878
 Alpha virt. eigenvalues --   -0.02335  -0.01785  -0.01194  -0.00516  -0.00392
 Alpha virt. eigenvalues --   -0.00015   0.00327   0.00780   0.00828   0.00854

  Beta  occ. eigenvalues --  -38.44349 -38.44109 -38.43643 -38.43590 -38.43548
  Beta  occ. eigenvalues --  -38.43302 -38.43259  -2.20136  -2.19905  -2.19529
  Beta  occ. eigenvalues --   -2.19418  -2.19373  -2.19205  -2.19102  -1.13799
  Beta  occ. eigenvalues --   -1.13788  -1.13784  -1.13574  -1.13558  -1.13550
  Beta  occ. eigenvalues --   -1.13295  -1.13180  -1.13147  -1.13105  -1.13072
  Beta  occ. eigenvalues --   -1.13070  -1.13050  -1.13038  -1.12991  -1.12906
  Beta  occ. eigenvalues --   -1.12874  -1.12827  -1.12824  -1.12773  -1.12756
  Beta  occ. eigenvalues --   -0.17721  -0.12737  -0.12256
  Beta virt. eigenvalues --   -0.06653  -0.05866  -0.05322  -0.04569  -0.02402
  Beta virt. eigenvalues --   -0.02163  -0.01694  -0.01325  -0.01119  -0.00518
  Beta virt. eigenvalues --   -0.00425   0.00127   0.00372   0.00832   0.00841

 Mulliken charges and spin densities:
               1          2
     1  Na  -0.102694   0.610607
     2  Na  -0.165125   0.677661
     3  Na  -0.100780  -0.073912
     4  Na   0.243921  -0.021579
     5  Na  -0.091347  -0.101212
     6  Na   0.101959  -0.058070
     7  Na   0.114066  -0.033495
 Sum of Mulliken charges =  -0.00000   1.00000

 Dipole moment (field-independent basis, Debye):
    X=             -0.1710    Y=              0.1240    Z=              0.0334  Tot=              0.2138
 Quadrupole moment (field-independent basis, Debye-Ang):
   XX=            -54.2355   YY=            -63.4217   ZZ=            -75.2799
   XY=             -0.6310   XZ=             -0.7354   YZ=             -1.6903

 Normal termination of Gaussian 16 at Thu Dec  7 18:00:42 2023.
