 Gaussian 16, Revision B.01,
 Gaussian 16:  ES64L-G16RevB.01 20-Dec-2017

 -------------------------
 #P B3LYP/6-311+g(d) force
 -------------------------

 -----
 DPGEN
 -----
 Symbolic Z-matrix:
 Charge =  0 Multiplicity = 2

                         Standard orientation:
 ---------------------------------------------------------------------
 Center     Atomic      Atomic             Coordinates (Angstroms)
 Number     Number       Type             X           Y           Z
 ---------------------------------------------------------------------
      1         11           0       -1.333514   -1.244374    2.138102
      2         11           0       -0.644916    1.071020   -1.974451
      3         11           0       -3.388577   -0.164075   -0.197025
      4         11           0       -0.514222   -2.238066   -1.173289
      5         11           0       -1.340496    2.379458    0.883604
      6         11           0        2.255012    0.169460    0.041746
      7         11           0        4.966714    0.026578    0.281313
 ---------------------------------------------------------------------

 SCF Done:  E(UB3LYP) =  -1136.11124014     A.U. after   28 cycles

 The electronic state is 2-A.
 Alpha  occ. eigenvalues --  -38.45689 -38.45008 -38.44182 -38.43659 -38.43609
 Alpha  occ. eigenvalues --  -38.43435 -38.43189  -2.21542  -2.20846  -2.20026
 Alpha  occ. eigenvalues --   -2.19573  -2.19491  -2.19291  -2.19047  -1.15244
 Alpha  occ. eigenvalues --   -1.15209  -1.15147  -1.14647  -1.14459  -1.14456
 Alpha  occ. eigenvalues --   -1.13688  -1.13682  -1.13634  -1.13250  -1.13230
 Alpha  occ. eigenvalues --   -1.13197  -1.13178  -1.13136  -1.13100  -1.12965
 Alpha  occ. eigenvalues --   -1.12946  -1.12900  -1.12716  -1.12693  -1.12687
 Alpha  occ. eigenvalues --   -0.18327  -0.13614  -0.11850  -0.11196
 Alpha virt. eigenvalues --   -0.07596  -0.04131  -0.03746  -0.03565  -0.03155
 Alpha virt. eigenvalues --   -0.02978  -0.02649  -0.00871  -0.00751  -0.00518
 Alpha virt. eigenvalues --   -0.00341  -0.00161   0.00256   0.00691   0.01012

  Beta  occ. eigenvalues --  -38.45680 -38.44994 -38.44127 -38.43606 -38.43596
  Beta  occ. eigenvalues --  -38.43389 -38.43169  -2.21532  -2.20821  -2.19924
  Beta  occ. eigenvalues --   -2.19489  -2.19459  -2.19208  -2.19011  -1.15211
  Beta  occ. eigenvalues --   -1.15192  -1.15147  -1.14631  -1.14441  -1.14439
  Beta  occ. eigenvalues --   -1.13619  -1.13610  -1.13558  -1.13189  -1.13163
  Beta  occ. eigenvalues --   -1.13154  -1.13118  -1.13102  -1.13097  -1.12906
  Beta  occ. eigenvalues --   -1.12886  -1.12836  -1.12694  -1.12672  -1.12643
  Beta  occ. eigenvalues --   -0.17500  -0.13301  -0.11106
  Beta virt. eigenvalues --   -0.07930  -0.07317  -0.03727  -0.03340  -0.03178
  Beta virt. eigenvalues --   -0.03002  -0.02730  -0.01865  -0.00745  -0.00504
  Beta virt. eigenvalues --   -0.00398  -0.00236   0.00030   0.00266   0.00755

 Mulliken charges and spin densities:
               1          2
     1  Na   0.435221   0.315481
     2  Na   1.438941   0.316189
     3  Na  -0.202674   0.162313
     4  Na   0.409097   0.061254
     5  Na   0.542954   0.113614
     6  Na  -0.438851  -0.215542
     7  Na  -2.184688   0.246691
 Sum of Mulliken charges =  -0.00000   1.00000

 Dipole moment (field-independent basis, Debye):
    X=             -0.3691    Y=             -0.2214    Z=              0.0685  Tot=              0.4358
 Quadrupole moment (field-independent basis, Debye-Ang):
   XX=            -50.1731   YY=            -78.3562   ZZ=            -66.0360
   XY=             -0.3475   XZ=              2.5760   YZ=              3.0332

 Normal termination of Gaussian 16 at Thu Dec  7 06:34:26 2023.
