 Gaussian 16, Revision B.01,
 Gaussian 16:  ES64L-G16RevB.01 20-Dec-2017

 -------------------------
 #P B3LYP/6-311+g(d) force
 -------------------------

 -----
 DPGEN
 -----
 Symbolic Z-matrix:
 Charge =  0 Multiplicity = 2

                         Standard orientation:
 ---------------------------------------------------------------------
 Center     Atomic      Atomic             Coordinates (Angstroms)
 Number     Number       Type             X           Y           Z
 ---------------------------------------------------------------------
      1         11           0        2.386812    1.457178   -0.701181
      2         11           0        5.600700    0.320421    1.171578
      3         11           0        3.710551   -1.889470   -0.038255
      4         11           0        0.784351   -0.909519   -0.984105
      5         11           0       -1.373611    1.744753    0.015208
      6         11           0       -3.932265   -0.105682   -0.031228
      7         11           0       -7.176539   -0.617681    0.567982
 ---------------------------------------------------------------------

 SCF Done:  E(UB3LYP) =  -1136.10970470     A.U. after   24 cycles

 The electronic state is 2-A.
 Alpha  occ. eigenvalues --  -38.45839 -38.44431 -38.44214 -38.44151 -38.44147
 Alpha  occ. eigenvalues --  -38.43943 -38.43723  -2.21689  -2.20194  -2.20097
 Alpha  occ. eigenvalues --   -2.20053  -2.20039  -2.19773  -2.19537  -1.15470
 Alpha  occ. eigenvalues --   -1.15369  -1.15252  -1.13852  -1.13852  -1.13832
 Alpha  occ. eigenvalues --   -1.13827  -1.13771  -1.13747  -1.13730  -1.13714
 Alpha  occ. eigenvalues --   -1.13705  -1.13697  -1.13667  -1.13622  -1.13419
 Alpha  occ. eigenvalues --   -1.13416  -1.13389  -1.13221  -1.13207  -1.13162
 Alpha  occ. eigenvalues --   -0.17412  -0.14371  -0.12076  -0.10866
 Alpha virt. eigenvalues --   -0.07642  -0.04850  -0.04457  -0.04044  -0.02730
 Alpha virt. eigenvalues --   -0.02539  -0.02438  -0.01686  -0.01035  -0.00991
 Alpha virt. eigenvalues --   -0.00294  -0.00104  -0.00010   0.00351   0.00482

  Beta  occ. eigenvalues --  -38.45836 -38.44410 -38.44184 -38.44120 -38.44085
  Beta  occ. eigenvalues --  -38.43891 -38.43726  -2.21684  -2.20156  -2.19995
  Beta  occ. eigenvalues --   -2.19990  -2.19986  -2.19673  -2.19546  -1.15442
  Beta  occ. eigenvalues --   -1.15365  -1.15253  -1.13826  -1.13825  -1.13807
  Beta  occ. eigenvalues --   -1.13760  -1.13708  -1.13698  -1.13675  -1.13674
  Beta  occ. eigenvalues --   -1.13661  -1.13650  -1.13626  -1.13524  -1.13352
  Beta  occ. eigenvalues --   -1.13348  -1.13323  -1.13222  -1.13215  -1.13160
  Beta  occ. eigenvalues --   -0.16802  -0.14079  -0.11776
  Beta virt. eigenvalues --   -0.07593  -0.06979  -0.04475  -0.04167  -0.03858
  Beta virt. eigenvalues --   -0.02495  -0.02297  -0.01863  -0.01550  -0.00903
  Beta virt. eigenvalues --   -0.00668  -0.00029   0.00114   0.00156   0.00434

 Mulliken charges and spin densities:
               1          2
     1  Na  -0.107472   0.140407
     2  Na   0.251045   0.321665
     3  Na  -0.116754   0.016043
     4  Na  -0.143309   0.354213
     5  Na   0.101369   0.084401
     6  Na   0.040108   0.056977
     7  Na  -0.024985   0.026294
 Sum of Mulliken charges =  -0.00000   1.00000

 Dipole moment (field-independent basis, Debye):
    X=              0.7164    Y=              0.2176    Z=             -0.0148  Tot=              0.7489
 Quadrupole moment (field-independent basis, Debye-Ang):
   XX=            -60.9366   YY=            -67.0317   ZZ=            -71.8497
   XY=              1.3250   XZ=             -1.1044   YZ=             -1.2273

 Normal termination of Gaussian 16 at Wed Nov 29 02:11:04 2023.
