 Gaussian 16, Revision B.01,
 Gaussian 16:  ES64L-G16RevB.01 20-Dec-2017

 -------------------------
 #P B3LYP/6-311+g(d) force
 -------------------------

 -----
 DPGEN
 -----
 Symbolic Z-matrix:
 Charge =  0 Multiplicity = 2

                         Standard orientation:
 ---------------------------------------------------------------------
 Center     Atomic      Atomic             Coordinates (Angstroms)
 Number     Number       Type             X           Y           Z
 ---------------------------------------------------------------------
      1         11           0       -0.137469    1.809942   -0.786226
      2         11           0       -2.285273    3.725387    0.392704
      3         11           0       -3.482558   -0.125286   -0.214826
      4         11           0       -2.638698   -3.767831    0.095090
      5         11           0        0.295340   -1.438821   -0.092823
      6         11           0        2.801495    0.031488    1.127081
      7         11           0        5.447162   -0.234878   -0.521001
 ---------------------------------------------------------------------

 SCF Done:  E(UB3LYP) =  -1136.11886739     A.U. after   20 cycles

 The electronic state is 2-A.
 Alpha  occ. eigenvalues --  -38.45068 -38.44208 -38.44094 -38.44072 -38.44029
 Alpha  occ. eigenvalues --  -38.43781 -38.43609  -2.20824  -2.20035  -2.19902
 Alpha  occ. eigenvalues --   -2.19894  -2.19832  -2.19661  -2.19477  -1.14530
 Alpha  occ. eigenvalues --   -1.14507  -1.14402  -1.13691  -1.13663  -1.13661
 Alpha  occ. eigenvalues --   -1.13655  -1.13584  -1.13564  -1.13546  -1.13532
 Alpha  occ. eigenvalues --   -1.13506  -1.13498  -1.13456  -1.13453  -1.13364
 Alpha  occ. eigenvalues --   -1.13333  -1.13283  -1.13146  -1.13134  -1.13100
 Alpha  occ. eigenvalues --   -0.16848  -0.13864  -0.12455  -0.10722
 Alpha virt. eigenvalues --   -0.06258  -0.05552  -0.04807  -0.03526  -0.02865
 Alpha virt. eigenvalues --   -0.02298  -0.01825  -0.01633  -0.01083  -0.00826
 Alpha virt. eigenvalues --   -0.00500   0.00029   0.00335   0.00397   0.00521

  Beta  occ. eigenvalues --  -38.45042 -38.44102 -38.44081 -38.44065 -38.44007
  Beta  occ. eigenvalues --  -38.43733 -38.43606  -2.20776  -2.19875  -2.19860
  Beta  occ. eigenvalues --   -2.19839  -2.19821  -2.19577  -2.19482  -1.14498
  Beta  occ. eigenvalues --   -1.14473  -1.14364  -1.13640  -1.13565  -1.13561
  Beta  occ. eigenvalues --   -1.13544  -1.13527  -1.13525  -1.13522  -1.13509
  Beta  occ. eigenvalues --   -1.13498  -1.13487  -1.13449  -1.13419  -1.13313
  Beta  occ. eigenvalues --   -1.13269  -1.13230  -1.13147  -1.13132  -1.13044
  Beta  occ. eigenvalues --   -0.16229  -0.13080  -0.12364
  Beta virt. eigenvalues --   -0.07253  -0.06090  -0.05156  -0.04486  -0.03151
  Beta virt. eigenvalues --   -0.02592  -0.02193  -0.01675  -0.01348  -0.00713
  Beta virt. eigenvalues --   -0.00512  -0.00221   0.00206   0.00477   0.00532

 Mulliken charges and spin densities:
               1          2
     1  Na  -0.826821  -0.022650
     2  Na   0.609835   0.120380
     3  Na   0.159067   0.297334
     4  Na   0.595121   0.121776
     5  Na  -1.146033  -0.076198
     6  Na   0.579341   0.055436
     7  Na   0.029489   0.503921
 Sum of Mulliken charges =  -0.00000   1.00000

 Dipole moment (field-independent basis, Debye):
    X=             -0.9302    Y=              0.1702    Z=              0.0120  Tot=              0.9457
 Quadrupole moment (field-independent basis, Debye-Ang):
   XX=            -70.0459   YY=            -60.8566   ZZ=            -68.7948
   XY=             -0.5814   XZ=             -3.5122   YZ=              1.5798

 Normal termination of Gaussian 16 at Wed Nov 29 02:55:17 2023.
