 Gaussian 16, Revision B.01,
 Gaussian 16:  ES64L-G16RevB.01 20-Dec-2017

 -------------------------
 #P B3LYP/6-311+g(d) force
 -------------------------

 -----
 DPGEN
 -----
 Symbolic Z-matrix:
 Charge =  0 Multiplicity = 2

                         Standard orientation:
 ---------------------------------------------------------------------
 Center     Atomic      Atomic             Coordinates (Angstroms)
 Number     Number       Type             X           Y           Z
 ---------------------------------------------------------------------
      1         11           0       -0.718715   -1.073115    1.916336
      2         11           0        1.097061   -2.342014    0.330554
      3         11           0        1.513984    2.171568    1.262436
      4         11           0        3.535678   -0.246709   -0.936108
      5         11           0       -0.147681    1.189686   -1.819744
      6         11           0       -2.527140    1.707139    0.309383
      7         11           0       -2.753186   -1.406555   -1.062856
 ---------------------------------------------------------------------

 SCF Done:  E(UB3LYP) =  -1136.12329840     A.U. after   20 cycles

 The electronic state is 2-A.
 Alpha  occ. eigenvalues --  -38.44457 -38.44456 -38.44252 -38.44077 -38.44016
 Alpha  occ. eigenvalues --  -38.43537 -38.43245  -2.20272  -2.20238  -2.20034
 Alpha  occ. eigenvalues --   -2.19919  -2.19852  -2.19469  -2.19128  -1.13949
 Alpha  occ. eigenvalues --   -1.13927  -1.13906  -1.13895  -1.13893  -1.13866
 Alpha  occ. eigenvalues --   -1.13702  -1.13688  -1.13662  -1.13636  -1.13587
 Alpha  occ. eigenvalues --   -1.13550  -1.13525  -1.13501  -1.13457  -1.13404
 Alpha  occ. eigenvalues --   -1.13081  -1.13054  -1.12756  -1.12754  -1.12702
 Alpha  occ. eigenvalues --   -0.17981  -0.13242  -0.11801  -0.11182
 Alpha virt. eigenvalues --   -0.06025  -0.05550  -0.04203  -0.03438  -0.03296
 Alpha virt. eigenvalues --   -0.02716  -0.01788  -0.01127  -0.00476  -0.00127
 Alpha virt. eigenvalues --    0.00096   0.00323   0.00416   0.00589   0.00787

  Beta  occ. eigenvalues --  -38.44432 -38.44428 -38.44213 -38.44075 -38.43987
  Beta  occ. eigenvalues --  -38.43482 -38.43241  -2.20220  -2.20193  -2.19964
  Beta  occ. eigenvalues --   -2.19920  -2.19798  -2.19371  -2.19122  -1.13910
  Beta  occ. eigenvalues --   -1.13894  -1.13868  -1.13866  -1.13853  -1.13838
  Beta  occ. eigenvalues --   -1.13652  -1.13640  -1.13628  -1.13607  -1.13581
  Beta  occ. eigenvalues --   -1.13532  -1.13494  -1.13458  -1.13418  -1.13349
  Beta  occ. eigenvalues --   -1.13014  -1.12977  -1.12750  -1.12731  -1.12687
  Beta  occ. eigenvalues --   -0.17300  -0.12943  -0.11624
  Beta virt. eigenvalues --   -0.07520  -0.05791  -0.05310  -0.03816  -0.03211
  Beta virt. eigenvalues --   -0.02680  -0.01838  -0.01660  -0.00901  -0.00383
  Beta virt. eigenvalues --   -0.00002   0.00136   0.00385   0.00551   0.00660

 Mulliken charges and spin densities:
               1          2
     1  Na   0.196537   0.642414
     2  Na  -0.269769  -0.222507
     3  Na  -0.180465   0.013015
     4  Na   0.124580   0.118630
     5  Na  -0.269993   0.396573
     6  Na   0.396710   0.067878
     7  Na   0.002401  -0.016004
 Sum of Mulliken charges =  -0.00000   1.00000

 Dipole moment (field-independent basis, Debye):
    X=             -0.2225    Y=              0.4338    Z=             -0.4012  Tot=              0.6314
 Quadrupole moment (field-independent basis, Debye-Ang):
   XX=            -55.2065   YY=            -71.9535   ZZ=            -68.5094
   XY=              1.0155   XZ=             -0.5973   YZ=              5.5982

 Normal termination of Gaussian 16 at Fri Dec  8 17:30:29 2023.
