 Gaussian 16, Revision B.01,
 Gaussian 16:  ES64L-G16RevB.01 20-Dec-2017

 -------------------------
 #P B3LYP/6-311+g(d) force
 -------------------------

 -----
 DPGEN
 -----
 Symbolic Z-matrix:
 Charge =  0 Multiplicity = 2

                         Standard orientation:
 ---------------------------------------------------------------------
 Center     Atomic      Atomic             Coordinates (Angstroms)
 Number     Number       Type             X           Y           Z
 ---------------------------------------------------------------------
      1         11           0       -2.918875   -1.103768    0.444524
      2         11           0       -2.190361    2.030895   -0.555605
      3         11           0        0.041075   -0.121010   -1.617612
      4         11           0        1.387707    2.935975    0.205197
      5         11           0        3.329701   -0.805513   -0.243131
      6         11           0        0.034208   -2.723711   -0.398685
      7         11           0        0.316544   -0.212867    2.165312
 ---------------------------------------------------------------------

 SCF Done:  E(UB3LYP) =  -1136.13154344     A.U. after   20 cycles

 The electronic state is 2-A.
 Alpha  occ. eigenvalues --  -38.44544 -38.43979 -38.43884 -38.43755 -38.43554
 Alpha  occ. eigenvalues --  -38.43503 -38.43439  -2.20311  -2.19825  -2.19650
 Alpha  occ. eigenvalues --   -2.19594  -2.19434  -2.19397  -2.19390  -1.13992
 Alpha  occ. eigenvalues --   -1.13959  -1.13953  -1.13490  -1.13458  -1.13438
 Alpha  occ. eigenvalues --   -1.13348  -1.13330  -1.13307  -1.13290  -1.13269
 Alpha  occ. eigenvalues --   -1.13253  -1.13248  -1.13126  -1.13074  -1.13046
 Alpha  occ. eigenvalues --   -1.13030  -1.13014  -1.13007  -1.12976  -1.12956
 Alpha  occ. eigenvalues --   -0.18319  -0.12753  -0.12313  -0.10900
 Alpha virt. eigenvalues --   -0.05946  -0.05224  -0.04490  -0.03217  -0.02944
 Alpha virt. eigenvalues --   -0.02746  -0.01746  -0.01152  -0.00471  -0.00272
 Alpha virt. eigenvalues --   -0.00023   0.00339   0.00741   0.00817   0.00866

  Beta  occ. eigenvalues --  -38.44543 -38.43884 -38.43882 -38.43748 -38.43543
  Beta  occ. eigenvalues --  -38.43489 -38.43376  -2.20312  -2.19653  -2.19646
  Beta  occ. eigenvalues --   -2.19583  -2.19390  -2.19373  -2.19307  -1.13982
  Beta  occ. eigenvalues --   -1.13961  -1.13951  -1.13373  -1.13337  -1.13321
  Beta  occ. eigenvalues --   -1.13315  -1.13302  -1.13297  -1.13291  -1.13264
  Beta  occ. eigenvalues --   -1.13241  -1.13222  -1.13087  -1.13027  -1.13023
  Beta  occ. eigenvalues --   -1.13000  -1.12985  -1.12975  -1.12922  -1.12896
  Beta  occ. eigenvalues --   -0.17591  -0.12543  -0.12085
  Beta virt. eigenvalues --   -0.06979  -0.05936  -0.05108  -0.04448  -0.02492
  Beta virt. eigenvalues --   -0.02217  -0.01736  -0.01619  -0.01064  -0.00476
  Beta virt. eigenvalues --   -0.00307   0.00109   0.00369   0.00786   0.00845

 Mulliken charges and spin densities:
               1          2
     1  Na   0.057738   0.110337
     2  Na   0.092694  -0.007974
     3  Na   0.074226   0.272100
     4  Na  -0.125266  -0.057326
     5  Na  -0.026764  -0.093698
     6  Na   0.382495   0.039106
     7  Na  -0.455122   0.737455
 Sum of Mulliken charges =  -0.00000   1.00000

 Dipole moment (field-independent basis, Debye):
    X=              0.4654    Y=             -0.0433    Z=              0.2572  Tot=              0.5335
 Quadrupole moment (field-independent basis, Debye-Ang):
   XX=            -55.4562   YY=            -64.0281   ZZ=            -73.8575
   XY=              0.3465   XZ=             -0.7489   YZ=             -0.0599

 Normal termination of Gaussian 16 at Thu Dec  7 01:51:03 2023.
