 Gaussian 16, Revision B.01,
 Gaussian 16:  ES64L-G16RevB.01 20-Dec-2017

 -------------------------
 #P B3LYP/6-311+g(d) force
 -------------------------

 -----
 DPGEN
 -----
 Symbolic Z-matrix:
 Charge =  0 Multiplicity = 2

                         Standard orientation:
 ---------------------------------------------------------------------
 Center     Atomic      Atomic             Coordinates (Angstroms)
 Number     Number       Type             X           Y           Z
 ---------------------------------------------------------------------
      1         11           0        0.104793   -1.602402    1.875241
      2         11           0       -1.236421    1.917337    0.272818
      3         11           0       -3.665186   -0.048723    0.273681
      4         11           0       -1.068134   -1.537599   -1.481789
      5         11           0        2.415376   -1.808759   -0.672491
      6         11           0        2.287658    1.339188    1.329105
      7         11           0        1.161914    1.740958   -1.596565
 ---------------------------------------------------------------------

 SCF Done:  E(UB3LYP) =  -1136.13204512     A.U. after   19 cycles

 The electronic state is 2-A.
 Alpha  occ. eigenvalues --  -38.44252 -38.43957 -38.43945 -38.43784 -38.43773
 Alpha  occ. eigenvalues --  -38.43368 -38.43173  -2.20076  -2.19804  -2.19790
 Alpha  occ. eigenvalues --   -2.19633  -2.19596  -2.19275  -2.19079  -1.13770
 Alpha  occ. eigenvalues --   -1.13731  -1.13709  -1.13487  -1.13482  -1.13459
 Alpha  occ. eigenvalues --   -1.13437  -1.13427  -1.13412  -1.13317  -1.13291
 Alpha  occ. eigenvalues --   -1.13273  -1.13248  -1.13246  -1.13227  -1.13023
 Alpha  occ. eigenvalues --   -1.12913  -1.12889  -1.12748  -1.12740  -1.12685
 Alpha  occ. eigenvalues --   -0.18312  -0.13238  -0.11956  -0.11309
 Alpha virt. eigenvalues --   -0.05977  -0.05035  -0.04120  -0.03546  -0.03406
 Alpha virt. eigenvalues --   -0.02770  -0.01694  -0.00887  -0.00375  -0.00020
 Alpha virt. eigenvalues --    0.00213   0.00340   0.00423   0.00734   0.00899

  Beta  occ. eigenvalues --  -38.44252 -38.43915 -38.43905 -38.43763 -38.43744
  Beta  occ. eigenvalues --  -38.43331 -38.43164  -2.20076  -2.19750  -2.19695
  Beta  occ. eigenvalues --   -2.19582  -2.19561  -2.19208  -2.19066  -1.13769
  Beta  occ. eigenvalues --   -1.13726  -1.13709  -1.13451  -1.13426  -1.13406
  Beta  occ. eigenvalues --   -1.13383  -1.13362  -1.13348  -1.13271  -1.13244
  Beta  occ. eigenvalues --   -1.13237  -1.13229  -1.13221  -1.13185  -1.12983
  Beta  occ. eigenvalues --   -1.12870  -1.12829  -1.12735  -1.12708  -1.12678
  Beta  occ. eigenvalues --   -0.17568  -0.13079  -0.11792
  Beta virt. eigenvalues --   -0.07410  -0.05821  -0.04930  -0.03560  -0.03352
  Beta virt. eigenvalues --   -0.02758  -0.01840  -0.01591  -0.00799  -0.00108
  Beta virt. eigenvalues --    0.00050   0.00215   0.00384   0.00586   0.00828

 Mulliken charges and spin densities:
               1          2
     1  Na  -0.347943   0.467541
     2  Na  -0.362880   0.017593
     3  Na   0.384273  -0.044606
     4  Na  -0.211699   0.150107
     5  Na   0.184206  -0.010057
     6  Na   0.111119   0.019599
     7  Na   0.242924   0.399822
 Sum of Mulliken charges =  -0.00000   1.00000

 Dipole moment (field-independent basis, Debye):
    X=             -0.1390    Y=             -0.3771    Z=              0.1682  Tot=              0.4357
 Quadrupole moment (field-independent basis, Debye-Ang):
   XX=            -55.0807   YY=            -73.5924   ZZ=            -66.7308
   XY=              0.8663   XZ=             -1.0560   YZ=              1.1143

 Normal termination of Gaussian 16 at Sun Dec  3 15:17:24 2023.
