 Gaussian 16, Revision B.01,
 Gaussian 16:  ES64L-G16RevB.01 20-Dec-2017

 -------------------------
 #P B3LYP/6-311+g(d) force
 -------------------------

 -----
 DPGEN
 -----
 Symbolic Z-matrix:
 Charge =  0 Multiplicity = 2

                         Standard orientation:
 ---------------------------------------------------------------------
 Center     Atomic      Atomic             Coordinates (Angstroms)
 Number     Number       Type             X           Y           Z
 ---------------------------------------------------------------------
      1         11           0       -3.136363    0.488785    0.263857
      2         11           0       -1.342744   -2.529877   -0.166125
      3         11           0        2.195261   -1.862569   -0.309496
      4         11           0        0.168967   -0.562362    1.648751
      5         11           0        2.882918    1.344198    0.201517
      6         11           0       -0.251785    0.212946   -1.593818
      7         11           0       -0.516253    2.908879   -0.044687
 ---------------------------------------------------------------------

 SCF Done:  E(UB3LYP) =  -1136.13566230     A.U. after   19 cycles

 The electronic state is 2-A.
 Alpha  occ. eigenvalues --  -38.44173 -38.43971 -38.43633 -38.43513 -38.43388
 Alpha  occ. eigenvalues --  -38.43066 -38.42781  -2.20007  -2.19798  -2.19541
 Alpha  occ. eigenvalues --   -2.19359  -2.19300  -2.19070  -2.18804  -1.13680
 Alpha  occ. eigenvalues --   -1.13667  -1.13646  -1.13475  -1.13466  -1.13440
 Alpha  occ. eigenvalues --   -1.13258  -1.13201  -1.13159  -1.13082  -1.13040
 Alpha  occ. eigenvalues --   -1.13015  -1.12977  -1.12973  -1.12910  -1.12755
 Alpha  occ. eigenvalues --   -1.12689  -1.12668  -1.12487  -1.12435  -1.12410
 Alpha  occ. eigenvalues --   -0.19029  -0.13238  -0.12650  -0.10293
 Alpha virt. eigenvalues --   -0.05753  -0.05228  -0.04771  -0.03066  -0.02734
 Alpha virt. eigenvalues --   -0.01962  -0.01647  -0.01165  -0.00447  -0.00314
 Alpha virt. eigenvalues --    0.00046   0.00350   0.00816   0.00878   0.00884

  Beta  occ. eigenvalues --  -38.44167 -38.43967 -38.43622 -38.43510 -38.43378
  Beta  occ. eigenvalues --  -38.42998 -38.42708  -2.19997  -2.19794  -2.19525
  Beta  occ. eigenvalues --   -2.19355  -2.19286  -2.18946  -2.18671  -1.13667
  Beta  occ. eigenvalues --   -1.13654  -1.13637  -1.13474  -1.13449  -1.13433
  Beta  occ. eigenvalues --   -1.13245  -1.13168  -1.13143  -1.13071  -1.13026
  Beta  occ. eigenvalues --   -1.12997  -1.12978  -1.12935  -1.12897  -1.12671
  Beta  occ. eigenvalues --   -1.12603  -1.12577  -1.12395  -1.12335  -1.12317
  Beta  occ. eigenvalues --   -0.18316  -0.12989  -0.12394
  Beta virt. eigenvalues --   -0.06409  -0.05713  -0.05219  -0.04732  -0.02297
  Beta virt. eigenvalues --   -0.01977  -0.01554  -0.01113  -0.00964  -0.00476
  Beta virt. eigenvalues --   -0.00366   0.00182   0.00392   0.00859   0.00879

 Mulliken charges and spin densities:
               1          2
     1  Na   0.017116  -0.043574
     2  Na   0.380799  -0.002702
     3  Na   0.325557   0.015257
     4  Na  -0.439039   0.664242
     5  Na  -0.043467  -0.064313
     6  Na  -0.248901   0.538842
     7  Na   0.007936  -0.107751
 Sum of Mulliken charges =  -0.00000   1.00000

 Dipole moment (field-independent basis, Debye):
    X=             -0.0896    Y=              0.1293    Z=              0.0567  Tot=              0.1672
 Quadrupole moment (field-independent basis, Debye-Ang):
   XX=            -53.9017   YY=            -61.1651   ZZ=            -76.5550
   XY=              0.4399   XZ=             -0.9488   YZ=              1.9136

 Normal termination of Gaussian 16 at Tue Nov 28 22:28:52 2023.
