 Gaussian 16, Revision B.01,
 Gaussian 16:  ES64L-G16RevB.01 20-Dec-2017

 -------------------------
 #P B3LYP/6-311+g(d) force
 -------------------------

 -----
 DPGEN
 -----
 Symbolic Z-matrix:
 Charge =  0 Multiplicity = 2

                         Standard orientation:
 ---------------------------------------------------------------------
 Center     Atomic      Atomic             Coordinates (Angstroms)
 Number     Number       Type             X           Y           Z
 ---------------------------------------------------------------------
      1         11           0        0.304710    2.669551   -0.771711
      2         11           0       -3.866363   -1.065162   -0.793343
      3         11           0       -0.327918   -0.987756   -1.124700
      4         11           0        2.595154   -2.135231   -0.359895
      5         11           0        2.860503    1.057464   -0.471307
      6         11           0        0.712142   -0.564715    2.375186
      7         11           0       -2.278229    1.025848    1.145769
 ---------------------------------------------------------------------

 SCF Done:  E(UB3LYP) =  -1136.12518720     A.U. after   22 cycles

 The electronic state is 2-A.
 Alpha  occ. eigenvalues --  -38.44616 -38.44473 -38.44211 -38.44173 -38.44117
 Alpha  occ. eigenvalues --  -38.43419 -38.42466  -2.20457  -2.20281  -2.20103
 Alpha  occ. eigenvalues --   -2.20058  -2.19975  -2.19290  -2.18324  -1.14121
 Alpha  occ. eigenvalues --   -1.14090  -1.14057  -1.13954  -1.13931  -1.13921
 Alpha  occ. eigenvalues --   -1.13791  -1.13766  -1.13765  -1.13745  -1.13726
 Alpha  occ. eigenvalues --   -1.13680  -1.13655  -1.13631  -1.13599  -1.12961
 Alpha  occ. eigenvalues --   -1.12956  -1.12920  -1.12014  -1.11980  -1.11957
 Alpha  occ. eigenvalues --   -0.18285  -0.13883  -0.11541  -0.11424
 Alpha virt. eigenvalues --   -0.06555  -0.05434  -0.04135  -0.03556  -0.02772
 Alpha virt. eigenvalues --   -0.02550  -0.02373  -0.01167  -0.00464  -0.00288
 Alpha virt. eigenvalues --    0.00031   0.00215   0.00432   0.00616   0.00791

  Beta  occ. eigenvalues --  -38.44505 -38.44453 -38.44197 -38.44151 -38.44097
  Beta  occ. eigenvalues --  -38.43416 -38.42461  -2.20254  -2.20243  -2.20079
  Beta  occ. eigenvalues --   -2.20019  -2.19940  -2.19287  -2.18316  -1.13984
  Beta  occ. eigenvalues --   -1.13955  -1.13930  -1.13907  -1.13903  -1.13895
  Beta  occ. eigenvalues --   -1.13774  -1.13738  -1.13730  -1.13723  -1.13700
  Beta  occ. eigenvalues --   -1.13652  -1.13625  -1.13602  -1.13563  -1.12959
  Beta  occ. eigenvalues --   -1.12952  -1.12907  -1.12006  -1.11976  -1.11944
  Beta  occ. eigenvalues --   -0.17611  -0.13651  -0.11339
  Beta virt. eigenvalues --   -0.07497  -0.06389  -0.05116  -0.03802  -0.03156
  Beta virt. eigenvalues --   -0.02262  -0.02036  -0.01885  -0.01017  -0.00305
  Beta virt. eigenvalues --   -0.00127   0.00128   0.00258   0.00593   0.00711

 Mulliken charges and spin densities:
               1          2
     1  Na  -0.230642  -0.056219
     2  Na   0.197760   0.068822
     3  Na  -1.271067   0.248604
     4  Na   1.054830   0.053786
     5  Na   0.261964   0.144510
     6  Na  -0.281914   0.407025
     7  Na   0.269069   0.133473
 Sum of Mulliken charges =  -0.00000   1.00000

 Dipole moment (field-independent basis, Debye):
    X=             -0.3663    Y=             -0.5032    Z=              0.2766  Tot=              0.6811
 Quadrupole moment (field-independent basis, Debye-Ang):
   XX=            -52.3589   YY=            -73.8866   ZZ=            -69.6252
   XY=             -1.4655   XZ=              0.9343   YZ=              1.9061

 Normal termination of Gaussian 16 at Tue Dec  5 20:40:10 2023.
