 Gaussian 16, Revision B.01,
 Gaussian 16:  ES64L-G16RevB.01 20-Dec-2017

 -------------------------
 #P B3LYP/6-311+g(d) force
 -------------------------

 -----
 DPGEN
 -----
 Symbolic Z-matrix:
 Charge =  0 Multiplicity = 2

                         Standard orientation:
 ---------------------------------------------------------------------
 Center     Atomic      Atomic             Coordinates (Angstroms)
 Number     Number       Type             X           Y           Z
 ---------------------------------------------------------------------
      1         11           0       -0.119391    0.127584   -1.728531
      2         11           0        0.215063    0.255429    2.018086
      3         11           0       -3.129413   -0.666298   -0.415565
      4         11           0        2.648615   -1.670806   -0.474171
      5         11           0       -0.556822   -2.653793    0.562156
      6         11           0        3.028484    2.040524   -0.057204
      7         11           0       -2.086536    2.567359    0.095230
 ---------------------------------------------------------------------

 SCF Done:  E(UB3LYP) =  -1136.13136166     A.U. after   21 cycles

 The electronic state is 2-A.
 Alpha  occ. eigenvalues --  -38.44451 -38.44243 -38.44217 -38.43927 -38.43823
 Alpha  occ. eigenvalues --  -38.43732 -38.42692  -2.20196  -2.20088  -2.20028
 Alpha  occ. eigenvalues --   -2.19723  -2.19714  -2.19597  -2.18572  -1.13874
 Alpha  occ. eigenvalues --   -1.13855  -1.13838  -1.13774  -1.13745  -1.13726
 Alpha  occ. eigenvalues --   -1.13715  -1.13687  -1.13652  -1.13411  -1.13395
 Alpha  occ. eigenvalues --   -1.13383  -1.13368  -1.13346  -1.13332  -1.13269
 Alpha  occ. eigenvalues --   -1.13223  -1.13213  -1.12257  -1.12224  -1.12216
 Alpha  occ. eigenvalues --   -0.18150  -0.13186  -0.11836  -0.10761
 Alpha virt. eigenvalues --   -0.06207  -0.05641  -0.04203  -0.03347  -0.02838
 Alpha virt. eigenvalues --   -0.02597  -0.01859  -0.01387  -0.00702  -0.00288
 Alpha virt. eigenvalues --   -0.00013   0.00312   0.00668   0.00682   0.00760

  Beta  occ. eigenvalues --  -38.44456 -38.44233 -38.44205 -38.43926 -38.43765
  Beta  occ. eigenvalues --  -38.43636 -38.42678  -2.20207  -2.20072  -2.20009
  Beta  occ. eigenvalues --   -2.19724  -2.19609  -2.19420  -2.18551  -1.13877
  Beta  occ. eigenvalues --   -1.13858  -1.13846  -1.13756  -1.13723  -1.13718
  Beta  occ. eigenvalues --   -1.13692  -1.13668  -1.13643  -1.13390  -1.13384
  Beta  occ. eigenvalues --   -1.13360  -1.13331  -1.13272  -1.13255  -1.13152
  Beta  occ. eigenvalues --   -1.13094  -1.13087  -1.12240  -1.12209  -1.12181
  Beta  occ. eigenvalues --   -0.17415  -0.12968  -0.11640
  Beta virt. eigenvalues --   -0.06872  -0.06202  -0.05507  -0.04160  -0.02648
  Beta virt. eigenvalues --   -0.02096  -0.01802  -0.01604  -0.01242  -0.00746
  Beta virt. eigenvalues --   -0.00257   0.00100   0.00352   0.00703   0.00788

 Mulliken charges and spin densities:
               1          2
     1  Na   0.074802   0.339738
     2  Na  -0.158994   0.617126
     3  Na   0.207935   0.064082
     4  Na   0.070008   0.046067
     5  Na   0.029368   0.089327
     6  Na  -0.127822  -0.088276
     7  Na  -0.095298  -0.068065
 Sum of Mulliken charges =  -0.00000   1.00000

 Dipole moment (field-independent basis, Debye):
    X=              0.1425    Y=              0.3296    Z=             -0.1335  Tot=              0.3831
 Quadrupole moment (field-independent basis, Debye-Ang):
   XX=            -54.6773   YY=            -64.3413   ZZ=            -74.4782
   XY=              0.1572   XZ=             -0.4864   YZ=              0.4421

 Normal termination of Gaussian 16 at Fri Dec  8 05:26:59 2023.
