 Gaussian 16, Revision B.01,
 Gaussian 16:  ES64L-G16RevB.01 20-Dec-2017

 -------------------------
 #P B3LYP/6-311+g(d) force
 -------------------------

 -----
 DPGEN
 -----
 Symbolic Z-matrix:
 Charge =  0 Multiplicity = 2

                         Standard orientation:
 ---------------------------------------------------------------------
 Center     Atomic      Atomic             Coordinates (Angstroms)
 Number     Number       Type             X           Y           Z
 ---------------------------------------------------------------------
      1         11           0       -0.133491   -1.175740   -0.947516
      2         11           0       -1.195282    0.654425    1.787216
      3         11           0        3.851092   -0.471140   -1.326373
      4         11           0        1.977207   -0.908804    1.642723
      5         11           0       -2.906740   -2.067877   -0.059048
      6         11           0        0.953805    2.380747    0.258391
      7         11           0       -2.546591    1.588390   -1.355393
 ---------------------------------------------------------------------

 SCF Done:  E(UB3LYP) =  -1136.12667969     A.U. after   22 cycles

 The electronic state is 2-A.
 Alpha  occ. eigenvalues --  -38.44450 -38.44412 -38.44144 -38.43584 -38.43439
 Alpha  occ. eigenvalues --  -38.43411 -38.43231  -2.20262  -2.20192  -2.20002
 Alpha  occ. eigenvalues --   -2.19504  -2.19378  -2.19251  -2.19067  -1.13945
 Alpha  occ. eigenvalues --   -1.13904  -1.13863  -1.13856  -1.13844  -1.13809
 Alpha  occ. eigenvalues --   -1.13706  -1.13643  -1.13621  -1.13230  -1.13192
 Alpha  occ. eigenvalues --   -1.13155  -1.13086  -1.13014  -1.13010  -1.12908
 Alpha  occ. eigenvalues --   -1.12894  -1.12872  -1.12747  -1.12740  -1.12677
 Alpha  occ. eigenvalues --   -0.18264  -0.13560  -0.11329  -0.11134
 Alpha virt. eigenvalues --   -0.06074  -0.05439  -0.04683  -0.03135  -0.02672
 Alpha virt. eigenvalues --   -0.02458  -0.02038  -0.01044  -0.00934  -0.00161
 Alpha virt. eigenvalues --    0.00185   0.00193   0.00405   0.00471   0.00662

  Beta  occ. eigenvalues --  -38.44398 -38.44367 -38.44112 -38.43576 -38.43410
  Beta  occ. eigenvalues --  -38.43396 -38.43230  -2.20165  -2.20106  -2.19947
  Beta  occ. eigenvalues --   -2.19491  -2.19304  -2.19251  -2.19068  -1.13874
  Beta  occ. eigenvalues --   -1.13843  -1.13795  -1.13795  -1.13785  -1.13756
  Beta  occ. eigenvalues --   -1.13668  -1.13610  -1.13553  -1.13195  -1.13189
  Beta  occ. eigenvalues --   -1.13142  -1.13042  -1.12964  -1.12932  -1.12907
  Beta  occ. eigenvalues --   -1.12886  -1.12869  -1.12748  -1.12717  -1.12679
  Beta  occ. eigenvalues --   -0.17580  -0.13210  -0.11162
  Beta virt. eigenvalues --   -0.07472  -0.05767  -0.05049  -0.04365  -0.03007
  Beta virt. eigenvalues --   -0.02163  -0.01835  -0.01780  -0.00853  -0.00598
  Beta virt. eigenvalues --   -0.00035   0.00239   0.00392   0.00475   0.00554

 Mulliken charges and spin densities:
               1          2
     1  Na  -0.767857   0.443265
     2  Na   0.483660   0.283728
     3  Na   0.026015   0.234425
     4  Na   0.256735  -0.105860
     5  Na   0.412462  -0.137598
     6  Na  -0.335964   0.156605
     7  Na  -0.075050   0.125434
 Sum of Mulliken charges =  -0.00000   1.00000

 Dipole moment (field-independent basis, Debye):
    X=              0.0155    Y=              0.3044    Z=              0.0259  Tot=              0.3059
 Quadrupole moment (field-independent basis, Debye-Ang):
   XX=            -53.9163   YY=            -74.0929   ZZ=            -66.1893
   XY=              0.5711   XZ=             -0.7738   YZ=             -4.3445

 Normal termination of Gaussian 16 at Tue Dec  5 14:26:32 2023.
