 Gaussian 16, Revision B.01,
 Gaussian 16:  ES64L-G16RevB.01 20-Dec-2017

 -------------------------
 #P B3LYP/6-311+g(d) force
 -------------------------

 -----
 DPGEN
 -----
 Symbolic Z-matrix:
 Charge =  0 Multiplicity = 2

                         Standard orientation:
 ---------------------------------------------------------------------
 Center     Atomic      Atomic             Coordinates (Angstroms)
 Number     Number       Type             X           Y           Z
 ---------------------------------------------------------------------
      1         11           0       -4.028092   -0.588657   -0.549845
      2         11           0       -0.136901    0.196150    2.172564
      3         11           0       -1.999597    2.782472   -0.434088
      4         11           0        1.767686   -2.527797   -0.284760
      5         11           0        1.419064    2.302328   -0.222467
      6         11           0        4.221741    0.316210   -0.514842
      7         11           0       -1.243901   -2.480707   -0.166562
 ---------------------------------------------------------------------

 SCF Done:  E(UB3LYP) =  -1136.11846579     A.U. after   20 cycles

 The electronic state is 2-A.
 Alpha  occ. eigenvalues --  -38.45328 -38.44762 -38.44442 -38.44189 -38.43984
 Alpha  occ. eigenvalues --  -38.43864 -38.43556  -2.21122  -2.20516  -2.20252
 Alpha  occ. eigenvalues --   -2.19984  -2.19784  -2.19675  -2.19411  -1.14782
 Alpha  occ. eigenvalues --   -1.14769  -1.14727  -1.14210  -1.14169  -1.14159
 Alpha  occ. eigenvalues --   -1.13975  -1.13911  -1.13883  -1.13641  -1.13632
 Alpha  occ. eigenvalues --   -1.13606  -1.13440  -1.13435  -1.13411  -1.13368
 Alpha  occ. eigenvalues --   -1.13356  -1.13291  -1.13096  -1.13063  -1.13055
 Alpha  occ. eigenvalues --   -0.17000  -0.13404  -0.12746  -0.10737
 Alpha virt. eigenvalues --   -0.07055  -0.05909  -0.03950  -0.03710  -0.03089
 Alpha virt. eigenvalues --   -0.02345  -0.01973  -0.01877  -0.01211  -0.00506
 Alpha virt. eigenvalues --   -0.00484   0.00140   0.00407   0.00605   0.00652

  Beta  occ. eigenvalues --  -38.45245 -38.44768 -38.44443 -38.44123 -38.43925
  Beta  occ. eigenvalues --  -38.43863 -38.43554  -2.20967  -2.20529  -2.20255
  Beta  occ. eigenvalues --   -2.19862  -2.19678  -2.19674  -2.19411  -1.14680
  Beta  occ. eigenvalues --   -1.14666  -1.14612  -1.14221  -1.14179  -1.14154
  Beta  occ. eigenvalues --   -1.13975  -1.13900  -1.13886  -1.13557  -1.13552
  Beta  occ. eigenvalues --   -1.13523  -1.13379  -1.13370  -1.13360  -1.13350
  Beta  occ. eigenvalues --   -1.13337  -1.13271  -1.13099  -1.13063  -1.13032
  Beta  occ. eigenvalues --   -0.16456  -0.12686  -0.12597
  Beta virt. eigenvalues --   -0.07414  -0.06721  -0.05693  -0.03771  -0.03124
  Beta virt. eigenvalues --   -0.02576  -0.02070  -0.01708  -0.01451  -0.01149
  Beta virt. eigenvalues --   -0.00491  -0.00135   0.00249   0.00523   0.00723

 Mulliken charges and spin densities:
               1          2
     1  Na   0.066565   0.387748
     2  Na  -0.155694   0.287729
     3  Na   0.143155  -0.022232
     4  Na  -0.066487  -0.053925
     5  Na  -0.437785   0.025073
     6  Na   0.449148   0.334794
     7  Na   0.001098   0.040813
 Sum of Mulliken charges =  -0.00000   1.00000

 Dipole moment (field-independent basis, Debye):
    X=             -0.1028    Y=              0.3518    Z=              0.5888  Tot=              0.6936
 Quadrupole moment (field-independent basis, Debye-Ang):
   XX=            -65.4990   YY=            -66.8565   ZZ=            -69.5164
   XY=             -4.0220   XZ=             -0.0623   YZ=             -0.7117

 Normal termination of Gaussian 16 at Sun Dec  3 13:51:24 2023.
