 Gaussian 16, Revision B.01,
 Gaussian 16:  ES64L-G16RevB.01 20-Dec-2017

 -------------------------
 #P B3LYP/6-311+g(d) force
 -------------------------

 -----
 DPGEN
 -----
 Symbolic Z-matrix:
 Charge =  0 Multiplicity = 2

                         Standard orientation:
 ---------------------------------------------------------------------
 Center     Atomic      Atomic             Coordinates (Angstroms)
 Number     Number       Type             X           Y           Z
 ---------------------------------------------------------------------
      1         11           0        2.521185    0.797900   -0.655453
      2         11           0       -1.765274    1.040592   -1.393232
      3         11           0       -0.117045   -1.593264   -1.444782
      4         11           0        2.195541   -2.459438    0.572622
      5         11           0       -3.295943   -0.977946    0.686034
      6         11           0        0.611317    3.013357    0.476442
      7         11           0       -0.149780    0.178799    1.758369
 ---------------------------------------------------------------------

 SCF Done:  E(UB3LYP) =  -1136.13379363     A.U. after   19 cycles

 The electronic state is 2-A.
 Alpha  occ. eigenvalues --  -38.44194 -38.44059 -38.43624 -38.43568 -38.43430
 Alpha  occ. eigenvalues --  -38.43384 -38.42956  -2.20014  -2.19930  -2.19541
 Alpha  occ. eigenvalues --   -2.19501  -2.19314  -2.19275  -2.18840  -1.13682
 Alpha  occ. eigenvalues --   -1.13676  -1.13651  -1.13614  -1.13604  -1.13563
 Alpha  occ. eigenvalues --   -1.13290  -1.13198  -1.13166  -1.13154  -1.13141
 Alpha  occ. eigenvalues --   -1.13117  -1.13025  -1.12997  -1.12938  -1.12923
 Alpha  occ. eigenvalues --   -1.12920  -1.12862  -1.12511  -1.12499  -1.12474
 Alpha  occ. eigenvalues --   -0.18651  -0.13118  -0.12363  -0.11081
 Alpha virt. eigenvalues --   -0.05707  -0.04976  -0.04353  -0.03549  -0.03010
 Alpha virt. eigenvalues --   -0.02652  -0.01611  -0.01058  -0.00391   0.00023
 Alpha virt. eigenvalues --    0.00301   0.00356   0.00776   0.00805   0.00829

  Beta  occ. eigenvalues --  -38.44181 -38.44051 -38.43579 -38.43496 -38.43426
  Beta  occ. eigenvalues --  -38.43339 -38.42952  -2.19991  -2.19917  -2.19462
  Beta  occ. eigenvalues --   -2.19370  -2.19268  -2.19235  -2.18836  -1.13669
  Beta  occ. eigenvalues --   -1.13647  -1.13633  -1.13607  -1.13574  -1.13558
  Beta  occ. eigenvalues --   -1.13226  -1.13121  -1.13090  -1.13085  -1.13059
  Beta  occ. eigenvalues --   -1.13022  -1.12991  -1.12945  -1.12915  -1.12909
  Beta  occ. eigenvalues --   -1.12873  -1.12824  -1.12505  -1.12492  -1.12462
  Beta  occ. eigenvalues --   -0.17907  -0.12913  -0.12200
  Beta virt. eigenvalues --   -0.07134  -0.05554  -0.04832  -0.04303  -0.02903
  Beta virt. eigenvalues --   -0.02415  -0.01660  -0.01489  -0.00969  -0.00184
  Beta virt. eigenvalues --    0.00047   0.00376   0.00398   0.00805   0.00866

 Mulliken charges and spin densities:
               1          2
     1  Na  -0.316988   0.080392
     2  Na  -0.050371   0.275025
     3  Na   0.046045   0.235541
     4  Na   0.265140  -0.077775
     5  Na  -0.008896  -0.066820
     6  Na   0.610722  -0.061406
     7  Na  -0.545652   0.615043
 Sum of Mulliken charges =  -0.00000   1.00000

 Dipole moment (field-independent basis, Debye):
    X=             -0.1983    Y=             -0.2229    Z=              0.1080  Tot=              0.3173
 Quadrupole moment (field-independent basis, Debye-Ang):
   XX=            -58.1150   YY=            -64.9802   ZZ=            -70.9050
   XY=              0.3178   XZ=             -1.0154   YZ=             -2.5343

 Normal termination of Gaussian 16 at Sun Dec  3 20:54:12 2023.
