 Gaussian 16, Revision B.01,
 Gaussian 16:  ES64L-G16RevB.01 20-Dec-2017

 -------------------------
 #P B3LYP/6-311+g(d) force
 -------------------------

 -----
 DPGEN
 -----
 Symbolic Z-matrix:
 Charge =  0 Multiplicity = 2

                         Standard orientation:
 ---------------------------------------------------------------------
 Center     Atomic      Atomic             Coordinates (Angstroms)
 Number     Number       Type             X           Y           Z
 ---------------------------------------------------------------------
      1         11           0       -0.293631   -0.046728    2.127269
      2         11           0        3.349274   -0.334327    0.087094
      3         11           0        1.027267   -2.904415   -0.178072
      4         11           0        1.700398    2.582758   -0.425727
      5         11           0       -3.290690   -1.410858   -0.260840
      6         11           0       -0.324686   -0.196769   -1.380549
      7         11           0       -2.167933    2.310338    0.030826
 ---------------------------------------------------------------------

 SCF Done:  E(UB3LYP) =  -1136.13106706     A.U. after   21 cycles

 The electronic state is 2-A.
 Alpha  occ. eigenvalues --  -38.44825 -38.44380 -38.44215 -38.43656 -38.43505
 Alpha  occ. eigenvalues --  -38.43384 -38.43184  -2.20597  -2.20183  -2.20016
 Alpha  occ. eigenvalues --   -2.19475  -2.19357  -2.19195  -2.19141  -1.14274
 Alpha  occ. eigenvalues --   -1.14245  -1.14237  -1.13855  -1.13846  -1.13829
 Alpha  occ. eigenvalues --   -1.13699  -1.13686  -1.13642  -1.13181  -1.13131
 Alpha  occ. eigenvalues --   -1.13104  -1.13029  -1.12978  -1.12968  -1.12878
 Alpha  occ. eigenvalues --   -1.12860  -1.12839  -1.12829  -1.12784  -1.12756
 Alpha  occ. eigenvalues --   -0.18029  -0.13137  -0.12089  -0.10274
 Alpha virt. eigenvalues --   -0.06341  -0.05644  -0.04545  -0.03089  -0.02535
 Alpha virt. eigenvalues --   -0.02329  -0.02072  -0.01432  -0.00830  -0.00529
 Alpha virt. eigenvalues --   -0.00046   0.00262   0.00677   0.00727   0.00828

  Beta  occ. eigenvalues --  -38.44817 -38.44380 -38.44211 -38.43654 -38.43397
  Beta  occ. eigenvalues --  -38.43377 -38.43142  -2.20583  -2.20185  -2.20011
  Beta  occ. eigenvalues --   -2.19473  -2.19183  -2.19157  -2.19066  -1.14250
  Beta  occ. eigenvalues --   -1.14236  -1.14228  -1.13852  -1.13841  -1.13830
  Beta  occ. eigenvalues --   -1.13693  -1.13662  -1.13643  -1.13176  -1.13115
  Beta  occ. eigenvalues --   -1.13105  -1.12898  -1.12864  -1.12846  -1.12840
  Beta  occ. eigenvalues --   -1.12825  -1.12821  -1.12772  -1.12733  -1.12701
  Beta  occ. eigenvalues --   -0.17361  -0.12943  -0.11872
  Beta virt. eigenvalues --   -0.06439  -0.06239  -0.05577  -0.04512  -0.02394
  Beta virt. eigenvalues --   -0.01976  -0.01874  -0.01356  -0.01257  -0.00855
  Beta virt. eigenvalues --   -0.00551   0.00130   0.00326   0.00723   0.00766

 Mulliken charges and spin densities:
               1          2
     1  Na  -0.393229   0.727804
     2  Na   0.074047   0.022103
     3  Na   0.203509  -0.018505
     4  Na   0.044715   0.027596
     5  Na   0.137328  -0.014117
     6  Na  -0.222325   0.227323
     7  Na   0.155955   0.027796
 Sum of Mulliken charges =  -0.00000   1.00000

 Dipole moment (field-independent basis, Debye):
    X=             -0.5051    Y=             -0.2035    Z=              0.1492  Tot=              0.5646
 Quadrupole moment (field-independent basis, Debye-Ang):
   XX=            -51.7837   YY=            -62.7054   ZZ=            -77.3822
   XY=             -0.3944   XZ=              0.2782   YZ=             -0.3648

 Normal termination of Gaussian 16 at Thu Dec  7 12:39:26 2023.
