 Gaussian 16, Revision B.01,
 Gaussian 16:  ES64L-G16RevB.01 20-Dec-2017

 -------------------------
 #P B3LYP/6-311+g(d) force
 -------------------------

 -----
 DPGEN
 -----
 Symbolic Z-matrix:
 Charge =  0 Multiplicity = 2

                         Standard orientation:
 ---------------------------------------------------------------------
 Center     Atomic      Atomic             Coordinates (Angstroms)
 Number     Number       Type             X           Y           Z
 ---------------------------------------------------------------------
      1         11           0        2.102930    1.693532   -0.185204
      2         11           0       -0.627924    0.473617    1.463803
      3         11           0       -2.007296   -2.371404    0.113202
      4         11           0        2.284691   -1.203294    0.829985
      5         11           0        4.787182   -0.723436   -1.088861
      6         11           0       -4.774473   -0.647881   -0.947854
      7         11           0       -1.765111    2.778866   -0.185071
 ---------------------------------------------------------------------

 SCF Done:  E(UB3LYP) =  -1136.11799209     A.U. after   20 cycles

 The electronic state is 2-A.
 Alpha  occ. eigenvalues --  -38.44809 -38.44219 -38.44179 -38.44176 -38.44008
 Alpha  occ. eigenvalues --  -38.43672 -38.43393  -2.20658  -2.20091  -2.20045
 Alpha  occ. eigenvalues --   -2.19946  -2.19823  -2.19462  -2.19339  -1.14414
 Alpha  occ. eigenvalues --   -1.14354  -1.14221  -1.13793  -1.13780  -1.13744
 Alpha  occ. eigenvalues --   -1.13693  -1.13687  -1.13621  -1.13608  -1.13593
 Alpha  occ. eigenvalues --   -1.13573  -1.13543  -1.13475  -1.13422  -1.13156
 Alpha  occ. eigenvalues --   -1.13141  -1.13084  -1.13022  -1.13005  -1.12941
 Alpha  occ. eigenvalues --   -0.17425  -0.14079  -0.11698  -0.11064
 Alpha virt. eigenvalues --   -0.06237  -0.05553  -0.04643  -0.03618  -0.02727
 Alpha virt. eigenvalues --   -0.02458  -0.02156  -0.01249  -0.00663  -0.00552
 Alpha virt. eigenvalues --   -0.00239  -0.00007   0.00220   0.00311   0.00600

  Beta  occ. eigenvalues --  -38.44807 -38.44182 -38.44151 -38.44130 -38.43976
  Beta  occ. eigenvalues --  -38.43669 -38.43358  -2.20655  -2.20045  -2.19975
  Beta  occ. eigenvalues --   -2.19860  -2.19762  -2.19459  -2.19279  -1.14403
  Beta  occ. eigenvalues --   -1.14352  -1.14216  -1.13764  -1.13742  -1.13704
  Beta  occ. eigenvalues --   -1.13645  -1.13632  -1.13560  -1.13549  -1.13531
  Beta  occ. eigenvalues --   -1.13520  -1.13505  -1.13434  -1.13377  -1.13153
  Beta  occ. eigenvalues --   -1.13143  -1.13057  -1.12975  -1.12956  -1.12885
  Beta  occ. eigenvalues --   -0.16765  -0.13668  -0.11471
  Beta virt. eigenvalues --   -0.07604  -0.05919  -0.04983  -0.04298  -0.03464
  Beta virt. eigenvalues --   -0.02423  -0.02120  -0.01698  -0.01163  -0.00504
  Beta virt. eigenvalues --   -0.00238  -0.00115   0.00159   0.00375   0.00410

 Mulliken charges and spin densities:
               1          2
     1  Na  -0.281788   0.148371
     2  Na   0.116811  -0.133948
     3  Na  -0.003489   0.116172
     4  Na  -0.319637   0.099738
     5  Na   0.501152   0.204407
     6  Na  -0.016090   0.264478
     7  Na   0.003040   0.300781
 Sum of Mulliken charges =  -0.00000   1.00000

 Dipole moment (field-independent basis, Debye):
    X=              1.1198    Y=              0.4287    Z=             -0.5525  Tot=              1.3203
 Quadrupole moment (field-independent basis, Debye-Ang):
   XX=            -58.7948   YY=            -68.8669   ZZ=            -69.2086
   XY=             -4.9285   XZ=             -0.9043   YZ=             -2.0387

 Normal termination of Gaussian 16 at Tue Nov 28 19:18:20 2023.
