 Gaussian 16, Revision B.01,
 Gaussian 16:  ES64L-G16RevB.01 20-Dec-2017

 -------------------------
 #P B3LYP/6-311+g(d) force
 -------------------------

 -----
 DPGEN
 -----
 Symbolic Z-matrix:
 Charge =  0 Multiplicity = 2

                         Standard orientation:
 ---------------------------------------------------------------------
 Center     Atomic      Atomic             Coordinates (Angstroms)
 Number     Number       Type             X           Y           Z
 ---------------------------------------------------------------------
      1         11           0       -0.785840    3.051520   -0.391929
      2         11           0       -3.180290    0.409994   -0.283605
      3         11           0        2.494145    1.810681    0.194091
      4         11           0       -0.067581   -0.590940   -1.449066
      5         11           0       -0.367595   -0.227419    2.319223
      6         11           0        2.960353   -1.402370   -0.336066
      7         11           0       -1.053192   -3.051466   -0.052648
 ---------------------------------------------------------------------

 SCF Done:  E(UB3LYP) =  -1136.13145489     A.U. after   19 cycles

 The electronic state is 2-A.
 Alpha  occ. eigenvalues --  -38.44353 -38.44126 -38.44096 -38.43916 -38.43712
 Alpha  occ. eigenvalues --  -38.43617 -38.43252  -2.20153  -2.19954  -2.19913
 Alpha  occ. eigenvalues --   -2.19744  -2.19528  -2.19412  -2.19215  -1.13835
 Alpha  occ. eigenvalues --   -1.13815  -1.13781  -1.13693  -1.13603  -1.13599
 Alpha  occ. eigenvalues --   -1.13576  -1.13571  -1.13550  -1.13390  -1.13371
 Alpha  occ. eigenvalues --   -1.13359  -1.13198  -1.13193  -1.13177  -1.13087
 Alpha  occ. eigenvalues --   -1.13069  -1.13053  -1.12897  -1.12861  -1.12837
 Alpha  occ. eigenvalues --   -0.17997  -0.12884  -0.12434  -0.10659
 Alpha virt. eigenvalues --   -0.06015  -0.05214  -0.04947  -0.03078  -0.02878
 Alpha virt. eigenvalues --   -0.02668  -0.01636  -0.01335  -0.00678  -0.00561
 Alpha virt. eigenvalues --   -0.00047   0.00324   0.00746   0.00796   0.00859

  Beta  occ. eigenvalues --  -38.44346 -38.44122 -38.44092 -38.43802 -38.43711
  Beta  occ. eigenvalues --  -38.43614 -38.43210  -2.20141  -2.19950  -2.19908
  Beta  occ. eigenvalues --   -2.19532  -2.19527  -2.19408  -2.19139  -1.13817
  Beta  occ. eigenvalues --   -1.13801  -1.13774  -1.13686  -1.13592  -1.13583
  Beta  occ. eigenvalues --   -1.13569  -1.13562  -1.13548  -1.13247  -1.13224
  Beta  occ. eigenvalues --   -1.13209  -1.13194  -1.13186  -1.13175  -1.13077
  Beta  occ. eigenvalues --   -1.13064  -1.13049  -1.12842  -1.12805  -1.12779
  Beta  occ. eigenvalues --   -0.17332  -0.12702  -0.12236
  Beta virt. eigenvalues --   -0.06694  -0.06012  -0.05119  -0.04862  -0.02368
  Beta virt. eigenvalues --   -0.02171  -0.01591  -0.01557  -0.01272  -0.00709
  Beta virt. eigenvalues --   -0.00582   0.00142   0.00384   0.00748   0.00868

 Mulliken charges and spin densities:
               1          2
     1  Na  -0.069151   0.030297
     2  Na   0.195030   0.043477
     3  Na  -0.005358   0.038358
     4  Na   0.012450   0.105163
     5  Na  -0.523145   0.779461
     6  Na   0.224735   0.010624
     7  Na   0.165439  -0.007381
 Sum of Mulliken charges =  -0.00000   1.00000

 Dipole moment (field-independent basis, Debye):
    X=             -0.2050    Y=             -0.3833    Z=              0.0952  Tot=              0.4450
 Quadrupole moment (field-independent basis, Debye-Ang):
   XX=            -57.8219   YY=            -60.6832   ZZ=            -75.6925
   XY=              0.1560   XZ=              0.5411   YZ=             -0.4261

 Normal termination of Gaussian 16 at Thu Dec  7 10:28:58 2023.
