 Gaussian 16, Revision B.01,
 Gaussian 16:  ES64L-G16RevB.01 20-Dec-2017

 -------------------------
 #P B3LYP/6-311+g(d) force
 -------------------------

 -----
 DPGEN
 -----
 Symbolic Z-matrix:
 Charge =  0 Multiplicity = 2

                         Standard orientation:
 ---------------------------------------------------------------------
 Center     Atomic      Atomic             Coordinates (Angstroms)
 Number     Number       Type             X           Y           Z
 ---------------------------------------------------------------------
      1         11           0        3.146894    0.411291    0.892113
      2         11           0        2.881184   -2.742298    0.739580
      3         11           0       -2.979114   -0.452013   -0.901363
      4         11           0        2.114086    3.332318   -0.208242
      5         11           0       -4.996466    0.399830    1.472675
      6         11           0       -0.120999   -2.252073   -1.113350
      7         11           0       -0.045585    1.302944   -0.881414
 ---------------------------------------------------------------------

 SCF Done:  E(UB3LYP) =  -1136.12394049     A.U. after   20 cycles

 The electronic state is 2-A.
 Alpha  occ. eigenvalues --  -38.44949 -38.44232 -38.44221 -38.44079 -38.43549
 Alpha  occ. eigenvalues --  -38.43485 -38.43286  -2.20766  -2.20089  -2.20049
 Alpha  occ. eigenvalues --   -2.19966  -2.19410  -2.19349  -2.19113  -1.14400
 Alpha  occ. eigenvalues --   -1.14390  -1.14386  -1.13770  -1.13758  -1.13736
 Alpha  occ. eigenvalues --   -1.13726  -1.13724  -1.13660  -1.13646  -1.13636
 Alpha  occ. eigenvalues --   -1.13614  -1.13091  -1.13082  -1.13070  -1.13015
 Alpha  occ. eigenvalues --   -1.12988  -1.12986  -1.12790  -1.12766  -1.12741
 Alpha  occ. eigenvalues --   -0.17019  -0.14283  -0.12456  -0.11592
 Alpha virt. eigenvalues --   -0.05580  -0.05407  -0.04614  -0.04051  -0.02581
 Alpha virt. eigenvalues --   -0.02254  -0.02085  -0.01380  -0.00898  -0.00760
 Alpha virt. eigenvalues --   -0.00248   0.00052   0.00113   0.00375   0.00715

  Beta  occ. eigenvalues --  -38.44833 -38.44201 -38.44188 -38.44052 -38.43544
  Beta  occ. eigenvalues --  -38.43483 -38.43270  -2.20550  -2.20034  -2.19988
  Beta  occ. eigenvalues --   -2.19918  -2.19412  -2.19346  -2.19084  -1.14255
  Beta  occ. eigenvalues --   -1.14243  -1.14241  -1.13734  -1.13724  -1.13694
  Beta  occ. eigenvalues --   -1.13683  -1.13676  -1.13617  -1.13614  -1.13603
  Beta  occ. eigenvalues --   -1.13572  -1.13104  -1.13093  -1.13009  -1.12993
  Beta  occ. eigenvalues --   -1.12987  -1.12984  -1.12760  -1.12747  -1.12725
  Beta  occ. eigenvalues --   -0.16498  -0.13400  -0.12283
  Beta virt. eigenvalues --   -0.07991  -0.05261  -0.05115  -0.04302  -0.03835
  Beta virt. eigenvalues --   -0.02156  -0.01868  -0.01700  -0.01289  -0.00784
  Beta virt. eigenvalues --   -0.00400   0.00047   0.00224   0.00336   0.00444

 Mulliken charges and spin densities:
               1          2
     1  Na  -0.210820   0.207274
     2  Na   0.031949   0.106282
     3  Na  -0.303192  -0.135569
     4  Na   1.608509   0.075860
     5  Na   0.427542   0.530665
     6  Na   0.139628   0.113727
     7  Na  -1.693616   0.101761
 Sum of Mulliken charges =  -0.00000   1.00000

 Dipole moment (field-independent basis, Debye):
    X=             -0.1668    Y=              0.3529    Z=              0.2984  Tot=              0.4913
 Quadrupole moment (field-independent basis, Debye-Ang):
   XX=            -64.7815   YY=            -63.6752   ZZ=            -68.3573
   XY=              2.0922   XZ=             -0.8708   YZ=              1.6113

 Normal termination of Gaussian 16 at Wed Nov 29 00:03:44 2023.
