 Gaussian 16, Revision B.01,
 Gaussian 16:  ES64L-G16RevB.01 20-Dec-2017

 -------------------------
 #P B3LYP/6-311+g(d) force
 -------------------------

 -----
 DPGEN
 -----
 Symbolic Z-matrix:
 Charge =  0 Multiplicity = 2

                         Standard orientation:
 ---------------------------------------------------------------------
 Center     Atomic      Atomic             Coordinates (Angstroms)
 Number     Number       Type             X           Y           Z
 ---------------------------------------------------------------------
      1         11           0        2.105972    2.376155    0.247595
      2         11           0        2.998739   -0.819700   -0.611272
      3         11           0        0.168735   -0.287325    2.200098
      4         11           0       -0.063562    0.258903   -1.571927
      5         11           0        0.145519   -2.780144    0.029629
      6         11           0       -3.056313   -1.059356   -0.211215
      7         11           0       -2.299091    2.311467   -0.082909
 ---------------------------------------------------------------------

 SCF Done:  E(UB3LYP) =  -1136.13600109     A.U. after   19 cycles

 The electronic state is 2-A.
 Alpha  occ. eigenvalues --  -38.44256 -38.44029 -38.43872 -38.43813 -38.43779
 Alpha  occ. eigenvalues --  -38.43355 -38.42842  -2.20070  -2.19877  -2.19675
 Alpha  occ. eigenvalues --   -2.19671  -2.19585  -2.19303  -2.18716  -1.13750
 Alpha  occ. eigenvalues --   -1.13730  -1.13705  -1.13560  -1.13529  -1.13514
 Alpha  occ. eigenvalues --   -1.13356  -1.13336  -1.13332  -1.13308  -1.13303
 Alpha  occ. eigenvalues --   -1.13291  -1.13253  -1.13245  -1.13229  -1.12995
 Alpha  occ. eigenvalues --   -1.12946  -1.12926  -1.12401  -1.12384  -1.12345
 Alpha  occ. eigenvalues --   -0.18324  -0.13189  -0.12064  -0.10806
 Alpha virt. eigenvalues --   -0.05715  -0.05565  -0.04423  -0.03244  -0.02851
 Alpha virt. eigenvalues --   -0.02667  -0.01695  -0.01198  -0.00574  -0.00324
 Alpha virt. eigenvalues --   -0.00034   0.00330   0.00721   0.00815   0.00891

  Beta  occ. eigenvalues --  -38.44254 -38.44012 -38.43873 -38.43775 -38.43708
  Beta  occ. eigenvalues --  -38.43306 -38.42835  -2.20067  -2.19847  -2.19676
  Beta  occ. eigenvalues --   -2.19579  -2.19480  -2.19215  -2.18708  -1.13738
  Beta  occ. eigenvalues --   -1.13729  -1.13702  -1.13531  -1.13500  -1.13496
  Beta  occ. eigenvalues --   -1.13353  -1.13333  -1.13308  -1.13247  -1.13236
  Beta  occ. eigenvalues --   -1.13221  -1.13205  -1.13167  -1.13148  -1.12934
  Beta  occ. eigenvalues --   -1.12880  -1.12859  -1.12398  -1.12354  -1.12336
  Beta  occ. eigenvalues --   -0.17612  -0.12970  -0.11853
  Beta virt. eigenvalues --   -0.06870  -0.05692  -0.05499  -0.04358  -0.02544
  Beta virt. eigenvalues --   -0.02093  -0.01646  -0.01566  -0.01105  -0.00608
  Beta virt. eigenvalues --   -0.00344   0.00120   0.00376   0.00812   0.00818

 Mulliken charges and spin densities:
               1          2
     1  Na  -0.029608   0.012272
     2  Na   0.289384   0.058557
     3  Na  -0.521684   0.743772
     4  Na  -0.104440   0.259275
     5  Na   0.225253   0.021874
     6  Na   0.095039  -0.048949
     7  Na   0.046056  -0.046801
 Sum of Mulliken charges =  -0.00000   1.00000

 Dipole moment (field-independent basis, Debye):
    X=             -0.1621    Y=              0.1588    Z=              0.0933  Tot=              0.2453
 Quadrupole moment (field-independent basis, Debye-Ang):
   XX=            -55.3694   YY=            -64.1803   ZZ=            -74.1459
   XY=              0.4025   XZ=             -0.7528   YZ=              1.7480

 Normal termination of Gaussian 16 at Tue Dec  5 13:49:14 2023.
