 Gaussian 16, Revision B.01,
 Gaussian 16:  ES64L-G16RevB.01 20-Dec-2017

 -------------------------
 #P B3LYP/6-311+g(d) force
 -------------------------

 -----
 DPGEN
 -----
 Symbolic Z-matrix:
 Charge =  0 Multiplicity = 2

                         Standard orientation:
 ---------------------------------------------------------------------
 Center     Atomic      Atomic             Coordinates (Angstroms)
 Number     Number       Type             X           Y           Z
 ---------------------------------------------------------------------
      1         11           0        0.197926    0.432946   -1.804296
      2         11           0       -1.355355    2.667975   -0.219328
      3         11           0        2.719592   -1.750869   -0.107829
      4         11           0       -0.549038   -2.453598   -0.348819
      5         11           0       -3.219602   -0.813103    0.219547
      6         11           0        0.064359   -0.106528    1.912782
      7         11           0        2.142118    2.023177    0.347943
 ---------------------------------------------------------------------

 SCF Done:  E(UB3LYP) =  -1136.13691266     A.U. after   19 cycles

 The electronic state is 2-A.
 Alpha  occ. eigenvalues --  -38.43867 -38.43827 -38.43717 -38.43707 -38.43578
 Alpha  occ. eigenvalues --  -38.43382 -38.43060  -2.19685  -2.19682  -2.19558
 Alpha  occ. eigenvalues --   -2.19530  -2.19498  -2.19343  -2.18991  -1.13381
 Alpha  occ. eigenvalues --   -1.13372  -1.13370  -1.13342  -1.13319  -1.13304
 Alpha  occ. eigenvalues --   -1.13281  -1.13214  -1.13205  -1.13195  -1.13181
 Alpha  occ. eigenvalues --   -1.13172  -1.13167  -1.13134  -1.13101  -1.13013
 Alpha  occ. eigenvalues --   -1.12976  -1.12952  -1.12677  -1.12657  -1.12606
 Alpha  occ. eigenvalues --   -0.18736  -0.12831  -0.12595  -0.10870
 Alpha virt. eigenvalues --   -0.05511  -0.05319  -0.04478  -0.03180  -0.02981
 Alpha virt. eigenvalues --   -0.02606  -0.01525  -0.01260  -0.00336  -0.00054
 Alpha virt. eigenvalues --   -0.00004   0.00348   0.00778   0.00862   0.00940

  Beta  occ. eigenvalues --  -38.43867 -38.43815 -38.43710 -38.43706 -38.43495
  Beta  occ. eigenvalues --  -38.43306 -38.43048  -2.19684  -2.19667  -2.19548
  Beta  occ. eigenvalues --   -2.19530  -2.19346  -2.19204  -2.18974  -1.13375
  Beta  occ. eigenvalues --   -1.13369  -1.13329  -1.13328  -1.13320  -1.13294
  Beta  occ. eigenvalues --   -1.13260  -1.13205  -1.13192  -1.13180  -1.13170
  Beta  occ. eigenvalues --   -1.13169  -1.13078  -1.13028  -1.12992  -1.12922
  Beta  occ. eigenvalues --   -1.12879  -1.12852  -1.12666  -1.12618  -1.12591
  Beta  occ. eigenvalues --   -0.17990  -0.12593  -0.12356
  Beta virt. eigenvalues --   -0.06948  -0.05479  -0.05275  -0.04451  -0.02386
  Beta virt. eigenvalues --   -0.02238  -0.01560  -0.01434  -0.01186  -0.00377
  Beta virt. eigenvalues --   -0.00066   0.00107   0.00367   0.00807   0.00880

 Mulliken charges and spin densities:
               1          2
     1  Na  -0.138431   0.575713
     2  Na   0.114171  -0.100681
     3  Na   0.090394  -0.100548
     4  Na   0.167010   0.021737
     5  Na  -0.011882  -0.059632
     6  Na  -0.368710   0.736784
     7  Na   0.147447  -0.073372
 Sum of Mulliken charges =  -0.00000   1.00000

 Dipole moment (field-independent basis, Debye):
    X=              0.0853    Y=              0.3150    Z=              0.1322  Tot=              0.3521
 Quadrupole moment (field-independent basis, Debye-Ang):
   XX=            -56.0167   YY=            -63.7139   ZZ=            -73.6822
   XY=             -0.9789   XZ=             -0.0585   YZ=              1.0326

 Normal termination of Gaussian 16 at Thu Dec  7 16:46:34 2023.
