 Gaussian 16, Revision B.01,
 Gaussian 16:  ES64L-G16RevB.01 20-Dec-2017

 -------------------------
 #P B3LYP/6-311+g(d) force
 -------------------------

 -----
 DPGEN
 -----
 Symbolic Z-matrix:
 Charge =  0 Multiplicity = 2

                         Standard orientation:
 ---------------------------------------------------------------------
 Center     Atomic      Atomic             Coordinates (Angstroms)
 Number     Number       Type             X           Y           Z
 ---------------------------------------------------------------------
      1         11           0       -2.984511    0.820374    0.062365
      2         11           0       -0.063101   -0.230528    1.940152
      3         11           0        2.963838    1.244520   -0.045970
      4         11           0       -1.930509   -2.265389   -0.354326
      5         11           0        2.105754   -2.273882   -0.042208
      6         11           0        0.172641   -0.287131   -1.287603
      7         11           0       -0.264113    2.992037   -0.272411
 ---------------------------------------------------------------------

 SCF Done:  E(UB3LYP) =  -1136.13448049     A.U. after   19 cycles

 The electronic state is 2-A.
 Alpha  occ. eigenvalues --  -38.44235 -38.43939 -38.43932 -38.43682 -38.43355
 Alpha  occ. eigenvalues --  -38.43134 -38.42772  -2.20048  -2.19798  -2.19786
 Alpha  occ. eigenvalues --   -2.19571  -2.19180  -2.19058  -2.18858  -1.13728
 Alpha  occ. eigenvalues --   -1.13709  -1.13684  -1.13522  -1.13464  -1.13451
 Alpha  occ. eigenvalues --   -1.13450  -1.13440  -1.13411  -1.13298  -1.13213
 Alpha  occ. eigenvalues --   -1.13186  -1.12865  -1.12841  -1.12817  -1.12771
 Alpha  occ. eigenvalues --   -1.12669  -1.12664  -1.12538  -1.12485  -1.12483
 Alpha  occ. eigenvalues --   -0.18826  -0.13254  -0.12489  -0.10258
 Alpha virt. eigenvalues --   -0.05718  -0.05503  -0.04718  -0.03022  -0.02565
 Alpha virt. eigenvalues --   -0.02084  -0.01667  -0.01330  -0.00519  -0.00454
 Alpha virt. eigenvalues --    0.00032   0.00335   0.00771   0.00820   0.00875

  Beta  occ. eigenvalues --  -38.44233 -38.43933 -38.43928 -38.43669 -38.43351
  Beta  occ. eigenvalues --  -38.43035 -38.42723  -2.20047  -2.19791  -2.19782
  Beta  occ. eigenvalues --   -2.19551  -2.19175  -2.18877  -2.18771  -1.13719
  Beta  occ. eigenvalues --   -1.13700  -1.13685  -1.13515  -1.13464  -1.13441
  Beta  occ. eigenvalues --   -1.13422  -1.13421  -1.13411  -1.13280  -1.13178
  Beta  occ. eigenvalues --   -1.13173  -1.12858  -1.12825  -1.12815  -1.12655
  Beta  occ. eigenvalues --   -1.12543  -1.12533  -1.12459  -1.12423  -1.12414
  Beta  occ. eigenvalues --   -0.18119  -0.13020  -0.12239
  Beta virt. eigenvalues --   -0.06352  -0.05699  -0.05480  -0.04670  -0.02244
  Beta virt. eigenvalues --   -0.01859  -0.01586  -0.01270  -0.01034  -0.00570
  Beta virt. eigenvalues --   -0.00476   0.00186   0.00385   0.00813   0.00832

 Mulliken charges and spin densities:
               1          2
     1  Na   0.233416   0.058732
     2  Na  -0.436719   0.734522
     3  Na   0.131191  -0.008653
     4  Na   0.504491   0.058144
     5  Na   0.389202  -0.010447
     6  Na  -0.861295   0.179380
     7  Na   0.039713  -0.011678
 Sum of Mulliken charges =  -0.00000   1.00000

 Dipole moment (field-independent basis, Debye):
    X=              0.2538    Y=             -0.0738    Z=              0.2255  Tot=              0.3475
 Quadrupole moment (field-independent basis, Debye-Ang):
   XX=            -53.3695   YY=            -60.6450   ZZ=            -77.2049
   XY=             -0.2091   XZ=              0.4333   YZ=              0.0219

 Normal termination of Gaussian 16 at Thu Dec  7 13:04:56 2023.
