 Gaussian 16, Revision B.01,
 Gaussian 16:  ES64L-G16RevB.01 20-Dec-2017

 -------------------------
 #P B3LYP/6-311+g(d) force
 -------------------------

 -----
 DPGEN
 -----
 Symbolic Z-matrix:
 Charge =  0 Multiplicity = 2

                         Standard orientation:
 ---------------------------------------------------------------------
 Center     Atomic      Atomic             Coordinates (Angstroms)
 Number     Number       Type             X           Y           Z
 ---------------------------------------------------------------------
      1         11           0        1.740655    2.578412    0.216911
      2         11           0        0.498460   -2.671995   -0.477392
      3         11           0       -2.687239    1.717092   -0.261038
      4         11           0        0.160731   -0.160820    1.971128
      5         11           0        2.837075   -0.604560   -0.139813
      6         11           0       -2.495883   -1.291052    0.340571
      7         11           0       -0.053798    0.432923   -1.650368
 ---------------------------------------------------------------------

 SCF Done:  E(UB3LYP) =  -1136.13522862     A.U. after   19 cycles

 The electronic state is 2-A.
 Alpha  occ. eigenvalues --  -38.43980 -38.43913 -38.43632 -38.43616 -38.43536
 Alpha  occ. eigenvalues --  -38.43223 -38.42836  -2.19836  -2.19823  -2.19561
 Alpha  occ. eigenvalues --   -2.19533  -2.19373  -2.19210  -2.18753  -1.13552
 Alpha  occ. eigenvalues --   -1.13517  -1.13507  -1.13491  -1.13466  -1.13463
 Alpha  occ. eigenvalues --   -1.13267  -1.13215  -1.13185  -1.13180  -1.13162
 Alpha  occ. eigenvalues --   -1.13148  -1.13052  -1.13031  -1.13013  -1.12889
 Alpha  occ. eigenvalues --   -1.12849  -1.12829  -1.12430  -1.12410  -1.12389
 Alpha  occ. eigenvalues --   -0.19078  -0.13478  -0.12282  -0.10996
 Alpha virt. eigenvalues --   -0.05654  -0.05188  -0.04321  -0.03439  -0.02872
 Alpha virt. eigenvalues --   -0.02577  -0.01492  -0.01062  -0.00284  -0.00047
 Alpha virt. eigenvalues --    0.00052   0.00369   0.00814   0.00878   0.00941

  Beta  occ. eigenvalues --  -38.43976 -38.43905 -38.43606 -38.43542 -38.43532
  Beta  occ. eigenvalues --  -38.43158 -38.42823  -2.19831  -2.19813  -2.19518
  Beta  occ. eigenvalues --   -2.19396  -2.19369  -2.19091  -2.18734  -1.13551
  Beta  occ. eigenvalues --   -1.13512  -1.13491  -1.13465  -1.13458  -1.13446
  Beta  occ. eigenvalues --   -1.13216  -1.13164  -1.13146  -1.13115  -1.13070
  Beta  occ. eigenvalues --   -1.13056  -1.13039  -1.13016  -1.13004  -1.12811
  Beta  occ. eigenvalues --   -1.12755  -1.12748  -1.12417  -1.12399  -1.12348
  Beta  occ. eigenvalues --   -0.18332  -0.13221  -0.12030
  Beta virt. eigenvalues --   -0.07055  -0.05620  -0.05133  -0.04291  -0.02624
  Beta virt. eigenvalues --   -0.02127  -0.01550  -0.01386  -0.00972  -0.00321
  Beta virt. eigenvalues --   -0.00026   0.00135   0.00392   0.00870   0.00895

 Mulliken charges and spin densities:
               1          2
     1  Na  -0.033055  -0.061070
     2  Na   0.068968   0.081440
     3  Na   0.070231  -0.088322
     4  Na  -0.374107   0.546747
     5  Na   0.246567   0.018419
     6  Na   0.255114   0.130403
     7  Na  -0.233718   0.372383
 Sum of Mulliken charges =  -0.00000   1.00000

 Dipole moment (field-independent basis, Debye):
    X=             -0.0043    Y=              0.3308    Z=              0.1675  Tot=              0.3708
 Quadrupole moment (field-independent basis, Debye-Ang):
   XX=            -57.3779   YY=            -63.8023   ZZ=            -73.2083
   XY=             -0.3315   XZ=             -0.3583   YZ=              1.0498

 Normal termination of Gaussian 16 at Thu Dec  7 12:59:40 2023.
