 Gaussian 16, Revision B.01,
 Gaussian 16:  ES64L-G16RevB.01 20-Dec-2017

 -------------------------
 #P B3LYP/6-311+g(d) force
 -------------------------

 -----
 DPGEN
 -----
 Symbolic Z-matrix:
 Charge =  0 Multiplicity = 2

                         Standard orientation:
 ---------------------------------------------------------------------
 Center     Atomic      Atomic             Coordinates (Angstroms)
 Number     Number       Type             X           Y           Z
 ---------------------------------------------------------------------
      1         11           0        2.737836   -1.768117   -0.770483
      2         11           0       -3.503648   -1.342203   -0.310970
      3         11           0        0.721069   -1.279085    1.801587
      4         11           0       -0.626138   -0.942176   -1.195033
      5         11           0        0.015517    2.355131   -1.620502
      6         11           0       -1.844963    1.612794    1.436368
      7         11           0        2.500327    1.363656    0.659033
 ---------------------------------------------------------------------

 SCF Done:  E(UB3LYP) =  -1136.12645869     A.U. after   21 cycles

 The electronic state is 2-A.
 Alpha  occ. eigenvalues --  -38.44335 -38.44316 -38.44266 -38.44021 -38.43970
 Alpha  occ. eigenvalues --  -38.43083 -38.43022  -2.20130  -2.20120  -2.20096
 Alpha  occ. eigenvalues --   -2.19914  -2.19817  -2.19047  -2.18859  -1.13836
 Alpha  occ. eigenvalues --   -1.13808  -1.13794  -1.13783  -1.13769  -1.13762
 Alpha  occ. eigenvalues --   -1.13759  -1.13738  -1.13720  -1.13610  -1.13558
 Alpha  occ. eigenvalues --   -1.13540  -1.13481  -1.13464  -1.13434  -1.12735
 Alpha  occ. eigenvalues --   -1.12711  -1.12675  -1.12532  -1.12496  -1.12483
 Alpha  occ. eigenvalues --   -0.18242  -0.13271  -0.11576  -0.11190
 Alpha virt. eigenvalues --   -0.06168  -0.05535  -0.03968  -0.03388  -0.03032
 Alpha virt. eigenvalues --   -0.02628  -0.01883  -0.01260  -0.00372  -0.00132
 Alpha virt. eigenvalues --    0.00221   0.00288   0.00401   0.00636   0.00718

  Beta  occ. eigenvalues --  -38.44317 -38.44299 -38.44259 -38.43968 -38.43961
  Beta  occ. eigenvalues --  -38.43039 -38.42986  -2.20124  -2.20087  -2.20063
  Beta  occ. eigenvalues --   -2.19817  -2.19800  -2.18969  -2.18793  -1.13832
  Beta  occ. eigenvalues --   -1.13775  -1.13765  -1.13757  -1.13751  -1.13749
  Beta  occ. eigenvalues --   -1.13730  -1.13717  -1.13704  -1.13552  -1.13493
  Beta  occ. eigenvalues --   -1.13479  -1.13456  -1.13453  -1.13398  -1.12673
  Beta  occ. eigenvalues --   -1.12643  -1.12622  -1.12481  -1.12452  -1.12436
  Beta  occ. eigenvalues --   -0.17497  -0.13108  -0.11406
  Beta virt. eigenvalues --   -0.07324  -0.06040  -0.05223  -0.03585  -0.03044
  Beta virt. eigenvalues --   -0.02561  -0.01871  -0.01654  -0.01045  -0.00149
  Beta virt. eigenvalues --   -0.00089   0.00269   0.00323   0.00532   0.00729

 Mulliken charges and spin densities:
               1          2
     1  Na   0.490303  -0.065485
     2  Na   0.078331   0.017768
     3  Na  -0.414731   0.608730
     4  Na  -0.097862   0.158462
     5  Na  -0.030228   0.102849
     6  Na   0.001000   0.131639
     7  Na  -0.026813   0.046035
 Sum of Mulliken charges =  -0.00000   1.00000

 Dipole moment (field-independent basis, Debye):
    X=              0.0711    Y=             -0.0971    Z=              0.4266  Tot=              0.4432
 Quadrupole moment (field-independent basis, Debye-Ang):
   XX=            -53.4438   YY=            -71.6895   ZZ=            -68.3098
   XY=             -0.8110   XZ=             -2.2443   YZ=              1.4221

 Normal termination of Gaussian 16 at Wed Nov 29 17:09:13 2023.
