 Gaussian 16, Revision B.01,
 Gaussian 16:  ES64L-G16RevB.01 20-Dec-2017

 -------------------------
 #P B3LYP/6-311+g(d) force
 -------------------------

 -----
 DPGEN
 -----
 Symbolic Z-matrix:
 Charge =  0 Multiplicity = 2

                         Standard orientation:
 ---------------------------------------------------------------------
 Center     Atomic      Atomic             Coordinates (Angstroms)
 Number     Number       Type             X           Y           Z
 ---------------------------------------------------------------------
      1         11           0       -2.937606    0.179415   -1.246752
      2         11           0       -0.686163    2.666241   -0.677001
      3         11           0       -2.522198   -2.347055    0.624110
      4         11           0       -0.782106    0.895538    2.021393
      5         11           0        3.875432   -1.781766   -0.376782
      6         11           0        0.252385   -1.160516   -0.570778
      7         11           0        2.800257    1.548144    0.225809
 ---------------------------------------------------------------------

 SCF Done:  E(UB3LYP) =  -1136.12801270     A.U. after   21 cycles

 The electronic state is 2-A.
 Alpha  occ. eigenvalues --  -38.44783 -38.44007 -38.43993 -38.43883 -38.43849
 Alpha  occ. eigenvalues --  -38.43767 -38.42962  -2.20562  -2.19889  -2.19781
 Alpha  occ. eigenvalues --   -2.19767  -2.19711  -2.19645  -2.18830  -1.14260
 Alpha  occ. eigenvalues --   -1.14233  -1.14170  -1.13615  -1.13577  -1.13532
 Alpha  occ. eigenvalues --   -1.13475  -1.13439  -1.13435  -1.13429  -1.13418
 Alpha  occ. eigenvalues --   -1.13396  -1.13360  -1.13341  -1.13316  -1.13311
 Alpha  occ. eigenvalues --   -1.13300  -1.13241  -1.12509  -1.12497  -1.12457
 Alpha  occ. eigenvalues --   -0.18129  -0.13628  -0.12035  -0.10559
 Alpha virt. eigenvalues --   -0.06132  -0.06061  -0.04383  -0.03238  -0.02694
 Alpha virt. eigenvalues --   -0.02324  -0.02083  -0.01441  -0.00841  -0.00284
 Alpha virt. eigenvalues --   -0.00263   0.00209   0.00513   0.00629   0.00748

  Beta  occ. eigenvalues --  -38.44783 -38.43998 -38.43988 -38.43836 -38.43823
  Beta  occ. eigenvalues --  -38.43691 -38.42944  -2.20562  -2.19875  -2.19760
  Beta  occ. eigenvalues --   -2.19690  -2.19670  -2.19503  -2.18800  -1.14257
  Beta  occ. eigenvalues --   -1.14233  -1.14169  -1.13576  -1.13567  -1.13522
  Beta  occ. eigenvalues --   -1.13429  -1.13426  -1.13421  -1.13392  -1.13367
  Beta  occ. eigenvalues --   -1.13348  -1.13344  -1.13307  -1.13262  -1.13221
  Beta  occ. eigenvalues --   -1.13202  -1.13137  -1.12492  -1.12476  -1.12409
  Beta  occ. eigenvalues --   -0.17467  -0.13441  -0.11798
  Beta virt. eigenvalues --   -0.06732  -0.06005  -0.05840  -0.04180  -0.02735
  Beta virt. eigenvalues --   -0.02183  -0.02113  -0.01603  -0.01092  -0.00730
  Beta virt. eigenvalues --   -0.00190   0.00013   0.00290   0.00652   0.00669

 Mulliken charges and spin densities:
               1          2
     1  Na   0.285941   0.173431
     2  Na   0.185961   0.147838
     3  Na   0.663071   0.063078
     4  Na  -0.199017   0.355960
     5  Na   0.349022  -0.020376
     6  Na  -1.352444   0.271270
     7  Na   0.067467   0.008799
 Sum of Mulliken charges =  -0.00000   1.00000

 Dipole moment (field-independent basis, Debye):
    X=              0.3479    Y=             -0.0807    Z=              0.5229  Tot=              0.6332
 Quadrupole moment (field-independent basis, Debye-Ang):
   XX=            -55.8629   YY=            -65.5846   ZZ=            -73.0760
   XY=              3.3241   XZ=             -0.9269   YZ=             -0.9780

 Normal termination of Gaussian 16 at Tue Dec  5 10:37:18 2023.
