 Gaussian 16, Revision B.01,
 Gaussian 16:  ES64L-G16RevB.01 20-Dec-2017

 -------------------------
 #P B3LYP/6-311+g(d) force
 -------------------------

 -----
 DPGEN
 -----
 Symbolic Z-matrix:
 Charge =  0 Multiplicity = 2

                         Standard orientation:
 ---------------------------------------------------------------------
 Center     Atomic      Atomic             Coordinates (Angstroms)
 Number     Number       Type             X           Y           Z
 ---------------------------------------------------------------------
      1         11           0       -1.167449    0.316204    2.437742
      2         11           0       -1.793767    2.131568   -0.916448
      3         11           0        1.453475    2.255066    0.599399
      4         11           0        3.582633   -0.637058    0.125109
      5         11           0        1.084899   -0.334987   -2.216694
      6         11           0        0.137983   -2.544572    0.637854
      7         11           0       -3.297774   -1.186220   -0.666963
 ---------------------------------------------------------------------

 SCF Done:  E(UB3LYP) =  -1136.12711201     A.U. after   21 cycles

 The electronic state is 2-A.
 Alpha  occ. eigenvalues --  -38.44896 -38.44610 -38.44542 -38.44522 -38.43436
 Alpha  occ. eigenvalues --  -38.43415 -38.43168  -2.20702  -2.20418  -2.20306
 Alpha  occ. eigenvalues --   -2.20297  -2.19239  -2.19201  -2.18980  -1.14370
 Alpha  occ. eigenvalues --   -1.14340  -1.14331  -1.14089  -1.14046  -1.14031
 Alpha  occ. eigenvalues --   -1.13982  -1.13970  -1.13960  -1.13957  -1.13945
 Alpha  occ. eigenvalues --   -1.13933  -1.12918  -1.12896  -1.12893  -1.12880
 Alpha  occ. eigenvalues --   -1.12877  -1.12813  -1.12663  -1.12649  -1.12609
 Alpha  occ. eigenvalues --   -0.17436  -0.13001  -0.11483  -0.11419
 Alpha virt. eigenvalues --   -0.06377  -0.04953  -0.04818  -0.03400  -0.03221
 Alpha virt. eigenvalues --   -0.03128  -0.01866  -0.00916  -0.00488  -0.00270
 Alpha virt. eigenvalues --   -0.00034   0.00116   0.00398   0.00513   0.00820

  Beta  occ. eigenvalues --  -38.44844 -38.44533 -38.44528 -38.44527 -38.43418
  Beta  occ. eigenvalues --  -38.43401 -38.43158  -2.20604  -2.20316  -2.20281
  Beta  occ. eigenvalues --   -2.20265  -2.19207  -2.19177  -2.18963  -1.14306
  Beta  occ. eigenvalues --   -1.14273  -1.14258  -1.13982  -1.13980  -1.13968
  Beta  occ. eigenvalues --   -1.13955  -1.13952  -1.13945  -1.13940  -1.13923
  Beta  occ. eigenvalues --   -1.13917  -1.12892  -1.12874  -1.12874  -1.12848
  Beta  occ. eigenvalues --   -1.12847  -1.12799  -1.12648  -1.12625  -1.12599
  Beta  occ. eigenvalues --   -0.16712  -0.12814  -0.11287
  Beta virt. eigenvalues --   -0.07694  -0.06092  -0.04900  -0.04274  -0.03165
  Beta virt. eigenvalues --   -0.02575  -0.02270  -0.01755  -0.00857  -0.00220
  Beta virt. eigenvalues --   -0.00162  -0.00042   0.00342   0.00435   0.00681

 Mulliken charges and spin densities:
               1          2
     1  Na  -0.089820   0.375932
     2  Na   0.033583   0.157126
     3  Na  -0.078697   0.098251
     4  Na   0.399695  -0.041236
     5  Na  -0.282567   0.340469
     6  Na  -0.130643   0.071085
     7  Na   0.148447  -0.001626
 Sum of Mulliken charges =  -0.00000   1.00000

 Dipole moment (field-independent basis, Debye):
    X=              0.2414    Y=             -0.2828    Z=             -0.1575  Tot=              0.4038
 Quadrupole moment (field-independent basis, Debye-Ang):
   XX=            -55.4527   YY=            -74.9415   ZZ=            -65.8893
   XY=             -0.2316   XZ=              2.3743   YZ=              0.1625

 Normal termination of Gaussian 16 at Sun Dec  3 20:29:48 2023.
