 Gaussian 16, Revision B.01,
 Gaussian 16:  ES64L-G16RevB.01 20-Dec-2017

 -------------------------
 #P B3LYP/6-311+g(d) force
 -------------------------

 -----
 DPGEN
 -----
 Symbolic Z-matrix:
 Charge =  0 Multiplicity = 2

                         Standard orientation:
 ---------------------------------------------------------------------
 Center     Atomic      Atomic             Coordinates (Angstroms)
 Number     Number       Type             X           Y           Z
 ---------------------------------------------------------------------
      1         11           0       -1.175036   -2.287490    0.392043
      2         11           0        0.214134    0.328135    2.153058
      3         11           0        0.499486    2.763417   -0.002523
      4         11           0       -2.673166    1.950276   -0.079706
      5         11           0       -3.415785   -1.180659   -1.356572
      6         11           0        4.071081    0.592855   -1.321221
      7         11           0        2.479286   -2.166535    0.214922
 ---------------------------------------------------------------------

 SCF Done:  E(UB3LYP) =  -1136.12111668     A.U. after   21 cycles

 The electronic state is 2-A.
 Alpha  occ. eigenvalues --  -38.44733 -38.44731 -38.44351 -38.44307 -38.43712
 Alpha  occ. eigenvalues --  -38.43708 -38.43515  -2.20581  -2.20511  -2.20164
 Alpha  occ. eigenvalues --   -2.20075  -2.19558  -2.19530  -2.19370  -1.14252
 Alpha  occ. eigenvalues --   -1.14247  -1.14176  -1.14160  -1.14145  -1.14130
 Alpha  occ. eigenvalues --   -1.13857  -1.13823  -1.13798  -1.13767  -1.13741
 Alpha  occ. eigenvalues --   -1.13719  -1.13285  -1.13211  -1.13200  -1.13199
 Alpha  occ. eigenvalues --   -1.13189  -1.13155  -1.13050  -1.13033  -1.12972
 Alpha  occ. eigenvalues --   -0.17141  -0.13605  -0.12360  -0.11294
 Alpha virt. eigenvalues --   -0.06183  -0.05608  -0.04565  -0.03748  -0.03311
 Alpha virt. eigenvalues --   -0.02224  -0.01701  -0.01232  -0.00951  -0.00547
 Alpha virt. eigenvalues --   -0.00393   0.00314   0.00324   0.00397   0.00546

  Beta  occ. eigenvalues --  -38.44661 -38.44642 -38.44340 -38.44315 -38.43709
  Beta  occ. eigenvalues --  -38.43678 -38.43504  -2.20449  -2.20345  -2.20145
  Beta  occ. eigenvalues --   -2.20094  -2.19534  -2.19494  -2.19355  -1.14163
  Beta  occ. eigenvalues --   -1.14161  -1.14077  -1.14047  -1.14031  -1.14023
  Beta  occ. eigenvalues --   -1.13846  -1.13813  -1.13785  -1.13770  -1.13758
  Beta  occ. eigenvalues --   -1.13697  -1.13250  -1.13206  -1.13204  -1.13156
  Beta  occ. eigenvalues --   -1.13154  -1.13142  -1.13034  -1.13025  -1.12943
  Beta  occ. eigenvalues --   -0.16565  -0.12823  -0.12259
  Beta virt. eigenvalues --   -0.07865  -0.06033  -0.05200  -0.03987  -0.03664
  Beta virt. eigenvalues --   -0.02686  -0.01804  -0.01476  -0.01124  -0.00800
  Beta virt. eigenvalues --   -0.00423  -0.00151   0.00428   0.00465   0.00605

 Mulliken charges and spin densities:
               1          2
     1  Na  -0.608445  -0.039406
     2  Na   0.500361   0.084215
     3  Na  -0.183509   0.099694
     4  Na  -0.193229   0.090397
     5  Na   0.480668   0.257235
     6  Na   0.070194   0.431406
     7  Na  -0.066040   0.076459
 Sum of Mulliken charges =  -0.00000   1.00000

 Dipole moment (field-independent basis, Debye):
    X=              0.1440    Y=              0.4185    Z=              0.0669  Tot=              0.4476
 Quadrupole moment (field-independent basis, Debye-Ang):
   XX=            -64.4003   YY=            -68.0820   ZZ=            -67.7841
   XY=             -1.1635   XZ=              0.0092   YZ=             -1.4165

 Normal termination of Gaussian 16 at Tue Nov 28 21:05:37 2023.
