 Gaussian 16, Revision B.01,
 Gaussian 16:  ES64L-G16RevB.01 20-Dec-2017

 -------------------------
 #P B3LYP/6-311+g(d) force
 -------------------------

 -----
 DPGEN
 -----
 Symbolic Z-matrix:
 Charge =  0 Multiplicity = 2

                         Standard orientation:
 ---------------------------------------------------------------------
 Center     Atomic      Atomic             Coordinates (Angstroms)
 Number     Number       Type             X           Y           Z
 ---------------------------------------------------------------------
      1         11           0        0.837209   -2.757965   -0.317516
      2         11           0        1.207450    2.629676   -0.471776
      3         11           0        3.099860   -0.224053    0.231691
      4         11           0       -0.462273    0.057510   -1.793934
      5         11           0        0.181083   -0.050557    1.892623
      6         11           0       -2.632013   -1.584063    0.076779
      7         11           0       -2.231315    1.929450    0.382134
 ---------------------------------------------------------------------

 SCF Done:  E(UB3LYP) =  -1136.14114452     A.U. after   18 cycles

 The electronic state is 2-A.
 Alpha  occ. eigenvalues --  -38.43756 -38.43743 -38.43625 -38.43486 -38.43385
 Alpha  occ. eigenvalues --  -38.43337 -38.43284  -2.19602  -2.19586  -2.19486
 Alpha  occ. eigenvalues --   -2.19412  -2.19246  -2.19236  -2.19190  -1.13294
 Alpha  occ. eigenvalues --   -1.13276  -1.13268  -1.13244  -1.13237  -1.13231
 Alpha  occ. eigenvalues --   -1.13173  -1.13162  -1.13110  -1.13082  -1.13038
 Alpha  occ. eigenvalues --   -1.13028  -1.12943  -1.12932  -1.12901  -1.12892
 Alpha  occ. eigenvalues --   -1.12865  -1.12857  -1.12842  -1.12830  -1.12814
 Alpha  occ. eigenvalues --   -0.18768  -0.12987  -0.12516  -0.10888
 Alpha virt. eigenvalues --   -0.05374  -0.05189  -0.04683  -0.03242  -0.03008
 Alpha virt. eigenvalues --   -0.02585  -0.01376  -0.01111  -0.00326  -0.00193
 Alpha virt. eigenvalues --    0.00011   0.00377   0.00836   0.00897   0.00912

  Beta  occ. eigenvalues --  -38.43752 -38.43740 -38.43615 -38.43405 -38.43378
  Beta  occ. eigenvalues --  -38.43326 -38.43209  -2.19598  -2.19583  -2.19471
  Beta  occ. eigenvalues --   -2.19265  -2.19227  -2.19172  -2.19109  -1.13288
  Beta  occ. eigenvalues --   -1.13263  -1.13253  -1.13238  -1.13230  -1.13226
  Beta  occ. eigenvalues --   -1.13160  -1.13128  -1.13099  -1.12990  -1.12943
  Beta  occ. eigenvalues --   -1.12922  -1.12912  -1.12880  -1.12877  -1.12854
  Beta  occ. eigenvalues --   -1.12818  -1.12814  -1.12810  -1.12776  -1.12745
  Beta  occ. eigenvalues --   -0.18033  -0.12751  -0.12252
  Beta virt. eigenvalues --   -0.06984  -0.05347  -0.05163  -0.04624  -0.02468
  Beta virt. eigenvalues --   -0.02233  -0.01545  -0.01289  -0.01034  -0.00343
  Beta virt. eigenvalues --   -0.00239   0.00125   0.00398   0.00884   0.00901

 Mulliken charges and spin densities:
               1          2
     1  Na   0.009395  -0.098096
     2  Na   0.056246  -0.038011
     3  Na   0.083903  -0.038515
     4  Na  -0.127327   0.612232
     5  Na  -0.256012   0.663497
     6  Na   0.097442  -0.095407
     7  Na   0.136353  -0.005699
 Sum of Mulliken charges =  -0.00000   1.00000

 Dipole moment (field-independent basis, Debye):
    X=             -0.1158    Y=             -0.0550    Z=              0.0965  Tot=              0.1604
 Quadrupole moment (field-independent basis, Debye-Ang):
   XX=            -57.6181   YY=            -62.6130   ZZ=            -73.4407
   XY=              0.2067   XZ=             -1.2976   YZ=              0.2561

 Normal termination of Gaussian 16 at Thu Dec  7 20:45:55 2023.
