 Gaussian 16, Revision B.01,
 Gaussian 16:  ES64L-G16RevB.01 20-Dec-2017

 -------------------------
 #P B3LYP/6-311+g(d) force
 -------------------------

 -----
 DPGEN
 -----
 Symbolic Z-matrix:
 Charge =  0 Multiplicity = 2

                         Standard orientation:
 ---------------------------------------------------------------------
 Center     Atomic      Atomic             Coordinates (Angstroms)
 Number     Number       Type             X           Y           Z
 ---------------------------------------------------------------------
      1         11           0       -3.304699   -0.357592   -0.135741
      2         11           0       -0.652687   -2.379791   -0.017349
      3         11           0        2.536067   -1.626821   -0.156612
      4         11           0       -0.193722    0.052085    2.029855
      5         11           0       -1.077239    2.579073   -0.202194
      6         11           0        2.544246    1.636980    0.140804
      7         11           0        0.148033    0.096066   -1.658762
 ---------------------------------------------------------------------

 SCF Done:  E(UB3LYP) =  -1136.13527793     A.U. after   19 cycles

 The electronic state is 2-A.
 Alpha  occ. eigenvalues --  -38.44454 -38.43831 -38.43605 -38.43549 -38.43232
 Alpha  occ. eigenvalues --  -38.43223 -38.42805  -2.20269  -2.19686  -2.19528
 Alpha  occ. eigenvalues --   -2.19439  -2.19264  -2.19090  -2.18764  -1.13938
 Alpha  occ. eigenvalues --   -1.13931  -1.13908  -1.13378  -1.13354  -1.13324
 Alpha  occ. eigenvalues --   -1.13214  -1.13161  -1.13135  -1.13130  -1.13089
 Alpha  occ. eigenvalues --   -1.13083  -1.12966  -1.12963  -1.12870  -1.12756
 Alpha  occ. eigenvalues --   -1.12750  -1.12696  -1.12458  -1.12427  -1.12368
 Alpha  occ. eigenvalues --   -0.19119  -0.13271  -0.12312  -0.10924
 Alpha virt. eigenvalues --   -0.05963  -0.05003  -0.04133  -0.03269  -0.02822
 Alpha virt. eigenvalues --   -0.02618  -0.01827  -0.00980  -0.00191  -0.00045
 Alpha virt. eigenvalues --    0.00044   0.00339   0.00788   0.00896   0.00962

  Beta  occ. eigenvalues --  -38.44453 -38.43827 -38.43544 -38.43509 -38.43216
  Beta  occ. eigenvalues --  -38.43163 -38.42793  -2.20270  -2.19681  -2.19435
  Beta  occ. eigenvalues --   -2.19351  -2.19139  -2.19080  -2.18748  -1.13939
  Beta  occ. eigenvalues --   -1.13916  -1.13911  -1.13377  -1.13330  -1.13320
  Beta  occ. eigenvalues --   -1.13125  -1.13095  -1.13087  -1.13062  -1.13035
  Beta  occ. eigenvalues --   -1.13005  -1.12896  -1.12882  -1.12783  -1.12732
  Beta  occ. eigenvalues --   -1.12709  -1.12692  -1.12449  -1.12373  -1.12362
  Beta  occ. eigenvalues --   -0.18362  -0.13045  -0.12034
  Beta virt. eigenvalues --   -0.06957  -0.05925  -0.05008  -0.04135  -0.02482
  Beta virt. eigenvalues --   -0.01993  -0.01739  -0.01522  -0.00926  -0.00247
  Beta virt. eigenvalues --   -0.00013   0.00112   0.00360   0.00841   0.00887

 Mulliken charges and spin densities:
               1          2
     1  Na   0.106237  -0.080448
     2  Na   0.438142   0.007936
     3  Na   0.253472  -0.012204
     4  Na  -0.660954   0.733889
     5  Na   0.164098  -0.111670
     6  Na   0.230294  -0.034216
     7  Na  -0.531288   0.496714
 Sum of Mulliken charges =  -0.00000   1.00000

 Dipole moment (field-independent basis, Debye):
    X=             -0.2201    Y=              0.2055    Z=              0.1829  Tot=              0.3523
 Quadrupole moment (field-independent basis, Debye-Ang):
   XX=            -52.5838   YY=            -66.8799   ZZ=            -73.5071
   XY=             -0.0365   XZ=              0.7695   YZ=              0.3236

 Normal termination of Gaussian 16 at Tue Dec  5 15:10:56 2023.
