 Gaussian 16, Revision B.01,
 Gaussian 16:  ES64L-G16RevB.01 20-Dec-2017

 -------------------------
 #P B3LYP/6-311+g(d) force
 -------------------------

 -----
 DPGEN
 -----
 Symbolic Z-matrix:
 Charge =  0 Multiplicity = 2

                         Standard orientation:
 ---------------------------------------------------------------------
 Center     Atomic      Atomic             Coordinates (Angstroms)
 Number     Number       Type             X           Y           Z
 ---------------------------------------------------------------------
      1         11           0        1.580261   -2.207360    0.249628
      2         11           0       -1.810102   -2.209448   -0.911172
      3         11           0        0.168454   -0.127743   -1.187797
      4         11           0       -2.919308    1.327818   -0.056503
      5         11           0        3.507795    0.515591    0.026479
      6         11           0        0.406961    3.058227   -0.258083
      7         11           0       -0.934061   -0.357085    2.137449
 ---------------------------------------------------------------------

 SCF Done:  E(UB3LYP) =  -1136.12806618     A.U. after   19 cycles

 The electronic state is 2-A.
 Alpha  occ. eigenvalues --  -38.44315 -38.44220 -38.43754 -38.43656 -38.43586
 Alpha  occ. eigenvalues --  -38.43491 -38.42983  -2.20106  -2.20038  -2.19544
 Alpha  occ. eigenvalues --   -2.19536  -2.19493  -2.19410  -2.19085  -1.13778
 Alpha  occ. eigenvalues --   -1.13773  -1.13744  -1.13721  -1.13700  -1.13672
 Alpha  occ. eigenvalues --   -1.13311  -1.13241  -1.13226  -1.13211  -1.13194
 Alpha  occ. eigenvalues --   -1.13166  -1.13159  -1.13152  -1.13105  -1.13096
 Alpha  occ. eigenvalues --   -1.13053  -1.12999  -1.12744  -1.12696  -1.12678
 Alpha  occ. eigenvalues --   -0.18576  -0.13115  -0.12382  -0.10646
 Alpha virt. eigenvalues --   -0.06045  -0.05114  -0.04643  -0.03167  -0.02618
 Alpha virt. eigenvalues --   -0.02406  -0.01738  -0.01184  -0.00592  -0.00323
 Alpha virt. eigenvalues --   -0.00026   0.00312   0.00786   0.00823   0.00870

  Beta  occ. eigenvalues --  -38.44319 -38.44215 -38.43751 -38.43559 -38.43551
  Beta  occ. eigenvalues --  -38.43482 -38.42938  -2.20114  -2.20033  -2.19539
  Beta  occ. eigenvalues --   -2.19433  -2.19397  -2.19355  -2.19006  -1.13782
  Beta  occ. eigenvalues --   -1.13774  -1.13749  -1.13706  -1.13682  -1.13673
  Beta  occ. eigenvalues --   -1.13268  -1.13229  -1.13203  -1.13200  -1.13159
  Beta  occ. eigenvalues --   -1.13082  -1.13061  -1.13059  -1.13035  -1.13025
  Beta  occ. eigenvalues --   -1.13006  -1.12992  -1.12679  -1.12640  -1.12618
  Beta  occ. eigenvalues --   -0.17889  -0.12918  -0.12139
  Beta virt. eigenvalues --   -0.06690  -0.05942  -0.05059  -0.04567  -0.02452
  Beta virt. eigenvalues --   -0.01996  -0.01687  -0.01404  -0.01029  -0.00577
  Beta virt. eigenvalues --   -0.00318   0.00158   0.00371   0.00809   0.00872

 Mulliken charges and spin densities:
               1          2
     1  Na   0.352484   0.152633
     2  Na   0.415558   0.107997
     3  Na  -0.117298   0.230305
     4  Na   0.102559  -0.006663
     5  Na  -0.190548  -0.054812
     6  Na  -0.090523  -0.046671
     7  Na  -0.472232   0.617210
 Sum of Mulliken charges =  -0.00000   1.00000

 Dipole moment (field-independent basis, Debye):
    X=             -0.0026    Y=              0.2360    Z=              0.3018  Tot=              0.3832
 Quadrupole moment (field-independent basis, Debye-Ang):
   XX=            -53.5810   YY=            -63.4026   ZZ=            -75.1649
   XY=              0.4905   XZ=              2.1968   YZ=              0.3321

 Normal termination of Gaussian 16 at Sun Dec  3 12:13:01 2023.
