 Gaussian 16, Revision B.01,
 Gaussian 16:  ES64L-G16RevB.01 20-Dec-2017

 -------------------------
 #P B3LYP/6-311+g(d) force
 -------------------------

 -----
 DPGEN
 -----
 Symbolic Z-matrix:
 Charge =  0 Multiplicity = 2

                         Standard orientation:
 ---------------------------------------------------------------------
 Center     Atomic      Atomic             Coordinates (Angstroms)
 Number     Number       Type             X           Y           Z
 ---------------------------------------------------------------------
      1         11           0       -0.127128    0.534855    1.427788
      2         11           0        1.293473   -2.344274   -0.954842
      3         11           0        3.644763   -0.371005   -1.432001
      4         11           0        2.932884    2.453882    1.139087
      5         11           0       -3.116235    2.456100   -1.317688
      6         11           0       -3.226006   -0.593749   -0.429521
      7         11           0       -1.401751   -2.135808    1.567178
 ---------------------------------------------------------------------

 SCF Done:  E(UB3LYP) =  -1136.11240884     A.U. after   22 cycles

 The electronic state is 2-A.
 Alpha  occ. eigenvalues --  -38.44918 -38.44584 -38.44366 -38.44333 -38.44263
 Alpha  occ. eigenvalues --  -38.43719 -38.43597  -2.20784  -2.20392  -2.20192
 Alpha  occ. eigenvalues --   -2.20136  -2.20105  -2.19640  -2.19395  -1.14484
 Alpha  occ. eigenvalues --   -1.14452  -1.14399  -1.14119  -1.14052  -1.13999
 Alpha  occ. eigenvalues --   -1.13861  -1.13845  -1.13829  -1.13797  -1.13795
 Alpha  occ. eigenvalues --   -1.13786  -1.13765  -1.13759  -1.13729  -1.13334
 Alpha  occ. eigenvalues --   -1.13284  -1.13231  -1.13052  -1.13043  -1.13031
 Alpha  occ. eigenvalues --   -0.17283  -0.13989  -0.12018  -0.11502
 Alpha virt. eigenvalues --   -0.06352  -0.05431  -0.04567  -0.03643  -0.03368
 Alpha virt. eigenvalues --   -0.02202  -0.01895  -0.01302  -0.00817  -0.00691
 Alpha virt. eigenvalues --   -0.00320  -0.00067   0.00114   0.00478   0.00681

  Beta  occ. eigenvalues --  -38.44865 -38.44545 -38.44325 -38.44288 -38.44251
  Beta  occ. eigenvalues --  -38.43701 -38.43565  -2.20688  -2.20323  -2.20120
  Beta  occ. eigenvalues --   -2.20116  -2.20022  -2.19606  -2.19337  -1.14407
  Beta  occ. eigenvalues --   -1.14387  -1.14334  -1.14056  -1.14008  -1.13947
  Beta  occ. eigenvalues --   -1.13815  -1.13803  -1.13799  -1.13786  -1.13775
  Beta  occ. eigenvalues --   -1.13725  -1.13709  -1.13691  -1.13679  -1.13297
  Beta  occ. eigenvalues --   -1.13265  -1.13215  -1.13009  -1.13002  -1.12995
  Beta  occ. eigenvalues --   -0.16821  -0.13313  -0.11368
  Beta virt. eigenvalues --   -0.08169  -0.06269  -0.04975  -0.04359  -0.03160
  Beta virt. eigenvalues --   -0.02999  -0.01982  -0.01552  -0.01013  -0.00697
  Beta virt. eigenvalues --   -0.00460  -0.00133   0.00094   0.00229   0.00574

 Mulliken charges and spin densities:
               1          2
     1  Na  -1.756474   0.383708
     2  Na  -0.077510   0.059565
     3  Na   0.018607   0.148446
     4  Na   0.114089   0.089078
     5  Na   0.093653   0.043099
     6  Na   0.022743   0.056835
     7  Na   1.584892   0.219269
 Sum of Mulliken charges =  -0.00000   1.00000

 Dipole moment (field-independent basis, Debye):
    X=              0.5050    Y=             -0.4107    Z=              0.0203  Tot=              0.6512
 Quadrupole moment (field-independent basis, Debye-Ang):
   XX=            -64.6980   YY=            -65.5193   ZZ=            -69.4254
   XY=              7.0414   XZ=             -2.6123   YZ=             -0.3020

 Normal termination of Gaussian 16 at Mon Dec  4 04:15:31 2023.
