 Gaussian 16, Revision B.01,
 Gaussian 16:  ES64L-G16RevB.01 20-Dec-2017

 -------------------------
 #P B3LYP/6-311+g(d) force
 -------------------------

 -----
 DPGEN
 -----
 Symbolic Z-matrix:
 Charge =  0 Multiplicity = 2

                         Standard orientation:
 ---------------------------------------------------------------------
 Center     Atomic      Atomic             Coordinates (Angstroms)
 Number     Number       Type             X           Y           Z
 ---------------------------------------------------------------------
      1         11           0        1.742315   -2.230043   -0.131376
      2         11           0        0.908512    2.227458    0.354724
      3         11           0       -3.172647   -1.416855    0.183969
      4         11           0        3.652959    0.441591   -0.295981
      5         11           0       -0.161486   -0.475577    1.977794
      6         11           0       -0.623424   -0.530100   -1.747552
      7         11           0       -2.346229    1.983526   -0.341579
 ---------------------------------------------------------------------

 SCF Done:  E(UB3LYP) =  -1136.12687619     A.U. after   21 cycles

 The electronic state is 2-A.
 Alpha  occ. eigenvalues --  -38.45163 -38.44875 -38.43883 -38.43683 -38.43610
 Alpha  occ. eigenvalues --  -38.43465 -38.42564  -2.20966  -2.20686  -2.19797
 Alpha  occ. eigenvalues --   -2.19539  -2.19518  -2.19329  -2.18445  -1.14632
 Alpha  occ. eigenvalues --   -1.14624  -1.14612  -1.14361  -1.14342  -1.14330
 Alpha  occ. eigenvalues --   -1.13479  -1.13448  -1.13427  -1.13218  -1.13197
 Alpha  occ. eigenvalues --   -1.13191  -1.13174  -1.13153  -1.13131  -1.13006
 Alpha  occ. eigenvalues --   -1.12991  -1.12957  -1.12139  -1.12110  -1.12079
 Alpha  occ. eigenvalues --   -0.18536  -0.13781  -0.11654  -0.10803
 Alpha virt. eigenvalues --   -0.06902  -0.05427  -0.03650  -0.03568  -0.02775
 Alpha virt. eigenvalues --   -0.02534  -0.02287  -0.01281  -0.00448  -0.00168
 Alpha virt. eigenvalues --    0.00068   0.00183   0.00517   0.00686   0.00750

  Beta  occ. eigenvalues --  -38.45160 -38.44872 -38.43828 -38.43675 -38.43508
  Beta  occ. eigenvalues --  -38.43458 -38.42554  -2.20960  -2.20683  -2.19695
  Beta  occ. eigenvalues --   -2.19527  -2.19332  -2.19320  -2.18431  -1.14630
  Beta  occ. eigenvalues --   -1.14611  -1.14608  -1.14348  -1.14344  -1.14316
  Beta  occ. eigenvalues --   -1.13408  -1.13373  -1.13355  -1.13204  -1.13177
  Beta  occ. eigenvalues --   -1.13160  -1.13079  -1.13031  -1.13000  -1.12991
  Beta  occ. eigenvalues --   -1.12961  -1.12938  -1.12127  -1.12077  -1.12074
  Beta  occ. eigenvalues --   -0.17820  -0.13547  -0.11429
  Beta virt. eigenvalues --   -0.06968  -0.06742  -0.05399  -0.03576  -0.02881
  Beta virt. eigenvalues --   -0.02369  -0.01831  -0.01531  -0.01213  -0.00480
  Beta virt. eigenvalues --    0.00011   0.00075   0.00221   0.00691   0.00765

 Mulliken charges and spin densities:
               1          2
     1  Na   0.537946   0.333131
     2  Na   0.115106   0.162204
     3  Na   0.290615   0.058292
     4  Na  -0.264221  -0.122427
     5  Na  -0.446912   0.418759
     6  Na  -0.198725   0.177388
     7  Na  -0.033809  -0.027346
 Sum of Mulliken charges =  -0.00000   1.00000

 Dipole moment (field-independent basis, Debye):
    X=             -0.1647    Y=             -0.3471    Z=             -0.0567  Tot=              0.3883
 Quadrupole moment (field-independent basis, Debye-Ang):
   XX=            -47.2004   YY=            -72.0550   ZZ=            -73.8423
   XY=              1.1449   XZ=             -1.5014   YZ=             -0.8575

 Normal termination of Gaussian 16 at Fri Dec  8 07:46:54 2023.
