 Gaussian 16, Revision B.01,
 Gaussian 16:  ES64L-G16RevB.01 20-Dec-2017

 -------------------------
 #P B3LYP/6-311+g(d) force
 -------------------------

 -----
 DPGEN
 -----
 Symbolic Z-matrix:
 Charge =  0 Multiplicity = 2

                         Standard orientation:
 ---------------------------------------------------------------------
 Center     Atomic      Atomic             Coordinates (Angstroms)
 Number     Number       Type             X           Y           Z
 ---------------------------------------------------------------------
      1         11           0       -2.045682   -0.171984    3.010636
      2         11           0       -2.784232    1.482316   -1.302982
      3         11           0        3.544302   -1.571399   -0.035189
      4         11           0       -2.468341   -1.736119   -2.148184
      5         11           0       -0.068891    2.192819    0.701737
      6         11           0        0.466290   -2.029982    0.636533
      7         11           0        3.356554    1.834348   -0.862550
 ---------------------------------------------------------------------

 SCF Done:  E(UB3LYP) =  -1136.10971238     A.U. after   26 cycles

 The electronic state is 2-A.
 Alpha  occ. eigenvalues --  -38.46070 -38.44739 -38.44540 -38.44514 -38.43999
 Alpha  occ. eigenvalues --  -38.43711 -38.43389  -2.21843  -2.20540  -2.20315
 Alpha  occ. eigenvalues --   -2.20271  -2.19801  -2.19505  -2.19170  -1.15489
 Alpha  occ. eigenvalues --   -1.15469  -1.15448  -1.14216  -1.14193  -1.14176
 Alpha  occ. eigenvalues --   -1.13978  -1.13961  -1.13947  -1.13943  -1.13919
 Alpha  occ. eigenvalues --   -1.13914  -1.13502  -1.13465  -1.13432  -1.13180
 Alpha  occ. eigenvalues --   -1.13169  -1.13137  -1.12864  -1.12856  -1.12794
 Alpha  occ. eigenvalues --   -0.16579  -0.13398  -0.12323  -0.11253
 Alpha virt. eigenvalues --   -0.06602  -0.06067  -0.04028  -0.03529  -0.03283
 Alpha virt. eigenvalues --   -0.02969  -0.01848  -0.01445  -0.01026  -0.00763
 Alpha virt. eigenvalues --   -0.00127  -0.00009   0.00194   0.00294   0.00641

  Beta  occ. eigenvalues --  -38.45956 -38.44704 -38.44503 -38.44502 -38.44000
  Beta  occ. eigenvalues --  -38.43698 -38.43392  -2.21630  -2.20475  -2.20248
  Beta  occ. eigenvalues --   -2.20247  -2.19803  -2.19481  -2.19178  -1.15340
  Beta  occ. eigenvalues --   -1.15322  -1.15305  -1.14170  -1.14151  -1.14123
  Beta  occ. eigenvalues --   -1.13933  -1.13931  -1.13913  -1.13904  -1.13899
  Beta  occ. eigenvalues --   -1.13894  -1.13501  -1.13467  -1.13432  -1.13166
  Beta  occ. eigenvalues --   -1.13140  -1.13124  -1.12871  -1.12852  -1.12794
  Beta  occ. eigenvalues --   -0.15926  -0.12976  -0.11155
  Beta virt. eigenvalues --   -0.08479  -0.06209  -0.05733  -0.03590  -0.03090
  Beta virt. eigenvalues --   -0.03060  -0.02550  -0.01554  -0.01126  -0.00723
  Beta virt. eigenvalues --   -0.00627   0.00008   0.00149   0.00264   0.00364

 Mulliken charges and spin densities:
               1          2
     1  Na   0.280224   0.333688
     2  Na  -0.023530   0.095194
     3  Na   0.135704  -0.058299
     4  Na   0.230616   0.099420
     5  Na  -0.162724   0.265371
     6  Na  -0.462626   0.249023
     7  Na   0.002337   0.015602
 Sum of Mulliken charges =  -0.00000   1.00000

 Dipole moment (field-independent basis, Debye):
    X=             -0.7353    Y=              0.0322    Z=              0.1936  Tot=              0.7611
 Quadrupole moment (field-independent basis, Debye-Ang):
   XX=            -56.9939   YY=            -75.0054   ZZ=            -63.9866
   XY=              0.2658   XZ=             -4.2595   YZ=             -1.7842

 Normal termination of Gaussian 16 at Sun Dec  3 22:52:08 2023.
