 Gaussian 16, Revision B.01,
 Gaussian 16:  ES64L-G16RevB.01 20-Dec-2017

 -------------------------
 #P B3LYP/6-311+g(d) force
 -------------------------

 -----
 DPGEN
 -----
 Symbolic Z-matrix:
 Charge =  0 Multiplicity = 2

                         Standard orientation:
 ---------------------------------------------------------------------
 Center     Atomic      Atomic             Coordinates (Angstroms)
 Number     Number       Type             X           Y           Z
 ---------------------------------------------------------------------
      1         11           0        1.852002   -0.478353    1.560150
      2         11           0        3.255149   -1.160176   -0.957621
      3         11           0       -1.260339    0.412194    1.892114
      4         11           0       -0.070490   -1.288764   -0.781025
      5         11           0       -3.470400   -1.331055   -0.211001
      6         11           0        1.206435    2.313005   -0.164521
      7         11           0       -1.512357    1.533148   -1.338095
 ---------------------------------------------------------------------

 SCF Done:  E(UB3LYP) =  -1136.12586818     A.U. after   22 cycles

 The electronic state is 2-A.
 Alpha  occ. eigenvalues --  -38.43998 -38.43959 -38.43918 -38.43821 -38.43551
 Alpha  occ. eigenvalues --  -38.43507 -38.42655  -2.19901  -2.19877  -2.19822
 Alpha  occ. eigenvalues --   -2.19739  -2.19533  -2.19450  -2.18553  -1.13687
 Alpha  occ. eigenvalues --   -1.13642  -1.13552  -1.13541  -1.13505  -1.13501
 Alpha  occ. eigenvalues --   -1.13489  -1.13431  -1.13408  -1.13400  -1.13377
 Alpha  occ. eigenvalues --   -1.13363  -1.13255  -1.13242  -1.13133  -1.13107
 Alpha  occ. eigenvalues --   -1.13091  -1.13047  -1.12241  -1.12210  -1.12179
 Alpha  occ. eigenvalues --   -0.19205  -0.13932  -0.11669  -0.11448
 Alpha virt. eigenvalues --   -0.06162  -0.04858  -0.04442  -0.03310  -0.02745
 Alpha virt. eigenvalues --   -0.02449  -0.02074  -0.00967  -0.00583   0.00125
 Alpha virt. eigenvalues --    0.00224   0.00418   0.00667   0.00745   0.00867

  Beta  occ. eigenvalues --  -38.43982 -38.43920 -38.43884 -38.43776 -38.43527
  Beta  occ. eigenvalues --  -38.43465 -38.42648  -2.19846  -2.19765  -2.19745
  Beta  occ. eigenvalues --   -2.19744  -2.19493  -2.19374  -2.18543  -1.13644
  Beta  occ. eigenvalues --   -1.13559  -1.13508  -1.13477  -1.13461  -1.13436
  Beta  occ. eigenvalues --   -1.13417  -1.13408  -1.13391  -1.13386  -1.13364
  Beta  occ. eigenvalues --   -1.13293  -1.13218  -1.13184  -1.13093  -1.13070
  Beta  occ. eigenvalues --   -1.13035  -1.12995  -1.12224  -1.12199  -1.12164
  Beta  occ. eigenvalues --   -0.18415  -0.13780  -0.11222
  Beta virt. eigenvalues --   -0.07557  -0.05987  -0.04748  -0.03868  -0.03049
  Beta virt. eigenvalues --   -0.02125  -0.01921  -0.01732  -0.00816  -0.00225
  Beta virt. eigenvalues --    0.00168   0.00269   0.00496   0.00803   0.00824

 Mulliken charges and spin densities:
               1          2
     1  Na   0.538381  -0.019617
     2  Na   0.672884  -0.042238
     3  Na  -0.246191   0.234411
     4  Na  -1.441979   0.671926
     5  Na   0.752528  -0.073413
     6  Na  -0.428932   0.247209
     7  Na   0.153310  -0.018279
 Sum of Mulliken charges =  -0.00000   1.00000

 Dipole moment (field-independent basis, Debye):
    X=             -0.2117    Y=              0.0949    Z=             -0.0664  Tot=              0.2413
 Quadrupole moment (field-independent basis, Debye-Ang):
   XX=            -51.9538   YY=            -75.4415   ZZ=            -66.9789
   XY=              1.2521   XZ=             -1.1765   YZ=              0.3772

 Normal termination of Gaussian 16 at Tue Dec  5 18:20:09 2023.
