 Gaussian 16, Revision B.01,
 Gaussian 16:  ES64L-G16RevB.01 20-Dec-2017

 -------------------------
 #P B3LYP/6-311+g(d) force
 -------------------------

 -----
 DPGEN
 -----
 Symbolic Z-matrix:
 Charge =  0 Multiplicity = 2

                         Standard orientation:
 ---------------------------------------------------------------------
 Center     Atomic      Atomic             Coordinates (Angstroms)
 Number     Number       Type             X           Y           Z
 ---------------------------------------------------------------------
      1         11           0        2.706660    2.026376   -0.602028
      2         11           0       -0.754275    2.248627   -0.175239
      3         11           0       -3.225491   -0.400640   -1.519295
      4         11           0       -2.139073    0.718331    1.827412
      5         11           0        1.727128   -1.216852    2.223323
      6         11           0       -0.677714   -2.148891   -0.266583
      7         11           0        2.362766   -1.226951   -1.487591
 ---------------------------------------------------------------------

 SCF Done:  E(UB3LYP) =  -1136.12264684     A.U. after   21 cycles

 The electronic state is 2-A.
 Alpha  occ. eigenvalues --  -38.44914 -38.44678 -38.44627 -38.44291 -38.43406
 Alpha  occ. eigenvalues --  -38.43315 -38.43025  -2.20700  -2.20497  -2.20492
 Alpha  occ. eigenvalues --   -2.20107  -2.19204  -2.19175  -2.18879  -1.14356
 Alpha  occ. eigenvalues --   -1.14343  -1.14318  -1.14255  -1.14159  -1.14149
 Alpha  occ. eigenvalues --   -1.14121  -1.14116  -1.14081  -1.13791  -1.13757
 Alpha  occ. eigenvalues --   -1.13739  -1.12899  -1.12878  -1.12866  -1.12853
 Alpha  occ. eigenvalues --   -1.12823  -1.12770  -1.12577  -1.12556  -1.12506
 Alpha  occ. eigenvalues --   -0.17621  -0.13528  -0.11677  -0.11377
 Alpha virt. eigenvalues --   -0.06013  -0.05331  -0.04988  -0.03412  -0.03061
 Alpha virt. eigenvalues --   -0.02802  -0.01660  -0.00901  -0.00777  -0.00110
 Alpha virt. eigenvalues --    0.00103   0.00260   0.00314   0.00368   0.00552

  Beta  occ. eigenvalues --  -38.44844 -38.44633 -38.44587 -38.44275 -38.43401
  Beta  occ. eigenvalues --  -38.43311 -38.43017  -2.20570  -2.20423  -2.20409
  Beta  occ. eigenvalues --   -2.20076  -2.19195  -2.19171  -2.18868  -1.14262
  Beta  occ. eigenvalues --   -1.14255  -1.14228  -1.14206  -1.14097  -1.14093
  Beta  occ. eigenvalues --   -1.14068  -1.14057  -1.14023  -1.13768  -1.13738
  Beta  occ. eigenvalues --   -1.13714  -1.12881  -1.12869  -1.12858  -1.12848
  Beta  occ. eigenvalues --   -1.12815  -1.12774  -1.12569  -1.12536  -1.12486
  Beta  occ. eigenvalues --   -0.17004  -0.13235  -0.11450
  Beta virt. eigenvalues --   -0.07755  -0.05444  -0.05158  -0.04660  -0.03334
  Beta virt. eigenvalues --   -0.02360  -0.02155  -0.01469  -0.00682  -0.00458
  Beta virt. eigenvalues --    0.00008   0.00173   0.00392   0.00428   0.00517

 Mulliken charges and spin densities:
               1          2
     1  Na  -0.038921  -0.053913
     2  Na  -0.278344   0.122637
     3  Na   0.193085   0.008482
     4  Na   0.139981   0.224106
     5  Na   0.058991   0.306434
     6  Na  -0.085056   0.352888
     7  Na   0.010265   0.039367
 Sum of Mulliken charges =  -0.00000   1.00000

 Dipole moment (field-independent basis, Debye):
    X=             -0.3090    Y=             -0.3574    Z=              0.1888  Tot=              0.5088
 Quadrupole moment (field-independent basis, Debye-Ang):
   XX=            -56.9606   YY=            -76.7833   ZZ=            -63.2929
   XY=             -1.5219   XZ=              2.2931   YZ=              0.1834

 Normal termination of Gaussian 16 at Sun Dec  3 15:06:19 2023.
