 Gaussian 16, Revision B.01,
 Gaussian 16:  ES64L-G16RevB.01 20-Dec-2017

 -------------------------
 #P B3LYP/6-311+g(d) force
 -------------------------

 -----
 DPGEN
 -----
 Symbolic Z-matrix:
 Charge =  0 Multiplicity = 2

                         Standard orientation:
 ---------------------------------------------------------------------
 Center     Atomic      Atomic             Coordinates (Angstroms)
 Number     Number       Type             X           Y           Z
 ---------------------------------------------------------------------
      1         11           0        0.899241   -2.509315   -1.595417
      2         11           0        0.879743    2.951791   -0.647268
      3         11           0       -2.701322    2.178252   -0.563991
      4         11           0        3.395126   -2.058512    1.001771
      5         11           0       -3.422081   -0.269983    1.716950
      6         11           0       -2.722284   -1.983431   -0.411652
      7         11           0        3.671578    1.691198    0.499606
 ---------------------------------------------------------------------

 SCF Done:  E(UB3LYP) =  -1136.10542096     A.U. after   22 cycles

 The electronic state is 2-A.
 Alpha  occ. eigenvalues --  -38.45265 -38.45173 -38.45011 -38.44431 -38.44153
 Alpha  occ. eigenvalues --  -38.43778 -38.43692  -2.21110  -2.20962  -2.20743
 Alpha  occ. eigenvalues --   -2.20324  -2.19940  -2.19556  -2.19468  -1.14895
 Alpha  occ. eigenvalues --   -1.14747  -1.14736  -1.14647  -1.14620  -1.14573
 Alpha  occ. eigenvalues --   -1.14432  -1.14406  -1.14389  -1.13994  -1.13934
 Alpha  occ. eigenvalues --   -1.13924  -1.13612  -1.13611  -1.13565  -1.13215
 Alpha  occ. eigenvalues --   -1.13210  -1.13177  -1.13151  -1.13145  -1.13109
 Alpha  occ. eigenvalues --   -0.16315  -0.13902  -0.12605  -0.10538
 Alpha virt. eigenvalues --   -0.07452  -0.05252  -0.04548  -0.03737  -0.03323
 Alpha virt. eigenvalues --   -0.02181  -0.01813  -0.01720  -0.01360  -0.00750
 Alpha virt. eigenvalues --   -0.00489  -0.00070   0.00135   0.00374   0.00477

  Beta  occ. eigenvalues --  -38.45235 -38.45127 -38.45028 -38.44379 -38.44130
  Beta  occ. eigenvalues --  -38.43718 -38.43699  -2.21061  -2.20881  -2.20776
  Beta  occ. eigenvalues --   -2.20228  -2.19895  -2.19483  -2.19444  -1.14835
  Beta  occ. eigenvalues --   -1.14720  -1.14682  -1.14592  -1.14568  -1.14498
  Beta  occ. eigenvalues --   -1.14457  -1.14431  -1.14396  -1.13923  -1.13866
  Beta  occ. eigenvalues --   -1.13861  -1.13589  -1.13579  -1.13536  -1.13162
  Beta  occ. eigenvalues --   -1.13156  -1.13139  -1.13134  -1.13101  -1.13101
  Beta  occ. eigenvalues --   -0.15674  -0.13694  -0.12076
  Beta virt. eigenvalues --   -0.07450  -0.07147  -0.04776  -0.04081  -0.03543
  Beta virt. eigenvalues --   -0.02922  -0.01875  -0.01759  -0.01420  -0.01143
  Beta virt. eigenvalues --   -0.00482  -0.00392   0.00191   0.00318   0.00377

 Mulliken charges and spin densities:
               1          2
     1  Na  -0.267309   0.311200
     2  Na  -0.157463  -0.135912
     3  Na   0.015039   0.228039
     4  Na   0.117727  -0.087744
     5  Na   0.217275   0.313345
     6  Na  -0.058650   0.083450
     7  Na   0.133381   0.287623
 Sum of Mulliken charges =  -0.00000   1.00000

 Dipole moment (field-independent basis, Debye):
    X=             -0.9307    Y=             -0.2328    Z=              0.6490  Tot=              1.1583
 Quadrupole moment (field-independent basis, Debye-Ang):
   XX=            -61.6495   YY=            -71.6637   ZZ=            -67.8959
   XY=             -3.1688   XZ=              2.6284   YZ=             -1.4377

 Normal termination of Gaussian 16 at Mon Dec  4 05:33:18 2023.
