 Gaussian 16, Revision B.01,
 Gaussian 16:  ES64L-G16RevB.01 20-Dec-2017

 -------------------------
 #P B3LYP/6-311+g(d) force
 -------------------------

 -----
 DPGEN
 -----
 Symbolic Z-matrix:
 Charge =  0 Multiplicity = 2

                         Standard orientation:
 ---------------------------------------------------------------------
 Center     Atomic      Atomic             Coordinates (Angstroms)
 Number     Number       Type             X           Y           Z
 ---------------------------------------------------------------------
      1         11           0        1.900496   -0.519033    2.497530
      2         11           0        3.536800   -0.761768    0.051037
      3         11           0       -2.919772   -0.929379   -0.584990
      4         11           0        3.041227    2.362318   -1.132722
      5         11           0       -5.568464    1.008208    0.525041
      6         11           0        0.194855   -2.152482   -1.362083
      7         11           0       -0.185142    0.992137    0.006189
 ---------------------------------------------------------------------

 SCF Done:  E(UB3LYP) =  -1136.10442518     A.U. after   29 cycles

 The electronic state is 2-A.
 Alpha  occ. eigenvalues --  -38.45796 -38.45698 -38.45683 -38.43957 -38.43675
 Alpha  occ. eigenvalues --  -38.43371 -38.43066  -2.21629  -2.21569  -2.21545
 Alpha  occ. eigenvalues --   -2.19775  -2.19428  -2.19217  -2.18905  -1.15417
 Alpha  occ. eigenvalues --   -1.15357  -1.15272  -1.15247  -1.15207  -1.15188
 Alpha  occ. eigenvalues --   -1.15171  -1.15135  -1.15106  -1.13434  -1.13423
 Alpha  occ. eigenvalues --   -1.13398  -1.13096  -1.13095  -1.13069  -1.12923
 Alpha  occ. eigenvalues --   -1.12908  -1.12812  -1.12577  -1.12553  -1.12539
 Alpha  occ. eigenvalues --   -0.17989  -0.13814  -0.11869  -0.10868
 Alpha virt. eigenvalues --   -0.08019  -0.05277  -0.04368  -0.03455  -0.03255
 Alpha virt. eigenvalues --   -0.02611  -0.02487  -0.01779  -0.01233  -0.00662
 Alpha virt. eigenvalues --   -0.00381  -0.00210   0.00005   0.00516   0.00625

  Beta  occ. eigenvalues --  -38.45778 -38.45674 -38.45596 -38.43903 -38.43671
  Beta  occ. eigenvalues --  -38.43370 -38.43042  -2.21598  -2.21543  -2.21375
  Beta  occ. eigenvalues --   -2.19676  -2.19421  -2.19216  -2.18862  -1.15342
  Beta  occ. eigenvalues --   -1.15316  -1.15252  -1.15219  -1.15185  -1.15163
  Beta  occ. eigenvalues --   -1.15062  -1.15018  -1.15015  -1.13369  -1.13347
  Beta  occ. eigenvalues --   -1.13337  -1.13091  -1.13090  -1.13064  -1.12924
  Beta  occ. eigenvalues --   -1.12908  -1.12804  -1.12547  -1.12518  -1.12514
  Beta  occ. eigenvalues --   -0.17321  -0.13554  -0.10650
  Beta virt. eigenvalues --   -0.08081  -0.07714  -0.04978  -0.04066  -0.03006
  Beta virt. eigenvalues --   -0.02990  -0.02186  -0.01843  -0.01623  -0.00945
  Beta virt. eigenvalues --   -0.00607  -0.00311   0.00001   0.00066   0.00572

 Mulliken charges and spin densities:
               1          2
     1  Na   0.071309   0.261003
     2  Na   0.734865   0.258022
     3  Na  -0.480441  -0.032982
     4  Na   0.399170   0.080414
     5  Na   0.309398   0.005441
     6  Na   0.210160   0.039526
     7  Na  -1.244460   0.388577
 Sum of Mulliken charges =  -0.00000   1.00000

 Dipole moment (field-independent basis, Debye):
    X=              2.1510    Y=             -0.4125    Z=              0.3881  Tot=              2.2243
 Quadrupole moment (field-independent basis, Debye-Ang):
   XX=            -67.7014   YY=            -70.2282   ZZ=            -68.6286
   XY=             -4.2285   XZ=             -3.3355   YZ=              2.4214

 Normal termination of Gaussian 16 at Wed Nov 29 01:28:42 2023.
