 Gaussian 16, Revision B.01,
 Gaussian 16:  ES64L-G16RevB.01 20-Dec-2017

 -------------------------
 #P B3LYP/6-311+g(d) force
 -------------------------

 -----
 DPGEN
 -----
 Symbolic Z-matrix:
 Charge =  0 Multiplicity = 2

                         Standard orientation:
 ---------------------------------------------------------------------
 Center     Atomic      Atomic             Coordinates (Angstroms)
 Number     Number       Type             X           Y           Z
 ---------------------------------------------------------------------
      1         11           0        2.170319   -2.015747    0.277236
      2         11           0       -1.897114   -2.094781   -0.423483
      3         11           0       -3.116255    0.708197   -0.048417
      4         11           0        0.634793    0.025701   -1.600568
      5         11           0       -0.209925    2.679022    0.069131
      6         11           0       -0.494251   -0.329364    1.629907
      7         11           0        2.912433    1.026972    0.096194
 ---------------------------------------------------------------------

 SCF Done:  E(UB3LYP) =  -1136.12874509     A.U. after   19 cycles

 The electronic state is 2-A.
 Alpha  occ. eigenvalues --  -38.44517 -38.44378 -38.43643 -38.43576 -38.43108
 Alpha  occ. eigenvalues --  -38.43082 -38.42769  -2.20396  -2.20286  -2.19543
 Alpha  occ. eigenvalues --   -2.19492  -2.19147  -2.19099  -2.18655  -1.14092
 Alpha  occ. eigenvalues --   -1.14059  -1.14029  -1.14014  -1.13940  -1.13912
 Alpha  occ. eigenvalues --   -1.13244  -1.13219  -1.13200  -1.13174  -1.13142
 Alpha  occ. eigenvalues --   -1.13117  -1.12847  -1.12784  -1.12767  -1.12760
 Alpha  occ. eigenvalues --   -1.12725  -1.12708  -1.12345  -1.12319  -1.12277
 Alpha  occ. eigenvalues --   -0.19304  -0.14015  -0.12184  -0.10436
 Alpha virt. eigenvalues --   -0.06187  -0.05317  -0.04164  -0.03527  -0.02481
 Alpha virt. eigenvalues --   -0.01979  -0.01876  -0.01070  -0.00267  -0.00155
 Alpha virt. eigenvalues --    0.00022   0.00348   0.00759   0.00882   0.00912

  Beta  occ. eigenvalues --  -38.44513 -38.44372 -38.43633 -38.43562 -38.43039
  Beta  occ. eigenvalues --  -38.43012 -38.42763  -2.20392  -2.20280  -2.19528
  Beta  occ. eigenvalues --   -2.19470  -2.19023  -2.18970  -2.18647  -1.14094
  Beta  occ. eigenvalues --   -1.14037  -1.14023  -1.14006  -1.13923  -1.13900
  Beta  occ. eigenvalues --   -1.13234  -1.13202  -1.13170  -1.13156  -1.13109
  Beta  occ. eigenvalues --   -1.13095  -1.12762  -1.12694  -1.12681  -1.12670
  Beta  occ. eigenvalues --   -1.12636  -1.12611  -1.12340  -1.12290  -1.12269
  Beta  occ. eigenvalues --   -0.18597  -0.13765  -0.11916
  Beta virt. eigenvalues --   -0.06552  -0.06100  -0.05309  -0.04135  -0.02708
  Beta virt. eigenvalues --   -0.01786  -0.01747  -0.01017  -0.00997  -0.00306
  Beta virt. eigenvalues --   -0.00176   0.00173   0.00390   0.00818   0.00888

 Mulliken charges and spin densities:
               1          2
     1  Na   0.264946  -0.024894
     2  Na   0.255237  -0.000148
     3  Na   0.114514  -0.011187
     4  Na  -0.449986   0.556983
     5  Na   0.034887  -0.120317
     6  Na  -0.477603   0.595054
     7  Na   0.258006   0.004509
 Sum of Mulliken charges =  -0.00000   1.00000

 Dipole moment (field-independent basis, Debye):
    X=             -0.0422    Y=              0.0079    Z=              0.0560  Tot=              0.0705
 Quadrupole moment (field-independent basis, Debye-Ang):
   XX=            -50.9840   YY=            -65.8597   ZZ=            -75.8147
   XY=             -0.4715   XZ=              2.0699   YZ=              0.7308

 Normal termination of Gaussian 16 at Wed Nov 29 00:03:24 2023.
