 Gaussian 16, Revision B.01,
 Gaussian 16:  ES64L-G16RevB.01 20-Dec-2017

 -------------------------
 #P B3LYP/6-311+g(d) force
 -------------------------

 -----
 DPGEN
 -----
 Symbolic Z-matrix:
 Charge =  0 Multiplicity = 2

                         Standard orientation:
 ---------------------------------------------------------------------
 Center     Atomic      Atomic             Coordinates (Angstroms)
 Number     Number       Type             X           Y           Z
 ---------------------------------------------------------------------
      1         11           0       -3.120609   -0.178927    0.141035
      2         11           0        2.609287    1.606407    0.259992
      3         11           0       -0.143315    0.514133    2.182940
      4         11           0       -0.583932   -2.629050    0.571430
      5         11           0       -0.968100    2.665596   -0.642741
      6         11           0       -0.433531   -0.517891   -2.088642
      7         11           0        2.640200   -1.460268   -0.424015
 ---------------------------------------------------------------------

 SCF Done:  E(UB3LYP) =  -1136.13690308     A.U. after   18 cycles

 The electronic state is 2-A.
 Alpha  occ. eigenvalues --  -38.44223 -38.44162 -38.44086 -38.43577 -38.43523
 Alpha  occ. eigenvalues --  -38.43425 -38.43187  -2.20083  -2.19989  -2.19967
 Alpha  occ. eigenvalues --   -2.19408  -2.19366  -2.19245  -2.19046  -1.13747
 Alpha  occ. eigenvalues --   -1.13718  -1.13710  -1.13675  -1.13654  -1.13628
 Alpha  occ. eigenvalues --   -1.13625  -1.13603  -1.13583  -1.13154  -1.13079
 Alpha  occ. eigenvalues --   -1.13048  -1.13029  -1.13010  -1.12971  -1.12930
 Alpha  occ. eigenvalues --   -1.12903  -1.12872  -1.12728  -1.12712  -1.12671
 Alpha  occ. eigenvalues --   -0.18353  -0.12933  -0.12103  -0.11531
 Alpha virt. eigenvalues --   -0.05672  -0.04864  -0.04479  -0.03500  -0.03378
 Alpha virt. eigenvalues --   -0.03133  -0.01391  -0.00801  -0.00304  -0.00082
 Alpha virt. eigenvalues --   -0.00041   0.00427   0.00710   0.00795   0.00912

  Beta  occ. eigenvalues --  -38.44159 -38.44139 -38.44010 -38.43576 -38.43520
  Beta  occ. eigenvalues --  -38.43411 -38.43174  -2.19987  -2.19929  -2.19828
  Beta  occ. eigenvalues --   -2.19409  -2.19361  -2.19222  -2.19025  -1.13666
  Beta  occ. eigenvalues --   -1.13650  -1.13639  -1.13622  -1.13605  -1.13589
  Beta  occ. eigenvalues --   -1.13542  -1.13508  -1.13481  -1.13157  -1.13064
  Beta  occ. eigenvalues --   -1.13050  -1.13011  -1.13008  -1.12971  -1.12906
  Beta  occ. eigenvalues --   -1.12883  -1.12854  -1.12713  -1.12683  -1.12651
  Beta  occ. eigenvalues --   -0.17571  -0.12741  -0.11894
  Beta virt. eigenvalues --   -0.07595  -0.05590  -0.04846  -0.04246  -0.02774
  Beta virt. eigenvalues --   -0.02688  -0.02132  -0.01317  -0.00732  -0.00261
  Beta virt. eigenvalues --   -0.00082   0.00041   0.00452   0.00884   0.00895

 Mulliken charges and spin densities:
               1          2
     1  Na   0.324554  -0.073718
     2  Na   0.050067  -0.029407
     3  Na  -0.265402   0.540564
     4  Na   0.063588   0.084191
     5  Na  -0.033832  -0.010626
     6  Na  -0.181463   0.535061
     7  Na   0.042489  -0.046066
 Sum of Mulliken charges =  -0.00000   1.00000

 Dipole moment (field-independent basis, Debye):
    X=             -0.4284    Y=              0.0490    Z=              0.0252  Tot=              0.4319
 Quadrupole moment (field-independent basis, Debye-Ang):
   XX=            -59.8803   YY=            -67.7108   ZZ=            -68.7904
   XY=              0.1063   XZ=             -0.6724   YZ=             -1.4308

 Normal termination of Gaussian 16 at Tue Dec  5 21:10:55 2023.
