 Gaussian 16, Revision B.01,
 Gaussian 16:  ES64L-G16RevB.01 20-Dec-2017

 -------------------------
 #P B3LYP/6-311+g(d) force
 -------------------------

 -----
 DPGEN
 -----
 Symbolic Z-matrix:
 Charge =  0 Multiplicity = 2

                         Standard orientation:
 ---------------------------------------------------------------------
 Center     Atomic      Atomic             Coordinates (Angstroms)
 Number     Number       Type             X           Y           Z
 ---------------------------------------------------------------------
      1         11           0       -4.450321   -0.614333   -1.114232
      2         11           0       -1.743465   -1.381684    1.794349
      3         11           0        3.911461    1.717712   -0.169368
      4         11           0        3.924731   -2.003057   -0.192375
      5         11           0        0.481904   -3.063238   -0.448937
      6         11           0       -3.018371    1.866465    0.080052
      7         11           0        0.894061    3.478135    0.050512
 ---------------------------------------------------------------------

 SCF Done:  E(UB3LYP) =  -1136.10791651     A.U. after   22 cycles

 The electronic state is 2-A.
 Alpha  occ. eigenvalues --  -38.45211 -38.45033 -38.44956 -38.44414 -38.44225
 Alpha  occ. eigenvalues --  -38.44175 -38.43642  -2.20987  -2.20833  -2.20781
 Alpha  occ. eigenvalues --   -2.20158  -2.19997  -2.19928  -2.19405  -1.14656
 Alpha  occ. eigenvalues --   -1.14639  -1.14596  -1.14574  -1.14500  -1.14489
 Alpha  occ. eigenvalues --   -1.14423  -1.14402  -1.14358  -1.13850  -1.13834
 Alpha  occ. eigenvalues --   -1.13797  -1.13666  -1.13649  -1.13627  -1.13612
 Alpha  occ. eigenvalues --   -1.13599  -1.13561  -1.13074  -1.13063  -1.13031
 Alpha  occ. eigenvalues --   -0.15962  -0.13785  -0.12414  -0.10740
 Alpha virt. eigenvalues --   -0.07018  -0.06417  -0.03997  -0.03389  -0.03048
 Alpha virt. eigenvalues --   -0.02709  -0.02265  -0.01881  -0.01400  -0.00870
 Alpha virt. eigenvalues --   -0.00405  -0.00119   0.00107   0.00348   0.00484

  Beta  occ. eigenvalues --  -38.45152 -38.45020 -38.44890 -38.44425 -38.44184
  Beta  occ. eigenvalues --  -38.44179 -38.43604  -2.20877  -2.20815  -2.20659
  Beta  occ. eigenvalues --   -2.20181  -2.19948  -2.19911  -2.19333  -1.14580
  Beta  occ. eigenvalues --   -1.14564  -1.14530  -1.14520  -1.14488  -1.14460
  Beta  occ. eigenvalues --   -1.14342  -1.14311  -1.14292  -1.13868  -1.13852
  Beta  occ. eigenvalues --   -1.13792  -1.13629  -1.13622  -1.13608  -1.13590
  Beta  occ. eigenvalues --   -1.13575  -1.13547  -1.13024  -1.13013  -1.12988
  Beta  occ. eigenvalues --   -0.15357  -0.13303  -0.12055
  Beta virt. eigenvalues --   -0.07467  -0.06893  -0.05921  -0.03629  -0.03140
  Beta virt. eigenvalues --   -0.02746  -0.02344  -0.02053  -0.01675  -0.01065
  Beta virt. eigenvalues --   -0.00780  -0.00169   0.00151   0.00283   0.00403

 Mulliken charges and spin densities:
               1          2
     1  Na   0.378723   0.236062
     2  Na  -0.027267   0.271757
     3  Na  -0.149034  -0.014351
     4  Na   0.107884   0.254971
     5  Na  -0.178911  -0.111926
     6  Na  -0.176094   0.170431
     7  Na   0.044699   0.193055
 Sum of Mulliken charges =  -0.00000   1.00000

 Dipole moment (field-independent basis, Debye):
    X=             -1.5852    Y=             -0.8133    Z=              0.0421  Tot=              1.7821
 Quadrupole moment (field-independent basis, Debye-Ang):
   XX=            -62.6864   YY=            -70.0470   ZZ=            -69.0459
   XY=              1.8825   XZ=              0.1675   YZ=              2.9624

 Normal termination of Gaussian 16 at Mon Dec  4 04:34:02 2023.
