 Gaussian 16, Revision B.01,
 Gaussian 16:  ES64L-G16RevB.01 20-Dec-2017

 -------------------------
 #P B3LYP/6-311+g(d) force
 -------------------------

 -----
 DPGEN
 -----
 Symbolic Z-matrix:
 Charge =  0 Multiplicity = 2

                         Standard orientation:
 ---------------------------------------------------------------------
 Center     Atomic      Atomic             Coordinates (Angstroms)
 Number     Number       Type             X           Y           Z
 ---------------------------------------------------------------------
      1         11           0        2.850074   -2.021155    0.280448
      2         11           0       -2.774444    0.543552   -0.500390
      3         11           0       -1.880974   -2.684831   -0.197891
      4         11           0        0.435607   -0.294275   -1.615677
      5         11           0       -0.183136   -0.291903    2.032889
      6         11           0       -0.785507    2.820502    0.475429
      7         11           0        2.338380    1.928110   -0.474808
 ---------------------------------------------------------------------

 SCF Done:  E(UB3LYP) =  -1136.13315453     A.U. after   20 cycles

 The electronic state is 2-A.
 Alpha  occ. eigenvalues --  -38.44390 -38.44030 -38.43995 -38.43748 -38.43676
 Alpha  occ. eigenvalues --  -38.43308 -38.43142  -2.20152  -2.19868  -2.19805
 Alpha  occ. eigenvalues --   -2.19615  -2.19560  -2.19246  -2.19016  -1.13829
 Alpha  occ. eigenvalues --   -1.13804  -1.13794  -1.13585  -1.13521  -1.13483
 Alpha  occ. eigenvalues --   -1.13474  -1.13471  -1.13453  -1.13290  -1.13251
 Alpha  occ. eigenvalues --   -1.13244  -1.13233  -1.13217  -1.13192  -1.12930
 Alpha  occ. eigenvalues --   -1.12886  -1.12868  -1.12687  -1.12677  -1.12652
 Alpha  occ. eigenvalues --   -0.18358  -0.12885  -0.12398  -0.10747
 Alpha virt. eigenvalues --   -0.06034  -0.05243  -0.04492  -0.03199  -0.02999
 Alpha virt. eigenvalues --   -0.02553  -0.01588  -0.01436  -0.00404  -0.00318
 Alpha virt. eigenvalues --    0.00013   0.00348   0.00728   0.00775   0.00876

  Beta  occ. eigenvalues --  -38.44388 -38.44017 -38.43992 -38.43665 -38.43657
  Beta  occ. eigenvalues --  -38.43252 -38.43133  -2.20149  -2.19847  -2.19802
  Beta  occ. eigenvalues --   -2.19542  -2.19446  -2.19145  -2.19004  -1.13820
  Beta  occ. eigenvalues --   -1.13799  -1.13792  -1.13562  -1.13497  -1.13473
  Beta  occ. eigenvalues --   -1.13472  -1.13460  -1.13444  -1.13243  -1.13191
  Beta  occ. eigenvalues --   -1.13182  -1.13170  -1.13127  -1.13104  -1.12861
  Beta  occ. eigenvalues --   -1.12808  -1.12794  -1.12683  -1.12663  -1.12626
  Beta  occ. eigenvalues --   -0.17642  -0.12631  -0.12191
  Beta virt. eigenvalues --   -0.06895  -0.06001  -0.05103  -0.04462  -0.02493
  Beta virt. eigenvalues --   -0.02279  -0.01602  -0.01450  -0.01311  -0.00435
  Beta virt. eigenvalues --   -0.00301   0.00130   0.00386   0.00747   0.00855

 Mulliken charges and spin densities:
               1          2
     1  Na  -0.126861  -0.040385
     2  Na   0.095428   0.117690
     3  Na   0.075044  -0.038678
     4  Na   0.083332   0.186088
     5  Na  -0.342116   0.675112
     6  Na   0.111636   0.086797
     7  Na   0.103536   0.013376
 Sum of Mulliken charges =  -0.00000   1.00000

 Dipole moment (field-independent basis, Debye):
    X=              0.3340    Y=             -0.5160    Z=              0.1091  Tot=              0.6243
 Quadrupole moment (field-independent basis, Debye-Ang):
   XX=            -58.8906   YY=            -60.1472   ZZ=            -74.3387
   XY=              0.0991   XZ=              1.2592   YZ=             -0.2831

 Normal termination of Gaussian 16 at Fri Dec  8 05:30:49 2023.
