 Gaussian 16, Revision B.01,
 Gaussian 16:  ES64L-G16RevB.01 20-Dec-2017

 -------------------------
 #P B3LYP/6-311+g(d) force
 -------------------------

 -----
 DPGEN
 -----
 Symbolic Z-matrix:
 Charge =  0 Multiplicity = 2

                         Standard orientation:
 ---------------------------------------------------------------------
 Center     Atomic      Atomic             Coordinates (Angstroms)
 Number     Number       Type             X           Y           Z
 ---------------------------------------------------------------------
      1         11           0        0.621426    1.090587    0.906125
      2         11           0        2.027464    3.839972   -0.370577
      3         11           0        3.366381    0.197991   -0.753140
      4         11           0        0.232607   -1.652658    0.103240
      5         11           0       -3.069453    0.546255    0.754820
      6         11           0        3.744960   -3.272802    0.054578
      7         11           0       -6.923384   -0.749345   -0.695046
 ---------------------------------------------------------------------

 SCF Done:  E(UB3LYP) =  -1136.11151437     A.U. after   21 cycles

 The electronic state is 2-A.
 Alpha  occ. eigenvalues --  -38.45424 -38.44694 -38.44451 -38.44351 -38.44201
 Alpha  occ. eigenvalues --  -38.43672 -38.43654  -2.21195  -2.20551  -2.20276
 Alpha  occ. eigenvalues --   -2.20118  -2.19927  -2.19617  -2.19443  -1.14824
 Alpha  occ. eigenvalues --   -1.14823  -1.14794  -1.14360  -1.14225  -1.14081
 Alpha  occ. eigenvalues --   -1.13992  -1.13980  -1.13843  -1.13789  -1.13784
 Alpha  occ. eigenvalues --   -1.13732  -1.13627  -1.13616  -1.13554  -1.13352
 Alpha  occ. eigenvalues --   -1.13278  -1.13198  -1.13107  -1.13105  -1.13055
 Alpha  occ. eigenvalues --   -0.16893  -0.13273  -0.12250  -0.11514
 Alpha virt. eigenvalues --   -0.06347  -0.05479  -0.04779  -0.03578  -0.02748
 Alpha virt. eigenvalues --   -0.02300  -0.02054  -0.01843  -0.01513  -0.00953
 Alpha virt. eigenvalues --   -0.00477  -0.00121   0.00047   0.00292   0.00540

  Beta  occ. eigenvalues --  -38.45279 -38.44664 -38.44437 -38.44341 -38.44226
  Beta  occ. eigenvalues --  -38.43652 -38.43643  -2.20924  -2.20497  -2.20249
  Beta  occ. eigenvalues --   -2.20098  -2.19977  -2.19583  -2.19422  -1.14640
  Beta  occ. eigenvalues --   -1.14640  -1.14612  -1.14317  -1.14190  -1.14040
  Beta  occ. eigenvalues --   -1.13975  -1.13962  -1.13821  -1.13776  -1.13767
  Beta  occ. eigenvalues --   -1.13720  -1.13666  -1.13654  -1.13558  -1.13329
  Beta  occ. eigenvalues --   -1.13259  -1.13160  -1.13092  -1.13088  -1.13038
  Beta  occ. eigenvalues --   -0.16566  -0.12465  -0.11874
  Beta virt. eigenvalues --   -0.07899  -0.06083  -0.05170  -0.04581  -0.03400
  Beta virt. eigenvalues --   -0.02384  -0.01968  -0.01747  -0.01545  -0.01049
  Beta virt. eigenvalues --   -0.00534  -0.00173  -0.00021   0.00190   0.00408

 Mulliken charges and spin densities:
               1          2
     1  Na  -1.020522   0.045192
     2  Na   0.610435   0.051586
     3  Na   0.096240   0.207043
     4  Na  -0.364061  -0.003339
     5  Na   0.186028  -0.083160
     6  Na   0.452663   0.068839
     7  Na   0.039217   0.713839
 Sum of Mulliken charges =  -0.00000   1.00000

 Dipole moment (field-independent basis, Debye):
    X=              0.6269    Y=             -0.4762    Z=             -0.3277  Tot=              0.8527
 Quadrupole moment (field-independent basis, Debye-Ang):
   XX=            -62.1434   YY=            -60.6378   ZZ=            -71.8536
   XY=             -3.4214   XZ=              0.4451   YZ=             -0.5363

 Normal termination of Gaussian 16 at Wed Nov 29 00:10:16 2023.
