 Gaussian 16, Revision B.01,
 Gaussian 16:  ES64L-G16RevB.01 20-Dec-2017

 -------------------------
 #P B3LYP/6-311+g(d) force
 -------------------------

 -----
 DPGEN
 -----
 Symbolic Z-matrix:
 Charge =  0 Multiplicity = 2

                         Standard orientation:
 ---------------------------------------------------------------------
 Center     Atomic      Atomic             Coordinates (Angstroms)
 Number     Number       Type             X           Y           Z
 ---------------------------------------------------------------------
      1         11           0       -1.186252    3.800579   -0.186790
      2         11           0       -1.521192    0.515553   -0.721847
      3         11           0       -0.974544   -1.283998    1.394566
      4         11           0        4.288021   -1.093230   -0.103259
      5         11           0       -3.837842   -2.090588   -0.162438
      6         11           0        1.473454   -1.541314   -0.863570
      7         11           0        1.758354    1.692998    0.643338
 ---------------------------------------------------------------------

 SCF Done:  E(UB3LYP) =  -1136.11736891     A.U. after   22 cycles

 The electronic state is 2-A.
 Alpha  occ. eigenvalues --  -38.44916 -38.44145 -38.44134 -38.43924 -38.43604
 Alpha  occ. eigenvalues --  -38.43524 -38.43507  -2.20708  -2.20094  -2.20071
 Alpha  occ. eigenvalues --   -2.19890  -2.19439  -2.19370  -2.19324  -1.14424
 Alpha  occ. eigenvalues --   -1.14398  -1.14296  -1.13977  -1.13802  -1.13766
 Alpha  occ. eigenvalues --   -1.13721  -1.13701  -1.13670  -1.13578  -1.13533
 Alpha  occ. eigenvalues --   -1.13442  -1.13095  -1.13081  -1.13051  -1.13033
 Alpha  occ. eigenvalues --   -1.12998  -1.12995  -1.12984  -1.12979  -1.12943
 Alpha  occ. eigenvalues --   -0.18136  -0.13882  -0.12586  -0.09918
 Alpha virt. eigenvalues --   -0.06729  -0.05651  -0.04805  -0.03023  -0.02897
 Alpha virt. eigenvalues --   -0.02395  -0.01950  -0.01299  -0.00942  -0.00605
 Alpha virt. eigenvalues --   -0.00313   0.00111   0.00446   0.00504   0.00630

  Beta  occ. eigenvalues --  -38.44918 -38.44128 -38.44095 -38.43912 -38.43537
  Beta  occ. eigenvalues --  -38.43511 -38.43449  -2.20715  -2.20049  -2.20028
  Beta  occ. eigenvalues --   -2.19874  -2.19313  -2.19299  -2.19262  -1.14431
  Beta  occ. eigenvalues --   -1.14380  -1.14309  -1.13938  -1.13772  -1.13726
  Beta  occ. eigenvalues --   -1.13708  -1.13651  -1.13592  -1.13569  -1.13469
  Beta  occ. eigenvalues --   -1.13438  -1.13008  -1.12993  -1.12978  -1.12972
  Beta  occ. eigenvalues --   -1.12967  -1.12963  -1.12928  -1.12921  -1.12909
  Beta  occ. eigenvalues --   -0.17480  -0.13341  -0.12367
  Beta virt. eigenvalues --   -0.06581  -0.06494  -0.05308  -0.04468  -0.02709
  Beta virt. eigenvalues --   -0.02478  -0.02299  -0.01744  -0.01063  -0.00624
  Beta virt. eigenvalues --   -0.00291  -0.00048   0.00289   0.00591   0.00672

 Mulliken charges and spin densities:
               1          2
     1  Na   0.656168   0.046117
     2  Na  -1.123449   0.398274
     3  Na   0.314415  -0.122761
     4  Na   0.198171   0.392673
     5  Na   0.216180   0.355891
     6  Na  -0.053223  -0.063813
     7  Na  -0.208262  -0.006381
 Sum of Mulliken charges =  -0.00000   1.00000

 Dipole moment (field-independent basis, Debye):
    X=              0.2326    Y=             -0.1242    Z=              0.8588  Tot=              0.8983
 Quadrupole moment (field-independent basis, Debye-Ang):
   XX=            -73.9791   YY=            -66.4650   ZZ=            -65.1987
   XY=              1.1423   XZ=              2.7066   YZ=              1.4791

 Normal termination of Gaussian 16 at Tue Dec  5 21:18:06 2023.
