 Gaussian 16, Revision B.01,
 Gaussian 16:  ES64L-G16RevB.01 20-Dec-2017

 -------------------------
 #P B3LYP/6-311+g(d) force
 -------------------------

 -----
 DPGEN
 -----
 Symbolic Z-matrix:
 Charge =  0 Multiplicity = 2

                         Standard orientation:
 ---------------------------------------------------------------------
 Center     Atomic      Atomic             Coordinates (Angstroms)
 Number     Number       Type             X           Y           Z
 ---------------------------------------------------------------------
      1         11           0        0.316071    0.106301   -1.605778
      2         11           0       -1.023848   -2.582600    0.043730
      3         11           0        2.210636   -1.832724   -0.198905
      4         11           0        2.557272    1.557644    0.146837
      5         11           0       -0.251039   -0.151846    1.998890
      6         11           0       -2.907235    0.014684   -0.384618
      7         11           0       -0.901857    2.888541   -0.000156
 ---------------------------------------------------------------------

 SCF Done:  E(UB3LYP) =  -1136.13870392     A.U. after   18 cycles

 The electronic state is 2-A.
 Alpha  occ. eigenvalues --  -38.43730 -38.43593 -38.43573 -38.43474 -38.43452
 Alpha  occ. eigenvalues --  -38.43207 -38.43047  -2.19588  -2.19451  -2.19426
 Alpha  occ. eigenvalues --   -2.19404  -2.19361  -2.19136  -2.19085  -1.13295
 Alpha  occ. eigenvalues --   -1.13251  -1.13219  -1.13151  -1.13123  -1.13120
 Alpha  occ. eigenvalues --   -1.13110  -1.13100  -1.13083  -1.13080  -1.13048
 Alpha  occ. eigenvalues --   -1.13033  -1.13021  -1.12997  -1.12990  -1.12810
 Alpha  occ. eigenvalues --   -1.12793  -1.12761  -1.12749  -1.12702  -1.12697
 Alpha  occ. eigenvalues --   -0.19146  -0.13015  -0.12751  -0.10868
 Alpha virt. eigenvalues --   -0.05339  -0.04959  -0.04826  -0.03171  -0.02982
 Alpha virt. eigenvalues --   -0.02529  -0.01238  -0.01143  -0.00217  -0.00132
 Alpha virt. eigenvalues --    0.00023   0.00370   0.00890   0.00920   0.00939

  Beta  occ. eigenvalues --  -38.43726 -38.43591 -38.43563 -38.43444 -38.43380
  Beta  occ. eigenvalues --  -38.43199 -38.42982  -2.19584  -2.19436  -2.19424
  Beta  occ. eigenvalues --   -2.19351  -2.19231  -2.19125  -2.18969  -1.13288
  Beta  occ. eigenvalues --   -1.13234  -1.13215  -1.13138  -1.13117  -1.13094
  Beta  occ. eigenvalues --   -1.13085  -1.13079  -1.13071  -1.13047  -1.12995
  Beta  occ. eigenvalues --   -1.12984  -1.12965  -1.12914  -1.12893  -1.12796
  Beta  occ. eigenvalues --   -1.12759  -1.12742  -1.12673  -1.12618  -1.12616
  Beta  occ. eigenvalues --   -0.18401  -0.12760  -0.12497
  Beta virt. eigenvalues --   -0.06915  -0.05341  -0.04923  -0.04801  -0.02359
  Beta virt. eigenvalues --   -0.02185  -0.01457  -0.01160  -0.01073  -0.00265
  Beta virt. eigenvalues --   -0.00171   0.00144   0.00392   0.00897   0.00935

 Mulliken charges and spin densities:
               1          2
     1  Na  -0.399668   0.419372
     2  Na   0.433301   0.043028
     3  Na   0.346980  -0.024362
     4  Na   0.084713  -0.057685
     5  Na  -0.596369   0.737040
     6  Na   0.114497  -0.033165
     7  Na   0.016546  -0.084227
 Sum of Mulliken charges =  -0.00000   1.00000

 Dipole moment (field-independent basis, Debye):
    X=              0.0637    Y=              0.2515    Z=              0.1823  Tot=              0.3171
 Quadrupole moment (field-independent basis, Debye-Ang):
   XX=            -59.2280   YY=            -60.7258   ZZ=            -73.7174
   XY=              0.0008   XZ=              1.3272   YZ=              0.6864

 Normal termination of Gaussian 16 at Tue Dec  5 18:51:37 2023.
