 Gaussian 16, Revision B.01,
 Gaussian 16:  ES64L-G16RevB.01 20-Dec-2017

 -------------------------
 #P B3LYP/6-311+g(d) force
 -------------------------

 -----
 DPGEN
 -----
 Symbolic Z-matrix:
 Charge =  0 Multiplicity = 2

                         Standard orientation:
 ---------------------------------------------------------------------
 Center     Atomic      Atomic             Coordinates (Angstroms)
 Number     Number       Type             X           Y           Z
 ---------------------------------------------------------------------
      1         11           0       -1.498138   -2.891135    0.017974
      2         11           0       -0.100764    0.043337    2.086551
      3         11           0       -1.134879    3.082793    0.127121
      4         11           0       -3.240822    0.047646   -0.583590
      5         11           0        0.319723    0.168909   -1.267099
      6         11           0        2.993573    1.425874   -0.273586
      7         11           0        2.661307   -1.877425   -0.107371
 ---------------------------------------------------------------------

 SCF Done:  E(UB3LYP) =  -1136.13166165     A.U. after   19 cycles

 The electronic state is 2-A.
 Alpha  occ. eigenvalues --  -38.44384 -38.44275 -38.44155 -38.43574 -38.43529
 Alpha  occ. eigenvalues --  -38.43409 -38.43321  -2.20226  -2.20098  -2.19965
 Alpha  occ. eigenvalues --   -2.19364  -2.19321  -2.19299  -2.19274  -1.13936
 Alpha  occ. eigenvalues --   -1.13885  -1.13856  -1.13782  -1.13752  -1.13718
 Alpha  occ. eigenvalues --   -1.13643  -1.13618  -1.13592  -1.13045  -1.13037
 Alpha  occ. eigenvalues --   -1.13018  -1.13011  -1.12995  -1.12982  -1.12969
 Alpha  occ. eigenvalues --   -1.12942  -1.12929  -1.12916  -1.12895  -1.12871
 Alpha  occ. eigenvalues --   -0.18102  -0.13359  -0.11990  -0.10253
 Alpha virt. eigenvalues --   -0.05797  -0.05662  -0.04938  -0.03097  -0.02538
 Alpha virt. eigenvalues --   -0.02238  -0.01862  -0.01404  -0.00775  -0.00724
 Alpha virt. eigenvalues --   -0.00027   0.00288   0.00694   0.00750   0.00808

  Beta  occ. eigenvalues --  -38.44375 -38.44272 -38.44132 -38.43572 -38.43529
  Beta  occ. eigenvalues --  -38.43301 -38.43291  -2.20211  -2.20096  -2.19924
  Beta  occ. eigenvalues --   -2.19364  -2.19323  -2.19246  -2.19074  -1.13923
  Beta  occ. eigenvalues --   -1.13874  -1.13835  -1.13778  -1.13744  -1.13708
  Beta  occ. eigenvalues --   -1.13605  -1.13591  -1.13565  -1.13035  -1.13020
  Beta  occ. eigenvalues --   -1.13007  -1.12991  -1.12987  -1.12966  -1.12958
  Beta  occ. eigenvalues --   -1.12904  -1.12882  -1.12805  -1.12760  -1.12727
  Beta  occ. eigenvalues --   -0.17445  -0.13055  -0.11822
  Beta virt. eigenvalues --   -0.06460  -0.05682  -0.05575  -0.04889  -0.02419
  Beta virt. eigenvalues --   -0.01882  -0.01723  -0.01356  -0.01266  -0.00747
  Beta virt. eigenvalues --   -0.00726   0.00143   0.00360   0.00754   0.00788

 Mulliken charges and spin densities:
               1          2
     1  Na   0.017822   0.007153
     2  Na  -0.354652   0.744509
     3  Na   0.064015   0.013677
     4  Na   0.112173   0.128420
     5  Na  -0.461170   0.018810
     6  Na   0.463793   0.068214
     7  Na   0.158019   0.019217
 Sum of Mulliken charges =  -0.00000   1.00000

 Dipole moment (field-independent basis, Debye):
    X=              0.5047    Y=              0.0671    Z=              0.1357  Tot=              0.5269
 Quadrupole moment (field-independent basis, Debye-Ang):
   XX=            -55.2913   YY=            -60.3139   ZZ=            -76.7640
   XY=             -0.7258   XZ=              0.8498   YZ=              0.1212

 Normal termination of Gaussian 16 at Thu Dec  7 20:08:39 2023.
