 Gaussian 16, Revision B.01,
 Gaussian 16:  ES64L-G16RevB.01 20-Dec-2017

 -------------------------
 #P B3LYP/6-311+g(d) force
 -------------------------

 -----
 DPGEN
 -----
 Symbolic Z-matrix:
 Charge =  0 Multiplicity = 2

                         Standard orientation:
 ---------------------------------------------------------------------
 Center     Atomic      Atomic             Coordinates (Angstroms)
 Number     Number       Type             X           Y           Z
 ---------------------------------------------------------------------
      1         11           0        1.194404    2.366845    0.040300
      2         11           0       -2.615777   -1.625758    0.076541
      3         11           0        0.616942   -2.479618   -0.404074
      4         11           0       -2.128534    2.157961   -0.005619
      5         11           0       -0.129929    0.190129   -1.759099
      6         11           0        3.186016   -0.304267    0.124955
      7         11           0       -0.123122   -0.305291    1.926997
 ---------------------------------------------------------------------

 SCF Done:  E(UB3LYP) =  -1136.13799071     A.U. after   18 cycles

 The electronic state is 2-A.
 Alpha  occ. eigenvalues --  -38.43779 -38.43740 -38.43530 -38.43504 -38.43298
 Alpha  occ. eigenvalues --  -38.43209 -38.43171  -2.19620  -2.19593  -2.19446
 Alpha  occ. eigenvalues --   -2.19386  -2.19311  -2.19128  -2.19109  -1.13293
 Alpha  occ. eigenvalues --   -1.13280  -1.13278  -1.13276  -1.13260  -1.13234
 Alpha  occ. eigenvalues --   -1.13131  -1.13102  -1.13084  -1.13056  -1.13047
 Alpha  occ. eigenvalues --   -1.13025  -1.13019  -1.13002  -1.12910  -1.12794
 Alpha  occ. eigenvalues --   -1.12788  -1.12772  -1.12762  -1.12735  -1.12705
 Alpha  occ. eigenvalues --   -0.19149  -0.12953  -0.12704  -0.10972
 Alpha virt. eigenvalues --   -0.05432  -0.05125  -0.04419  -0.03137  -0.03049
 Alpha virt. eigenvalues --   -0.02627  -0.01507  -0.01066  -0.00081  -0.00031
 Alpha virt. eigenvalues --    0.00026   0.00355   0.00818   0.00922   0.00952

  Beta  occ. eigenvalues --  -38.43778 -38.43736 -38.43527 -38.43420 -38.43219
  Beta  occ. eigenvalues --  -38.43201 -38.43155  -2.19621  -2.19589  -2.19384
  Beta  occ. eigenvalues --   -2.19290  -2.19168  -2.19118  -2.19084  -1.13296
  Beta  occ. eigenvalues --   -1.13279  -1.13271  -1.13259  -1.13236  -1.13233
  Beta  occ. eigenvalues --   -1.13084  -1.13042  -1.13032  -1.13018  -1.12972
  Beta  occ. eigenvalues --   -1.12941  -1.12936  -1.12929  -1.12817  -1.12770
  Beta  occ. eigenvalues --   -1.12750  -1.12743  -1.12729  -1.12698  -1.12695
  Beta  occ. eigenvalues --   -0.18391  -0.12716  -0.12435
  Beta virt. eigenvalues --   -0.07008  -0.05389  -0.05136  -0.04404  -0.02343
  Beta virt. eigenvalues --   -0.02230  -0.01542  -0.01425  -0.01017  -0.00085
  Beta virt. eigenvalues --   -0.00077   0.00119   0.00372   0.00867   0.00908

 Mulliken charges and spin densities:
               1          2
     1  Na   0.218479  -0.038408
     2  Na   0.193850  -0.099708
     3  Na   0.381135  -0.006573
     4  Na   0.116001  -0.111152
     5  Na  -0.335675   0.533986
     6  Na   0.025310  -0.055335
     7  Na  -0.599100   0.777190
 Sum of Mulliken charges =  -0.00000   1.00000

 Dipole moment (field-independent basis, Debye):
    X=             -0.1756    Y=             -0.0299    Z=              0.1706  Tot=              0.2466
 Quadrupole moment (field-independent basis, Debye-Ang):
   XX=            -55.6766   YY=            -64.7031   ZZ=            -73.1801
   XY=             -0.1611   XZ=              0.0951   YZ=              0.8993

 Normal termination of Gaussian 16 at Thu Dec  7 02:38:34 2023.
