 Gaussian 16, Revision B.01,
 Gaussian 16:  ES64L-G16RevB.01 20-Dec-2017

 -------------------------
 #P B3LYP/6-311+g(d) force
 -------------------------

 -----
 DPGEN
 -----
 Symbolic Z-matrix:
 Charge =  0 Multiplicity = 2

                         Standard orientation:
 ---------------------------------------------------------------------
 Center     Atomic      Atomic             Coordinates (Angstroms)
 Number     Number       Type             X           Y           Z
 ---------------------------------------------------------------------
      1         11           0        1.645828   -2.320615    0.463688
      2         11           0        1.850764    1.473726   -0.492676
      3         11           0       -1.497887    0.744985   -1.199828
      4         11           0       -1.498564   -1.715609    0.861650
      5         11           0       -4.532943   -0.581950   -0.453549
      6         11           0       -0.318203    2.878701    1.281617
      7         11           0        4.351005   -0.479238   -0.460903
 ---------------------------------------------------------------------

 SCF Done:  E(UB3LYP) =  -1136.12525656     A.U. after   20 cycles

 The electronic state is 2-A.
 Alpha  occ. eigenvalues --  -38.44553 -38.43982 -38.43937 -38.43628 -38.43489
 Alpha  occ. eigenvalues --  -38.43481 -38.43444  -2.20438  -2.19810  -2.19770
 Alpha  occ. eigenvalues --   -2.19519  -2.19356  -2.19344  -2.19328  -1.14154
 Alpha  occ. eigenvalues --   -1.14132  -1.14030  -1.13502  -1.13460  -1.13442
 Alpha  occ. eigenvalues --   -1.13424  -1.13415  -1.13384  -1.13225  -1.13177
 Alpha  occ. eigenvalues --   -1.13153  -1.13081  -1.13059  -1.13027  -1.13000
 Alpha  occ. eigenvalues --   -1.12995  -1.12987  -1.12981  -1.12919  -1.12900
 Alpha  occ. eigenvalues --   -0.17547  -0.14066  -0.12471  -0.10800
 Alpha virt. eigenvalues --   -0.06360  -0.05081  -0.04356  -0.03616  -0.02730
 Alpha virt. eigenvalues --   -0.02613  -0.01778  -0.01165  -0.00824  -0.00452
 Alpha virt. eigenvalues --   -0.00230  -0.00003   0.00468   0.00676   0.00809

  Beta  occ. eigenvalues --  -38.44547 -38.43979 -38.43874 -38.43585 -38.43444
  Beta  occ. eigenvalues --  -38.43434 -38.43431  -2.20431  -2.19805  -2.19651
  Beta  occ. eigenvalues --   -2.19447  -2.19335  -2.19268  -2.19244  -1.14142
  Beta  occ. eigenvalues --   -1.14127  -1.14016  -1.13500  -1.13455  -1.13437
  Beta  occ. eigenvalues --   -1.13339  -1.13333  -1.13312  -1.13173  -1.13132
  Beta  occ. eigenvalues --   -1.13066  -1.13056  -1.13019  -1.13001  -1.12964
  Beta  occ. eigenvalues --   -1.12947  -1.12924  -1.12913  -1.12861  -1.12842
  Beta  occ. eigenvalues --   -0.17057  -0.13453  -0.12061
  Beta virt. eigenvalues --   -0.07215  -0.06230  -0.04947  -0.03814  -0.03269
  Beta virt. eigenvalues --   -0.02546  -0.02311  -0.01348  -0.00869  -0.00543
  Beta virt. eigenvalues --   -0.00295  -0.00062   0.00210   0.00624   0.00798

 Mulliken charges and spin densities:
               1          2
     1  Na  -0.312358   0.058611
     2  Na  -0.453394   0.141248
     3  Na  -0.032033  -0.037049
     4  Na  -0.174467   0.162033
     5  Na   0.464156   0.314193
     6  Na   0.171951   0.113171
     7  Na   0.336146   0.247793
 Sum of Mulliken charges =  -0.00000   1.00000

 Dipole moment (field-independent basis, Debye):
    X=             -0.7662    Y=              0.5707    Z=              0.5603  Tot=              1.1076
 Quadrupole moment (field-independent basis, Debye-Ang):
   XX=            -62.6935   YY=            -70.7523   ZZ=            -65.6134
   XY=             -1.7324   XZ=             -1.7448   YZ=              1.9441

 Normal termination of Gaussian 16 at Tue Nov 28 19:19:43 2023.
