 Gaussian 16, Revision B.01,
 Gaussian 16:  ES64L-G16RevB.01 20-Dec-2017

 -------------------------
 #P B3LYP/6-311+g(d) force
 -------------------------

 -----
 DPGEN
 -----
 Symbolic Z-matrix:
 Charge =  0 Multiplicity = 2

                         Standard orientation:
 ---------------------------------------------------------------------
 Center     Atomic      Atomic             Coordinates (Angstroms)
 Number     Number       Type             X           Y           Z
 ---------------------------------------------------------------------
      1         11           0       -1.708525   -2.252872   -0.344747
      2         11           0       -0.240486    2.941666   -0.232790
      3         11           0        0.065419    0.162037    2.038237
      4         11           0        3.021576    1.069130   -0.094398
      5         11           0        1.936024   -2.408543    0.195070
      6         11           0       -3.265845    0.524469    0.165205
      7         11           0        0.191838   -0.035887   -1.726577
 ---------------------------------------------------------------------

 SCF Done:  E(UB3LYP) =  -1136.13808547     A.U. after   19 cycles

 The electronic state is 2-A.
 Alpha  occ. eigenvalues --  -38.44299 -38.44181 -38.43682 -38.43523 -38.43397
 Alpha  occ. eigenvalues --  -38.43315 -38.43274  -2.20111  -2.19991  -2.19554
 Alpha  occ. eigenvalues --   -2.19347  -2.19229  -2.19222  -2.19190  -1.13794
 Alpha  occ. eigenvalues --   -1.13771  -1.13742  -1.13671  -1.13656  -1.13627
 Alpha  occ. eigenvalues --   -1.13226  -1.13185  -1.13172  -1.13022  -1.13015
 Alpha  occ. eigenvalues --   -1.12989  -1.12953  -1.12943  -1.12891  -1.12876
 Alpha  occ. eigenvalues --   -1.12844  -1.12844  -1.12835  -1.12821  -1.12805
 Alpha  occ. eigenvalues --   -0.18456  -0.13012  -0.12280  -0.10732
 Alpha virt. eigenvalues --   -0.05901  -0.05143  -0.04595  -0.03204  -0.02876
 Alpha virt. eigenvalues --   -0.02605  -0.01690  -0.01143  -0.00485  -0.00294
 Alpha virt. eigenvalues --   -0.00023   0.00359   0.00770   0.00849   0.00898

  Beta  occ. eigenvalues --  -38.44295 -38.44181 -38.43592 -38.43518 -38.43391
  Beta  occ. eigenvalues --  -38.43306 -38.43203  -2.20107  -2.19992  -2.19387
  Beta  occ. eigenvalues --   -2.19342  -2.19215  -2.19177  -2.19100  -1.13780
  Beta  occ. eigenvalues --   -1.13762  -1.13741  -1.13676  -1.13639  -1.13630
  Beta  occ. eigenvalues --   -1.13115  -1.13069  -1.13052  -1.13013  -1.12996
  Beta  occ. eigenvalues --   -1.12983  -1.12917  -1.12907  -1.12868  -1.12841
  Beta  occ. eigenvalues --   -1.12822  -1.12811  -1.12801  -1.12752  -1.12739
  Beta  occ. eigenvalues --   -0.17721  -0.12805  -0.12037
  Beta virt. eigenvalues --   -0.06830  -0.05862  -0.05133  -0.04547  -0.02443
  Beta virt. eigenvalues --   -0.02102  -0.01600  -0.01544  -0.01071  -0.00543
  Beta virt. eigenvalues --   -0.00333   0.00113   0.00376   0.00811   0.00860

 Mulliken charges and spin densities:
               1          2
     1  Na   0.200071  -0.031202
     2  Na   0.025768  -0.122720
     3  Na  -0.434654   0.813589
     4  Na   0.147443  -0.103372
     5  Na   0.065055  -0.050054
     6  Na   0.023189  -0.047966
     7  Na  -0.026871   0.541724
 Sum of Mulliken charges =  -0.00000   1.00000

 Dipole moment (field-independent basis, Debye):
    X=              0.1872    Y=              0.2095    Z=              0.1521  Tot=              0.3195
 Quadrupole moment (field-independent basis, Debye-Ang):
   XX=            -54.8536   YY=            -63.7608   ZZ=            -74.5378
   XY=             -0.6285   XZ=              0.0333   YZ=             -0.3822

 Normal termination of Gaussian 16 at Thu Dec  7 18:00:00 2023.
