 Gaussian 16, Revision B.01,
 Gaussian 16:  ES64L-G16RevB.01 20-Dec-2017

 -------------------------
 #P B3LYP/6-311+g(d) force
 -------------------------

 -----
 DPGEN
 -----
 Symbolic Z-matrix:
 Charge =  0 Multiplicity = 2

                         Standard orientation:
 ---------------------------------------------------------------------
 Center     Atomic      Atomic             Coordinates (Angstroms)
 Number     Number       Type             X           Y           Z
 ---------------------------------------------------------------------
      1         11           0        1.403357   -2.377873    0.081905
      2         11           0        3.343210    0.251346   -0.324073
      3         11           0        0.576089    2.711803    0.501984
      4         11           0       -0.546536   -0.441363    1.881704
      5         11           0       -2.767118    1.485076   -0.434336
      6         11           0        0.378962    0.329845   -1.290536
      7         11           0       -2.387963   -1.958834   -0.416648
 ---------------------------------------------------------------------

 SCF Done:  E(UB3LYP) =  -1136.13340829     A.U. after   19 cycles

 The electronic state is 2-A.
 Alpha  occ. eigenvalues --  -38.44226 -38.43993 -38.43765 -38.43347 -38.43269
 Alpha  occ. eigenvalues --  -38.43078 -38.43077  -2.20082  -2.19831  -2.19611
 Alpha  occ. eigenvalues --   -2.19244  -2.19155  -2.19137  -2.19031  -1.13780
 Alpha  occ. eigenvalues --   -1.13734  -1.13713  -1.13511  -1.13490  -1.13465
 Alpha  occ. eigenvalues --   -1.13291  -1.13273  -1.13241  -1.12998  -1.12979
 Alpha  occ. eigenvalues --   -1.12922  -1.12858  -1.12824  -1.12788  -1.12769
 Alpha  occ. eigenvalues --   -1.12736  -1.12710  -1.12697  -1.12654  -1.12629
 Alpha  occ. eigenvalues --   -0.18898  -0.13449  -0.12376  -0.10438
 Alpha virt. eigenvalues --   -0.05831  -0.05327  -0.04428  -0.03143  -0.02782
 Alpha virt. eigenvalues --   -0.02037  -0.01825  -0.01141  -0.00427  -0.00199
 Alpha virt. eigenvalues --    0.00019   0.00316   0.00754   0.00853   0.00863

  Beta  occ. eigenvalues --  -38.44217 -38.43978 -38.43753 -38.43339 -38.43254
  Beta  occ. eigenvalues --  -38.43041 -38.42988  -2.20069  -2.19806  -2.19593
  Beta  occ. eigenvalues --   -2.19234  -2.19124  -2.19082  -2.18867  -1.13766
  Beta  occ. eigenvalues --   -1.13724  -1.13698  -1.13486  -1.13474  -1.13438
  Beta  occ. eigenvalues --   -1.13274  -1.13258  -1.13217  -1.12979  -1.12955
  Beta  occ. eigenvalues --   -1.12887  -1.12848  -1.12778  -1.12749  -1.12742
  Beta  occ. eigenvalues --   -1.12701  -1.12674  -1.12593  -1.12541  -1.12508
  Beta  occ. eigenvalues --   -0.18222  -0.13123  -0.12155
  Beta virt. eigenvalues --   -0.06628  -0.05666  -0.05309  -0.04375  -0.02463
  Beta virt. eigenvalues --   -0.02038  -0.01714  -0.01109  -0.01068  -0.00376
  Beta virt. eigenvalues --   -0.00215   0.00159   0.00382   0.00824   0.00861

 Mulliken charges and spin densities:
               1          2
     1  Na   0.173799  -0.033801
     2  Na   0.385344   0.027849
     3  Na   0.020469   0.052927
     4  Na  -0.191113   0.561957
     5  Na   0.111721   0.094294
     6  Na  -0.485183   0.243880
     7  Na  -0.015037   0.052896
 Sum of Mulliken charges =  -0.00000   1.00000

 Dipole moment (field-independent basis, Debye):
    X=              0.0367    Y=              0.0314    Z=              0.1752  Tot=              0.1818
 Quadrupole moment (field-independent basis, Debye-Ang):
   XX=            -53.3854   YY=            -63.6722   ZZ=            -74.9734
   XY=              0.3156   XZ=              1.4242   YZ=              1.5268

 Normal termination of Gaussian 16 at Wed Nov 29 01:24:53 2023.
