 Gaussian 16, Revision B.01,
 Gaussian 16:  ES64L-G16RevB.01 20-Dec-2017

 -------------------------
 #P B3LYP/6-311+g(d) force
 -------------------------

 -----
 DPGEN
 -----
 Symbolic Z-matrix:
 Charge =  0 Multiplicity = 2

                         Standard orientation:
 ---------------------------------------------------------------------
 Center     Atomic      Atomic             Coordinates (Angstroms)
 Number     Number       Type             X           Y           Z
 ---------------------------------------------------------------------
      1         11           0       -0.635747    2.389334   -1.688745
      2         11           0       -0.627525   -2.321921    1.771668
      3         11           0        4.961609    0.057784   -0.046626
      4         11           0        1.182871   -0.113778    0.090523
      5         11           0       -0.941046    2.013423    1.996726
      6         11           0       -3.054015   -0.004725   -0.073644
      7         11           0       -0.886147   -2.020117   -2.049902
 ---------------------------------------------------------------------

 SCF Done:  E(UB3LYP) =  -1136.11495954     A.U. after   24 cycles

 The electronic state is 2-A.
 Alpha  occ. eigenvalues --  -38.44783 -38.44440 -38.44398 -38.44375 -38.44308
 Alpha  occ. eigenvalues --  -38.44255 -38.42787  -2.20603  -2.20194  -2.20186
 Alpha  occ. eigenvalues --   -2.20132  -2.20120  -2.20069  -2.18677  -1.14291
 Alpha  occ. eigenvalues --   -1.14263  -1.14218  -1.13876  -1.13870  -1.13844
 Alpha  occ. eigenvalues --   -1.13829  -1.13820  -1.13817  -1.13811  -1.13797
 Alpha  occ. eigenvalues --   -1.13790  -1.13781  -1.13772  -1.13742  -1.13727
 Alpha  occ. eigenvalues --   -1.13723  -1.13678  -1.12404  -1.12332  -1.12285
 Alpha  occ. eigenvalues --   -0.17981  -0.11990  -0.11847  -0.11420
 Alpha virt. eigenvalues --   -0.06962  -0.05343  -0.04385  -0.03089  -0.02969
 Alpha virt. eigenvalues --   -0.02844  -0.02390  -0.01034  -0.00929  -0.00296
 Alpha virt. eigenvalues --   -0.00261  -0.00011   0.00246   0.00556   0.00642

  Beta  occ. eigenvalues --  -38.44749 -38.44495 -38.44361 -38.44331 -38.44260
  Beta  occ. eigenvalues --  -38.44211 -38.42753  -2.20543  -2.20235  -2.20127
  Beta  occ. eigenvalues --   -2.20106  -2.20031  -2.19990  -2.18620  -1.14230
  Beta  occ. eigenvalues --   -1.14210  -1.14182  -1.13890  -1.13887  -1.13848
  Beta  occ. eigenvalues --   -1.13820  -1.13817  -1.13789  -1.13767  -1.13766
  Beta  occ. eigenvalues --   -1.13742  -1.13726  -1.13703  -1.13683  -1.13667
  Beta  occ. eigenvalues --   -1.13662  -1.13622  -1.12320  -1.12297  -1.12264
  Beta  occ. eigenvalues --   -0.16939  -0.11790  -0.11638
  Beta virt. eigenvalues --   -0.07895  -0.06842  -0.04614  -0.04149  -0.02744
  Beta virt. eigenvalues --   -0.02446  -0.02172  -0.02107  -0.00936  -0.00485
  Beta virt. eigenvalues --   -0.00378  -0.00254   0.00014   0.00284   0.00691

 Mulliken charges and spin densities:
               1          2
     1  Na   0.022388   0.218012
     2  Na   0.291513   0.294462
     3  Na   0.248386  -0.490519
     4  Na  -1.173676   0.138823
     5  Na   0.149157   0.273826
     6  Na   0.424167   0.268252
     7  Na   0.038065   0.297143
 Sum of Mulliken charges =  -0.00000   1.00000

 Dipole moment (field-independent basis, Debye):
    X=             -1.2122    Y=              0.0098    Z=             -0.0524  Tot=              1.2134
 Quadrupole moment (field-independent basis, Debye-Ang):
   XX=            -63.5049   YY=            -68.8800   ZZ=            -61.4299
   XY=              0.4706   XZ=             -0.4787   YZ=             -0.9687

 Normal termination of Gaussian 16 at Sat Dec  9 07:22:16 2023.
