 Gaussian 16, Revision B.01,
 Gaussian 16:  ES64L-G16RevB.01 20-Dec-2017

 -------------------------
 #P B3LYP/6-311+g(d) force
 -------------------------

 -----
 DPGEN
 -----
 Symbolic Z-matrix:
 Charge =  0 Multiplicity = 2

                         Standard orientation:
 ---------------------------------------------------------------------
 Center     Atomic      Atomic             Coordinates (Angstroms)
 Number     Number       Type             X           Y           Z
 ---------------------------------------------------------------------
      1         11           0       -2.716622   -0.555496   -0.199271
      2         11           0        0.145573    0.831509   -1.437839
      3         11           0       -1.365975    2.755157   -0.132687
      4         11           0        2.799620    1.409616    0.159569
      5         11           0        2.240493   -1.538661   -0.038855
      6         11           0       -0.538388   -0.171228    2.214823
      7         11           0       -0.564701   -2.730898   -0.565740
 ---------------------------------------------------------------------

 SCF Done:  E(UB3LYP) =  -1136.12679489     A.U. after   19 cycles

 The electronic state is 2-A.
 Alpha  occ. eigenvalues --  -38.44086 -38.43967 -38.43927 -38.43842 -38.43526
 Alpha  occ. eigenvalues --  -38.43282 -38.43245  -2.19957  -2.19850  -2.19805
 Alpha  occ. eigenvalues --   -2.19760  -2.19452  -2.19293  -2.19190  -1.13709
 Alpha  occ. eigenvalues --   -1.13686  -1.13622  -1.13586  -1.13513  -1.13474
 Alpha  occ. eigenvalues --   -1.13460  -1.13455  -1.13442  -1.13415  -1.13388
 Alpha  occ. eigenvalues --   -1.13377  -1.13164  -1.13108  -1.13088  -1.12937
 Alpha  occ. eigenvalues --   -1.12914  -1.12900  -1.12848  -1.12835  -1.12813
 Alpha  occ. eigenvalues --   -0.19076  -0.13284  -0.12740  -0.11010
 Alpha virt. eigenvalues --   -0.05674  -0.05008  -0.04619  -0.03355  -0.03071
 Alpha virt. eigenvalues --   -0.02679  -0.01310  -0.01093  -0.00202  -0.00051
 Alpha virt. eigenvalues --    0.00006   0.00349   0.00868   0.00892   0.00953

  Beta  occ. eigenvalues --  -38.44085 -38.43961 -38.43833 -38.43822 -38.43520
  Beta  occ. eigenvalues --  -38.43267 -38.43199  -2.19957  -2.19844  -2.19747
  Beta  occ. eigenvalues --   -2.19612  -2.19446  -2.19209  -2.19165  -1.13694
  Beta  occ. eigenvalues --   -1.13686  -1.13616  -1.13577  -1.13475  -1.13456
  Beta  occ. eigenvalues --   -1.13452  -1.13404  -1.13375  -1.13317  -1.13284
  Beta  occ. eigenvalues --   -1.13281  -1.13157  -1.13106  -1.13060  -1.12879
  Beta  occ. eigenvalues --   -1.12857  -1.12840  -1.12833  -1.12818  -1.12776
  Beta  occ. eigenvalues --   -0.18355  -0.13055  -0.12503
  Beta virt. eigenvalues --   -0.07046  -0.05628  -0.04933  -0.04574  -0.02551
  Beta virt. eigenvalues --   -0.02311  -0.01598  -0.01239  -0.01027  -0.00230
  Beta virt. eigenvalues --   -0.00039   0.00150   0.00397   0.00871   0.00951

 Mulliken charges and spin densities:
               1          2
     1  Na   0.423066   0.150845
     2  Na  -0.248507   0.063270
     3  Na   0.240255   0.007610
     4  Na   0.253962   0.013829
     5  Na   0.077158   0.074660
     6  Na  -0.696296   0.607306
     7  Na  -0.049638   0.082480
 Sum of Mulliken charges =  -0.00000   1.00000

 Dipole moment (field-independent basis, Debye):
    X=             -0.0145    Y=              0.3782    Z=              0.3731  Tot=              0.5314
 Quadrupole moment (field-independent basis, Debye-Ang):
   XX=            -59.9460   YY=            -62.7544   ZZ=            -72.9935
   XY=              0.3982   XZ=              1.2300   YZ=              1.9753

 Normal termination of Gaussian 16 at Sat Dec  9 05:42:48 2023.
