 Gaussian 16, Revision B.01,
 Gaussian 16:  ES64L-G16RevB.01 20-Dec-2017

 -------------------------
 #P B3LYP/6-311+g(d) force
 -------------------------

 -----
 DPGEN
 -----
 Symbolic Z-matrix:
 Charge =  0 Multiplicity = 2

                         Standard orientation:
 ---------------------------------------------------------------------
 Center     Atomic      Atomic             Coordinates (Angstroms)
 Number     Number       Type             X           Y           Z
 ---------------------------------------------------------------------
      1         11           0        1.852865   -0.195409   -1.365087
      2         11           0        1.850118   -0.189771    1.367515
      3         11           0        1.019038    1.983460   -0.004113
      4         11           0        0.330345   -1.943543    0.003435
      5         11           0       -0.852235    0.095282   -1.352142
      6         11           0       -0.851382    0.101029    1.350260
      7         11           0       -3.348749    0.148951    0.000132
 ---------------------------------------------------------------------

 SCF Done:  E(UB3LYP) =  -1136.03581091     A.U. after   27 cycles

 The electronic state is 2-A.
 Alpha  occ. eigenvalues --  -38.45138 -38.45133 -38.45129 -38.44581 -38.44578
 Alpha  occ. eigenvalues --  -38.43210 -38.42976  -2.21488  -2.21421  -2.21068
 Alpha  occ. eigenvalues --   -2.20984  -2.20913  -2.19491  -2.19166  -1.15560
 Alpha  occ. eigenvalues --   -1.15376  -1.15329  -1.15145  -1.15099  -1.15028
 Alpha  occ. eigenvalues --   -1.14855  -1.14845  -1.14790  -1.14641  -1.14551
 Alpha  occ. eigenvalues --   -1.14514  -1.14442  -1.14427  -1.14330  -1.13180
 Alpha  occ. eigenvalues --   -1.13096  -1.13013  -1.12883  -1.12793  -1.12734
 Alpha  occ. eigenvalues --   -0.22141  -0.14360  -0.13099  -0.11968
 Alpha virt. eigenvalues --   -0.06359  -0.04100  -0.03846  -0.03495  -0.02782
 Alpha virt. eigenvalues --   -0.02511  -0.01679  -0.00463  -0.00171   0.00255
 Alpha virt. eigenvalues --    0.00587   0.00755   0.00990   0.01047   0.01055

  Beta  occ. eigenvalues --  -38.45127 -38.45073 -38.45069 -38.44513 -38.44510
  Beta  occ. eigenvalues --  -38.43189 -38.42961  -2.21376  -2.21309  -2.21061
  Beta  occ. eigenvalues --   -2.20872  -2.20795  -2.19464  -2.19146  -1.15501
  Beta  occ. eigenvalues --   -1.15257  -1.15220  -1.15070  -1.15034  -1.14947
  Beta  occ. eigenvalues --   -1.14813  -1.14782  -1.14742  -1.14634  -1.14481
  Beta  occ. eigenvalues --   -1.14439  -1.14362  -1.14346  -1.14227  -1.13171
  Beta  occ. eigenvalues --   -1.13005  -1.12994  -1.12879  -1.12729  -1.12712
  Beta  occ. eigenvalues --   -0.21271  -0.14242  -0.11578
  Beta virt. eigenvalues --   -0.08480  -0.06275  -0.03526  -0.03504  -0.03168
  Beta virt. eigenvalues --   -0.01891  -0.01795  -0.01624  -0.00145  -0.00139
  Beta virt. eigenvalues --    0.00286   0.00651   0.00940   0.00996   0.01045

 Mulliken charges and spin densities:
               1          2
     1  Na   0.108636   0.035081
     2  Na   0.095473   0.032776
     3  Na   0.162571   0.137948
     4  Na   0.467218   0.082569
     5  Na  -0.314228   0.335813
     6  Na  -0.309378   0.336471
     7  Na  -0.210293   0.039343
 Sum of Mulliken charges =  -0.00000   1.00000

 Dipole moment (field-independent basis, Debye):
    X=             -0.8013    Y=              0.1574    Z=             -0.0034  Tot=              0.8167
 Quadrupole moment (field-independent basis, Debye-Ang):
   XX=            -53.3788   YY=            -77.1779   ZZ=            -65.4572
   XY=             -0.1862   XZ=             -0.0056   YZ=             -0.0030

 Normal termination of Gaussian 16 at Fri Dec  8 19:59:59 2023.
