 Gaussian 16, Revision B.01,
 Gaussian 16:  ES64L-G16RevB.01 20-Dec-2017

 -------------------------
 #P B3LYP/6-311+g(d) force
 -------------------------

 -----
 DPGEN
 -----
 Symbolic Z-matrix:
 Charge =  0 Multiplicity = 2

                         Standard orientation:
 ---------------------------------------------------------------------
 Center     Atomic      Atomic             Coordinates (Angstroms)
 Number     Number       Type             X           Y           Z
 ---------------------------------------------------------------------
      1         11           0       -1.132445    2.292591   -0.320188
      2         11           0       -3.290155   -0.114985   -0.191780
      3         11           0        2.990539   -1.692732   -0.136269
      4         11           0        0.347475   -0.156629   -1.899907
      5         11           0        2.321471    2.069314    0.332514
      6         11           0       -0.213798    0.096074    1.938696
      7         11           0       -1.023088   -2.493632    0.276934
 ---------------------------------------------------------------------

 SCF Done:  E(UB3LYP) =  -1136.13425724     A.U. after   20 cycles

 The electronic state is 2-A.
 Alpha  occ. eigenvalues --  -38.44289 -38.44286 -38.43827 -38.43688 -38.43678
 Alpha  occ. eigenvalues --  -38.43252 -38.42855  -2.20138  -2.20055  -2.19643
 Alpha  occ. eigenvalues --   -2.19610  -2.19598  -2.19128  -2.18779  -1.13814
 Alpha  occ. eigenvalues --   -1.13793  -1.13788  -1.13735  -1.13707  -1.13698
 Alpha  occ. eigenvalues --   -1.13325  -1.13314  -1.13296  -1.13279  -1.13276
 Alpha  occ. eigenvalues --   -1.13258  -1.13238  -1.13211  -1.13209  -1.12821
 Alpha  occ. eigenvalues --   -1.12795  -1.12736  -1.12470  -1.12447  -1.12397
 Alpha  occ. eigenvalues --   -0.18676  -0.13132  -0.12096  -0.10976
 Alpha virt. eigenvalues --   -0.06027  -0.05352  -0.03990  -0.03354  -0.02869
 Alpha virt. eigenvalues --   -0.02725  -0.01852  -0.01200  -0.00243  -0.00115
 Alpha virt. eigenvalues --   -0.00030   0.00320   0.00712   0.00844   0.00867

  Beta  occ. eigenvalues --  -38.44288 -38.44286 -38.43821 -38.43613 -38.43592
  Beta  occ. eigenvalues --  -38.43241 -38.42842  -2.20135  -2.20059  -2.19634
  Beta  occ. eigenvalues --   -2.19461  -2.19450  -2.19111  -2.18759  -1.13816
  Beta  occ. eigenvalues --   -1.13791  -1.13766  -1.13724  -1.13712  -1.13702
  Beta  occ. eigenvalues --   -1.13305  -1.13294  -1.13274  -1.13204  -1.13179
  Beta  occ. eigenvalues --   -1.13147  -1.13140  -1.13107  -1.13100  -1.12804
  Beta  occ. eigenvalues --   -1.12760  -1.12727  -1.12461  -1.12410  -1.12374
  Beta  occ. eigenvalues --   -0.17915  -0.12925  -0.11826
  Beta virt. eigenvalues --   -0.07063  -0.05942  -0.05335  -0.03978  -0.02606
  Beta virt. eigenvalues --   -0.02086  -0.01820  -0.01611  -0.01130  -0.00286
  Beta virt. eigenvalues --   -0.00107   0.00075   0.00343   0.00782   0.00857

 Mulliken charges and spin densities:
               1          2
     1  Na   0.325091   0.058747
     2  Na   0.091468  -0.033453
     3  Na  -0.003494  -0.139269
     4  Na  -0.382067   0.630417
     5  Na   0.093747  -0.051332
     6  Na  -0.366602   0.614365
     7  Na   0.241857  -0.079475
 Sum of Mulliken charges =  -0.00000   1.00000

 Dipole moment (field-independent basis, Debye):
    X=              0.2333    Y=             -0.1313    Z=              0.0233  Tot=              0.2687
 Quadrupole moment (field-independent basis, Debye-Ang):
   XX=            -52.7775   YY=            -67.6315   ZZ=            -73.0035
   XY=              0.2664   XZ=              1.5022   YZ=             -0.1397

 Normal termination of Gaussian 16 at Tue Dec  5 10:04:42 2023.
