 Gaussian 16, Revision B.01,
 Gaussian 16:  ES64L-G16RevB.01 20-Dec-2017

 -------------------------
 #P B3LYP/6-311+g(d) force
 -------------------------

 -----
 DPGEN
 -----
 Symbolic Z-matrix:
 Charge =  0 Multiplicity = 2

                         Standard orientation:
 ---------------------------------------------------------------------
 Center     Atomic      Atomic             Coordinates (Angstroms)
 Number     Number       Type             X           Y           Z
 ---------------------------------------------------------------------
      1         11           0       -2.212533    1.604375    0.379746
      2         11           0       -3.101482   -1.375208   -0.073031
      3         11           0        3.519472   -0.062517    0.193651
      4         11           0        0.223100    0.061485    1.977121
      5         11           0        0.070288   -0.220364   -1.927675
      6         11           0        0.662957    2.779809   -0.498723
      7         11           0        0.838197   -2.787581   -0.051091
 ---------------------------------------------------------------------

 SCF Done:  E(UB3LYP) =  -1136.13210557     A.U. after   20 cycles

 The electronic state is 2-A.
 Alpha  occ. eigenvalues --  -38.44996 -38.44125 -38.43917 -38.43639 -38.43620
 Alpha  occ. eigenvalues --  -38.43246 -38.43001  -2.20750  -2.19928  -2.19801
 Alpha  occ. eigenvalues --   -2.19544  -2.19440  -2.19167  -2.18862  -1.14429
 Alpha  occ. eigenvalues --   -1.14400  -1.14387  -1.13630  -1.13589  -1.13556
 Alpha  occ. eigenvalues --   -1.13480  -1.13441  -1.13418  -1.13239  -1.13206
 Alpha  occ. eigenvalues --   -1.13157  -1.13116  -1.13102  -1.13047  -1.12850
 Alpha  occ. eigenvalues --   -1.12824  -1.12817  -1.12540  -1.12511  -1.12494
 Alpha  occ. eigenvalues --   -0.18365  -0.12988  -0.12106  -0.10961
 Alpha virt. eigenvalues --   -0.06362  -0.04744  -0.04473  -0.03334  -0.02938
 Alpha virt. eigenvalues --   -0.02764  -0.02025  -0.00971  -0.00418  -0.00211
 Alpha virt. eigenvalues --   -0.00039   0.00323   0.00680   0.00770   0.00867

  Beta  occ. eigenvalues --  -38.44994 -38.44127 -38.43837 -38.43614 -38.43555
  Beta  occ. eigenvalues --  -38.43236 -38.42989  -2.20748  -2.19934  -2.19654
  Beta  occ. eigenvalues --   -2.19433  -2.19390  -2.19153  -2.18843  -1.14413
  Beta  occ. eigenvalues --   -1.14400  -1.14388  -1.13637  -1.13579  -1.13561
  Beta  occ. eigenvalues --   -1.13382  -1.13336  -1.13311  -1.13170  -1.13107
  Beta  occ. eigenvalues --   -1.13096  -1.13053  -1.13045  -1.13034  -1.12840
  Beta  occ. eigenvalues --   -1.12816  -1.12783  -1.12522  -1.12489  -1.12477
  Beta  occ. eigenvalues --   -0.17611  -0.12782  -0.11865
  Beta virt. eigenvalues --   -0.07069  -0.06302  -0.04707  -0.04418  -0.02578
  Beta virt. eigenvalues --   -0.02192  -0.01921  -0.01734  -0.00891  -0.00467
  Beta virt. eigenvalues --   -0.00198   0.00065   0.00342   0.00789   0.00828

 Mulliken charges and spin densities:
               1          2
     1  Na   0.288901   0.102966
     2  Na  -0.034295  -0.119288
     3  Na   0.030720  -0.092531
     4  Na  -0.169375   0.619948
     5  Na  -0.165447   0.664257
     6  Na   0.056419  -0.020480
     7  Na  -0.006924  -0.154873
 Sum of Mulliken charges =  -0.00000   1.00000

 Dipole moment (field-independent basis, Debye):
    X=              0.6542    Y=             -0.3488    Z=              0.0727  Tot=              0.7450
 Quadrupole moment (field-independent basis, Debye-Ang):
   XX=            -54.1405   YY=            -66.3163   ZZ=            -73.2273
   XY=              1.5308   XZ=             -0.0649   YZ=             -0.5456

 Normal termination of Gaussian 16 at Tue Dec  5 11:24:16 2023.
