 Gaussian 16, Revision B.01,
 Gaussian 16:  ES64L-G16RevB.01 20-Dec-2017

 -------------------------
 #P B3LYP/6-311+g(d) force
 -------------------------

 -----
 DPGEN
 -----
 Symbolic Z-matrix:
 Charge =  0 Multiplicity = 2

                         Standard orientation:
 ---------------------------------------------------------------------
 Center     Atomic      Atomic             Coordinates (Angstroms)
 Number     Number       Type             X           Y           Z
 ---------------------------------------------------------------------
      1         11           0        0.317597    0.207622    2.117229
      2         11           0       -2.866512    1.185299   -0.178135
      3         11           0       -2.108118   -1.650615    0.240623
      4         11           0        0.178056   -0.438072   -1.816044
      5         11           0        1.037645   -2.559138   -0.045943
      6         11           0        0.453924    2.817545   -0.254364
      7         11           0        2.987407    0.437359   -0.063365
 ---------------------------------------------------------------------

 SCF Done:  E(UB3LYP) =  -1136.13453503     A.U. after   19 cycles

 The electronic state is 2-A.
 Alpha  occ. eigenvalues --  -38.43930 -38.43889 -38.43764 -38.43603 -38.43401
 Alpha  occ. eigenvalues --  -38.43332 -38.43190  -2.19791  -2.19786  -2.19616
 Alpha  occ. eigenvalues --   -2.19599  -2.19274  -2.19237  -2.19126  -1.13487
 Alpha  occ. eigenvalues --   -1.13473  -1.13441  -1.13425  -1.13409  -1.13397
 Alpha  occ. eigenvalues --   -1.13377  -1.13364  -1.13267  -1.13246  -1.13227
 Alpha  occ. eigenvalues --   -1.13209  -1.12940  -1.12920  -1.12912  -1.12909
 Alpha  occ. eigenvalues --   -1.12907  -1.12865  -1.12798  -1.12762  -1.12727
 Alpha  occ. eigenvalues --   -0.19062  -0.13132  -0.12503  -0.11240
 Alpha virt. eigenvalues --   -0.05561  -0.04755  -0.04610  -0.03410  -0.03160
 Alpha virt. eigenvalues --   -0.02845  -0.01342  -0.00878  -0.00161  -0.00074
 Alpha virt. eigenvalues --    0.00038   0.00381   0.00881   0.00954   0.00970

  Beta  occ. eigenvalues --  -38.43925 -38.43794 -38.43764 -38.43531 -38.43396
  Beta  occ. eigenvalues --  -38.43324 -38.43181  -2.19784  -2.19618  -2.19611
  Beta  occ. eigenvalues --   -2.19467  -2.19263  -2.19230  -2.19116  -1.13471
  Beta  occ. eigenvalues --   -1.13437  -1.13423  -1.13382  -1.13333  -1.13287
  Beta  occ. eigenvalues --   -1.13284  -1.13280  -1.13250  -1.13245  -1.13140
  Beta  occ. eigenvalues --   -1.13118  -1.12932  -1.12912  -1.12905  -1.12884
  Beta  occ. eigenvalues --   -1.12875  -1.12864  -1.12779  -1.12725  -1.12723
  Beta  occ. eigenvalues --   -0.18290  -0.12903  -0.12259
  Beta virt. eigenvalues --   -0.07268  -0.05536  -0.04757  -0.04531  -0.02582
  Beta virt. eigenvalues --   -0.02328  -0.01805  -0.01272  -0.00819  -0.00209
  Beta virt. eigenvalues --   -0.00025   0.00094   0.00401   0.00907   0.00950

 Mulliken charges and spin densities:
               1          2
     1  Na  -0.580260   0.643399
     2  Na  -0.109744  -0.102028
     3  Na   0.265842   0.071217
     4  Na  -0.467834   0.522222
     5  Na   0.608353   0.028396
     6  Na   0.001990  -0.082684
     7  Na   0.281653  -0.080522
 Sum of Mulliken charges =  -0.00000   1.00000

 Dipole moment (field-independent basis, Debye):
    X=              0.3046    Y=              0.2477    Z=              0.1431  Tot=              0.4179
 Quadrupole moment (field-independent basis, Debye-Ang):
   XX=            -59.2442   YY=            -64.9895   ZZ=            -71.3757
   XY=             -0.6702   XZ=             -0.0721   YZ=             -1.4782

 Normal termination of Gaussian 16 at Thu Dec  7 23:37:02 2023.
