 Gaussian 16, Revision B.01,
 Gaussian 16:  ES64L-G16RevB.01 20-Dec-2017

 -------------------------
 #P B3LYP/6-311+g(d) force
 -------------------------

 -----
 DPGEN
 -----
 Symbolic Z-matrix:
 Charge =  0 Multiplicity = 2

                         Standard orientation:
 ---------------------------------------------------------------------
 Center     Atomic      Atomic             Coordinates (Angstroms)
 Number     Number       Type             X           Y           Z
 ---------------------------------------------------------------------
      1         11           0       -1.761385    1.737834   -0.287199
      2         11           0        1.413898    1.791437   -1.448913
      3         11           0        0.060022   -1.190111   -0.467174
      4         11           0        1.640826    0.708531    1.362143
      5         11           0       -3.100096   -1.446176   -0.997935
      6         11           0       -1.596995   -0.062479    2.005238
      7         11           0        3.343730   -1.539036   -0.166159
 ---------------------------------------------------------------------

 SCF Done:  E(UB3LYP) =  -1136.12092256     A.U. after   24 cycles

 The electronic state is 2-A.
 Alpha  occ. eigenvalues --  -38.44286 -38.43854 -38.43831 -38.43704 -38.43423
 Alpha  occ. eigenvalues --  -38.43400 -38.43110  -2.20259  -2.19720  -2.19707
 Alpha  occ. eigenvalues --   -2.19669  -2.19349  -2.19334  -2.19156  -1.13985
 Alpha  occ. eigenvalues --   -1.13939  -1.13824  -1.13480  -1.13427  -1.13390
 Alpha  occ. eigenvalues --   -1.13384  -1.13357  -1.13335  -1.13328  -1.13310
 Alpha  occ. eigenvalues --   -1.13246  -1.13059  -1.13045  -1.12996  -1.12986
 Alpha  occ. eigenvalues --   -1.12945  -1.12895  -1.12887  -1.12804  -1.12751
 Alpha  occ. eigenvalues --   -0.19352  -0.14096  -0.11585  -0.11263
 Alpha virt. eigenvalues --   -0.06025  -0.05209  -0.04455  -0.03244  -0.02519
 Alpha virt. eigenvalues --   -0.02301  -0.01935  -0.01061  -0.00569   0.00201
 Alpha virt. eigenvalues --    0.00214   0.00398   0.00588   0.00701   0.00783

  Beta  occ. eigenvalues --  -38.44209 -38.43836 -38.43828 -38.43669 -38.43386
  Beta  occ. eigenvalues --  -38.43384 -38.43089  -2.20119  -2.19680  -2.19660
  Beta  occ. eigenvalues --   -2.19658  -2.19329  -2.19262  -2.19124  -1.13900
  Beta  occ. eigenvalues --   -1.13836  -1.13712  -1.13449  -1.13377  -1.13355
  Beta  occ. eigenvalues --   -1.13350  -1.13338  -1.13320  -1.13310  -1.13300
  Beta  occ. eigenvalues --   -1.13218  -1.13032  -1.13006  -1.12949  -1.12937
  Beta  occ. eigenvalues --   -1.12920  -1.12857  -1.12835  -1.12769  -1.12731
  Beta  occ. eigenvalues --   -0.18570  -0.13926  -0.11019
  Beta virt. eigenvalues --   -0.07532  -0.05839  -0.05081  -0.03827  -0.02920
  Beta virt. eigenvalues --   -0.02066  -0.01861  -0.01491  -0.00912  -0.00208
  Beta virt. eigenvalues --    0.00231   0.00270   0.00432   0.00685   0.00795

 Mulliken charges and spin densities:
               1          2
     1  Na   0.058857   0.420424
     2  Na  -0.183907   0.017489
     3  Na  -2.626972   0.655465
     4  Na   0.446455   0.172295
     5  Na   1.082380  -0.182373
     6  Na   0.279861   0.054312
     7  Na   0.943326  -0.137613
 Sum of Mulliken charges =  -0.00000   1.00000

 Dipole moment (field-independent basis, Debye):
    X=             -0.0793    Y=              0.1798    Z=             -0.0407  Tot=              0.2007
 Quadrupole moment (field-independent basis, Debye-Ang):
   XX=            -52.0557   YY=            -74.7570   ZZ=            -66.5127
   XY=             -0.2786   XZ=             -0.4751   YZ=              0.3399

 Normal termination of Gaussian 16 at Tue Nov 28 23:19:58 2023.
