 Gaussian 16, Revision B.01,
 Gaussian 16:  ES64L-G16RevB.01 20-Dec-2017

 -------------------------
 #P B3LYP/6-311+g(d) force
 -------------------------

 -----
 DPGEN
 -----
 Symbolic Z-matrix:
 Charge =  0 Multiplicity = 2

                         Standard orientation:
 ---------------------------------------------------------------------
 Center     Atomic      Atomic             Coordinates (Angstroms)
 Number     Number       Type             X           Y           Z
 ---------------------------------------------------------------------
      1         11           0       -3.231935    0.031824   -0.180233
      2         11           0       -3.246324   -3.246015    0.173331
      3         11           0        4.011659   -1.298423    0.219786
      4         11           0       -2.801855    3.679685   -0.128064
      5         11           0        5.906049    0.908554   -0.196341
      6         11           0       -0.237458   -1.919201   -0.344897
      7         11           0       -0.400136    1.843575    0.456418
 ---------------------------------------------------------------------

 SCF Done:  E(UB3LYP) =  -1136.11905240     A.U. after   19 cycles

 The electronic state is 2-A.
 Alpha  occ. eigenvalues --  -38.44629 -38.44490 -38.44425 -38.43965 -38.43818
 Alpha  occ. eigenvalues --  -38.43597 -38.43570  -2.20483  -2.20358  -2.20253
 Alpha  occ. eigenvalues --   -2.19805  -2.19661  -2.19430  -2.19373  -1.14169
 Alpha  occ. eigenvalues --   -1.14162  -1.14142  -1.14059  -1.14049  -1.13951
 Alpha  occ. eigenvalues --   -1.13904  -1.13902  -1.13861  -1.13467  -1.13456
 Alpha  occ. eigenvalues --   -1.13444  -1.13342  -1.13331  -1.13253  -1.13247
 Alpha  occ. eigenvalues --   -1.13069  -1.13065  -1.13025  -1.13010  -1.12934
 Alpha  occ. eigenvalues --   -0.16966  -0.13424  -0.13143  -0.10536
 Alpha virt. eigenvalues --   -0.06128  -0.05622  -0.04603  -0.03812  -0.02744
 Alpha virt. eigenvalues --   -0.02248  -0.02103  -0.01898  -0.01120  -0.00977
 Alpha virt. eigenvalues --   -0.00243  -0.00011   0.00315   0.00483   0.00626

  Beta  occ. eigenvalues --  -38.44601 -38.44462 -38.44414 -38.43936 -38.43766
  Beta  occ. eigenvalues --  -38.43577 -38.43551  -2.20433  -2.20308  -2.20234
  Beta  occ. eigenvalues --   -2.19750  -2.19566  -2.19396  -2.19340  -1.14138
  Beta  occ. eigenvalues --   -1.14129  -1.14096  -1.14029  -1.13999  -1.13914
  Beta  occ. eigenvalues --   -1.13891  -1.13880  -1.13845  -1.13422  -1.13420
  Beta  occ. eigenvalues --   -1.13407  -1.13279  -1.13264  -1.13215  -1.13175
  Beta  occ. eigenvalues --   -1.13060  -1.13035  -1.12992  -1.12988  -1.12898
  Beta  occ. eigenvalues --   -0.16363  -0.13147  -0.12734
  Beta virt. eigenvalues --   -0.07103  -0.05877  -0.05187  -0.04283  -0.03433
  Beta virt. eigenvalues --   -0.02407  -0.02137  -0.01980  -0.01758  -0.00896
  Beta virt. eigenvalues --   -0.00505   0.00044   0.00235   0.00400   0.00639

 Mulliken charges and spin densities:
               1          2
     1  Na  -0.761380   0.409075
     2  Na   1.490398   0.215793
     3  Na  -0.633841  -0.098472
     4  Na   1.473316   0.119179
     5  Na   0.300248   0.222463
     6  Na  -0.862674   0.093630
     7  Na  -1.006067   0.038331
 Sum of Mulliken charges =  -0.00000   1.00000

 Dipole moment (field-independent basis, Debye):
    X=             -1.8487    Y=              0.9334    Z=              0.0237  Tot=              2.0711
 Quadrupole moment (field-independent basis, Debye-Ang):
   XX=            -72.1235   YY=            -53.4233   ZZ=            -73.1883
   XY=              1.6772   XZ=             -0.1846   YZ=             -1.5787

 Normal termination of Gaussian 16 at Wed Nov 29 03:25:17 2023.
