 Gaussian 16, Revision B.01,
 Gaussian 16:  ES64L-G16RevB.01 20-Dec-2017

 -------------------------
 #P B3LYP/6-311+g(d) force
 -------------------------

 -----
 DPGEN
 -----
 Symbolic Z-matrix:
 Charge =  0 Multiplicity = 2

                         Standard orientation:
 ---------------------------------------------------------------------
 Center     Atomic      Atomic             Coordinates (Angstroms)
 Number     Number       Type             X           Y           Z
 ---------------------------------------------------------------------
      1         11           0       -0.742705    0.433910    2.137022
      2         11           0        3.253565   -0.451550   -0.270452
      3         11           0        0.136468   -0.076293   -1.425707
      4         11           0       -2.389699   -1.782762   -0.565348
      5         11           0        1.412326    2.799546   -0.039081
      6         11           0       -2.485308    1.714766   -0.373408
      7         11           0        0.815353   -2.637618    0.536974
 ---------------------------------------------------------------------

 SCF Done:  E(UB3LYP) =  -1136.13630024     A.U. after   20 cycles

 The electronic state is 2-A.
 Alpha  occ. eigenvalues --  -38.43999 -38.43920 -38.43830 -38.43658 -38.43651
 Alpha  occ. eigenvalues --  -38.43210 -38.42970  -2.19822  -2.19777  -2.19623
 Alpha  occ. eigenvalues --   -2.19533  -2.19523  -2.19080  -2.18995  -1.13506
 Alpha  occ. eigenvalues --   -1.13486  -1.13466  -1.13459  -1.13455  -1.13400
 Alpha  occ. eigenvalues --   -1.13307  -1.13291  -1.13250  -1.13234  -1.13186
 Alpha  occ. eigenvalues --   -1.13171  -1.13162  -1.13150  -1.13137  -1.12787
 Alpha  occ. eigenvalues --   -1.12738  -1.12712  -1.12674  -1.12629  -1.12619
 Alpha  occ. eigenvalues --   -0.18562  -0.13072  -0.12381  -0.10758
 Alpha virt. eigenvalues --   -0.05725  -0.05183  -0.04625  -0.03192  -0.02897
 Alpha virt. eigenvalues --   -0.02524  -0.01500  -0.01208  -0.00455  -0.00268
 Alpha virt. eigenvalues --    0.00001   0.00344   0.00785   0.00825   0.00905

  Beta  occ. eigenvalues --  -38.43999 -38.43911 -38.43829 -38.43635 -38.43560
  Beta  occ. eigenvalues --  -38.43199 -38.42921  -2.19823  -2.19764  -2.19624
  Beta  occ. eigenvalues --   -2.19498  -2.19351  -2.19061  -2.18908  -1.13502
  Beta  occ. eigenvalues --   -1.13480  -1.13459  -1.13458  -1.13424  -1.13387
  Beta  occ. eigenvalues --   -1.13299  -1.13287  -1.13250  -1.13210  -1.13140
  Beta  occ. eigenvalues --   -1.13128  -1.13064  -1.13042  -1.13008  -1.12770
  Beta  occ. eigenvalues --   -1.12708  -1.12697  -1.12613  -1.12563  -1.12556
  Beta  occ. eigenvalues --   -0.17861  -0.12831  -0.12173
  Beta virt. eigenvalues --   -0.06816  -0.05715  -0.05113  -0.04532  -0.02480
  Beta virt. eigenvalues --   -0.02177  -0.01506  -0.01387  -0.01149  -0.00472
  Beta virt. eigenvalues --   -0.00250   0.00150   0.00395   0.00807   0.00900

 Mulliken charges and spin densities:
               1          2
     1  Na  -0.483150   0.709123
     2  Na   0.065569  -0.014397
     3  Na  -0.030446   0.156592
     4  Na   0.296205   0.098335
     5  Na  -0.082304  -0.062618
     6  Na   0.227335  -0.014811
     7  Na   0.006791   0.127776
 Sum of Mulliken charges =  -0.00000   1.00000

 Dipole moment (field-independent basis, Debye):
    X=              0.0217    Y=              0.2520    Z=              0.1374  Tot=              0.2878
 Quadrupole moment (field-independent basis, Debye-Ang):
   XX=            -56.4529   YY=            -62.5094   ZZ=            -74.1049
   XY=              0.1428   XZ=              1.5327   YZ=             -0.8416

 Normal termination of Gaussian 16 at Thu Dec  7 22:41:19 2023.
