 Gaussian 16, Revision B.01,
 Gaussian 16:  ES64L-G16RevB.01 20-Dec-2017

 -------------------------
 #P B3LYP/6-311+g(d) force
 -------------------------

 -----
 DPGEN
 -----
 Symbolic Z-matrix:
 Charge =  0 Multiplicity = 2

                         Standard orientation:
 ---------------------------------------------------------------------
 Center     Atomic      Atomic             Coordinates (Angstroms)
 Number     Number       Type             X           Y           Z
 ---------------------------------------------------------------------
      1         11           0       -1.497412    2.980524    0.206416
      2         11           0       -3.177849   -1.181189   -0.239592
      3         11           0       -0.651867   -0.434600    2.083632
      4         11           0        0.425482   -2.699444   -0.728200
      5         11           0       -0.131702    0.175073   -1.558998
      6         11           0        2.129090    2.283540   -0.416561
      7         11           0        2.904259   -1.123904    0.653303
 ---------------------------------------------------------------------

 SCF Done:  E(UB3LYP) =  -1136.13180929     A.U. after   20 cycles

 The electronic state is 2-A.
 Alpha  occ. eigenvalues --  -38.44297 -38.44234 -38.43870 -38.43831 -38.43674
 Alpha  occ. eigenvalues --  -38.43593 -38.43206  -2.20063  -2.20020  -2.19677
 Alpha  occ. eigenvalues --   -2.19675  -2.19562  -2.19421  -2.19175  -1.13745
 Alpha  occ. eigenvalues --   -1.13723  -1.13699  -1.13697  -1.13676  -1.13663
 Alpha  occ. eigenvalues --   -1.13378  -1.13344  -1.13338  -1.13318  -1.13310
 Alpha  occ. eigenvalues --   -1.13295  -1.13291  -1.13225  -1.13181  -1.13080
 Alpha  occ. eigenvalues --   -1.13063  -1.13057  -1.12850  -1.12812  -1.12792
 Alpha  occ. eigenvalues --   -0.18128  -0.12573  -0.12542  -0.10736
 Alpha virt. eigenvalues --   -0.05951  -0.05293  -0.04604  -0.03217  -0.02990
 Alpha virt. eigenvalues --   -0.02582  -0.01595  -0.01370  -0.00549  -0.00302
 Alpha virt. eigenvalues --    0.00003   0.00353   0.00732   0.00759   0.00817

  Beta  occ. eigenvalues --  -38.44296 -38.44234 -38.43866 -38.43745 -38.43652
  Beta  occ. eigenvalues --  -38.43581 -38.43145  -2.20064  -2.20022  -2.19670
  Beta  occ. eigenvalues --   -2.19527  -2.19517  -2.19400  -2.19065  -1.13737
  Beta  occ. eigenvalues --   -1.13724  -1.13696  -1.13688  -1.13679  -1.13657
  Beta  occ. eigenvalues --   -1.13366  -1.13328  -1.13295  -1.13285  -1.13235
  Beta  occ. eigenvalues --   -1.13204  -1.13187  -1.13173  -1.13155  -1.13058
  Beta  occ. eigenvalues --   -1.13045  -1.13038  -1.12777  -1.12725  -1.12713
  Beta  occ. eigenvalues --   -0.17419  -0.12366  -0.12333
  Beta virt. eigenvalues --   -0.06856  -0.05960  -0.05119  -0.04536  -0.02501
  Beta virt. eigenvalues --   -0.02344  -0.01618  -0.01471  -0.01276  -0.00529
  Beta virt. eigenvalues --   -0.00294   0.00130   0.00397   0.00764   0.00821

 Mulliken charges and spin densities:
               1          2
     1  Na  -0.130873  -0.054320
     2  Na  -0.029520  -0.078493
     3  Na  -0.339442   0.732692
     4  Na   0.295091   0.098748
     5  Na   0.302686   0.170477
     6  Na   0.024404   0.013129
     7  Na  -0.122345   0.117768
 Sum of Mulliken charges =  -0.00000   1.00000

 Dipole moment (field-independent basis, Debye):
    X=             -0.4791    Y=              0.2330    Z=              0.1901  Tot=              0.5657
 Quadrupole moment (field-independent basis, Debye-Ang):
   XX=            -57.1292   YY=            -61.6309   ZZ=            -74.2978
   XY=              0.0915   XZ=              1.2930   YZ=              1.3827

 Normal termination of Gaussian 16 at Thu Dec  7 03:02:30 2023.
