 Gaussian 16, Revision B.01,
 Gaussian 16:  ES64L-G16RevB.01 20-Dec-2017

 -------------------------
 #P B3LYP/6-311+g(d) force
 -------------------------

 -----
 DPGEN
 -----
 Symbolic Z-matrix:
 Charge =  0 Multiplicity = 2

                         Standard orientation:
 ---------------------------------------------------------------------
 Center     Atomic      Atomic             Coordinates (Angstroms)
 Number     Number       Type             X           Y           Z
 ---------------------------------------------------------------------
      1         11           0        3.114510    0.992388   -1.716288
      2         11           0       -1.914763   -1.915668   -1.490123
      3         11           0        0.374830    0.280468   -0.099249
      4         11           0       -0.930337   -1.949844    1.865129
      5         11           0       -0.626730    2.936339    1.494322
      6         11           0       -3.081564    0.941262   -0.873129
      7         11           0        3.064054   -1.284945    0.819338
 ---------------------------------------------------------------------

 SCF Done:  E(UB3LYP) =  -1136.12041172     A.U. after   23 cycles

 The electronic state is 2-A.
 Alpha  occ. eigenvalues --  -38.44683 -38.44378 -38.44349 -38.43936 -38.43643
 Alpha  occ. eigenvalues --  -38.43099 -38.42554  -2.20485  -2.20203  -2.20173
 Alpha  occ. eigenvalues --   -2.19767  -2.19515  -2.18900  -2.18592  -1.14177
 Alpha  occ. eigenvalues --   -1.14154  -1.14112  -1.13876  -1.13869  -1.13838
 Alpha  occ. eigenvalues --   -1.13835  -1.13814  -1.13789  -1.13458  -1.13399
 Alpha  occ. eigenvalues --   -1.13385  -1.13188  -1.13169  -1.13126  -1.12588
 Alpha  occ. eigenvalues --   -1.12545  -1.12518  -1.12335  -1.12247  -1.12211
 Alpha  occ. eigenvalues --   -0.17629  -0.13641  -0.11407  -0.11084
 Alpha virt. eigenvalues --   -0.05926  -0.05184  -0.04450  -0.03404  -0.03078
 Alpha virt. eigenvalues --   -0.02110  -0.01861  -0.01107  -0.00709  -0.00241
 Alpha virt. eigenvalues --   -0.00004   0.00221   0.00290   0.00746   0.00808

  Beta  occ. eigenvalues --  -38.44686 -38.44334 -38.44326 -38.43887 -38.43611
  Beta  occ. eigenvalues --  -38.43061 -38.42538  -2.20493  -2.20134  -2.20119
  Beta  occ. eigenvalues --   -2.19677  -2.19457  -2.18828  -2.18569  -1.14183
  Beta  occ. eigenvalues --   -1.14160  -1.14096  -1.13834  -1.13818  -1.13814
  Beta  occ. eigenvalues --   -1.13781  -1.13761  -1.13748  -1.13393  -1.13339
  Beta  occ. eigenvalues --   -1.13319  -1.13149  -1.13128  -1.13078  -1.12537
  Beta  occ. eigenvalues --   -1.12494  -1.12474  -1.12259  -1.12245  -1.12204
  Beta  occ. eigenvalues --   -0.17017  -0.13188  -0.11089
  Beta virt. eigenvalues --   -0.07583  -0.05751  -0.04769  -0.04068  -0.03142
  Beta virt. eigenvalues --   -0.02610  -0.01805  -0.01536  -0.00890  -0.00410
  Beta virt. eigenvalues --   -0.00051   0.00159   0.00311   0.00347   0.00765

 Mulliken charges and spin densities:
               1          2
     1  Na   0.775933  -0.027433
     2  Na   0.152212   0.061055
     3  Na  -3.376443   0.817269
     4  Na   0.772513   0.221899
     5  Na   0.434196  -0.030731
     6  Na   0.825029   0.232424
     7  Na   0.416560  -0.274483
 Sum of Mulliken charges =  -0.00000   1.00000

 Dipole moment (field-independent basis, Debye):
    X=              0.5588    Y=             -0.5388    Z=             -0.1041  Tot=              0.7832
 Quadrupole moment (field-independent basis, Debye-Ang):
   XX=            -57.0421   YY=            -70.8371   ZZ=            -64.0673
   XY=             -0.4242   XZ=              0.1783   YZ=             -1.6927

 Normal termination of Gaussian 16 at Tue Dec  5 18:04:49 2023.
