 Gaussian 16, Revision B.01,
 Gaussian 16:  ES64L-G16RevB.01 20-Dec-2017

 -------------------------
 #P B3LYP/6-311+g(d) force
 -------------------------

 -----
 DPGEN
 -----
 Symbolic Z-matrix:
 Charge =  0 Multiplicity = 2

                         Standard orientation:
 ---------------------------------------------------------------------
 Center     Atomic      Atomic             Coordinates (Angstroms)
 Number     Number       Type             X           Y           Z
 ---------------------------------------------------------------------
      1         11           0        0.402385   -0.129962    2.409300
      2         11           0        0.138787    2.120643    0.420865
      3         11           0        2.639629    1.684101   -0.920396
      4         11           0        3.002697   -1.324341   -1.177852
      5         11           0        0.289418   -2.278786    0.189194
      6         11           0       -2.049113   -0.155089    0.340590
      7         11           0       -4.423801    0.083436   -1.261701
 ---------------------------------------------------------------------

 SCF Done:  E(UB3LYP) =  -1136.10353647     A.U. after   30 cycles

 The electronic state is 2-A.
 Alpha  occ. eigenvalues --  -38.45631 -38.45490 -38.44206 -38.43700 -38.43533
 Alpha  occ. eigenvalues --  -38.43239 -38.42897  -2.21589  -2.21334  -2.20074
 Alpha  occ. eigenvalues --   -2.19606  -2.19539  -2.19205  -2.18816  -1.15278
 Alpha  occ. eigenvalues --   -1.15215  -1.15202  -1.15043  -1.14941  -1.14932
 Alpha  occ. eigenvalues --   -1.13776  -1.13728  -1.13703  -1.13378  -1.13284
 Alpha  occ. eigenvalues --   -1.13240  -1.13229  -1.13196  -1.13181  -1.12883
 Alpha  occ. eigenvalues --   -1.12836  -1.12798  -1.12504  -1.12480  -1.12446
 Alpha  occ. eigenvalues --   -0.18714  -0.14230  -0.12380  -0.11702
 Alpha virt. eigenvalues --   -0.06203  -0.04884  -0.04716  -0.03510  -0.02727
 Alpha virt. eigenvalues --   -0.02646  -0.02103  -0.01222  -0.00600  -0.00075
 Alpha virt. eigenvalues --    0.00131   0.00177   0.00559   0.00631   0.00809

  Beta  occ. eigenvalues --  -38.45547 -38.45398 -38.44164 -38.43681 -38.43521
  Beta  occ. eigenvalues --  -38.43228 -38.42894  -2.21439  -2.21165  -2.19998
  Beta  occ. eigenvalues --   -2.19572  -2.19530  -2.19189  -2.18814  -1.15171
  Beta  occ. eigenvalues --   -1.15105  -1.15101  -1.14928  -1.14826  -1.14818
  Beta  occ. eigenvalues --   -1.13717  -1.13677  -1.13653  -1.13357  -1.13231
  Beta  occ. eigenvalues --   -1.13210  -1.13205  -1.13187  -1.13159  -1.12849
  Beta  occ. eigenvalues --   -1.12824  -1.12794  -1.12493  -1.12477  -1.12441
  Beta  occ. eigenvalues --   -0.18077  -0.13194  -0.11625
  Beta virt. eigenvalues --   -0.08881  -0.05696  -0.04589  -0.04229  -0.03471
  Beta virt. eigenvalues --   -0.02281  -0.02146  -0.01678  -0.00770  -0.00493
  Beta virt. eigenvalues --    0.00090   0.00203   0.00276   0.00640   0.00673

 Mulliken charges and spin densities:
               1          2
     1  Na   3.922153  -0.267449
     2  Na  -0.671598   0.167604
     3  Na  -0.138693   0.015873
     4  Na   0.044165   0.128823
     5  Na  -0.559717   0.040467
     6  Na  -0.164447   1.067297
     7  Na  -2.431865  -0.152615
 Sum of Mulliken charges =  -0.00000   1.00000

 Dipole moment (field-independent basis, Debye):
    X=             -0.5402    Y=             -0.1753    Z=              0.1862  Tot=              0.5977
 Quadrupole moment (field-independent basis, Debye-Ang):
   XX=            -57.2461   YY=            -77.1139   ZZ=            -61.9662
   XY=             -1.0290   XZ=              3.9256   YZ=              0.3432

 Normal termination of Gaussian 16 at Fri Dec  8 19:20:05 2023.
