 Gaussian 16, Revision B.01,
 Gaussian 16:  ES64L-G16RevB.01 20-Dec-2017

 -------------------------
 #P B3LYP/6-311+g(d) force
 -------------------------

 -----
 DPGEN
 -----
 Symbolic Z-matrix:
 Charge =  0 Multiplicity = 2

                         Standard orientation:
 ---------------------------------------------------------------------
 Center     Atomic      Atomic             Coordinates (Angstroms)
 Number     Number       Type             X           Y           Z
 ---------------------------------------------------------------------
      1         11           0       -0.323934    3.469764    1.136621
      2         11           0       -4.120115   -1.015830   -0.173814
      3         11           0       -2.537095    1.839316   -0.500727
      4         11           0        4.008182   -0.458901   -0.378188
      5         11           0        2.384352    2.176611   -0.700927
      6         11           0       -1.218496   -3.013333   -0.149961
      7         11           0        1.807107   -2.997625    0.766996
 ---------------------------------------------------------------------

 SCF Done:  E(UB3LYP) =  -1136.11607350     A.U. after   20 cycles

 The electronic state is 2-A.
 Alpha  occ. eigenvalues --  -38.44816 -38.44809 -38.44549 -38.44123 -38.44113
 Alpha  occ. eigenvalues --  -38.43833 -38.43740  -2.20628  -2.20619  -2.20351
 Alpha  occ. eigenvalues --   -2.19946  -2.19942  -2.19666  -2.19569  -1.14319
 Alpha  occ. eigenvalues --   -1.14305  -1.14295  -1.14294  -1.14279  -1.14257
 Alpha  occ. eigenvalues --   -1.14046  -1.14024  -1.13990  -1.13614  -1.13604
 Alpha  occ. eigenvalues --   -1.13599  -1.13594  -1.13589  -1.13543  -1.13328
 Alpha  occ. eigenvalues --   -1.13307  -1.13294  -1.13225  -1.13213  -1.13199
 Alpha  occ. eigenvalues --   -0.16102  -0.14013  -0.13715  -0.10831
 Alpha virt. eigenvalues --   -0.07022  -0.04926  -0.03941  -0.03788  -0.03260
 Alpha virt. eigenvalues --   -0.02431  -0.02230  -0.01583  -0.01330  -0.00751
 Alpha virt. eigenvalues --   -0.00185   0.00046   0.00171   0.00615   0.00691

  Beta  occ. eigenvalues --  -38.44800 -38.44783 -38.44525 -38.44082 -38.44072
  Beta  occ. eigenvalues --  -38.43786 -38.43687  -2.20606  -2.20578  -2.20314
  Beta  occ. eigenvalues --   -2.19874  -2.19870  -2.19579  -2.19472  -1.14306
  Beta  occ. eigenvalues --   -1.14286  -1.14274  -1.14272  -1.14221  -1.14196
  Beta  occ. eigenvalues --   -1.14011  -1.14005  -1.13937  -1.13558  -1.13553
  Beta  occ. eigenvalues --   -1.13549  -1.13546  -1.13536  -1.13486  -1.13267
  Beta  occ. eigenvalues --   -1.13247  -1.13239  -1.13156  -1.13146  -1.13139
  Beta  occ. eigenvalues --   -0.15586  -0.13251  -0.12927
  Beta virt. eigenvalues --   -0.07591  -0.07197  -0.04627  -0.03604  -0.03417
  Beta virt. eigenvalues --   -0.02769  -0.02187  -0.01950  -0.01471  -0.01150
  Beta virt. eigenvalues --   -0.00455   0.00078   0.00286   0.00321   0.00588

 Mulliken charges and spin densities:
               1          2
     1  Na   0.351129   0.193386
     2  Na   0.276139   0.273524
     3  Na  -0.355182   0.089775
     4  Na   0.278572   0.108080
     5  Na  -0.179467   0.134893
     6  Na  -0.369005   0.074675
     7  Na  -0.002186   0.125666
 Sum of Mulliken charges =  -0.00000   1.00000

 Dipole moment (field-independent basis, Debye):
    X=              0.0925    Y=              0.2350    Z=              0.1245  Tot=              0.2815
 Quadrupole moment (field-independent basis, Debye-Ang):
   XX=            -64.0308   YY=            -67.1281   ZZ=            -69.7345
   XY=             -0.7330   XZ=              0.9865   YZ=              0.0915

 Normal termination of Gaussian 16 at Sun Dec  3 15:55:16 2023.
