 Gaussian 16, Revision B.01,
 Gaussian 16:  ES64L-G16RevB.01 20-Dec-2017

 -------------------------
 #P B3LYP/6-311+g(d) force
 -------------------------

 -----
 DPGEN
 -----
 Symbolic Z-matrix:
 Charge =  0 Multiplicity = 2

                         Standard orientation:
 ---------------------------------------------------------------------
 Center     Atomic      Atomic             Coordinates (Angstroms)
 Number     Number       Type             X           Y           Z
 ---------------------------------------------------------------------
      1         11           0       -0.151797    1.811863    0.189575
      2         11           0        2.751123    3.602544   -0.388315
      3         11           0        2.543046    0.047411    0.834049
      4         11           0        3.068370   -2.844763   -1.002053
      5         11           0        0.432724   -2.303337    1.051760
      6         11           0       -2.918113   -0.650902   -0.828697
      7         11           0       -5.725352    0.337183    0.143682
 ---------------------------------------------------------------------

 SCF Done:  E(UB3LYP) =  -1136.11943762     A.U. after   19 cycles

 The electronic state is 2-A.
 Alpha  occ. eigenvalues --  -38.44474 -38.44292 -38.44261 -38.44188 -38.44019
 Alpha  occ. eigenvalues --  -38.43875 -38.43411  -2.20360  -2.20141  -2.20083
 Alpha  occ. eigenvalues --   -2.20017  -2.19808  -2.19687  -2.19216  -1.14107
 Alpha  occ. eigenvalues --   -1.14060  -1.13970  -1.13830  -1.13797  -1.13758
 Alpha  occ. eigenvalues --   -1.13737  -1.13731  -1.13709  -1.13706  -1.13675
 Alpha  occ. eigenvalues --   -1.13606  -1.13473  -1.13469  -1.13419  -1.13347
 Alpha  occ. eigenvalues --   -1.13323  -1.13321  -1.12897  -1.12886  -1.12858
 Alpha  occ. eigenvalues --   -0.17002  -0.13415  -0.12842  -0.10322
 Alpha virt. eigenvalues --   -0.06380  -0.05731  -0.04622  -0.03404  -0.02869
 Alpha virt. eigenvalues --   -0.02580  -0.01744  -0.01372  -0.01260  -0.00665
 Alpha virt. eigenvalues --   -0.00536  -0.00118   0.00339   0.00434   0.00469

  Beta  occ. eigenvalues --  -38.44467 -38.44269 -38.44210 -38.44168 -38.43998
  Beta  occ. eigenvalues --  -38.43804 -38.43417  -2.20352  -2.20100  -2.19987
  Beta  occ. eigenvalues --   -2.19981  -2.19768  -2.19555  -2.19233  -1.14071
  Beta  occ. eigenvalues --   -1.14051  -1.13966  -1.13804  -1.13773  -1.13705
  Beta  occ. eigenvalues --   -1.13687  -1.13681  -1.13671  -1.13663  -1.13619
  Beta  occ. eigenvalues --   -1.13572  -1.13446  -1.13440  -1.13395  -1.13265
  Beta  occ. eigenvalues --   -1.13233  -1.13230  -1.12914  -1.12902  -1.12823
  Beta  occ. eigenvalues --   -0.16439  -0.12845  -0.12603
  Beta virt. eigenvalues --   -0.07101  -0.05973  -0.05280  -0.04381  -0.03094
  Beta virt. eigenvalues --   -0.02709  -0.02313  -0.01569  -0.01186  -0.00905
  Beta virt. eigenvalues --   -0.00419  -0.00168   0.00148   0.00463   0.00519

 Mulliken charges and spin densities:
               1          2
     1  Na  -0.901671  -0.115498
     2  Na   0.825522   0.190605
     3  Na  -0.036487   0.262689
     4  Na   0.254701   0.310224
     5  Na  -0.109368   0.004369
     6  Na  -0.254112   0.033832
     7  Na   0.221415   0.313780
 Sum of Mulliken charges =   0.00000   1.00000

 Dipole moment (field-independent basis, Debye):
    X=              1.1987    Y=             -0.0962    Z=              0.0221  Tot=              1.2027
 Quadrupole moment (field-independent basis, Debye-Ang):
   XX=            -69.8545   YY=            -62.0217   ZZ=            -67.7951
   XY=              0.6127   XZ=             -4.3225   YZ=              0.3665

 Normal termination of Gaussian 16 at Tue Nov 28 18:55:42 2023.
