 Gaussian 16, Revision B.01,
 Gaussian 16:  ES64L-G16RevB.01 20-Dec-2017

 -------------------------
 #P B3LYP/6-311+g(d) force
 -------------------------

 -----
 DPGEN
 -----
 Symbolic Z-matrix:
 Charge =  0 Multiplicity = 2

                         Standard orientation:
 ---------------------------------------------------------------------
 Center     Atomic      Atomic             Coordinates (Angstroms)
 Number     Number       Type             X           Y           Z
 ---------------------------------------------------------------------
      1         11           0       -0.373006    2.941206    0.016584
      2         11           0       -2.158352   -2.575640   -0.123653
      3         11           0       -0.273978   -0.203166   -1.420329
      4         11           0        2.473624   -2.054435   -0.090331
      5         11           0        3.315991    1.092165   -0.304661
      6         11           0       -3.079131    0.987181   -0.126502
      7         11           0        0.094853   -0.187312    2.048892
 ---------------------------------------------------------------------

 SCF Done:  E(UB3LYP) =  -1136.13167895     A.U. after   20 cycles

 The electronic state is 2-A.
 Alpha  occ. eigenvalues --  -38.44571 -38.44423 -38.44234 -38.43692 -38.43393
 Alpha  occ. eigenvalues --  -38.43324 -38.43060  -2.20360  -2.20265  -2.20052
 Alpha  occ. eigenvalues --   -2.19497  -2.19347  -2.19192  -2.18894  -1.14032
 Alpha  occ. eigenvalues --   -1.14027  -1.14000  -1.13954  -1.13926  -1.13892
 Alpha  occ. eigenvalues --   -1.13723  -1.13711  -1.13687  -1.13190  -1.13154
 Alpha  occ. eigenvalues --   -1.13140  -1.13056  -1.12988  -1.12963  -1.12859
 Alpha  occ. eigenvalues --   -1.12809  -1.12803  -1.12571  -1.12554  -1.12536
 Alpha  occ. eigenvalues --   -0.18175  -0.13447  -0.11962  -0.10241
 Alpha virt. eigenvalues --   -0.06084  -0.05793  -0.04550  -0.03192  -0.02481
 Alpha virt. eigenvalues --   -0.02255  -0.01977  -0.01470  -0.00804  -0.00526
 Alpha virt. eigenvalues --   -0.00032   0.00277   0.00666   0.00739   0.00832

  Beta  occ. eigenvalues --  -38.44562 -38.44417 -38.44230 -38.43690 -38.43354
  Beta  occ. eigenvalues --  -38.43215 -38.43057  -2.20346  -2.20257  -2.20047
  Beta  occ. eigenvalues --   -2.19497  -2.19276  -2.18991  -2.18891  -1.14025
  Beta  occ. eigenvalues --   -1.14005  -1.13990  -1.13943  -1.13906  -1.13889
  Beta  occ. eigenvalues --   -1.13716  -1.13701  -1.13677  -1.13183  -1.13152
  Beta  occ. eigenvalues --   -1.13130  -1.12994  -1.12938  -1.12913  -1.12726
  Beta  occ. eigenvalues --   -1.12671  -1.12660  -1.12569  -1.12540  -1.12529
  Beta  occ. eigenvalues --   -0.17498  -0.13203  -0.11775
  Beta virt. eigenvalues --   -0.06400  -0.05946  -0.05780  -0.04530  -0.02475
  Beta virt. eigenvalues --   -0.01868  -0.01786  -0.01457  -0.01181  -0.00845
  Beta virt. eigenvalues --   -0.00530   0.00140   0.00342   0.00742   0.00756

 Mulliken charges and spin densities:
               1          2
     1  Na  -0.033106  -0.008357
     2  Na   0.189868  -0.043362
     3  Na  -0.326856   0.246449
     4  Na   0.273232   0.012670
     5  Na  -0.006766   0.046076
     6  Na   0.306207   0.009049
     7  Na  -0.402579   0.737475
 Sum of Mulliken charges =  -0.00000   1.00000

 Dipole moment (field-independent basis, Debye):
    X=              0.1327    Y=             -0.1368    Z=              0.0861  Tot=              0.2091
 Quadrupole moment (field-independent basis, Debye-Ang):
   XX=            -52.7060   YY=            -62.7020   ZZ=            -77.1725
   XY=              0.6276   XZ=             -0.9592   YZ=             -0.1328

 Normal termination of Gaussian 16 at Thu Dec  7 05:56:23 2023.
