 Gaussian 16, Revision B.01,
 Gaussian 16:  ES64L-G16RevB.01 20-Dec-2017

 -------------------------
 #P B3LYP/6-311+g(d) force
 -------------------------

 -----
 DPGEN
 -----
 Symbolic Z-matrix:
 Charge =  0 Multiplicity = 2

                         Standard orientation:
 ---------------------------------------------------------------------
 Center     Atomic      Atomic             Coordinates (Angstroms)
 Number     Number       Type             X           Y           Z
 ---------------------------------------------------------------------
      1         11           0       -0.260807    0.288900   -1.751743
      2         11           0        2.653475    1.935152    0.112121
      3         11           0        2.971348   -1.240978   -0.347013
      4         11           0       -0.539145   -2.693385    0.050625
      5         11           0       -1.694164    2.638462    0.240900
      6         11           0       -0.073930   -0.399431    1.975867
      7         11           0       -3.056777   -0.528721   -0.280757
 ---------------------------------------------------------------------

 SCF Done:  E(UB3LYP) =  -1136.13343204     A.U. after   20 cycles

 The electronic state is 2-A.
 Alpha  occ. eigenvalues --  -38.44261 -38.44176 -38.44176 -38.43571 -38.43541
 Alpha  occ. eigenvalues --  -38.43494 -38.42860  -2.20136  -2.19994  -2.19971
 Alpha  occ. eigenvalues --   -2.19482  -2.19465  -2.19309  -2.18769  -1.13830
 Alpha  occ. eigenvalues --   -1.13792  -1.13767  -1.13718  -1.13665  -1.13640
 Alpha  occ. eigenvalues --   -1.13634  -1.13612  -1.13580  -1.13188  -1.13152
 Alpha  occ. eigenvalues --   -1.13112  -1.13107  -1.13092  -1.13088  -1.12973
 Alpha  occ. eigenvalues --   -1.12966  -1.12951  -1.12464  -1.12421  -1.12391
 Alpha  occ. eigenvalues --   -0.18502  -0.13359  -0.12077  -0.10698
 Alpha virt. eigenvalues --   -0.05897  -0.05497  -0.04378  -0.03346  -0.02847
 Alpha virt. eigenvalues --   -0.02484  -0.01719  -0.01141  -0.00563  -0.00321
 Alpha virt. eigenvalues --   -0.00018   0.00349   0.00747   0.00827   0.00885

  Beta  occ. eigenvalues --  -38.44251 -38.44177 -38.44171 -38.43489 -38.43481
  Beta  occ. eigenvalues --  -38.43477 -38.42852  -2.20121  -2.19987  -2.19974
  Beta  occ. eigenvalues --   -2.19349  -2.19316  -2.19302  -2.18758  -1.13812
  Beta  occ. eigenvalues --   -1.13763  -1.13759  -1.13719  -1.13647  -1.13633
  Beta  occ. eigenvalues --   -1.13625  -1.13614  -1.13580  -1.13089  -1.13065
  Beta  occ. eigenvalues --   -1.13032  -1.13005  -1.12994  -1.12973  -1.12957
  Beta  occ. eigenvalues --   -1.12951  -1.12938  -1.12452  -1.12389  -1.12380
  Beta  occ. eigenvalues --   -0.17767  -0.13154  -0.11847
  Beta virt. eigenvalues --   -0.06809  -0.05819  -0.05476  -0.04319  -0.02615
  Beta virt. eigenvalues --   -0.02087  -0.01635  -0.01462  -0.01053  -0.00601
  Beta virt. eigenvalues --   -0.00348   0.00126   0.00381   0.00822   0.00825

 Mulliken charges and spin densities:
               1          2
     1  Na  -0.112863   0.495846
     2  Na  -0.076507  -0.096698
     3  Na   0.044264  -0.038501
     4  Na   0.285133  -0.029494
     5  Na  -0.156218  -0.090625
     6  Na  -0.368888   0.741507
     7  Na   0.385078   0.017965
 Sum of Mulliken charges =  -0.00000   1.00000

 Dipole moment (field-independent basis, Debye):
    X=              0.1258    Y=              0.1503    Z=             -0.0181  Tot=              0.1969
 Quadrupole moment (field-independent basis, Debye-Ang):
   XX=            -55.1135   YY=            -64.4868   ZZ=            -74.4626
   XY=              0.1451   XZ=             -0.2733   YZ=              2.1605

 Normal termination of Gaussian 16 at Thu Dec  7 17:42:56 2023.
