 Gaussian 16, Revision B.01,
 Gaussian 16:  ES64L-G16RevB.01 20-Dec-2017

 -------------------------
 #P B3LYP/6-311+g(d) force
 -------------------------

 -----
 DPGEN
 -----
 Symbolic Z-matrix:
 Charge =  0 Multiplicity = 2

                         Standard orientation:
 ---------------------------------------------------------------------
 Center     Atomic      Atomic             Coordinates (Angstroms)
 Number     Number       Type             X           Y           Z
 ---------------------------------------------------------------------
      1         11           0       -2.072192    1.928512   -0.184452
      2         11           0        0.335834   -0.108537    2.485072
      3         11           0       -0.355565    0.152028   -1.630521
      4         11           0       -2.969288   -1.023749    0.032809
      5         11           0        3.006779   -0.729295   -0.569773
      6         11           0        1.767441    2.230819    0.035301
      7         11           0        0.286991   -2.449778   -0.168436
 ---------------------------------------------------------------------

 SCF Done:  E(UB3LYP) =  -1136.12866050     A.U. after   20 cycles

 The electronic state is 2-A.
 Alpha  occ. eigenvalues --  -38.44558 -38.44142 -38.44101 -38.43658 -38.43569
 Alpha  occ. eigenvalues --  -38.43159 -38.42633  -2.20392  -2.20003  -2.19975
 Alpha  occ. eigenvalues --   -2.19713  -2.19485  -2.19014  -2.18554  -1.14033
 Alpha  occ. eigenvalues --   -1.14017  -1.14011  -1.13693  -1.13671  -1.13663
 Alpha  occ. eigenvalues --   -1.13653  -1.13639  -1.13609  -1.13531  -1.13394
 Alpha  occ. eigenvalues --   -1.13306  -1.13121  -1.13110  -1.13077  -1.12693
 Alpha  occ. eigenvalues --   -1.12677  -1.12651  -1.12268  -1.12207  -1.12170
 Alpha  occ. eigenvalues --   -0.18939  -0.13507  -0.11924  -0.11508
 Alpha virt. eigenvalues --   -0.05815  -0.05040  -0.03828  -0.03678  -0.03277
 Alpha virt. eigenvalues --   -0.02868  -0.01659  -0.00839  -0.00160   0.00002
 Alpha virt. eigenvalues --    0.00081   0.00348   0.00736   0.00925   0.00942

  Beta  occ. eigenvalues --  -38.44440 -38.44131 -38.44100 -38.43606 -38.43565
  Beta  occ. eigenvalues --  -38.43155 -38.42624  -2.20175  -2.19987  -2.19975
  Beta  occ. eigenvalues --   -2.19620  -2.19480  -2.19010  -2.18543  -1.13889
  Beta  occ. eigenvalues --   -1.13867  -1.13856  -1.13692  -1.13657  -1.13655
  Beta  occ. eigenvalues --   -1.13631  -1.13629  -1.13602  -1.13479  -1.13334
  Beta  occ. eigenvalues --   -1.13242  -1.13110  -1.13079  -1.13071  -1.12691
  Beta  occ. eigenvalues --   -1.12653  -1.12651  -1.12258  -1.12178  -1.12159
  Beta  occ. eigenvalues --   -0.18216  -0.13291  -0.11701
  Beta virt. eigenvalues --   -0.07435  -0.05735  -0.05048  -0.03804  -0.02866
  Beta virt. eigenvalues --   -0.02191  -0.02035  -0.01556  -0.00787  -0.00078
  Beta virt. eigenvalues --    0.00040   0.00087   0.00384   0.00847   0.00931

 Mulliken charges and spin densities:
               1          2
     1  Na   0.409866   0.091066
     2  Na  -0.818393   0.659414
     3  Na  -0.418741  -0.000880
     4  Na   0.183428   0.057664
     5  Na   0.213068  -0.011580
     6  Na   0.171258   0.079496
     7  Na   0.259513   0.124820
 Sum of Mulliken charges =  -0.00000   1.00000

 Dipole moment (field-independent basis, Debye):
    X=             -0.0529    Y=             -0.0491    Z=              0.4264  Tot=              0.4325
 Quadrupole moment (field-independent basis, Debye-Ang):
   XX=            -55.2869   YY=            -70.1884   ZZ=            -70.1236
   XY=              0.4726   XZ=             -1.6825   YZ=              0.5180

 Normal termination of Gaussian 16 at Thu Dec  7 02:05:41 2023.
