 Gaussian 16, Revision B.01,
 Gaussian 16:  ES64L-G16RevB.01 20-Dec-2017

 -------------------------
 #P B3LYP/6-311+g(d) force
 -------------------------

 -----
 DPGEN
 -----
 Symbolic Z-matrix:
 Charge =  0 Multiplicity = 2

                         Standard orientation:
 ---------------------------------------------------------------------
 Center     Atomic      Atomic             Coordinates (Angstroms)
 Number     Number       Type             X           Y           Z
 ---------------------------------------------------------------------
      1         11           0        0.468799    3.055504    0.106577
      2         11           0       -1.812616   -2.940659    0.637425
      3         11           0       -1.191185    0.945336    1.877263
      4         11           0       -3.167938    0.465595   -1.201299
      5         11           0       -0.146373   -0.217392   -1.702468
      6         11           0        4.305167   -0.787079   -0.416312
      7         11           0        1.544146   -0.521305    0.698813
 ---------------------------------------------------------------------

 SCF Done:  E(UB3LYP) =  -1136.11484131     A.U. after   22 cycles

 The electronic state is 2-A.
 Alpha  occ. eigenvalues --  -38.44844 -38.44644 -38.44468 -38.44104 -38.43681
 Alpha  occ. eigenvalues --  -38.43479 -38.43147  -2.20669  -2.20556  -2.20262
 Alpha  occ. eigenvalues --   -2.19864  -2.19581  -2.19293  -2.19119  -1.14403
 Alpha  occ. eigenvalues --   -1.14316  -1.14298  -1.14268  -1.14162  -1.14142
 Alpha  occ. eigenvalues --   -1.13970  -1.13904  -1.13897  -1.13532  -1.13523
 Alpha  occ. eigenvalues --   -1.13488  -1.13288  -1.13228  -1.13192  -1.12961
 Alpha  occ. eigenvalues --   -1.12943  -1.12934  -1.12861  -1.12765  -1.12700
 Alpha  occ. eigenvalues --   -0.18186  -0.12950  -0.11679  -0.11198
 Alpha virt. eigenvalues --   -0.06770  -0.05396  -0.03687  -0.03070  -0.02858
 Alpha virt. eigenvalues --   -0.02548  -0.02429  -0.01465  -0.00808  -0.00286
 Alpha virt. eigenvalues --    0.00068   0.00173   0.00317   0.00678   0.00784

  Beta  occ. eigenvalues --  -38.44793 -38.44593 -38.44469 -38.44074 -38.43626
  Beta  occ. eigenvalues --  -38.43484 -38.43128  -2.20577  -2.20465  -2.20265
  Beta  occ. eigenvalues --   -2.19810  -2.19481  -2.19305  -2.19089  -1.14323
  Beta  occ. eigenvalues --   -1.14251  -1.14222  -1.14206  -1.14096  -1.14083
  Beta  occ. eigenvalues --   -1.13973  -1.13906  -1.13896  -1.13494  -1.13474
  Beta  occ. eigenvalues --   -1.13456  -1.13214  -1.13158  -1.13124  -1.12961
  Beta  occ. eigenvalues --   -1.12945  -1.12938  -1.12846  -1.12710  -1.12681
  Beta  occ. eigenvalues --   -0.17465  -0.12711  -0.11473
  Beta virt. eigenvalues --   -0.07326  -0.06570  -0.05186  -0.03339  -0.02919
  Beta virt. eigenvalues --   -0.02302  -0.02242  -0.01652  -0.01270  -0.00515
  Beta virt. eigenvalues --   -0.00243   0.00113   0.00241   0.00391   0.00713

 Mulliken charges and spin densities:
               1          2
     1  Na  -0.056912  -0.022004
     2  Na  -0.189710   0.112621
     3  Na   0.397902   0.170624
     4  Na   0.102129   0.064906
     5  Na  -0.013287   0.412506
     6  Na   0.131106   0.000225
     7  Na  -0.371228   0.261121
 Sum of Mulliken charges =  -0.00000   1.00000

 Dipole moment (field-independent basis, Debye):
    X=             -0.3149    Y=              0.3437    Z=             -0.2399  Tot=              0.5243
 Quadrupole moment (field-independent basis, Debye-Ang):
   XX=            -53.8716   YY=            -66.9886   ZZ=            -71.2813
   XY=              0.4818   XZ=             -2.7527   YZ=             -2.6604

 Normal termination of Gaussian 16 at Tue Dec  5 09:50:37 2023.
