 Gaussian 16, Revision B.01,
 Gaussian 16:  ES64L-G16RevB.01 20-Dec-2017

 -------------------------
 #P B3LYP/6-311+g(d) force
 -------------------------

 -----
 DPGEN
 -----
 Symbolic Z-matrix:
 Charge =  0 Multiplicity = 2

                         Standard orientation:
 ---------------------------------------------------------------------
 Center     Atomic      Atomic             Coordinates (Angstroms)
 Number     Number       Type             X           Y           Z
 ---------------------------------------------------------------------
      1         11           0       -3.630393    0.581225    1.156169
      2         11           0        0.102390   -0.474623    1.884899
      3         11           0        0.952733   -1.365360   -1.889547
      4         11           0       -2.244154   -1.672167   -0.762875
      5         11           0       -1.096508    1.782674   -1.039611
      6         11           0        2.314738    1.922695   -0.472916
      7         11           0        3.601194   -0.774444    1.123882
 ---------------------------------------------------------------------

 SCF Done:  E(UB3LYP) =  -1136.12475908     A.U. after   26 cycles

 The electronic state is 2-A.
 Alpha  occ. eigenvalues --  -38.44429 -38.44400 -38.44381 -38.44166 -38.43768
 Alpha  occ. eigenvalues --  -38.43568 -38.43540  -2.20267  -2.20261  -2.20183
 Alpha  occ. eigenvalues --   -2.19994  -2.19575  -2.19430  -2.19373  -1.13955
 Alpha  occ. eigenvalues --   -1.13951  -1.13917  -1.13910  -1.13899  -1.13886
 Alpha  occ. eigenvalues --   -1.13885  -1.13875  -1.13771  -1.13663  -1.13648
 Alpha  occ. eigenvalues --   -1.13615  -1.13248  -1.13232  -1.13210  -1.13127
 Alpha  occ. eigenvalues --   -1.13073  -1.13061  -1.13045  -1.13009  -1.12997
 Alpha  occ. eigenvalues --   -0.18121  -0.14011  -0.11778  -0.10847
 Alpha virt. eigenvalues --   -0.06639  -0.05448  -0.04741  -0.03384  -0.02775
 Alpha virt. eigenvalues --   -0.02438  -0.02289  -0.01118  -0.00961  -0.00334
 Alpha virt. eigenvalues --    0.00145   0.00210   0.00333   0.00452   0.00687

  Beta  occ. eigenvalues --  -38.44396 -38.44386 -38.44337 -38.44151 -38.43763
  Beta  occ. eigenvalues --  -38.43521 -38.43497  -2.20189  -2.20183  -2.20176
  Beta  occ. eigenvalues --   -2.19965  -2.19567  -2.19345  -2.19296  -1.13895
  Beta  occ. eigenvalues --   -1.13893  -1.13878  -1.13867  -1.13864  -1.13861
  Beta  occ. eigenvalues --   -1.13826  -1.13826  -1.13770  -1.13635  -1.13626
  Beta  occ. eigenvalues --   -1.13597  -1.13236  -1.13228  -1.13205  -1.13069
  Beta  occ. eigenvalues --   -1.13009  -1.12998  -1.12981  -1.12954  -1.12939
  Beta  occ. eigenvalues --   -0.17439  -0.13826  -0.10568
  Beta virt. eigenvalues --   -0.07851  -0.06496  -0.04795  -0.04643  -0.02920
  Beta virt. eigenvalues --   -0.02428  -0.02168  -0.01790  -0.00844  -0.00592
  Beta virt. eigenvalues --   -0.00165   0.00174   0.00292   0.00410   0.00587

 Mulliken charges and spin densities:
               1          2
     1  Na   0.893274   0.084849
     2  Na  -0.896934   0.190356
     3  Na  -0.285837   0.251814
     4  Na   0.250074   0.065840
     5  Na  -0.523466   0.369561
     6  Na   0.121358   0.042157
     7  Na   0.441530  -0.004576
 Sum of Mulliken charges =  -0.00000   1.00000

 Dipole moment (field-independent basis, Debye):
    X=             -0.2237    Y=              0.0477    Z=             -0.2493  Tot=              0.3384
 Quadrupole moment (field-independent basis, Debye-Ang):
   XX=            -52.0861   YY=            -66.5199   ZZ=            -78.5333
   XY=             -0.1503   XZ=             -2.2386   YZ=              2.6518

 Normal termination of Gaussian 16 at Fri Dec  8 00:20:48 2023.
