 Gaussian 16, Revision B.01,
 Gaussian 16:  ES64L-G16RevB.01 20-Dec-2017

 -------------------------
 #P B3LYP/6-311+g(d) force
 -------------------------

 -----
 DPGEN
 -----
 Symbolic Z-matrix:
 Charge =  0 Multiplicity = 2

                         Standard orientation:
 ---------------------------------------------------------------------
 Center     Atomic      Atomic             Coordinates (Angstroms)
 Number     Number       Type             X           Y           Z
 ---------------------------------------------------------------------
      1         11           0        2.016803    2.207390   -0.330498
      2         11           0       -0.281885   -0.044019   -1.614034
      3         11           0       -3.486276   -0.886117    0.177789
      4         11           0       -0.161255   -2.551650   -0.069938
      5         11           0       -1.738338    2.468560    0.069378
      6         11           0        0.766251    0.108098    1.962482
      7         11           0        2.884699   -1.302262   -0.195178
 ---------------------------------------------------------------------

 SCF Done:  E(UB3LYP) =  -1136.13308781     A.U. after   20 cycles

 The electronic state is 2-A.
 Alpha  occ. eigenvalues --  -38.44600 -38.44057 -38.43844 -38.43584 -38.43413
 Alpha  occ. eigenvalues --  -38.43203 -38.43132  -2.20364  -2.19924  -2.19649
 Alpha  occ. eigenvalues --   -2.19433  -2.19330  -2.19191  -2.19051  -1.14040
 Alpha  occ. eigenvalues --   -1.14019  -1.14003  -1.13601  -1.13582  -1.13573
 Alpha  occ. eigenvalues --   -1.13344  -1.13320  -1.13269  -1.13124  -1.13109
 Alpha  occ. eigenvalues --   -1.13059  -1.13018  -1.12986  -1.12956  -1.12941
 Alpha  occ. eigenvalues --   -1.12844  -1.12783  -1.12704  -1.12684  -1.12640
 Alpha  occ. eigenvalues --   -0.18639  -0.13104  -0.12340  -0.10493
 Alpha virt. eigenvalues --   -0.06076  -0.05460  -0.04314  -0.03166  -0.02775
 Alpha virt. eigenvalues --   -0.02294  -0.01871  -0.01256  -0.00474  -0.00209
 Alpha virt. eigenvalues --   -0.00037   0.00307   0.00730   0.00818   0.00885

  Beta  occ. eigenvalues --  -38.44601 -38.44051 -38.43843 -38.43574 -38.43327
  Beta  occ. eigenvalues --  -38.43136 -38.43121  -2.20367  -2.19916  -2.19648
  Beta  occ. eigenvalues --   -2.19419  -2.19171  -2.19072  -2.19033  -1.14033
  Beta  occ. eigenvalues --   -1.14023  -1.14005  -1.13595  -1.13573  -1.13546
  Beta  occ. eigenvalues --   -1.13338  -1.13307  -1.13271  -1.13111  -1.13069
  Beta  occ. eigenvalues --   -1.13053  -1.12952  -1.12888  -1.12848  -1.12828
  Beta  occ. eigenvalues --   -1.12760  -1.12696  -1.12676  -1.12635  -1.12623
  Beta  occ. eigenvalues --   -0.17905  -0.12919  -0.12082
  Beta virt. eigenvalues --   -0.06609  -0.05965  -0.05453  -0.04295  -0.02478
  Beta virt. eigenvalues --   -0.01992  -0.01775  -0.01274  -0.01200  -0.00514
  Beta virt. eigenvalues --   -0.00236   0.00130   0.00344   0.00793   0.00816

 Mulliken charges and spin densities:
               1          2
     1  Na   0.094857  -0.100562
     2  Na  -0.044849   0.530125
     3  Na  -0.083268  -0.039221
     4  Na   0.142082  -0.072207
     5  Na  -0.072031  -0.131726
     6  Na  -0.484722   0.790663
     7  Na   0.447930   0.022927
 Sum of Mulliken charges =  -0.00000   1.00000

 Dipole moment (field-independent basis, Debye):
    X=             -0.2362    Y=              0.1070    Z=              0.1184  Tot=              0.2851
 Quadrupole moment (field-independent basis, Debye-Ang):
   XX=            -51.5901   YY=            -65.0764   ZZ=            -75.4054
   XY=             -0.1560   XZ=             -2.5109   YZ=             -0.3211

 Normal termination of Gaussian 16 at Fri Dec  8 00:55:13 2023.
