 Gaussian 16, Revision B.01,
 Gaussian 16:  ES64L-G16RevB.01 20-Dec-2017

 -------------------------
 #P B3LYP/6-311+g(d) force
 -------------------------

 -----
 DPGEN
 -----
 Symbolic Z-matrix:
 Charge =  0 Multiplicity = 2

                         Standard orientation:
 ---------------------------------------------------------------------
 Center     Atomic      Atomic             Coordinates (Angstroms)
 Number     Number       Type             X           Y           Z
 ---------------------------------------------------------------------
      1         11           0        2.532854    2.062598   -0.136526
      2         11           0       -0.383701   -0.216077    2.067182
      3         11           0        0.437822    0.058331   -1.491596
      4         11           0       -1.007824    2.842116   -0.175375
      5         11           0       -3.486541   -0.176875    0.077738
      6         11           0        2.557866   -1.888132    0.518721
      7         11           0       -0.650477   -2.681962   -0.860144
 ---------------------------------------------------------------------

 SCF Done:  E(UB3LYP) =  -1136.13359688     A.U. after   19 cycles

 The electronic state is 2-A.
 Alpha  occ. eigenvalues --  -38.44214 -38.43893 -38.43883 -38.43842 -38.43833
 Alpha  occ. eigenvalues --  -38.43514 -38.43083  -2.19978  -2.19708  -2.19698
 Alpha  occ. eigenvalues --   -2.19683  -2.19650  -2.19385  -2.19083  -1.13656
 Alpha  occ. eigenvalues --   -1.13633  -1.13623  -1.13404  -1.13379  -1.13370
 Alpha  occ. eigenvalues --   -1.13359  -1.13354  -1.13349  -1.13345  -1.13331
 Alpha  occ. eigenvalues --   -1.13322  -1.13312  -1.13286  -1.13257  -1.13155
 Alpha  occ. eigenvalues --   -1.13020  -1.12983  -1.12753  -1.12720  -1.12694
 Alpha  occ. eigenvalues --   -0.18194  -0.12590  -0.12556  -0.10679
 Alpha virt. eigenvalues --   -0.05745  -0.05338  -0.04722  -0.03112  -0.02932
 Alpha virt. eigenvalues --   -0.02498  -0.01672  -0.01302  -0.00491  -0.00455
 Alpha virt. eigenvalues --   -0.00008   0.00321   0.00760   0.00801   0.00847

  Beta  occ. eigenvalues --  -38.44217 -38.43882 -38.43880 -38.43839 -38.43747
  Beta  occ. eigenvalues --  -38.43483 -38.43028  -2.19985  -2.19698  -2.19686
  Beta  occ. eigenvalues --   -2.19647  -2.19522  -2.19330  -2.18984  -1.13652
  Beta  occ. eigenvalues --   -1.13633  -1.13628  -1.13398  -1.13358  -1.13354
  Beta  occ. eigenvalues --   -1.13347  -1.13337  -1.13332  -1.13323  -1.13311
  Beta  occ. eigenvalues --   -1.13256  -1.13247  -1.13211  -1.13167  -1.13104
  Beta  occ. eigenvalues --   -1.12969  -1.12949  -1.12682  -1.12642  -1.12627
  Beta  occ. eigenvalues --   -0.17500  -0.12386  -0.12313
  Beta virt. eigenvalues --   -0.06794  -0.05703  -0.05260  -0.04640  -0.02404
  Beta virt. eigenvalues --   -0.02266  -0.01612  -0.01458  -0.01208  -0.00502
  Beta virt. eigenvalues --   -0.00417   0.00120   0.00361   0.00797   0.00827

 Mulliken charges and spin densities:
               1          2
     1  Na   0.071163  -0.029356
     2  Na  -0.381404   0.753536
     3  Na   0.163662   0.271006
     4  Na  -0.050636  -0.091273
     5  Na  -0.020552  -0.065682
     6  Na   0.030147   0.121627
     7  Na   0.187620   0.040142
 Sum of Mulliken charges =  -0.00000   1.00000

 Dipole moment (field-independent basis, Debye):
    X=             -0.0193    Y=              0.1401    Z=              0.2794  Tot=              0.3131
 Quadrupole moment (field-independent basis, Debye-Ang):
   XX=            -55.3305   YY=            -62.2137   ZZ=            -74.9837
   XY=             -0.3281   XZ=              2.0080   YZ=              0.3946

 Normal termination of Gaussian 16 at Thu Dec  7 02:34:40 2023.
