 Gaussian 16, Revision B.01,
 Gaussian 16:  ES64L-G16RevB.01 20-Dec-2017

 -------------------------
 #P B3LYP/6-311+g(d) force
 -------------------------

 -----
 DPGEN
 -----
 Symbolic Z-matrix:
 Charge =  0 Multiplicity = 2

                         Standard orientation:
 ---------------------------------------------------------------------
 Center     Atomic      Atomic             Coordinates (Angstroms)
 Number     Number       Type             X           Y           Z
 ---------------------------------------------------------------------
      1         11           0       -2.468755    1.235216    0.817308
      2         11           0       -0.078572    4.077919   -0.359860
      3         11           0       -4.210728   -1.442132   -0.349790
      4         11           0       -0.812144   -2.486510   -0.020539
      5         11           0        2.449874   -2.421671   -0.040027
      6         11           0        0.813428    0.932084   -0.229225
      7         11           0        4.306896    0.105094    0.182133
 ---------------------------------------------------------------------

 SCF Done:  E(UB3LYP) =  -1136.12780956     A.U. after   20 cycles

 The electronic state is 2-A.
 Alpha  occ. eigenvalues --  -38.44733 -38.44216 -38.43875 -38.43762 -38.43695
 Alpha  occ. eigenvalues --  -38.43602 -38.43498  -2.20540  -2.20005  -2.19743
 Alpha  occ. eigenvalues --   -2.19639  -2.19512  -2.19459  -2.19355  -1.14252
 Alpha  occ. eigenvalues --   -1.14233  -1.14125  -1.13687  -1.13668  -1.13632
 Alpha  occ. eigenvalues --   -1.13461  -1.13443  -1.13352  -1.13331  -1.13307
 Alpha  occ. eigenvalues --   -1.13289  -1.13171  -1.13166  -1.13137  -1.13093
 Alpha  occ. eigenvalues --   -1.13090  -1.13063  -1.13029  -1.13024  -1.12956
 Alpha  occ. eigenvalues --   -0.17035  -0.13995  -0.12927  -0.10407
 Alpha virt. eigenvalues --   -0.06115  -0.05765  -0.04318  -0.03547  -0.02556
 Alpha virt. eigenvalues --   -0.02267  -0.01944  -0.01821  -0.01141  -0.00534
 Alpha virt. eigenvalues --   -0.00090   0.00038   0.00517   0.00567   0.00676

  Beta  occ. eigenvalues --  -38.44721 -38.44215 -38.43871 -38.43741 -38.43651
  Beta  occ. eigenvalues --  -38.43518 -38.43445  -2.20520  -2.20004  -2.19737
  Beta  occ. eigenvalues --   -2.19611  -2.19431  -2.19302  -2.19261  -1.14235
  Beta  occ. eigenvalues --   -1.14222  -1.14096  -1.13686  -1.13668  -1.13631
  Beta  occ. eigenvalues --   -1.13457  -1.13426  -1.13331  -1.13297  -1.13283
  Beta  occ. eigenvalues --   -1.13253  -1.13112  -1.13105  -1.13088  -1.12986
  Beta  occ. eigenvalues --   -1.12982  -1.12970  -1.12968  -1.12962  -1.12869
  Beta  occ. eigenvalues --   -0.16583  -0.13303  -0.12546
  Beta virt. eigenvalues --   -0.06862  -0.06017  -0.05606  -0.04074  -0.02928
  Beta virt. eigenvalues --   -0.02264  -0.02121  -0.01812  -0.01279  -0.01095
  Beta virt. eigenvalues --   -0.00237   0.00123   0.00371   0.00573   0.00670

 Mulliken charges and spin densities:
               1          2
     1  Na  -0.096614   0.163893
     2  Na   1.009560  -0.031716
     3  Na   0.806379   0.416022
     4  Na  -0.299726   0.131719
     5  Na   0.952186  -0.083262
     6  Na  -2.764152  -0.031782
     7  Na   0.392367   0.435127
 Sum of Mulliken charges =  -0.00000   1.00000

 Dipole moment (field-independent basis, Debye):
    X=             -0.4135    Y=              0.8380    Z=             -0.0683  Tot=              0.9370
 Quadrupole moment (field-independent basis, Debye-Ang):
   XX=            -67.9616   YY=            -57.3344   ZZ=            -71.0920
   XY=             -0.2633   XZ=              0.3853   YZ=              0.4306

 Normal termination of Gaussian 16 at Wed Nov 29 16:21:40 2023.
