 Gaussian 16, Revision B.01,
 Gaussian 16:  ES64L-G16RevB.01 20-Dec-2017

 -------------------------
 #P B3LYP/6-311+g(d) force
 -------------------------

 -----
 DPGEN
 -----
 Symbolic Z-matrix:
 Charge =  0 Multiplicity = 2

                         Standard orientation:
 ---------------------------------------------------------------------
 Center     Atomic      Atomic             Coordinates (Angstroms)
 Number     Number       Type             X           Y           Z
 ---------------------------------------------------------------------
      1         11           0        3.713547    0.099994   -0.936073
      2         11           0        0.301954    0.197855   -1.634011
      3         11           0        1.735996   -1.796514    1.059489
      4         11           0       -2.442631   -1.465347   -1.178234
      5         11           0       -1.311137   -0.851742    1.802553
      6         11           0       -3.267266    1.510454   -0.108120
      7         11           0        1.269538    2.305301    0.994397
 ---------------------------------------------------------------------

 SCF Done:  E(UB3LYP) =  -1136.12030778     A.U. after   27 cycles

 The electronic state is 2-A.
 Alpha  occ. eigenvalues --  -38.45011 -38.44657 -38.44399 -38.44287 -38.44236
 Alpha  occ. eigenvalues --  -38.43025 -38.42780  -2.20822  -2.20448  -2.20297
 Alpha  occ. eigenvalues --   -2.20124  -2.20078  -2.18924  -2.18634  -1.14496
 Alpha  occ. eigenvalues --   -1.14481  -1.14443  -1.14134  -1.14126  -1.14094
 Alpha  occ. eigenvalues --   -1.14006  -1.13943  -1.13889  -1.13826  -1.13776
 Alpha  occ. eigenvalues --   -1.13745  -1.13737  -1.13728  -1.13689  -1.12607
 Alpha  occ. eigenvalues --   -1.12585  -1.12549  -1.12311  -1.12298  -1.12266
 Alpha  occ. eigenvalues --   -0.18261  -0.14162  -0.11278  -0.10753
 Alpha virt. eigenvalues --   -0.06956  -0.05297  -0.04812  -0.03156  -0.02671
 Alpha virt. eigenvalues --   -0.02631  -0.02250  -0.01039  -0.00859  -0.00373
 Alpha virt. eigenvalues --    0.00079   0.00228   0.00296   0.00535   0.00743

  Beta  occ. eigenvalues --  -38.44998 -38.44669 -38.44361 -38.44232 -38.44191
  Beta  occ. eigenvalues --  -38.42987 -38.42770  -2.20799  -2.20473  -2.20226
  Beta  occ. eigenvalues --   -2.20046  -2.19978  -2.18854  -2.18619  -1.14474
  Beta  occ. eigenvalues --   -1.14462  -1.14429  -1.14149  -1.14128  -1.14109
  Beta  occ. eigenvalues --   -1.13947  -1.13894  -1.13848  -1.13757  -1.13721
  Beta  occ. eigenvalues --   -1.13684  -1.13671  -1.13654  -1.13617  -1.12562
  Beta  occ. eigenvalues --   -1.12529  -1.12498  -1.12299  -1.12272  -1.12256
  Beta  occ. eigenvalues --   -0.17564  -0.13993  -0.10512
  Beta virt. eigenvalues --   -0.07521  -0.06658  -0.05148  -0.04273  -0.02860
  Beta virt. eigenvalues --   -0.02416  -0.02113  -0.01590  -0.00947  -0.00463
  Beta virt. eigenvalues --   -0.00218   0.00159   0.00260   0.00383   0.00627

 Mulliken charges and spin densities:
               1          2
     1  Na   0.678794  -0.006650
     2  Na  -0.455186   0.409049
     3  Na  -0.328030  -0.031188
     4  Na   0.579003  -0.064200
     5  Na  -0.160523   0.486608
     6  Na  -0.018938   0.001714
     7  Na  -0.295119   0.204668
 Sum of Mulliken charges =  -0.00000   1.00000

 Dipole moment (field-independent basis, Debye):
    X=              0.2052    Y=              0.2161    Z=             -0.3905  Tot=              0.4912
 Quadrupole moment (field-independent basis, Debye-Ang):
   XX=            -47.6379   YY=            -75.3549   ZZ=            -71.1870
   XY=             -0.5719   XZ=             -1.1676   YZ=              6.0732

 Normal termination of Gaussian 16 at Tue Dec  5 16:26:07 2023.
