 Gaussian 16, Revision B.01,
 Gaussian 16:  ES64L-G16RevB.01 20-Dec-2017

 -------------------------
 #P B3LYP/6-311+g(d) force
 -------------------------

 -----
 DPGEN
 -----
 Symbolic Z-matrix:
 Charge =  0 Multiplicity = 2

                         Standard orientation:
 ---------------------------------------------------------------------
 Center     Atomic      Atomic             Coordinates (Angstroms)
 Number     Number       Type             X           Y           Z
 ---------------------------------------------------------------------
      1         11           0        2.122194   -1.734404    0.726906
      2         11           0       -0.624337   -0.383960    1.750568
      3         11           0        3.552519    0.494624   -0.818464
      4         11           0        0.428552    2.090869    0.736938
      5         11           0       -2.989873    1.345260   -0.229668
      6         11           0       -2.604076   -1.845625   -0.626896
      7         11           0        0.115020    0.033237   -1.539384
 ---------------------------------------------------------------------

 SCF Done:  E(UB3LYP) =  -1136.12036851     A.U. after   25 cycles

 The electronic state is 2-A.
 Alpha  occ. eigenvalues --  -38.44853 -38.44612 -38.44246 -38.43739 -38.43584
 Alpha  occ. eigenvalues --  -38.43202 -38.42317  -2.20701  -2.20472  -2.20214
 Alpha  occ. eigenvalues --   -2.19634  -2.19625  -2.19068  -2.18275  -1.14390
 Alpha  occ. eigenvalues --   -1.14352  -1.14318  -1.14155  -1.14138  -1.14089
 Alpha  occ. eigenvalues --   -1.13952  -1.13860  -1.13820  -1.13385  -1.13331
 Alpha  occ. eigenvalues --   -1.13283  -1.13268  -1.13235  -1.13205  -1.12735
 Alpha  occ. eigenvalues --   -1.12733  -1.12708  -1.12010  -1.11943  -1.11835
 Alpha  occ. eigenvalues --   -0.19174  -0.14267  -0.11357  -0.11114
 Alpha virt. eigenvalues --   -0.06687  -0.05169  -0.04113  -0.03055  -0.02649
 Alpha virt. eigenvalues --   -0.02539  -0.02299  -0.01068  -0.00435  -0.00036
 Alpha virt. eigenvalues --    0.00173   0.00304   0.00571   0.00737   0.00785

  Beta  occ. eigenvalues --  -38.44825 -38.44601 -38.44209 -38.43714 -38.43490
  Beta  occ. eigenvalues --  -38.43198 -38.42300  -2.20649  -2.20453  -2.20148
  Beta  occ. eigenvalues --   -2.19594  -2.19458  -2.19062  -2.18250  -1.14358
  Beta  occ. eigenvalues --   -1.14307  -1.14283  -1.14139  -1.14122  -1.14073
  Beta  occ. eigenvalues --   -1.13901  -1.13814  -1.13767  -1.13306  -1.13251
  Beta  occ. eigenvalues --   -1.13243  -1.13229  -1.13118  -1.13087  -1.12734
  Beta  occ. eigenvalues --   -1.12724  -1.12692  -1.11990  -1.11892  -1.11825
  Beta  occ. eigenvalues --   -0.18460  -0.13945  -0.10879
  Beta virt. eigenvalues --   -0.07459  -0.06492  -0.05019  -0.03600  -0.02897
  Beta virt. eigenvalues --   -0.02369  -0.01827  -0.01512  -0.00944  -0.00259
  Beta virt. eigenvalues --    0.00040   0.00204   0.00327   0.00714   0.00796

 Mulliken charges and spin densities:
               1          2
     1  Na  -0.176841  -0.031140
     2  Na   0.398646   0.469003
     3  Na   0.414909   0.186968
     4  Na  -0.416394  -0.117455
     5  Na   0.293753   0.017548
     6  Na  -0.061774   0.011228
     7  Na  -0.452299   0.463848
 Sum of Mulliken charges =  -0.00000   1.00000

 Dipole moment (field-independent basis, Debye):
    X=              0.1478    Y=              0.3962    Z=             -0.3037  Tot=              0.5207
 Quadrupole moment (field-independent basis, Debye-Ang):
   XX=            -48.8027   YY=            -74.1000   ZZ=            -70.5741
   XY=             -0.9406   XZ=             -0.5388   YZ=             -1.8634

 Normal termination of Gaussian 16 at Tue Dec  5 15:55:36 2023.
