 Gaussian 16, Revision B.01,
 Gaussian 16:  ES64L-G16RevB.01 20-Dec-2017

 -------------------------
 #P B3LYP/6-311+g(d) force
 -------------------------

 -----
 DPGEN
 -----
 Symbolic Z-matrix:
 Charge =  0 Multiplicity = 2

                         Standard orientation:
 ---------------------------------------------------------------------
 Center     Atomic      Atomic             Coordinates (Angstroms)
 Number     Number       Type             X           Y           Z
 ---------------------------------------------------------------------
      1         11           0        3.245784    1.460968    0.702346
      2         11           0       -2.401925   -2.623933    0.566865
      3         11           0       -3.284861    0.380763   -0.014583
      4         11           0        3.430252   -1.693517   -0.567479
      5         11           0        0.183342   -0.879605   -1.239730
      6         11           0       -1.338624    2.911201   -0.741792
      7         11           0        0.166033    0.444123    1.294373
 ---------------------------------------------------------------------

 SCF Done:  E(UB3LYP) =  -1136.11839388     A.U. after   23 cycles

 The electronic state is 2-A.
 Alpha  occ. eigenvalues --  -38.44657 -38.44559 -38.44541 -38.44432 -38.44332
 Alpha  occ. eigenvalues --  -38.43087 -38.42807  -2.20537  -2.20489  -2.20356
 Alpha  occ. eigenvalues --   -2.20336  -2.20167  -2.18928  -2.18643  -1.14411
 Alpha  occ. eigenvalues --   -1.14224  -1.14197  -1.14177  -1.14109  -1.14082
 Alpha  occ. eigenvalues --   -1.14026  -1.14019  -1.14000  -1.13988  -1.13943
 Alpha  occ. eigenvalues --   -1.13892  -1.13822  -1.13810  -1.13782  -1.12606
 Alpha  occ. eigenvalues --   -1.12581  -1.12560  -1.12310  -1.12298  -1.12284
 Alpha  occ. eigenvalues --   -0.18097  -0.14217  -0.11883  -0.10104
 Alpha virt. eigenvalues --   -0.06990  -0.05483  -0.04332  -0.03323  -0.02811
 Alpha virt. eigenvalues --   -0.02572  -0.01848  -0.01262  -0.00770  -0.00439
 Alpha virt. eigenvalues --   -0.00164   0.00086   0.00527   0.00581   0.00626

  Beta  occ. eigenvalues --  -38.44648 -38.44530 -38.44508 -38.44393 -38.44282
  Beta  occ. eigenvalues --  -38.43073 -38.42793  -2.20524  -2.20436  -2.20296
  Beta  occ. eigenvalues --   -2.20266  -2.20076  -2.18903  -2.18617  -1.14364
  Beta  occ. eigenvalues --   -1.14214  -1.14192  -1.14148  -1.14069  -1.14043
  Beta  occ. eigenvalues --   -1.13983  -1.13971  -1.13950  -1.13941  -1.13898
  Beta  occ. eigenvalues --   -1.13836  -1.13751  -1.13748  -1.13722  -1.12588
  Beta  occ. eigenvalues --   -1.12558  -1.12546  -1.12294  -1.12273  -1.12267
  Beta  occ. eigenvalues --   -0.17675  -0.13779  -0.11473
  Beta virt. eigenvalues --   -0.06855  -0.06644  -0.05112  -0.04230  -0.02851
  Beta virt. eigenvalues --   -0.02636  -0.01928  -0.01605  -0.00879  -0.00679
  Beta virt. eigenvalues --   -0.00265   0.00037   0.00201   0.00630   0.00690

 Mulliken charges and spin densities:
               1          2
     1  Na   0.192788   0.198737
     2  Na  -0.017981   0.087265
     3  Na   0.639959   0.092497
     4  Na  -0.049664   0.156473
     5  Na  -0.225599   0.308064
     6  Na  -0.368951   0.113957
     7  Na  -0.170553   0.043007
 Sum of Mulliken charges =  -0.00000   1.00000

 Dipole moment (field-independent basis, Debye):
    X=              0.5205    Y=             -0.0694    Z=             -0.0951  Tot=              0.5336
 Quadrupole moment (field-independent basis, Debye-Ang):
   XX=            -51.7647   YY=            -69.1748   ZZ=            -74.3682
   XY=             -0.6710   XZ=             -0.5386   YZ=             -2.3238

 Normal termination of Gaussian 16 at Tue Dec  5 20:24:31 2023.
